LAMMPS data file via write_data, version 16 Mar 2018, timestep = 8000000

6328 atoms
2 atom types

0.0000000000000000e+00 4.9219999999999999e+01 xlo xhi
0.0000000000000000e+00 4.9019635930410494e+01 ylo yhi
2.0503229294704077e+00 5.8011677070523049e+01 zlo zhi

Masses

1 18.015
2 12.01

Atoms # atomic

3199 1 2.4567738688239014e+00 1.4629208938421914e+00 4.8701417587203402e+00 -4 0 1
3196 1 6.7380423453551437e+00 7.0292238577889856e+00 1.3242554293440795e+01 1 1 0
2059 1 6.9574415821110227e+00 2.5673955422951988e-01 4.8655848361183480e+00 0 2 1
4856 1 9.9129822863105925e+00 7.3832205685524457e+00 2.1725634116041861e+00 1 3 0
177 1 1.0298288525017650e+01 2.6738511189228058e+00 5.2981784306442918e+00 3 -3 1
3170 1 9.3678030670074346e+00 3.7206419350236680e-01 5.8965659316737664e+00 4 -2 1
3241 1 1.9932232247854988e+00 6.0566034096528574e+00 4.7847930721322989e+00 0 2 0
5295 1 6.0479683718692971e+00 4.3684276315656607e+00 4.7378999432146367e+00 4 1 1
6115 1 8.6225380816121291e+00 4.8429797214916812e+00 5.6332524942575013e+00 -4 1 0
3287 1 4.0700920289520069e-02 1.1666709608040529e+00 1.3116838817016923e+01 -1 2 0
1565 1 9.6847731312087024e+00 7.2397324448671920e+00 5.0755774094434223e+00 0 0 0
3464 1 6.0615331768732617e+00 1.1263161316942030e+01 1.3073946777204714e+01 4 3 0
275 1 1.5530982764963144e+00 1.0251991262684491e+01 4.8807959212768388e+00 -2 -1 0
28 1 1.1818202823164844e+01 7.5427209779040760e-01 1.3017345665198997e+01 3 0 1
6039 1 5.5138536826013764e+00 8.7888625937091458e+00 4.8811300253153718e+00 1 3 1
2112 1 7.3937083961576402e+00 2.3916063959899829e+00 1.2985723469516968e+01 0 0 0
6000 1 8.9799605810706602e+00 1.1650006302631438e+01 4.9956956886983823e+00 -5 -1 1
2864 1 2.8641403739783688e-01 7.5751083623747775e+00 8.6155065590461479e+00 -2 -4 1
4958 1 9.7012392126076552e-01 3.7415171981902220e+00 5.7602431225279975e+00 -1 0 1
2086 1 3.7937185783832411e-01 7.8273503189033216e+00 5.9802914292987044e+00 0 -1 0
2965 1 4.9468256480169881e+00 1.9115462991319452e+00 5.8874030498013026e+00 -1 -3 1
1779 1 5.4714890009830359e+00 1.6858811239866525e+00 8.4628829308223033e+00 2 -1 1
1395 1 1.1273457839907598e+01 8.3827880536830823e-01 1.5566906306091825e+01 1 -2 1
5114 1 1.2008605023134884e+01 8.0802313872724518e+00 8.8433982842598375e+00 0 -1 1
190 1 1.0921323737913418e+01 5.4784801963370144e+00 1.3429421751305934e+01 0 -5 0
49 1 4.6230021071061174e+00 6.4782354357834881e+00 5.7869832507279773e+00 0 -1 1
4620 1 4.3483629149032064e+00 6.1132555281965653e+00 8.5528606314050926e+00 7 -1 0
140 1 8.5633540478459835e+00 4.9674274288497795e+00 8.6695612151980050e+00 0 -1 0
3168 1 1.0344655725256944e+01 9.9558404732891876e+00 1.3301130259941441e+01 1 -1 1
4669 1 6.0064054009499177e+00 1.1101469036084358e+01 1.5918532253804170e+01 0 1 1
3308 1 3.9632292547932835e+00 1.0802962268229518e+01 5.7575473065322189e+00 1 -1 0
3341 1 3.8943423212582506e+00 1.0844297773894482e+01 8.5925425738913681e+00 2 0 0
3433 1 7.8857369942374769e+00 9.4176712819260278e+00 8.6230835620853910e+00 -5 2 1
3434 1 8.0976823569583072e+00 9.2935237103520851e+00 5.7955907295334024e+00 3 2 0
4938 1 7.6082119858790520e-01 3.1815220291073341e+00 8.4620868808139313e+00 1 1 0
3156 1 9.2680809547931435e+00 1.1441616158318975e+01 2.2161802273429494e+00 -1 -1 0
4622 1 2.8176367954030379e+00 1.6808067307610182e+00 9.3058422755691979e+00 1 1 1
5052 1 2.6582755169983825e+00 1.3592380893295706e+00 1.2260045079826053e+01 -4 -4 0
544 1 5.9006284173973054e+00 4.2673216680517179e+00 9.5092686187750211e+00 7 1 1
3452 1 1.0195103027383059e+01 3.0822487080063499e+00 9.6676907588075256e+00 1 -3 1
4596 1 1.0036844207547732e+01 3.1716703011830156e+00 1.2265602749823664e+01 -4 2 0
3137 1 1.9501684581947454e+00 5.4939792206844063e+00 9.5931867698153326e+00 0 4 0
2102 1 1.9800169030426609e+00 5.6766194480578136e+00 1.2105495438653664e+01 4 -2 1
266 1 5.9522685301798761e+00 4.7632916726710368e+00 1.2080695954436210e+01 -1 0 0
3621 1 9.1934665492858674e+00 7.4009359114247024e+00 1.2580341408973952e+01 0 0 0
1322 1 9.3948605155773777e+00 7.4382613125596393e+00 9.6640999390477464e+00 -2 2 1
3624 1 1.4355375042467886e+00 1.0108615074123486e+01 1.2252122845970323e+01 -4 0 1
3074 1 1.4711115288473848e+00 9.8776195774485416e+00 9.5228395625257694e+00 1 2 0
3349 1 5.2196107611290046e+00 8.8454141675224278e+00 1.2072980290957336e+01 4 -1 0
1888 1 5.3325883729823431e+00 8.9090662610468563e+00 9.3611080221269916e+00 -1 3 0
117 1 8.6163037491262671e+00 1.1682302609827028e+01 1.2004757756773584e+01 -1 -2 1
1465 1 9.0248050570365130e+00 1.1861558576262668e+01 9.2107644426150692e+00 0 -2 1
2044 1 2.9032936708572872e+00 8.1076192302748815e+00 1.3372841701545028e+01 3 0 1
4787 1 3.4370555386464328e+00 3.8260233442089429e+00 1.3023425058886479e+01 3 -1 1
3478 1 9.6607196872985490e+00 4.9489349133103644e-01 8.5467801200295757e+00 0 -2 0
302 1 3.5072605697628747e+00 4.0030206421165992e+00 1.5872312798638497e+01 0 -1 0
3024 1 7.2065316773472690e+00 2.1757953272912594e+00 1.5887838350188471e+01 -3 -1 0
1688 1 1.3489113028081314e+00 1.0225214404631743e+01 2.2170970613757319e+00 -4 -2 0
5304 1 1.0478320854603520e+01 2.8345357096592685e+00 2.2298364332968337e+00 7 -6 1
3279 1 6.2262549944635373e+00 4.1611123090795710e+00 2.1903481572688865e+00 -1 0 1
3270 1 1.2119342981365168e+01 7.8214414656074194e+00 6.1332814944927181e+00 5 1 1
5013 1 6.5678116986627337e+00 6.6250814509615434e+00 1.5954662366012755e+01 1 0 0
1353 1 6.8234668177181712e-01 3.3119993375740227e+00 1.7102561799168939e+01 1 2 1
1455 1 4.6084083716214659e+00 1.7949668543044826e+00 1.6877898098461792e+01 3 2 1
441 1 8.7768884672857990e+00 3.0123023925987280e-01 1.6953629730747764e+01 4 3 1
6206 1 2.8564011620896701e-01 7.6285711580839992e+00 1.9657038013719838e+01 7 0 1
3597 1 1.0204795203667782e+01 9.7957816940890545e+00 1.6170078883134156e+01 0 3 1
3289 1 4.0672136870693079e+00 6.2599540377141647e+00 1.7012618446453171e+01 -2 2 1
534 1 1.2123214834067337e+01 3.3323345994667428e+00 1.6837772761870703e+01 2 0 1
233 1 8.1992990166500217e+00 4.6698765768287078e+00 1.6774235285078241e+01 0 0 0
1922 1 1.1980165754216046e+01 7.9041496515824097e+00 1.6890670668302072e+01 1 -1 0
238 1 1.1096540038281423e+01 1.2009462004308272e+01 2.0042715279619447e+01 2 0 0
3095 1 3.5948795035806240e+00 1.0730607278187687e+01 1.6712192350351678e+01 -2 -3 0
3200 1 3.5787685250673733e+00 1.0575978463469855e+01 1.9458648451089573e+01 4 -2 0
1834 1 7.5863571156197764e+00 8.9933445740202451e+00 1.7002424136871248e+01 3 1 0
2934 1 1.1029510401574358e+01 1.2028278259298819e+01 2.4210462118682955e+01 -3 2 1
730 2 9.8440000000000012e+00 8.5251540748539956e+00 2.6691497581935245e+01 0 0 0
728 2 9.8440000000000012e+00 1.1366872099805333e+01 2.6691497581935245e+01 0 0 0
4727 1 7.7719580320689974e-01 3.2104278037156666e+00 1.9934199756407999e+01 -3 3 1
6318 1 3.0837965762137123e+00 1.4914643711174105e+00 2.0535102324631012e+01 5 0 1
468 1 5.4254445120635921e+00 1.9978481954536367e+00 1.9728592527078867e+01 6 2 1
775 2 1.2304999999999998e+01 1.1366872099805333e+01 2.6691497581935245e+01 0 0 0
726 2 8.6134999999999984e+00 1.0656442593567498e+01 2.6691497581935245e+01 0 0 0
2893 1 1.0049282575895113e+01 2.2120349700978408e+00 2.0355878054103371e+01 6 3 1
3511 1 9.2128967291916890e+00 1.6007630529296843e-01 2.4037889838382295e+01 -2 0 0
4700 1 1.5052598899201224e+00 5.5869107610759050e+00 2.1125322720818225e+01 5 0 1
2905 1 8.7328414853876346e+00 4.6354074562235468e+00 1.9625040311523097e+01 2 -4 1
17 1 5.8231889390664620e+00 4.5411287188349982e+00 2.0481726631388579e+01 -2 -1 0
3414 1 3.9466787975075799e+00 6.1022092055249697e+00 1.9895964761376220e+01 1 3 0
1251 1 1.1919668015616352e+01 7.5501900825283563e+00 1.9648021534379687e+01 -3 8 0
1306 1 9.4769484124220256e+00 7.1592488120975384e+00 2.0676144282642930e+01 2 3 1
3369 1 1.0895306263335778e+00 1.0153411572910262e+01 2.0869332595023909e+01 1 -3 0
1276 1 7.5872762107926350e+00 8.8367365978111891e+00 1.9671396781352829e+01 2 2 1
3260 1 5.1066422518537662e+00 8.7165312300287265e+00 2.0657803798201599e+01 1 -3 1
732 2 1.1074500000000002e+01 9.2355835810918343e+00 2.6691497581935245e+01 0 0 0
4801 1 8.3578158254199746e+00 1.1441132306840798e+01 2.0470256831682654e+01 -1 0 0
3591 1 2.6453226378071881e+00 1.1903251454923691e+00 2.3286550634196871e+01 -3 2 0
373 1 7.3867306307895308e-01 3.0625568151754745e+00 2.4406812911829427e+01 3 -2 0
6217 1 4.9750116898179364e+00 1.8511482978085432e+00 2.4456097503971883e+01 -1 -3 1
3225 1 1.0176088956457564e+01 2.6821178541598978e+00 2.3158284895227684e+01 1 1 0
685 2 8.6134999999999984e+00 9.2355835810918343e+00 2.6691497581935245e+01 0 0 0
1382 1 1.9358072761074108e+00 5.5064788247088536e+00 2.3688859727272387e+01 5 -3 1
2058 1 4.4145518153430245e+00 6.4925629251661912e+00 2.4243241939602591e+01 2 -1 1
3545 1 5.8832577347128927e+00 4.2047913801074088e+00 2.3348222720086707e+01 -4 -2 0
431 1 8.3155163000522023e+00 4.4268408566764199e+00 2.4221225063306324e+01 3 2 0
6156 1 9.2350241594273577e+00 7.1329889880117596e+00 2.3566835644509855e+01 3 3 1
2971 1 1.1913601832087968e+01 7.2772351184163515e+00 2.4416793273759012e+01 -2 3 1
268 1 1.0833213346228154e+00 9.7866384506939390e+00 2.3607275871716450e+01 1 -2 0
3651 1 3.8561353952846349e+00 1.0577698829239434e+01 2.4500059056103236e+01 0 1 1
6220 1 5.2541204325699793e+00 8.6842465882895219e+00 2.3399065529234878e+01 5 3 1
5142 1 7.5684531377236706e+00 9.1930298755445303e+00 2.4217104312541554e+01 0 0 1
473 1 1.1467926280655213e+01 1.2144618685249601e+01 1.7299556298386864e+01 -3 -1 1
2108 1 8.4611574004499666e+00 1.1547423478700766e+01 2.3180934044673229e+01 -1 -2 1
552 2 0.0000000000000000e+00 2.8417180249513345e+00 2.6691497581935245e+01 0 0 0
554 2 0.0000000000000000e+00 0.0000000000000000e+00 2.6691497581935245e+01 0 0 0
556 2 1.2305000000000001e+00 7.1042950623783474e-01 2.6691497581935245e+01 0 0 0
563 2 1.2305000000000001e+00 2.1312885187134998e+00 2.6691497581935245e+01 0 0 0
565 2 2.4610000000000003e+00 2.8417180249513345e+00 2.6691497581935245e+01 0 0 0
567 2 2.4610000000000003e+00 0.0000000000000000e+00 2.6691497581935245e+01 0 0 0
569 2 3.6915000000000004e+00 7.1042950623783474e-01 2.6691497581935245e+01 0 0 0
584 2 3.6914999999999996e+00 2.1312885187134998e+00 2.6691497581935245e+01 0 0 0
586 2 4.9220000000000006e+00 2.8417180249513332e+00 2.6691497581935245e+01 0 0 0
588 2 4.9220000000000006e+00 0.0000000000000000e+00 2.6691497581935245e+01 0 0 0
590 2 6.1524999999999999e+00 7.1042950623783407e-01 2.6691497581935245e+01 0 0 0
613 2 6.1524999999999999e+00 2.1312885187134989e+00 2.6691497581935245e+01 0 0 0
615 2 7.3829999999999991e+00 2.8417180249513345e+00 2.6691497581935245e+01 0 0 0
617 2 7.3829999999999991e+00 0.0000000000000000e+00 2.6691497581935245e+01 0 0 0
619 2 8.6134999999999984e+00 7.1042950623783407e-01 2.6691497581935245e+01 0 0 0
650 2 8.6134999999999984e+00 2.1312885187135002e+00 2.6691497581935245e+01 0 0 0
652 2 9.8440000000000012e+00 2.8417180249513332e+00 2.6691497581935245e+01 0 0 0
654 2 9.8440000000000012e+00 0.0000000000000000e+00 2.6691497581935245e+01 0 0 0
656 2 1.1074500000000002e+01 7.1042950623783330e-01 2.6691497581935245e+01 0 0 0
695 2 1.1074500000000002e+01 2.1312885187135002e+00 2.6691497581935245e+01 0 0 0
559 2 0.0000000000000000e+00 4.2625770374269996e+00 2.6691497581935245e+01 0 0 0
561 2 1.2305000000000001e+00 4.9730065436648339e+00 2.6691497581935245e+01 0 0 0
576 2 1.2305000000000001e+00 6.3938655561404980e+00 2.6691497581935245e+01 0 0 0
580 2 2.4610000000000003e+00 4.2625770374269996e+00 2.6691497581935245e+01 0 0 0
582 2 3.6914999999999996e+00 4.9730065436648339e+00 2.6691497581935245e+01 0 0 0
605 2 3.6914999999999996e+00 6.3938655561404980e+00 2.6691497581935245e+01 0 0 0
557 2 0.0000000000000000e+00 7.1042950623783341e+00 2.6691497581935245e+01 0 0 0
578 2 2.4610000000000003e+00 7.1042950623783341e+00 2.6691497581935245e+01 0 0 0
609 2 4.9220000000000006e+00 4.2625770374269978e+00 2.6691497581935245e+01 0 0 0
611 2 6.1524999999999999e+00 4.9730065436648339e+00 2.6691497581935245e+01 0 0 0
642 2 6.1524999999999999e+00 6.3938655561404980e+00 2.6691497581935245e+01 0 0 0
646 2 7.3829999999999991e+00 4.2625770374269996e+00 2.6691497581935245e+01 0 0 0
607 2 4.9220000000000006e+00 7.1042950623783341e+00 2.6691497581935245e+01 0 0 0
644 2 7.3830000000000009e+00 7.1042950623783341e+00 2.6691497581935245e+01 0 0 0
648 2 8.6135000000000002e+00 4.9730065436648339e+00 2.6691497581935245e+01 0 0 0
687 2 8.6135000000000002e+00 6.3938655561404980e+00 2.6691497581935245e+01 0 0 0
691 2 9.8440000000000012e+00 4.2625770374270004e+00 2.6691497581935245e+01 0 0 0
693 2 1.1074500000000002e+01 4.9730065436648339e+00 2.6691497581935245e+01 0 0 0
734 2 1.1074500000000002e+01 6.3938655561404980e+00 2.6691497581935245e+01 0 0 0
689 2 9.8440000000000012e+00 7.1042950623783341e+00 2.6691497581935245e+01 0 0 0
601 2 2.4610000000000003e+00 8.5251540748539991e+00 2.6691497581935245e+01 0 0 0
597 2 1.2305000000000001e+00 1.0656442593567498e+01 2.6691497581935245e+01 0 0 0
634 2 3.6914999999999996e+00 1.0656442593567499e+01 2.6691497581935245e+01 0 0 0
570 2 0.0000000000000000e+00 1.1366872099805333e+01 2.6691497581935245e+01 0 0 0
603 2 3.6915000000000004e+00 9.2355835810918343e+00 2.6691497581935245e+01 0 0 0
599 2 2.4610000000000003e+00 1.1366872099805333e+01 2.6691497581935245e+01 0 0 0
572 2 0.0000000000000000e+00 8.5251540748539991e+00 2.6691497581935245e+01 0 0 0
574 2 1.2305000000000001e+00 9.2355835810918343e+00 2.6691497581935245e+01 0 0 0
683 2 7.3830000000000009e+00 8.5251540748539991e+00 2.6691497581935245e+01 0 0 0
640 2 6.1524999999999999e+00 9.2355835810918343e+00 2.6691497581935245e+01 0 0 0
638 2 4.9220000000000006e+00 8.5251540748539991e+00 2.6691497581935245e+01 0 0 0
636 2 4.9220000000000006e+00 1.1366872099805333e+01 2.6691497581935245e+01 0 0 0
679 2 6.1524999999999999e+00 1.0656442593567499e+01 2.6691497581935245e+01 0 0 0
681 2 7.3829999999999991e+00 1.1366872099805333e+01 2.6691497581935245e+01 0 0 0
773 2 1.1074500000000002e+01 1.0656442593567498e+01 2.6691497581935245e+01 0 0 0
4421 1 8.7853469243862975e-02 7.5421999860400026e+00 2.4465856764264888e+01 -4 2 1
3692 1 1.0825521595301639e+01 5.5722234890825488e+00 1.6136937809742722e+01 4 1 1
3026 1 2.6109416986515885e+00 8.2703480968259395e+00 1.6046716783869439e+01 1 1 0
553 2 0.0000000000000000e+00 1.4208590124756650e+00 3.0030999999996787e+01 0 0 0
555 2 0.0000000000000000e+00 0.0000000000000000e+00 3.0030999999996787e+01 0 0 0
564 2 1.2305000000000001e+00 2.1312885187134998e+00 3.0030999999996787e+01 0 0 0
566 2 2.4610000000000003e+00 1.4208590124756650e+00 3.0030999999996787e+01 0 0 0
568 2 2.4610000000000003e+00 0.0000000000000000e+00 3.0030999999996787e+01 0 0 0
585 2 3.6914999999999996e+00 2.1312885187134998e+00 3.0030999999996787e+01 0 0 0
562 2 1.2305000000000001e+00 3.5521475311891644e+00 3.0030999999996787e+01 0 0 0
583 2 3.6914999999999996e+00 3.5521475311891644e+00 3.0030999999996787e+01 0 0 0
881 2 0.0000000000000000e+00 2.8417180249513345e+00 3.3370502418050123e+01 0 0 0
882 2 0.0000000000000000e+00 0.0000000000000000e+00 3.3370502418050123e+01 0 0 0
883 2 1.2305000000000001e+00 7.1042950623783474e-01 3.3370502418050123e+01 0 0 0
887 2 1.2305000000000001e+00 2.1312885187134998e+00 3.3370502418050123e+01 0 0 0
888 2 2.4610000000000003e+00 2.8417180249513345e+00 3.3370502418050123e+01 0 0 0
889 2 2.4610000000000003e+00 0.0000000000000000e+00 3.3370502418050123e+01 0 0 0
890 2 3.6915000000000004e+00 7.1042950623783474e-01 3.3370502418050123e+01 0 0 0
898 2 3.6914999999999996e+00 2.1312885187134998e+00 3.3370502418050123e+01 0 0 0
587 2 4.9220000000000006e+00 1.4208590124756650e+00 3.0030999999996787e+01 0 0 0
589 2 4.9220000000000006e+00 0.0000000000000000e+00 3.0030999999996787e+01 0 0 0
614 2 6.1524999999999999e+00 2.1312885187134989e+00 3.0030999999996787e+01 0 0 0
616 2 7.3829999999999991e+00 1.4208590124756659e+00 3.0030999999996787e+01 0 0 0
618 2 7.3829999999999991e+00 0.0000000000000000e+00 3.0030999999996787e+01 0 0 0
612 2 6.1524999999999999e+00 3.5521475311891644e+00 3.0030999999996787e+01 0 0 0
899 2 4.9220000000000006e+00 2.8417180249513332e+00 3.3370502418050123e+01 0 0 0
900 2 4.9220000000000006e+00 0.0000000000000000e+00 3.3370502418050123e+01 0 0 0
901 2 6.1524999999999999e+00 7.1042950623783407e-01 3.3370502418050123e+01 0 0 0
913 2 6.1524999999999999e+00 2.1312885187134989e+00 3.3370502418050123e+01 0 0 0
914 2 7.3829999999999991e+00 2.8417180249513345e+00 3.3370502418050123e+01 0 0 0
915 2 7.3829999999999991e+00 0.0000000000000000e+00 3.3370502418050123e+01 0 0 0
651 2 8.6134999999999984e+00 2.1312885187135002e+00 3.0030999999996787e+01 0 0 0
653 2 9.8440000000000012e+00 1.4208590124756659e+00 3.0030999999996787e+01 0 0 0
655 2 9.8440000000000012e+00 0.0000000000000000e+00 3.0030999999996787e+01 0 0 0
696 2 1.1074500000000002e+01 2.1312885187135002e+00 3.0030999999996787e+01 0 0 0
649 2 8.6134999999999984e+00 3.5521475311891657e+00 3.0030999999996787e+01 0 0 0
694 2 1.1074500000000002e+01 3.5521475311891644e+00 3.0030999999996787e+01 0 0 0
916 2 8.6134999999999984e+00 7.1042950623783407e-01 3.3370502418050123e+01 0 0 0
932 2 8.6134999999999984e+00 2.1312885187135002e+00 3.3370502418050123e+01 0 0 0
933 2 9.8440000000000012e+00 2.8417180249513332e+00 3.3370502418050123e+01 0 0 0
934 2 9.8440000000000012e+00 0.0000000000000000e+00 3.3370502418050123e+01 0 0 0
935 2 1.1074500000000002e+01 7.1042950623783330e-01 3.3370502418050123e+01 0 0 0
955 2 1.1074500000000002e+01 2.1312885187135002e+00 3.3370502418050123e+01 0 0 0
558 2 0.0000000000000000e+00 5.6834360499026637e+00 3.0030999999996787e+01 0 0 0
560 2 0.0000000000000000e+00 4.2625770374269996e+00 3.0030999999996787e+01 0 0 0
577 2 1.2305000000000001e+00 6.3938655561404980e+00 3.0030999999996787e+01 0 0 0
579 2 2.4610000000000003e+00 5.6834360499026637e+00 3.0030999999996787e+01 0 0 0
581 2 2.4610000000000003e+00 4.2625770374269996e+00 3.0030999999996787e+01 0 0 0
606 2 3.6914999999999996e+00 6.3938655561404980e+00 3.0030999999996787e+01 0 0 0
575 2 1.2305000000000001e+00 7.8147245686161639e+00 3.0030999999996787e+01 0 0 0
604 2 3.6914999999999996e+00 7.8147245686161639e+00 3.0030999999996787e+01 0 0 0
885 2 0.0000000000000000e+00 4.2625770374269996e+00 3.3370502418050123e+01 0 0 0
886 2 1.2305000000000001e+00 4.9730065436648339e+00 3.3370502418050123e+01 0 0 0
894 2 1.2305000000000001e+00 6.3938655561404980e+00 3.3370502418050123e+01 0 0 0
896 2 2.4610000000000003e+00 4.2625770374269996e+00 3.3370502418050123e+01 0 0 0
897 2 3.6914999999999996e+00 4.9730065436648339e+00 3.3370502418050123e+01 0 0 0
909 2 3.6914999999999996e+00 6.3938655561404980e+00 3.3370502418050123e+01 0 0 0
884 2 0.0000000000000000e+00 7.1042950623783341e+00 3.3370502418050123e+01 0 0 0
895 2 2.4610000000000003e+00 7.1042950623783341e+00 3.3370502418050123e+01 0 0 0
608 2 4.9220000000000006e+00 5.6834360499026637e+00 3.0030999999996787e+01 0 0 0
610 2 4.9220000000000006e+00 4.2625770374269978e+00 3.0030999999996787e+01 0 0 0
643 2 6.1524999999999999e+00 6.3938655561404980e+00 3.0030999999996787e+01 0 0 0
645 2 7.3829999999999991e+00 5.6834360499026637e+00 3.0030999999996787e+01 0 0 0
647 2 7.3829999999999991e+00 4.2625770374269996e+00 3.0030999999996787e+01 0 0 0
641 2 6.1524999999999999e+00 7.8147245686161639e+00 3.0030999999996787e+01 0 0 0
911 2 4.9220000000000006e+00 4.2625770374269978e+00 3.3370502418050123e+01 0 0 0
912 2 6.1524999999999999e+00 4.9730065436648339e+00 3.3370502418050123e+01 0 0 0
928 2 6.1524999999999999e+00 6.3938655561404980e+00 3.3370502418050123e+01 0 0 0
930 2 7.3829999999999991e+00 4.2625770374269996e+00 3.3370502418050123e+01 0 0 0
910 2 4.9220000000000006e+00 7.1042950623783341e+00 3.3370502418050123e+01 0 0 0
929 2 7.3830000000000009e+00 7.1042950623783341e+00 3.3370502418050123e+01 0 0 0
688 2 8.6135000000000002e+00 6.3938655561404980e+00 3.0030999999996787e+01 0 0 0
690 2 9.8440000000000012e+00 5.6834360499026637e+00 3.0030999999996787e+01 0 0 0
692 2 9.8440000000000012e+00 4.2625770374270004e+00 3.0030999999996787e+01 0 0 0
735 2 1.1074500000000002e+01 6.3938655561404980e+00 3.0030999999996787e+01 0 0 0
686 2 8.6135000000000002e+00 7.8147245686161639e+00 3.0030999999996787e+01 0 0 0
733 2 1.1074500000000002e+01 7.8147245686161639e+00 3.0030999999996787e+01 0 0 0
931 2 8.6135000000000002e+00 4.9730065436648339e+00 3.3370502418050123e+01 0 0 0
951 2 8.6135000000000002e+00 6.3938655561404980e+00 3.3370502418050123e+01 0 0 0
953 2 9.8440000000000012e+00 4.2625770374270004e+00 3.3370502418050123e+01 0 0 0
954 2 1.1074500000000002e+01 4.9730065436648339e+00 3.3370502418050123e+01 0 0 0
975 2 1.1074500000000002e+01 6.3938655561404980e+00 3.3370502418050123e+01 0 0 0
952 2 9.8440000000000012e+00 7.1042950623783341e+00 3.3370502418050123e+01 0 0 0
571 2 0.0000000000000000e+00 9.9460130873296642e+00 3.0030999999996787e+01 0 0 0
573 2 0.0000000000000000e+00 8.5251540748539991e+00 3.0030999999996787e+01 0 0 0
600 2 2.4610000000000003e+00 9.9460130873296642e+00 3.0030999999996787e+01 0 0 0
602 2 2.4610000000000003e+00 8.5251540748539991e+00 3.0030999999996787e+01 0 0 0
596 2 1.2305000000000001e+00 1.2077301606043163e+01 3.0030999999996787e+01 0 0 0
598 2 1.2305000000000001e+00 1.0656442593567498e+01 3.0030999999996787e+01 0 0 0
633 2 3.6914999999999996e+00 1.2077301606043163e+01 3.0030999999996787e+01 0 0 0
635 2 3.6914999999999996e+00 1.0656442593567499e+01 3.0030999999996787e+01 0 0 0
892 2 0.0000000000000000e+00 8.5251540748539991e+00 3.3370502418050123e+01 0 0 0
893 2 1.2305000000000001e+00 9.2355835810918343e+00 3.3370502418050123e+01 0 0 0
907 2 2.4610000000000003e+00 8.5251540748539991e+00 3.3370502418050123e+01 0 0 0
908 2 3.6915000000000004e+00 9.2355835810918343e+00 3.3370502418050123e+01 0 0 0
891 2 0.0000000000000000e+00 1.1366872099805333e+01 3.3370502418050123e+01 0 0 0
905 2 1.2305000000000001e+00 1.0656442593567498e+01 3.3370502418050123e+01 0 0 0
906 2 2.4610000000000003e+00 1.1366872099805333e+01 3.3370502418050123e+01 0 0 0
924 2 3.6914999999999996e+00 1.0656442593567499e+01 3.3370502418050123e+01 0 0 0
637 2 4.9220000000000006e+00 9.9460130873296642e+00 3.0030999999996787e+01 0 0 0
639 2 4.9220000000000006e+00 8.5251540748539991e+00 3.0030999999996787e+01 0 0 0
682 2 7.3830000000000009e+00 9.9460130873296642e+00 3.0030999999996787e+01 0 0 0
684 2 7.3830000000000009e+00 8.5251540748539991e+00 3.0030999999996787e+01 0 0 0
678 2 6.1524999999999999e+00 1.2077301606043163e+01 3.0030999999996787e+01 0 0 0
680 2 6.1524999999999999e+00 1.0656442593567499e+01 3.0030999999996787e+01 0 0 0
926 2 4.9220000000000006e+00 8.5251540748539991e+00 3.3370502418050123e+01 0 0 0
927 2 6.1524999999999999e+00 9.2355835810918343e+00 3.3370502418050123e+01 0 0 0
949 2 7.3830000000000009e+00 8.5251540748539991e+00 3.3370502418050123e+01 0 0 0
925 2 4.9220000000000006e+00 1.1366872099805333e+01 3.3370502418050123e+01 0 0 0
947 2 6.1524999999999999e+00 1.0656442593567499e+01 3.3370502418050123e+01 0 0 0
948 2 7.3829999999999991e+00 1.1366872099805333e+01 3.3370502418050123e+01 0 0 0
729 2 9.8440000000000012e+00 9.9460130873296642e+00 3.0030999999996787e+01 0 0 0
731 2 9.8440000000000012e+00 8.5251540748539956e+00 3.0030999999996787e+01 0 0 0
725 2 8.6135000000000002e+00 1.2077301606043163e+01 3.0030999999996787e+01 0 0 0
727 2 8.6134999999999984e+00 1.0656442593567498e+01 3.0030999999996787e+01 0 0 0
772 2 1.1074500000000002e+01 1.2077301606043163e+01 3.0030999999996787e+01 0 0 0
774 2 1.1074500000000002e+01 1.0656442593567498e+01 3.0030999999996787e+01 0 0 0
950 2 8.6134999999999984e+00 9.2355835810918343e+00 3.3370502418050123e+01 0 0 0
973 2 9.8440000000000012e+00 8.5251540748539956e+00 3.3370502418050123e+01 0 0 0
974 2 1.1074500000000002e+01 9.2355835810918343e+00 3.3370502418050123e+01 0 0 0
971 2 8.6134999999999984e+00 1.0656442593567498e+01 3.3370502418050123e+01 0 0 0
972 2 9.8440000000000012e+00 1.1366872099805333e+01 3.3370502418050123e+01 0 0 0
995 2 1.1074500000000002e+01 1.0656442593567498e+01 3.3370502418050123e+01 0 0 0
996 2 1.2304999999999998e+01 1.1366872099805333e+01 3.3370502418050123e+01 0 0 0
3557 1 4.8435923191527968e+00 2.2888081773422191e+00 3.6316596285681882e+01 -1 0 -1
1884 1 7.7484627241222856e+00 2.3336802306247164e+00 3.5772834985751572e+01 2 1 -1
5279 1 9.7562246203259448e+00 4.4322479476166748e-01 3.6235651500054146e+01 2 4 -1
6059 1 9.6647001295978310e+00 4.0016660224309064e-01 4.3766899595153973e+01 -2 3 -1
5258 1 2.5612207182564810e+00 3.8283394470935206e+00 3.6005123745128117e+01 2 -1 0
1392 1 8.4432662311907265e+00 9.0778748559785498e+00 4.3430229506836383e+01 3 -1 0
2079 1 2.5891505583930954e+00 7.9953403717015838e+00 3.5658265895005755e+01 2 1 0
6291 1 4.5135011521025543e+00 6.1683011129600640e+00 4.3479250398663183e+01 2 -3 0
4684 1 4.1395105123348142e+00 6.0420913514642480e+00 3.6181977497201586e+01 3 0 -1
1633 1 6.8288711179358064e+00 6.6086764270022353e+00 3.5822767988614231e+01 -1 -1 -1
1626 1 8.7491968717521633e+00 4.7905354478800453e+00 3.6578405489300280e+01 6 -1 -1
345 1 1.1411760558477955e+01 5.4142148159804346e+00 3.5694704804061374e+01 3 -1 -1
3096 1 3.9295190669213165e+00 1.0280330544771578e+01 3.6639758831088287e+01 -1 -2 1
1304 1 6.4828982557592507e+00 1.1147697002547124e+01 3.5719653035189225e+01 -6 -1 0
4717 1 1.0664247228447330e+01 9.7300376607934620e+00 3.5695837452360067e+01 4 -1 0
1357 1 8.0231415180810455e+00 9.0208124894500532e+00 3.6314984560383252e+01 -3 -2 -1
75 1 6.4504754282957144e+00 1.0962564916269143e+01 4.2494701149871034e+01 3 1 -1
404 1 6.1716242230587903e-01 3.1776751881259049e+00 3.8358338295465501e+01 2 1 0
2835 1 1.1066867302126870e+01 9.3883521789411706e+00 4.2506663264184596e+01 -1 4 0
1795 1 5.2488512343908846e+00 1.9706152382435800e+00 3.9126751846295207e+01 3 1 -1
6083 1 7.9045706018985005e+00 2.1577492741386957e+00 4.0148400291929804e+01 -1 -2 0
1588 1 9.7177803623883818e+00 3.0915243161579914e-01 3.9085586128331030e+01 0 1 0
5201 1 3.1277380299475972e+00 3.8211458843095500e+00 3.9820994579915180e+01 -4 1 -1
6086 1 3.6527652369609281e-01 7.7725188228028941e+00 4.3704146694604432e+01 2 5 -1
2930 1 4.3511874860028437e+00 6.0697586293536494e+00 3.8938377504268615e+01 2 4 0
397 1 7.1255646698175541e+00 6.4774242887365610e+00 3.9890916517284950e+01 -3 0 0
3578 1 9.0927409111105852e+00 4.7369329610170698e+00 3.9254194769106277e+01 1 -1 0
5138 1 1.1530781219411937e+01 5.2255110297089304e+00 4.0258611909077743e+01 -2 -2 -1
3664 1 2.5769047093715995e+00 7.8968570079904632e+00 3.9905122601793352e+01 -1 1 0
1873 1 3.8543934574258012e+00 1.0217091020732330e+01 3.9398547732763802e+01 -1 2 -1
3033 1 6.5817209317189809e+00 1.0901107117360478e+01 3.9915166500155891e+01 -3 1 -1
4629 1 8.1914027399558798e+00 8.9287612855445193e+00 3.9155531777703956e+01 -3 -3 0
1270 1 1.0852863301892921e+01 9.5385048614510346e+00 3.9968840561256371e+01 6 0 0
3643 1 2.6693232860522285e+00 8.2252755336469559e+00 4.2697968106347389e+01 -2 -2 0
540 1 1.2262726803252515e+00 3.3037207852449177e+00 4.3291195627442363e+01 -5 -3 0
6163 1 2.1961791792300636e+00 1.2122194058697641e+01 3.9991627066187661e+01 0 2 -1
1456 1 1.2213519224601207e+01 7.1929625554412746e-01 4.2759634001098689e+01 4 2 0
64 1 7.8998127685837920e+00 2.4852561046056740e+00 4.3121771294841025e+01 4 0 -1
1367 1 1.2167641624281149e+01 1.1979993955462701e+01 3.6477811923066341e+01 3 0 -1
375 1 5.3723232111001318e+00 1.8550418620903082e+00 4.3490147922721448e+01 3 4 -1
1336 1 3.7159831841250091e+00 3.8085767950962972e+00 4.2368820258785718e+01 0 -2 -1
3219 1 8.7322083033018529e+00 4.7015685063670229e+00 4.3982875425097703e+01 -3 -1 -1
227 1 7.1412845151567543e+00 6.6911765027879477e+00 4.2543672689268178e+01 -3 1 -1
1832 1 1.1330354645127549e+01 4.8783161160707627e+00 4.3050756414389696e+01 3 2 -1
6107 1 3.8512351935798179e+00 1.0645727260473661e+01 4.3630300431513120e+01 0 -2 0
6306 1 1.2128537274606339e+01 6.7715594543998303e-01 4.0043765798226602e+01 3 3 0
4813 1 1.2003191962043831e+01 1.1725781582772854e+01 4.3619210626770652e+01 0 1 -1
6272 1 1.2045676592858971e+01 1.1998384325235797e+01 3.9209281671081769e+01 1 0 0
4570 1 1.2237561403534714e+01 7.7622881463899445e+00 3.6479112551845759e+01 2 -4 0
3212 1 8.4297359459271459e-01 3.8086738374811988e+00 4.6079511248466034e+01 1 2 -1
3248 1 3.7422986047845193e+00 3.8009134675863319e+00 4.7242349205666116e+01 1 0 -1
1447 1 1.2058332378258735e+01 1.1992309404906567e+01 5.3875725406254759e+01 0 -5 0
1658 1 5.4223504645172884e+00 1.6971130374898271e+00 4.6288746086171287e+01 -1 1 -1
1457 1 7.9979302695010057e+00 2.2689227942612602e+00 4.7497575414286516e+01 2 0 0
4963 1 9.7855682750589192e+00 5.2265499633468782e-01 4.6388998985358299e+01 -4 -1 -1
2833 1 7.1868039139465552e+00 6.8223821221612084e+00 5.7138798180785813e+01 -2 -1 -1
3528 1 4.8176930032248606e+00 6.1883025076531561e+00 4.6213631032819592e+01 -3 -1 -1
3007 1 7.3360014779254810e+00 6.9849818677226470e+00 4.7253055564869300e+01 0 1 0
188 1 8.7524942417859624e+00 4.7421384798010777e+00 4.6852318716212366e+01 3 1 -1
3584 1 1.1685781629772796e+01 5.0834729502800000e+00 4.7334001338543487e+01 -2 3 0
5260 1 3.1639121958793974e+00 8.2670335996684514e+00 4.7423414113744030e+01 -2 1 -1
2051 1 4.0168330054172277e+00 1.0780852186675714e+01 4.6523983566553227e+01 -1 3 0
5247 1 6.7923853191712604e+00 1.1155443356170565e+01 4.7066249187560601e+01 0 -1 -1
3115 1 8.4046239061994026e+00 9.0993413508736598e+00 4.6045892599846667e+01 3 -2 0
550 1 1.0908398697913469e+01 9.2709007841449420e+00 4.7181460749661724e+01 0 -2 0
5000 1 2.9770111486892601e+00 8.5277767554165358e+00 5.7239126504114211e+01 3 2 0
3570 1 1.2956297513436903e+00 3.7054918735670674e+00 5.0795889620211028e+01 2 2 -1
4740 1 3.9307409129223436e+00 3.8109172447152568e+00 4.9990387888725223e+01 3 4 -1
4679 1 8.3410071777370156e+00 2.5360379435190783e+00 5.0102761504087496e+01 -2 6 0
4991 1 5.6648104385694591e+00 2.1424467432398120e+00 5.1150880788792534e+01 7 3 -1