LAMMPS data file via write_data, version 16 Mar 2018, timestep = 100000

6328 atoms
2 atom types

0.0000000000000000e+00 4.9219999999999999e+01 xlo xhi
0.0000000000000000e+00 4.9019635930410494e+01 ylo yhi
3.7087605530056429e+00 5.6353239446993072e+01 zlo zhi

Masses

1 18.015
2 12.01

Atoms # atomic

3393 1 4.6542970639583716e+00 3.1162833869120141e+00 7.4685346789255256e+00 0 0 0
180 1 2.0609694814910271e+00 1.6154120970284866e+00 7.8246186670968809e+00 0 0 0
1345 1 7.6003584309731220e+00 1.0755908218259616e+01 1.6102290965303865e+01 0 0 1
6074 1 8.5797437124542810e+00 1.1720310795757131e+01 6.0144110540914024e+00 -1 0 1
368 1 8.2202389785061918e+00 4.7466155712175038e+00 5.0360481061060973e+00 0 1 1
5308 1 8.2854283352937053e+00 8.1002192152527766e+00 1.5244522945002423e+01 0 0 1
2905 1 1.1505177210740063e+01 1.0748104946014267e+00 7.6693490580951522e+00 1 1 1
159 1 9.1717847134160557e+00 3.4092708273177403e+00 1.5671074473423934e+01 0 0 0
1295 1 1.0821873981290468e+01 2.5818455506359252e+00 5.4976281256609036e+00 0 1 1
267 1 4.8810626346327102e-01 1.6707984133578113e+00 5.2989955183008606e+00 0 1 1
1911 1 9.9066107783120549e-01 7.9136186288009176e+00 5.9333708249592547e+00 1 1 0
1929 1 5.9420329855174803e+00 6.5322109489754334e+00 3.9110168982858968e+00 0 0 0
3603 1 7.3791334039076313e+00 6.4382887695897626e+00 9.0359219112436229e+00 0 1 1
1518 1 5.3015971087359173e+00 7.5001603716299297e+00 7.1664812564015996e+00 1 2 1
4422 1 8.0075277027892469e+00 1.5319443076561075e+00 1.1401468438937002e+01 0 1 0
2846 1 1.0622830164785483e+01 5.3713072315125157e+00 7.1028732287804441e+00 0 0 1
3275 1 3.3590223752149484e-02 1.0262346829197645e+01 4.9679813725065305e+00 1 0 1
1823 1 2.3942721987386992e+00 1.1828464973022850e+01 1.4157285980754502e+01 0 0 0
289 1 5.2973137141185953e+00 1.1423184938684855e+01 7.9776450037423334e+00 1 -1 1
1339 1 7.4115966625342589e+00 9.5641470989581912e+00 7.7394001731434505e+00 1 0 1
476 1 1.0209773092690861e+01 9.4384954624382402e+00 6.2548494803809653e+00 0 1 1
1240 1 7.9616877043817957e-01 2.8169206648623839e+00 1.2069631390062931e+01 -1 2 0
3578 1 4.2513487046738554e+00 1.0206196798988939e+01 1.2315077614302099e+01 0 -1 1
2085 1 5.2122014232862979e+00 3.4442787252034326e+00 1.0205518169882380e+01 0 0 1
2973 1 7.2759975743015017e+00 4.1786419142843005e+00 7.7295171577966801e+00 1 0 1
4890 1 4.3905827042349879e+00 1.1216476530239417e+01 5.5722267677776340e+00 1 1 0
3241 1 1.1920780943745472e+01 8.5195562448507687e+00 1.0837864088294186e+01 0 0 0
24 1 2.9539257175372042e+00 4.5051860994159894e+00 1.1883596683766569e+01 0 0 1
3079 1 3.3138199324683200e+00 5.4914400032622730e+00 7.1222144086870145e+00 1 1 0
3569 1 1.4910913014947453e+00 1.2108719477382385e+01 1.0283941919057794e+01 1 0 0
1632 1 1.5074335289939487e+00 9.2127584516600312e+00 8.6197122560743793e+00 -1 -1 1
6255 1 2.0893126380838538e+00 6.4194776509201814e+00 9.8857629132286213e+00 1 0 1
6141 1 7.9207726701054195e+00 4.5692146107704188e+00 1.1333015498674428e+01 2 0 1
399 1 5.1218970975875324e+00 7.0940403158075123e+00 1.0554418913033576e+01 0 0 0
3237 1 8.3235818213285331e+00 1.5441628556203379e+00 4.7053603396175969e+00 0 0 0
5073 1 9.6839327122530161e+00 3.4442971718461215e+00 9.1776647589219778e+00 1 0 1
222 1 9.3981215960945033e+00 4.5267618782913488e-01 9.0339669505338893e+00 0 0 0
5295 1 4.7954381665781236e+00 5.7643409520147715e-01 1.0977926382390283e+01 1 1 1
4976 1 3.9868439345512408e+00 9.4695733564621207e+00 9.2815502261853098e+00 1 0 0
5067 1 3.2415690748293549e+00 5.5948348722931653e+00 4.2729551174073865e+00 0 1 0
6080 1 1.0854110820418690e+01 7.6974817328047642e+00 1.3303040066039772e+01 0 0 0
1383 1 8.0220304903052462e+00 9.7901119915993409e+00 1.0495103442824391e+01 0 1 1
3031 1 8.1893934330165514e+00 7.5326777777219052e+00 1.2197774410912192e+01 0 1 1
3231 1 9.9210149884664354e+00 7.9441117044336718e+00 8.7537441687798250e+00 0 -1 1
5972 1 1.0407645557823177e+01 1.1436232203492247e+01 1.0314700683434243e+01 1 0 1
6025 1 3.7227859508909447e+00 8.7553985716947800e+00 4.9272082561904638e+00 0 1 1
4845 1 1.1662383721950240e+01 1.0044462702259107e+01 1.4389826948189112e+01 0 0 1
1506 1 2.2414405576132865e+00 1.7755749283749228e-01 1.2316422910432841e+01 0 0 0
379 1 5.8508248265152254e+00 5.2165917996651023e+00 1.3094125476764045e+01 0 1 0
1907 1 1.8065978237041427e+00 5.8016564879639132e+00 1.5790260124276077e+01 0 -1 1
4883 1 1.0099935516377128e+01 2.7460243029176445e+00 1.3202192919385519e+01 1 0 1
4789 1 3.6314187457021512e+00 1.5404585519933871e+00 1.5606426422967303e+01 1 0 0
5190 1 4.0819344709769751e+00 7.8357930817445123e+00 1.6141409546207832e+01 -1 1 0
4644 1 3.3466401851423111e+00 3.8715132597684923e+00 1.4471083348447355e+01 1 0 0
3469 1 5.4448076693504568e+00 8.0791257915313270e+00 1.3785778053449485e+01 -1 0 0
1751 1 7.2302992706771834e+00 1.1361210114228679e+00 7.2252813690432305e+00 0 0 0
1946 1 4.1659182881577896e+00 1.7345431546995835e+00 4.6381584890624650e+00 2 0 1
5162 1 6.5299623517139169e+00 4.0948355760869388e+00 1.5816709921567577e+01 0 0 0
1371 1 1.0440603115873394e+01 7.1325289018044202e+00 4.5298055063781995e+00 0 1 1
4901 1 2.6643143289017837e+00 1.0347157601424717e+01 1.6335433490878273e+01 -1 0 0
3513 1 6.4041283435458070e+00 1.1804029921808711e+01 1.1595229017768236e+01 0 0 0
3519 1 1.2194321567655289e+01 5.1543720059646816e+00 1.6534077770066254e+01 0 0 0
4898 1 1.0514032507483005e+01 1.2076609084111229e+01 1.2891105165593812e+01 0 2 0
12 1 1.9388288156054917e-01 1.1763011171359119e+01 7.4485207114663039e+00 0 0 0
3396 1 4.2002986176825963e-01 3.0554836034272905e+00 2.1107152970374049e+01 1 -1 0
3553 1 1.4124339035786098e+00 1.0120700788448085e+00 1.7608433211596555e+01 0 1 0
4448 1 5.4504448263257981e+00 3.5883199523016458e+00 1.9332288767541439e+01 -1 1 1
3033 1 3.6620651574089852e-01 8.6525763078232050e+00 1.7221979270523896e+01 0 1 0
249 1 7.1481876311093178e+00 1.3167972187176289e+00 2.4353876473971795e+01 1 0 0
5076 1 9.8607626129129606e+00 1.0869381431144015e+01 2.0456497152202150e+01 -1 0 -1
6258 1 9.7068759777206388e+00 3.3341508081243192e+00 2.0195351391700484e+01 0 1 0
732 2 1.1074500000000002e+01 9.2355835810918343e+00 2.6889432622604470e+01 0 0 0
3069 1 9.4830211273331233e-01 5.4666266760513658e+00 2.0058992973141958e+01 0 -1 1
4630 1 7.5809114620048501e-01 7.7691490404086680e+00 2.4009977024229897e+01 1 0 1
4899 1 6.0702542624409954e+00 1.7922788987979694e+00 1.7236285506589329e+01 1 0 0
726 2 8.6134999999999984e+00 1.0656442593567498e+01 2.6889432622604470e+01 0 0 0
343 1 6.4207769955258547e+00 6.7272340780988324e+00 1.7033197507156096e+01 0 0 0
1387 1 3.5263707979414907e+00 5.9058239770820338e+00 1.8714336088926792e+01 1 -1 1
1546 1 4.1829097734289302e+00 2.5581328617390788e+00 2.3688686055572802e+01 0 0 1
82 1 1.2786988793475698e+00 1.0105849516856642e+01 1.9719396311531010e+01 -1 0 0
5008 1 1.1923659596835991e+01 3.6376127647348722e+00 2.1850638264117112e+01 0 1 0
104 1 3.5307891558778213e+00 9.2066452131247907e+00 2.1214115604316842e+01 1 0 0
2991 1 5.5259407813486305e+00 1.1047315993980746e+01 2.0113040953472375e+01 0 0 0
728 2 9.8440000000000012e+00 1.1366872099805333e+01 2.6889432622604470e+01 0 0 0
4578 1 9.7063824439614326e+00 6.4154615276426954e+00 1.9492769732524721e+01 0 1 0
2106 1 7.4548691643176026e+00 9.6360807377787836e+00 2.1001946186473788e+01 -1 0 0
23 1 1.2310832495648740e+00 3.2493510887325843e+00 2.3763054710611502e+01 0 0 1
6026 1 2.3164495924071917e+00 1.4862769237231177e-01 2.4057998006150992e+01 0 -1 1
1450 1 1.0828263433617311e+01 3.1987092436072571e+00 2.4284280641603942e+01 0 0 0
227 1 2.2004230696542288e+00 7.8767291573172582e-01 2.0294889002979087e+01 0 1 0
4831 1 7.0556450757913591e+00 4.2737576401392516e+00 2.3886892450544082e+01 1 1 0
5082 1 7.1473495213388443e+00 4.4643697200568759e+00 2.1169987449113176e+01 0 0 0
201 1 1.1404092842872963e+01 8.9043805453029652e+00 1.9424466145523688e+01 -1 0 0
332 1 9.4747848141882081e+00 5.5342460273316902e+00 2.4459617915134412e+01 0 1 0
3260 1 9.9636234358597626e+00 4.9578634575032576e-01 2.4517520464578496e+01 1 2 1
773 2 1.1074500000000002e+01 1.0656442593567498e+01 2.6889432622604470e+01 0 0 0
3193 1 2.0790108275912371e+00 5.5663364733513765e+00 2.4739098285090840e+01 1 0 0
1734 1 1.0221153379581125e+01 2.0970516037294105e+00 1.7690986800071684e+01 1 1 1
2928 1 4.8542878361909256e+00 5.9618413597683144e+00 2.4105666307181284e+01 0 1 1
3438 1 4.7177647052984630e+00 6.5546040109938675e+00 2.1300718608336506e+01 1 1 0
1404 1 5.4981381582156201e+00 8.5294191758258808e+00 2.4519867599827883e+01 2 0 0
6167 1 7.0751998630305204e+00 7.1658086209128040e+00 1.9547670484001952e+01 1 1 1
5028 1 1.0873484481209550e+01 6.2554626769020647e+00 2.2117085655199823e+01 1 0 0
3097 1 9.6016618286472610e+00 7.7452678792990437e-01 2.1300247102142286e+01 0 1 0
775 2 1.2304999999999998e+01 1.1366872099805333e+01 2.6889432622604470e+01 0 0 0
3473 1 5.2428011679088566e+00 1.1315737419461030e+01 1.7190779811358567e+01 1 -1 0
3108 1 3.0634296080572296e+00 9.5908526901456437e+00 2.3733533888407816e+01 0 -1 1
293 1 7.8455493295081471e+00 9.8768630664942130e+00 2.3576914251028207e+01 0 0 0
2827 1 1.0216427752653443e+01 8.7338761724108398e+00 2.3966748610511289e+01 1 1 0
1851 1 4.6088340066035682e+00 1.8306658411216412e+00 2.1080171482669915e+01 0 1 1
730 2 9.8440000000000012e+00 8.5251540748539956e+00 2.6889432622604470e+01 0 0 0
552 2 0.0000000000000000e+00 2.8417180249513345e+00 2.6889432622604470e+01 0 0 0
554 2 0.0000000000000000e+00 0.0000000000000000e+00 2.6889432622604470e+01 0 0 0
556 2 1.2305000000000001e+00 7.1042950623783474e-01 2.6889432622604470e+01 0 0 0
563 2 1.2305000000000001e+00 2.1312885187134998e+00 2.6889432622604470e+01 0 0 0
565 2 2.4610000000000003e+00 2.8417180249513345e+00 2.6889432622604470e+01 0 0 0
567 2 2.4610000000000003e+00 0.0000000000000000e+00 2.6889432622604470e+01 0 0 0
569 2 3.6915000000000004e+00 7.1042950623783474e-01 2.6889432622604470e+01 0 0 0
584 2 3.6914999999999996e+00 2.1312885187134998e+00 2.6889432622604470e+01 0 0 0
586 2 4.9220000000000006e+00 2.8417180249513332e+00 2.6889432622604470e+01 0 0 0
588 2 4.9220000000000006e+00 0.0000000000000000e+00 2.6889432622604470e+01 0 0 0
590 2 6.1524999999999999e+00 7.1042950623783407e-01 2.6889432622604470e+01 0 0 0
613 2 6.1524999999999999e+00 2.1312885187134989e+00 2.6889432622604470e+01 0 0 0
615 2 7.3829999999999991e+00 2.8417180249513345e+00 2.6889432622604470e+01 0 0 0
617 2 7.3829999999999991e+00 0.0000000000000000e+00 2.6889432622604470e+01 0 0 0
619 2 8.6134999999999984e+00 7.1042950623783407e-01 2.6889432622604470e+01 0 0 0
650 2 8.6134999999999984e+00 2.1312885187135002e+00 2.6889432622604470e+01 0 0 0
652 2 9.8440000000000012e+00 2.8417180249513332e+00 2.6889432622604470e+01 0 0 0
654 2 9.8440000000000012e+00 0.0000000000000000e+00 2.6889432622604470e+01 0 0 0
656 2 1.1074500000000002e+01 7.1042950623783330e-01 2.6889432622604470e+01 0 0 0
695 2 1.1074500000000002e+01 2.1312885187135002e+00 2.6889432622604470e+01 0 0 0
559 2 0.0000000000000000e+00 4.2625770374269996e+00 2.6889432622604470e+01 0 0 0
561 2 1.2305000000000001e+00 4.9730065436648339e+00 2.6889432622604470e+01 0 0 0
576 2 1.2305000000000001e+00 6.3938655561404980e+00 2.6889432622604470e+01 0 0 0
580 2 2.4610000000000003e+00 4.2625770374269996e+00 2.6889432622604470e+01 0 0 0
582 2 3.6914999999999996e+00 4.9730065436648339e+00 2.6889432622604470e+01 0 0 0
605 2 3.6914999999999996e+00 6.3938655561404980e+00 2.6889432622604470e+01 0 0 0
557 2 0.0000000000000000e+00 7.1042950623783341e+00 2.6889432622604470e+01 0 0 0
578 2 2.4610000000000003e+00 7.1042950623783341e+00 2.6889432622604470e+01 0 0 0
609 2 4.9220000000000006e+00 4.2625770374269978e+00 2.6889432622604470e+01 0 0 0
611 2 6.1524999999999999e+00 4.9730065436648339e+00 2.6889432622604470e+01 0 0 0
642 2 6.1524999999999999e+00 6.3938655561404980e+00 2.6889432622604470e+01 0 0 0
646 2 7.3829999999999991e+00 4.2625770374269996e+00 2.6889432622604470e+01 0 0 0
607 2 4.9220000000000006e+00 7.1042950623783341e+00 2.6889432622604470e+01 0 0 0
644 2 7.3830000000000009e+00 7.1042950623783341e+00 2.6889432622604470e+01 0 0 0
648 2 8.6135000000000002e+00 4.9730065436648339e+00 2.6889432622604470e+01 0 0 0
687 2 8.6135000000000002e+00 6.3938655561404980e+00 2.6889432622604470e+01 0 0 0
691 2 9.8440000000000012e+00 4.2625770374270004e+00 2.6889432622604470e+01 0 0 0
693 2 1.1074500000000002e+01 4.9730065436648339e+00 2.6889432622604470e+01 0 0 0
734 2 1.1074500000000002e+01 6.3938655561404980e+00 2.6889432622604470e+01 0 0 0
689 2 9.8440000000000012e+00 7.1042950623783341e+00 2.6889432622604470e+01 0 0 0
572 2 0.0000000000000000e+00 8.5251540748539991e+00 2.6889432622604470e+01 0 0 0
574 2 1.2305000000000001e+00 9.2355835810918343e+00 2.6889432622604470e+01 0 0 0
601 2 2.4610000000000003e+00 8.5251540748539991e+00 2.6889432622604470e+01 0 0 0
603 2 3.6915000000000004e+00 9.2355835810918343e+00 2.6889432622604470e+01 0 0 0
570 2 0.0000000000000000e+00 1.1366872099805333e+01 2.6889432622604470e+01 0 0 0
597 2 1.2305000000000001e+00 1.0656442593567498e+01 2.6889432622604470e+01 0 0 0
599 2 2.4610000000000003e+00 1.1366872099805333e+01 2.6889432622604470e+01 0 0 0
634 2 3.6914999999999996e+00 1.0656442593567499e+01 2.6889432622604470e+01 0 0 0
638 2 4.9220000000000006e+00 8.5251540748539991e+00 2.6889432622604470e+01 0 0 0
681 2 7.3829999999999991e+00 1.1366872099805333e+01 2.6889432622604470e+01 0 0 0
679 2 6.1524999999999999e+00 1.0656442593567499e+01 2.6889432622604470e+01 0 0 0
683 2 7.3830000000000009e+00 8.5251540748539991e+00 2.6889432622604470e+01 0 0 0
636 2 4.9220000000000006e+00 1.1366872099805333e+01 2.6889432622604470e+01 0 0 0
640 2 6.1524999999999999e+00 9.2355835810918343e+00 2.6889432622604470e+01 0 0 0
685 2 8.6134999999999984e+00 9.2355835810918343e+00 2.6889432622604470e+01 0 0 0
1332 1 1.1712939371055054e+01 1.0669705905615732e+01 1.7073527086062505e+01 0 0 1
1594 1 6.2940070149194047e-02 1.0859316132496028e+01 2.4780218197866450e+01 1 1 1
1609 1 9.0869823189240435e+00 1.2231031880466816e+01 1.8111949106352192e+01 0 0 1
134 1 7.0098924558194131e+00 5.6872853473410957e-02 2.1536300516899519e+01 2 -1 1
1837 1 1.2142685181703930e+01 1.2999517032055508e-01 2.1582097891127923e+01 1 1 0
3105 1 9.7651966924353779e+00 5.8745795389191944e+00 1.6993589638124813e+01 0 2 1
553 2 0.0000000000000000e+00 1.4208590124756650e+00 3.0030999999999413e+01 0 0 0
555 2 0.0000000000000000e+00 0.0000000000000000e+00 3.0030999999999413e+01 0 0 0
564 2 1.2305000000000001e+00 2.1312885187134998e+00 3.0030999999999413e+01 0 0 0
566 2 2.4610000000000003e+00 1.4208590124756650e+00 3.0030999999999413e+01 0 0 0
568 2 2.4610000000000003e+00 0.0000000000000000e+00 3.0030999999999413e+01 0 0 0
585 2 3.6914999999999996e+00 2.1312885187134998e+00 3.0030999999999413e+01 0 0 0
562 2 1.2305000000000001e+00 3.5521475311891644e+00 3.0030999999999413e+01 0 0 0
583 2 3.6914999999999996e+00 3.5521475311891644e+00 3.0030999999999413e+01 0 0 0
881 2 0.0000000000000000e+00 2.8417180249513345e+00 3.3172567377391708e+01 0 0 0
882 2 0.0000000000000000e+00 0.0000000000000000e+00 3.3172567377391708e+01 0 0 0
883 2 1.2305000000000001e+00 7.1042950623783474e-01 3.3172567377391708e+01 0 0 0
887 2 1.2305000000000001e+00 2.1312885187134998e+00 3.3172567377391708e+01 0 0 0
888 2 2.4610000000000003e+00 2.8417180249513345e+00 3.3172567377391708e+01 0 0 0
889 2 2.4610000000000003e+00 0.0000000000000000e+00 3.3172567377391708e+01 0 0 0
890 2 3.6915000000000004e+00 7.1042950623783474e-01 3.3172567377391708e+01 0 0 0
898 2 3.6914999999999996e+00 2.1312885187134998e+00 3.3172567377391708e+01 0 0 0
587 2 4.9220000000000006e+00 1.4208590124756650e+00 3.0030999999999413e+01 0 0 0
589 2 4.9220000000000006e+00 0.0000000000000000e+00 3.0030999999999413e+01 0 0 0
614 2 6.1524999999999999e+00 2.1312885187134989e+00 3.0030999999999413e+01 0 0 0
616 2 7.3829999999999991e+00 1.4208590124756659e+00 3.0030999999999413e+01 0 0 0
618 2 7.3829999999999991e+00 0.0000000000000000e+00 3.0030999999999413e+01 0 0 0
612 2 6.1524999999999999e+00 3.5521475311891644e+00 3.0030999999999413e+01 0 0 0
899 2 4.9220000000000006e+00 2.8417180249513332e+00 3.3172567377391708e+01 0 0 0
900 2 4.9220000000000006e+00 0.0000000000000000e+00 3.3172567377391708e+01 0 0 0
901 2 6.1524999999999999e+00 7.1042950623783407e-01 3.3172567377391708e+01 0 0 0
913 2 6.1524999999999999e+00 2.1312885187134989e+00 3.3172567377391708e+01 0 0 0
914 2 7.3829999999999991e+00 2.8417180249513345e+00 3.3172567377391708e+01 0 0 0
915 2 7.3829999999999991e+00 0.0000000000000000e+00 3.3172567377391708e+01 0 0 0
651 2 8.6134999999999984e+00 2.1312885187135002e+00 3.0030999999999413e+01 0 0 0
653 2 9.8440000000000012e+00 1.4208590124756659e+00 3.0030999999999413e+01 0 0 0
655 2 9.8440000000000012e+00 0.0000000000000000e+00 3.0030999999999413e+01 0 0 0
696 2 1.1074500000000002e+01 2.1312885187135002e+00 3.0030999999999413e+01 0 0 0
649 2 8.6134999999999984e+00 3.5521475311891657e+00 3.0030999999999413e+01 0 0 0
694 2 1.1074500000000002e+01 3.5521475311891644e+00 3.0030999999999413e+01 0 0 0
916 2 8.6134999999999984e+00 7.1042950623783407e-01 3.3172567377391708e+01 0 0 0
932 2 8.6134999999999984e+00 2.1312885187135002e+00 3.3172567377391708e+01 0 0 0
933 2 9.8440000000000012e+00 2.8417180249513332e+00 3.3172567377391708e+01 0 0 0
934 2 9.8440000000000012e+00 0.0000000000000000e+00 3.3172567377391708e+01 0 0 0
935 2 1.1074500000000002e+01 7.1042950623783330e-01 3.3172567377391708e+01 0 0 0
955 2 1.1074500000000002e+01 2.1312885187135002e+00 3.3172567377391708e+01 0 0 0
558 2 0.0000000000000000e+00 5.6834360499026637e+00 3.0030999999999413e+01 0 0 0
560 2 0.0000000000000000e+00 4.2625770374269996e+00 3.0030999999999413e+01 0 0 0
577 2 1.2305000000000001e+00 6.3938655561404980e+00 3.0030999999999413e+01 0 0 0
579 2 2.4610000000000003e+00 5.6834360499026637e+00 3.0030999999999413e+01 0 0 0
581 2 2.4610000000000003e+00 4.2625770374269996e+00 3.0030999999999413e+01 0 0 0
606 2 3.6914999999999996e+00 6.3938655561404980e+00 3.0030999999999413e+01 0 0 0
575 2 1.2305000000000001e+00 7.8147245686161639e+00 3.0030999999999413e+01 0 0 0
604 2 3.6914999999999996e+00 7.8147245686161639e+00 3.0030999999999413e+01 0 0 0
885 2 0.0000000000000000e+00 4.2625770374269996e+00 3.3172567377391708e+01 0 0 0
886 2 1.2305000000000001e+00 4.9730065436648339e+00 3.3172567377391708e+01 0 0 0
894 2 1.2305000000000001e+00 6.3938655561404980e+00 3.3172567377391708e+01 0 0 0
896 2 2.4610000000000003e+00 4.2625770374269996e+00 3.3172567377391708e+01 0 0 0
897 2 3.6914999999999996e+00 4.9730065436648339e+00 3.3172567377391708e+01 0 0 0
909 2 3.6914999999999996e+00 6.3938655561404980e+00 3.3172567377391708e+01 0 0 0
884 2 0.0000000000000000e+00 7.1042950623783341e+00 3.3172567377391708e+01 0 0 0
895 2 2.4610000000000003e+00 7.1042950623783341e+00 3.3172567377391708e+01 0 0 0
608 2 4.9220000000000006e+00 5.6834360499026637e+00 3.0030999999999413e+01 0 0 0
610 2 4.9220000000000006e+00 4.2625770374269978e+00 3.0030999999999413e+01 0 0 0
643 2 6.1524999999999999e+00 6.3938655561404980e+00 3.0030999999999413e+01 0 0 0
645 2 7.3829999999999991e+00 5.6834360499026637e+00 3.0030999999999413e+01 0 0 0
647 2 7.3829999999999991e+00 4.2625770374269996e+00 3.0030999999999413e+01 0 0 0
641 2 6.1524999999999999e+00 7.8147245686161639e+00 3.0030999999999413e+01 0 0 0
911 2 4.9220000000000006e+00 4.2625770374269978e+00 3.3172567377391708e+01 0 0 0
912 2 6.1524999999999999e+00 4.9730065436648339e+00 3.3172567377391708e+01 0 0 0
928 2 6.1524999999999999e+00 6.3938655561404980e+00 3.3172567377391708e+01 0 0 0
930 2 7.3829999999999991e+00 4.2625770374269996e+00 3.3172567377391708e+01 0 0 0
910 2 4.9220000000000006e+00 7.1042950623783341e+00 3.3172567377391708e+01 0 0 0
929 2 7.3830000000000009e+00 7.1042950623783341e+00 3.3172567377391708e+01 0 0 0
688 2 8.6135000000000002e+00 6.3938655561404980e+00 3.0030999999999413e+01 0 0 0
690 2 9.8440000000000012e+00 5.6834360499026637e+00 3.0030999999999413e+01 0 0 0
692 2 9.8440000000000012e+00 4.2625770374270004e+00 3.0030999999999413e+01 0 0 0
735 2 1.1074500000000002e+01 6.3938655561404980e+00 3.0030999999999413e+01 0 0 0
686 2 8.6135000000000002e+00 7.8147245686161639e+00 3.0030999999999413e+01 0 0 0
733 2 1.1074500000000002e+01 7.8147245686161639e+00 3.0030999999999413e+01 0 0 0
931 2 8.6135000000000002e+00 4.9730065436648339e+00 3.3172567377391708e+01 0 0 0
951 2 8.6135000000000002e+00 6.3938655561404980e+00 3.3172567377391708e+01 0 0 0
953 2 9.8440000000000012e+00 4.2625770374270004e+00 3.3172567377391708e+01 0 0 0
954 2 1.1074500000000002e+01 4.9730065436648339e+00 3.3172567377391708e+01 0 0 0
975 2 1.1074500000000002e+01 6.3938655561404980e+00 3.3172567377391708e+01 0 0 0
952 2 9.8440000000000012e+00 7.1042950623783341e+00 3.3172567377391708e+01 0 0 0
571 2 0.0000000000000000e+00 9.9460130873296642e+00 3.0030999999999413e+01 0 0 0
573 2 0.0000000000000000e+00 8.5251540748539991e+00 3.0030999999999413e+01 0 0 0
600 2 2.4610000000000003e+00 9.9460130873296642e+00 3.0030999999999413e+01 0 0 0
602 2 2.4610000000000003e+00 8.5251540748539991e+00 3.0030999999999413e+01 0 0 0
596 2 1.2305000000000001e+00 1.2077301606043163e+01 3.0030999999999413e+01 0 0 0
598 2 1.2305000000000001e+00 1.0656442593567498e+01 3.0030999999999413e+01 0 0 0
633 2 3.6914999999999996e+00 1.2077301606043163e+01 3.0030999999999413e+01 0 0 0
635 2 3.6914999999999996e+00 1.0656442593567499e+01 3.0030999999999413e+01 0 0 0
892 2 0.0000000000000000e+00 8.5251540748539991e+00 3.3172567377391708e+01 0 0 0
893 2 1.2305000000000001e+00 9.2355835810918343e+00 3.3172567377391708e+01 0 0 0
907 2 2.4610000000000003e+00 8.5251540748539991e+00 3.3172567377391708e+01 0 0 0
908 2 3.6915000000000004e+00 9.2355835810918343e+00 3.3172567377391708e+01 0 0 0
891 2 0.0000000000000000e+00 1.1366872099805333e+01 3.3172567377391708e+01 0 0 0
905 2 1.2305000000000001e+00 1.0656442593567498e+01 3.3172567377391708e+01 0 0 0
906 2 2.4610000000000003e+00 1.1366872099805333e+01 3.3172567377391708e+01 0 0 0
924 2 3.6914999999999996e+00 1.0656442593567499e+01 3.3172567377391708e+01 0 0 0
637 2 4.9220000000000006e+00 9.9460130873296642e+00 3.0030999999999413e+01 0 0 0
639 2 4.9220000000000006e+00 8.5251540748539991e+00 3.0030999999999413e+01 0 0 0
682 2 7.3830000000000009e+00 9.9460130873296642e+00 3.0030999999999413e+01 0 0 0
684 2 7.3830000000000009e+00 8.5251540748539991e+00 3.0030999999999413e+01 0 0 0
678 2 6.1524999999999999e+00 1.2077301606043163e+01 3.0030999999999413e+01 0 0 0
680 2 6.1524999999999999e+00 1.0656442593567499e+01 3.0030999999999413e+01 0 0 0
926 2 4.9220000000000006e+00 8.5251540748539991e+00 3.3172567377391708e+01 0 0 0
927 2 6.1524999999999999e+00 9.2355835810918343e+00 3.3172567377391708e+01 0 0 0
949 2 7.3830000000000009e+00 8.5251540748539991e+00 3.3172567377391708e+01 0 0 0
925 2 4.9220000000000006e+00 1.1366872099805333e+01 3.3172567377391708e+01 0 0 0
947 2 6.1524999999999999e+00 1.0656442593567499e+01 3.3172567377391708e+01 0 0 0
948 2 7.3829999999999991e+00 1.1366872099805333e+01 3.3172567377391708e+01 0 0 0
729 2 9.8440000000000012e+00 9.9460130873296642e+00 3.0030999999999413e+01 0 0 0
731 2 9.8440000000000012e+00 8.5251540748539956e+00 3.0030999999999413e+01 0 0 0
725 2 8.6135000000000002e+00 1.2077301606043163e+01 3.0030999999999413e+01 0 0 0
727 2 8.6134999999999984e+00 1.0656442593567498e+01 3.0030999999999413e+01 0 0 0
772 2 1.1074500000000002e+01 1.2077301606043163e+01 3.0030999999999413e+01 0 0 0
774 2 1.1074500000000002e+01 1.0656442593567498e+01 3.0030999999999413e+01 0 0 0
950 2 8.6134999999999984e+00 9.2355835810918343e+00 3.3172567377391708e+01 0 0 0
973 2 9.8440000000000012e+00 8.5251540748539956e+00 3.3172567377391708e+01 0 0 0
974 2 1.1074500000000002e+01 9.2355835810918343e+00 3.3172567377391708e+01 0 0 0
971 2 8.6134999999999984e+00 1.0656442593567498e+01 3.3172567377391708e+01 0 0 0
972 2 9.8440000000000012e+00 1.1366872099805333e+01 3.3172567377391708e+01 0 0 0
995 2 1.1074500000000002e+01 1.0656442593567498e+01 3.3172567377391708e+01 0 0 0
996 2 1.2304999999999998e+01 1.1366872099805333e+01 3.3172567377391708e+01 0 0 0
6040 1 1.2561996895855982e+00 2.3226826499758078e+00 3.5758286956816320e+01 1 1 -1
4918 1 4.6949932862428083e+00 2.6588371817017991e+00 3.9532759898238396e+01 0 0 -1
6210 1 3.1515368615316230e+00 8.0892498893290359e+00 4.1937865679674829e+01 1 0 -1
1681 1 9.0625876589045031e+00 5.6456180232707365e-01 3.8968069094081571e+01 -1 0 0
1850 1 7.4621139538714623e+00 3.0030386661307538e+00 3.5938700606631883e+01 0 0 -1
1652 1 7.7674084515290509e-01 3.3264972304879210e+00 4.0145520622851919e+01 1 1 -1
4486 1 1.0472300831741194e+01 2.7100597432551448e+00 3.5753691528437741e+01 0 0 0
3238 1 1.1015778107829737e+01 1.0554524136481506e+01 4.0158214772454414e+01 1 0 -1
4438 1 3.2377622226713112e+00 7.1374705886613148e+00 3.8844389856860687e+01 0 0 0
2881 1 4.0065696947960729e+00 3.9074822274576935e+00 3.5632552631869338e+01 1 1 0
14 1 6.4651259479382341e+00 5.6849345820314481e+00 3.5938289527585781e+01 0 1 0
4974 1 5.7625738454986024e+00 5.5907900948435110e+00 3.8531805377129174e+01 1 1 -1
2852 1 9.6629314005245757e+00 6.0756957487738479e+00 3.5873442226933022e+01 -1 1 0
4610 1 7.2105158022009492e+00 2.8464894445269699e+00 3.8689068448497778e+01 0 0 0
4714 1 1.4875983350226896e+00 8.8736616531762980e-01 4.1164564210549415e+01 1 0 0
6108 1 9.0171474722637814e+00 8.4954687100209458e+00 3.8535413048396876e+01 -1 0 0
6223 1 9.0691563455660926e+00 7.4158239757414243e-02 3.6339759223489651e+01 0 0 -1
1397 1 3.2585241411889112e+00 1.0032697570889205e+01 3.5975159358944907e+01 0 0 -1
4871 1 2.4879685861561875e+00 1.0403583453948055e+01 4.0647866101784061e+01 0 1 0
229 1 5.7091988655572568e+00 8.4371152897832538e+00 3.6146669989108190e+01 1 0 -1
4778 1 4.6674746604295203e+00 9.8386313140441199e+00 3.8879492447538283e+01 0 0 -1
3206 1 8.0200142224878768e+00 7.9353180009344904e+00 4.2811272916175028e+01 1 0 -1
502 1 1.1572454345916206e+01 9.2741556006074877e+00 3.6140463152157011e+01 0 -1 0
2865 1 8.5622613916435100e+00 8.7794935165719714e+00 3.5625396636204542e+01 0 0 0
6106 1 3.8514326208730534e+00 3.8597847471502176e+00 4.2212135185842484e+01 0 1 0
6043 1 2.9132379112128970e-01 7.9793503672084674e+00 3.9421925138385546e+01 2 1 0
1773 1 2.6986038257486809e+00 4.0157588088622775e+00 3.8141158240160252e+01 1 0 -1
5136 1 8.9060105538551344e+00 1.1813984399115226e+01 4.2025062254324823e+01 0 0 0
4717 1 1.4903184637345488e+00 5.7321023583871540e+00 3.5608177595401926e+01 1 0 0
4723 1 5.0286697892872043e+00 1.3937468730744069e+00 3.6717888842376070e+01 0 1 0
5143 1 1.0184114139480766e+01 2.9309984207222701e+00 4.1828773192833935e+01 0 1 -1
4520 1 1.7358147564965090e+00 5.8592732182528477e+00 4.1149761658282586e+01 1 0 0
475 1 8.5930940835065872e+00 4.5740662193593753e+00 4.0293373261619379e+01 1 0 -1
1264 1 7.5050538608852220e+00 5.1708458027030142e+00 4.3018334305685556e+01 0 0 0
1690 1 6.6458374356419627e+00 7.9874392523745561e+00 3.9766740516629312e+01 2 0 0
6034 1 1.1269632279722494e+01 3.0761015600135893e+00 3.8640349538637111e+01 0 1 0
1897 1 6.3588124695433805e+00 1.0388203649853251e+01 4.1893231245572878e+01 2 0 0
1616 1 1.0649061769861468e+01 8.4720906005455863e+00 4.2200579817992036e+01 2 0 -1
5954 1 7.9336365293280329e+00 1.1838720236827783e+01 3.5651768826188984e+01 0 0 0
339 1 1.1303772031210433e+00 8.3292905296178290e+00 3.6955231165406630e+01 -1 1 -1
3487 1 8.1468708267800132e+00 1.1135379724714280e+01 3.8330015107117958e+01 1 0 -1
2836 1 4.1131457502701236e+00 8.8265660813955482e-02 4.0654564489428751e+01 1 0 0
4434 1 1.1184800498491171e+01 4.5309169162544477e-01 4.0742134182816997e+01 1 1 0
6133 1 1.0611239734406759e+01 6.0399767328526286e+00 3.8609165332506635e+01 2 1 0
3618 1 8.1670884559286083e+00 1.3625589062380909e+00 4.2933460378766867e+01 0 0 -1
5321 1 1.2282360310730258e+01 7.0721886555333251e+00 4.0944596458046490e+01 0 0 0
1827 1 1.0867015684211398e-02 6.4244038768346767e+00 4.8190374380219907e+01 0 -1 -1
15 1 3.1864767050026210e+00 1.1434242458338698e+01 4.7035916276728457e+01 0 0 0
6235 1 2.0214676234691159e-01 3.9162301252097511e+00 4.4507697969275455e+01 1 1 -1
5029 1 6.1093039981669692e+00 2.8874179906468158e+00 4.4681078132847517e+01 0 0 -1
1356 1 1.1728212313864359e+01 1.1668624815517694e+01 5.0386689628056317e+01 0 1 0
6289 1 6.9001130677658615e+00 5.0873219224888411e+00 4.9081599758077402e+01 0 1 -1
1805 1 5.4528878818344384e-01 9.6368534108069515e+00 5.0914165257976677e+01 -1 0 -1
6233 1 3.9064846944262244e+00 7.2166397205556896e+00 5.2794718252591878e+01 0 0 0
1586 1 1.1594066971706175e+01 3.5573561827498157e+00 4.4287671902640483e+01 1 2 -1
6318 1 6.0991498097746533e+00 1.1054318173855105e+01 5.4210738163609648e+01 1 0 0
4584 1 4.8372012648174643e+00 6.1642899972695151e+00 4.3579803043613225e+01 1 0 0
1953 1 3.9205077030143309e+00 6.3370169095789408e-01 4.5126693660838754e+01 1 1 -1
4772 1 1.6581316684111556e+00 6.6708707078475200e+00 4.5977654588176705e+01 0 0 -1
2962 1 3.5669154269560925e+00 4.5741848769204738e+00 4.5466716211546995e+01 1 1 -1
29 1 5.5534811576642058e+00 8.9170001224803048e+00 4.4398202757383956e+01 0 0 -1
1519 1 9.9399217293155573e+00 6.0985452064043635e+00 4.4733587803292750e+01 1 0 0
4786 1 6.0409178641100878e+00 1.1998389996013620e+01 4.7426399952675382e+01 1 0 -1
3038 1 8.2177343744846372e+00 3.9778245725620844e+00 4.6572619377514258e+01 1 -1 0
2056 1 3.7462719005185243e+00 8.2016749864399277e+00 4.8084537423867701e+01 0 0 0
3316 1 1.1000110118223105e+01 5.1652044313735264e+00 5.0098621821599778e+01 0 1 -1
1816 1 6.3698333761416270e+00 8.3672912967091129e-01 5.0056919247017476e+01 0 1 0
1882 1 8.6397425867779987e-02 1.1635275803347012e+00 4.6661212984858210e+01 1 1 -1
1786 1 8.3643533229953473e+00 9.2749530632823447e+00 5.3514702951765400e+01 1 0 0
5 1 2.7075131840544038e+00 9.1728072429733807e+00 4.5242626510114761e+01 1 0 -1
1554 1 8.6544220855939435e-01 4.3849417558650750e+00 5.1019255807998846e+01 2 1 0