LAMMPS data file via write_data, version 16 Mar 2018, timestep = 100000

6489 atoms
2 atom types

0.0000000000000000e+00 4.9219999999999999e+01 xlo xhi
0.0000000000000000e+00 4.9019635930410494e+01 ylo yhi
2.1102705090637208e+00 5.7951729490935406e+01 zlo zhi

Masses

1 18.015
2 12.01

Atoms # atomic

1994 1 2.5941209355740549e+00 5.5726923740361993e+00 4.4792893055568852e+00 0 1 0
429 1 5.9703006816580464e+00 9.5074262371282053e-02 2.5606281291542548e+00 0 0 0
6192 1 6.3974269659554199e+00 2.3942413976761330e+00 3.9603698039242765e+00 0 1 1
3592 1 2.0657579640929957e+00 7.4421800370559259e+00 8.0041317075636744e+00 1 0 1
4812 1 2.0722866804829474e+00 5.2433887888536312e-01 5.4956235815877257e+00 0 1 1
3475 1 5.3838221738322067e+00 7.0120980726303879e+00 5.3495547392961438e+00 0 0 1
1984 1 6.6621984938364731e+00 1.0254460181582717e+01 6.1826778853878990e+00 0 1 0
6487 1 3.9867184403700620e+00 9.5107923887710015e+00 5.6730824093627863e+00 1 0 1
2874 1 8.8915334546871225e+00 2.7312986831468549e+00 5.1739385696223312e+00 0 1 0
4514 1 4.7948832897162950e+00 1.0906062321505784e+01 3.5292703232374540e+00 1 1 1
1971 1 2.7738286876743463e+00 1.0422242053388402e+01 7.9695630957615000e+00 0 0 0
3797 1 1.4776194880434821e+00 8.0663763150019996e+00 5.2418943528625341e+00 0 1 0
1911 1 6.6879667273728431e+00 6.5695952850479218e+00 2.6016812949564603e+00 0 0 0
74 1 9.2529062809154912e+00 4.3980121520985038e-01 6.8391599780298398e+00 0 0 0
512 1 8.4629386914414972e+00 8.3764130881437087e+00 4.8444820441535050e+00 -1 0 1
1337 1 4.8220998807003497e+00 1.0857397477004098e+00 5.8154254700196351e+00 1 0 1
3149 1 3.6148846428598058e-01 1.0593188348437247e+01 4.1035495012915550e+00 0 0 1
4652 1 7.2140658926229086e+00 9.0767024285004787e+00 8.8237490684437692e+00 0 1 1
306 1 1.5900418245447618e+00 3.6514439815249098e+00 6.3417144335377760e+00 1 0 0
3118 1 3.6803921904717525e+00 5.5907426957016959e+00 7.4381272668919713e+00 0 1 0
6445 1 9.7159499888190144e+00 6.5428432804775793e+00 2.1706462273236560e+00 1 2 0
4586 1 5.2094999536291136e+00 2.1896097629262643e+00 8.4404423424943733e+00 0 0 1
3682 1 7.5729455532003653e+00 6.6514640872643511e+00 7.2003468228179974e+00 0 0 1
479 1 9.6075304897540441e+00 4.9090461247027397e+00 6.7188621244918902e+00 0 1 1
3420 1 9.8120792182433458e+00 9.0378626758271103e+00 8.7769566347846535e+00 1 1 0
6324 1 4.5411090530578173e+00 1.0047008257287052e+01 1.2445089661514062e+01 1 0 0
393 1 4.9332763156199597e+00 1.1676538315170525e+01 1.5230400557225868e+01 0 1 0
424 1 1.4357050059881680e+00 4.6168067599786315e+00 1.1160384782127846e+01 1 0 0
2143 1 3.5226803887689671e+00 2.1932115746936955e+00 1.2609398200808075e+01 0 1 1
5412 1 8.9795967921258057e+00 2.5783221706031090e+00 1.3472581461298756e+01 0 0 1
527 1 2.8796777876110529e+00 7.1053492538589103e+00 1.0747659439800534e+01 0 0 1
2947 1 4.5920186583805434e+00 4.8902575894841522e+00 1.1702566776261754e+01 0 1 0
510 1 6.0387343213073450e+00 7.7121857318558478e+00 1.1280729769650224e+01 1 0 0
6437 1 3.3275293919233784e+00 6.7159805363462572e+00 1.5679257050775970e+01 0 1 0
4729 1 9.1070108556551528e+00 3.2661390119172096e-01 1.1648794114757228e+01 0 1 0
1791 1 6.7528118783596005e+00 9.8118836061276937e+00 1.4597899469699726e+01 0 1 0
1480 1 8.4835838413486204e+00 1.1684248235867878e+01 1.4143014983977324e+01 1 0 1
1456 1 4.5652213107511685e-01 9.8815948992292686e+00 9.7038276575488673e+00 1 0 1
162 1 5.8814585831602635e+00 5.9474853912404280e-01 1.3319274181681507e+01 1 1 0
3464 1 2.3429112881615959e+00 2.8756171735531963e+00 1.5330660072870982e+01 0 0 0
508 1 1.6875515391459184e+00 6.7143901639947978e-01 1.1109379400499821e+01 -1 1 1
5129 1 6.2876051577911634e+00 4.6559306210965667e+00 9.2048755101023403e+00 0 1 0
1774 1 6.6608274497139623e+00 2.8174098424985079e+00 1.4934486871876205e+01 0 0 1
5259 1 1.9371956063103954e+00 9.0649871445328767e+00 1.2424298275486112e+01 1 0 1
3058 1 6.5040738180230329e-01 4.0487061383539640e+00 1.3643786594694657e+01 1 0 0
5273 1 7.6549326250027316e-01 6.9041925786045697e+00 1.3843586562456602e+01 1 0 1
1985 1 7.4587250214098013e+00 7.0107487797319088e+00 1.3585678023267635e+01 1 1 1
158 1 5.4332867298189198e+00 5.3733900370192123e+00 1.4321223108981242e+01 0 1 0
6366 1 8.6979262078089405e+00 3.8737252062103229e+00 1.0933040512257222e+01 1 0 1
431 1 2.5291982802290822e+00 2.6669074919998592e+00 9.2843499254823705e+00 2 1 0
4921 1 6.4776780820796818e+00 6.6212835177075557e-01 1.0532145950876361e+01 0 0 0
1878 1 6.9593845367965668e-01 1.0775798986072044e+01 1.5937553432165739e+01 0 0 0
3326 1 9.0565132563387660e+00 5.4047990085941455e+00 1.5170781082399138e+01 1 0 0
1892 1 9.6051001691128750e+00 1.1602239278225701e+01 9.4241756869026396e+00 1 0 0
3292 1 9.6081977201120274e+00 6.1783719725657775e+00 1.2065346488867341e+01 0 1 0
397 1 3.1295608000478525e-01 1.2098344343369716e+01 1.1789648747993603e+01 1 1 0
5353 1 7.6063706718486124e+00 1.0526205353601087e+01 2.0914229781972292e+01 0 0 1
1385 1 7.7264103547199419e+00 2.4280462651040033e+00 1.7751114003768379e+01 1 0 1
3695 1 4.6190224685091303e+00 1.7182145944642300e+00 1.7086411122320268e+01 0 1 0
6209 1 3.9896437876351611e+00 3.4796262163646028e+00 1.9241883965347402e+01 0 1 1
3437 1 5.0839418388290083e+00 8.8886816983493873e+00 1.9516253540449917e+01 1 -1 0
3465 1 2.4059458797224105e+00 5.0126833593300448e+00 1.7526032200238312e+01 0 0 0
71 1 7.4139396141984300e+00 7.7329263147409941e+00 2.1645931073482640e+01 0 0 0
2960 1 6.2961708637046989e+00 8.0998086588567233e+00 1.7148954192663751e+01 0 1 1
6285 1 6.9262663763407133e+00 1.2106156525030181e+01 1.7724267483033373e+01 1 1 0
3105 1 7.0873519367656641e+00 3.3328928110336684e+00 2.2882118240168335e+01 -1 0 1
3522 1 3.5249968866550860e+00 9.4476655698494518e+00 1.6118715428322872e+01 1 0 0
5248 1 4.9047576324955315e+00 1.1926112511561630e+01 1.9845421996020789e+01 0 -1 0
6416 1 9.7356581269850793e+00 1.0570027682035024e+01 1.9280242912543262e+01 1 1 0
5199 1 2.5732554521258502e+00 9.8831712320343410e+00 1.8711175182408304e+01 0 0 0
6212 1 1.1859772751461541e+00 8.0261215575184970e+00 2.1688896748519337e+01 0 0 1
3799 1 2.0656674994845434e+00 1.8623940817945914e+00 2.0375438192203514e+01 1 0 0
1633 1 8.8362714617318776e+00 9.3939691007438935e+00 1.6921232478769127e+01 0 1 1
5329 1 9.4059330518577671e+00 6.6621430847467069e+00 2.0309574118940830e+01 1 1 0
249 1 9.3673470366228742e+00 1.8248514468772068e+00 2.0638127552676355e+01 0 0 0
1988 1 5.3252543534632064e+00 6.0350044364849769e+00 2.1421755831307891e+01 1 0 0
4585 1 2.8905256457494723e+00 6.8917041754262707e+00 1.9636097828871609e+01 0 1 1
3508 1 7.5985251547280948e+00 5.6567163554480873e+00 1.8171771277285057e+01 0 0 0
1902 1 6.5318237660168208e+00 3.8601091277413451e+00 1.9992443179789984e+01 0 0 0
1955 1 3.0310852739974319e+00 2.3051655934364161e+00 2.4423360611939277e+01 0 0 0
3106 1 4.6694409166651578e+00 4.4883613429804079e+00 2.4320224409274346e+01 1 -1 1
473 1 1.9622349273876851e+00 7.8662624430085737e+00 2.4244991614505469e+01 0 1 0
701 2 7.3829999999999991e+00 1.1366872099805333e+01 2.6886229618388526e+01 0 0 0
658 2 4.9220000000000006e+00 8.5251540748539991e+00 2.6886229618388526e+01 0 0 0
5158 1 4.6608228090437525e+00 7.4879550974636029e+00 2.4192807248051505e+01 1 1 0
3010 1 9.1673225425890319e+00 4.4050123829869445e+00 2.4129850702871241e+01 0 1 1
1650 1 8.2693728425070052e+00 7.1396911429272061e+00 2.4184504072475487e+01 1 1 1
5037 1 1.9048370397306555e+00 1.0801178061572278e+01 2.4466861939965860e+01 0 -1 0
1266 1 4.6178494345639525e+00 1.1062019828569349e+01 2.3758548510969860e+01 0 0 1
3510 1 6.6519803910446722e+00 9.7935148935532599e+00 2.4703432700156867e+01 1 0 0
699 2 6.1524999999999999e+00 1.0656442593567499e+01 2.6886229618388526e+01 0 0 0
656 2 4.9220000000000006e+00 1.1366872099805333e+01 2.6886229618388526e+01 0 0 0
572 2 0.0000000000000000e+00 2.8417180249513345e+00 2.6886229618388526e+01 0 0 0
574 2 0.0000000000000000e+00 0.0000000000000000e+00 2.6886229618388526e+01 0 0 0
576 2 1.2305000000000001e+00 7.1042950623783474e-01 2.6886229618388526e+01 0 0 0
583 2 1.2305000000000001e+00 2.1312885187134998e+00 2.6886229618388526e+01 0 0 0
585 2 2.4610000000000003e+00 2.8417180249513345e+00 2.6886229618388526e+01 0 0 0
587 2 2.4610000000000003e+00 0.0000000000000000e+00 2.6886229618388526e+01 0 0 0
589 2 3.6915000000000004e+00 7.1042950623783474e-01 2.6886229618388526e+01 0 0 0
604 2 3.6914999999999996e+00 2.1312885187134998e+00 2.6886229618388526e+01 0 0 0
606 2 4.9220000000000006e+00 2.8417180249513332e+00 2.6886229618388526e+01 0 0 0
608 2 4.9220000000000006e+00 0.0000000000000000e+00 2.6886229618388526e+01 0 0 0
610 2 6.1524999999999999e+00 7.1042950623783407e-01 2.6886229618388526e+01 0 0 0
633 2 6.1524999999999999e+00 2.1312885187134989e+00 2.6886229618388526e+01 0 0 0
635 2 7.3829999999999991e+00 2.8417180249513345e+00 2.6886229618388526e+01 0 0 0
637 2 7.3829999999999991e+00 0.0000000000000000e+00 2.6886229618388526e+01 0 0 0
639 2 8.6134999999999984e+00 7.1042950623783407e-01 2.6886229618388526e+01 0 0 0
670 2 8.6134999999999984e+00 2.1312885187135002e+00 2.6886229618388526e+01 0 0 0
579 2 0.0000000000000000e+00 4.2625770374269996e+00 2.6886229618388526e+01 0 0 0
581 2 1.2305000000000001e+00 4.9730065436648339e+00 2.6886229618388526e+01 0 0 0
596 2 1.2305000000000001e+00 6.3938655561404980e+00 2.6886229618388526e+01 0 0 0
600 2 2.4610000000000003e+00 4.2625770374269996e+00 2.6886229618388526e+01 0 0 0
602 2 3.6914999999999996e+00 4.9730065436648339e+00 2.6886229618388526e+01 0 0 0
625 2 3.6914999999999996e+00 6.3938655561404980e+00 2.6886229618388526e+01 0 0 0
577 2 0.0000000000000000e+00 7.1042950623783341e+00 2.6886229618388526e+01 0 0 0
598 2 2.4610000000000003e+00 7.1042950623783341e+00 2.6886229618388526e+01 0 0 0
629 2 4.9220000000000006e+00 4.2625770374269978e+00 2.6886229618388526e+01 0 0 0
631 2 6.1524999999999999e+00 4.9730065436648339e+00 2.6886229618388526e+01 0 0 0
662 2 6.1524999999999999e+00 6.3938655561404980e+00 2.6886229618388526e+01 0 0 0
666 2 7.3829999999999991e+00 4.2625770374269996e+00 2.6886229618388526e+01 0 0 0
668 2 8.6135000000000002e+00 4.9730065436648339e+00 2.6886229618388526e+01 0 0 0
707 2 8.6135000000000002e+00 6.3938655561404980e+00 2.6886229618388526e+01 0 0 0
627 2 4.9220000000000006e+00 7.1042950623783341e+00 2.6886229618388526e+01 0 0 0
664 2 7.3830000000000009e+00 7.1042950623783341e+00 2.6886229618388526e+01 0 0 0
592 2 0.0000000000000000e+00 8.5251540748539991e+00 2.6886229618388526e+01 0 0 0
594 2 1.2305000000000001e+00 9.2355835810918343e+00 2.6886229618388526e+01 0 0 0
621 2 2.4610000000000003e+00 8.5251540748539991e+00 2.6886229618388526e+01 0 0 0
623 2 3.6915000000000004e+00 9.2355835810918343e+00 2.6886229618388526e+01 0 0 0
590 2 0.0000000000000000e+00 1.1366872099805333e+01 2.6886229618388526e+01 0 0 0
617 2 1.2305000000000001e+00 1.0656442593567498e+01 2.6886229618388526e+01 0 0 0
619 2 2.4610000000000003e+00 1.1366872099805333e+01 2.6886229618388526e+01 0 0 0
654 2 3.6914999999999996e+00 1.0656442593567499e+01 2.6886229618388526e+01 0 0 0
660 2 6.1524999999999999e+00 9.2355835810918343e+00 2.6886229618388526e+01 0 0 0
705 2 8.6134999999999984e+00 9.2355835810918343e+00 2.6886229618388526e+01 0 0 0
703 2 7.3830000000000009e+00 8.5251540748539991e+00 2.6886229618388526e+01 0 0 0
746 2 8.6134999999999984e+00 1.0656442593567498e+01 2.6886229618388526e+01 0 0 0
4956 1 3.5952747927013229e-01 5.1953969843104941e+00 2.4165896934804479e+01 1 0 1
1458 1 8.2426729129826217e+00 1.1811675122242226e+01 2.3287275957211193e+01 0 0 1
1585 1 7.5897171689382246e+00 6.3588321837757145e-01 2.3064849764180586e+01 0 0 0
573 2 0.0000000000000000e+00 1.4208590124756650e+00 3.0030999999999867e+01 0 0 0
575 2 0.0000000000000000e+00 0.0000000000000000e+00 3.0030999999999867e+01 0 0 0
584 2 1.2305000000000001e+00 2.1312885187134998e+00 3.0030999999999867e+01 0 0 0
586 2 2.4610000000000003e+00 1.4208590124756650e+00 3.0030999999999867e+01 0 0 0
588 2 2.4610000000000003e+00 0.0000000000000000e+00 3.0030999999999867e+01 0 0 0
605 2 3.6914999999999996e+00 2.1312885187134998e+00 3.0030999999999867e+01 0 0 0
582 2 1.2305000000000001e+00 3.5521475311891644e+00 3.0030999999999867e+01 0 0 0
603 2 3.6914999999999996e+00 3.5521475311891644e+00 3.0030999999999867e+01 0 0 0
901 2 0.0000000000000000e+00 2.8417180249513345e+00 3.3175770381610548e+01 0 0 0
902 2 0.0000000000000000e+00 0.0000000000000000e+00 3.3175770381610548e+01 0 0 0
903 2 1.2305000000000001e+00 7.1042950623783474e-01 3.3175770381610548e+01 0 0 0
907 2 1.2305000000000001e+00 2.1312885187134998e+00 3.3175770381610548e+01 0 0 0
908 2 2.4610000000000003e+00 2.8417180249513345e+00 3.3175770381610548e+01 0 0 0
909 2 2.4610000000000003e+00 0.0000000000000000e+00 3.3175770381610548e+01 0 0 0
910 2 3.6915000000000004e+00 7.1042950623783474e-01 3.3175770381610548e+01 0 0 0
918 2 3.6914999999999996e+00 2.1312885187134998e+00 3.3175770381610548e+01 0 0 0
607 2 4.9220000000000006e+00 1.4208590124756650e+00 3.0030999999999867e+01 0 0 0
609 2 4.9220000000000006e+00 0.0000000000000000e+00 3.0030999999999867e+01 0 0 0
634 2 6.1524999999999999e+00 2.1312885187134989e+00 3.0030999999999867e+01 0 0 0
636 2 7.3829999999999991e+00 1.4208590124756659e+00 3.0030999999999867e+01 0 0 0
638 2 7.3829999999999991e+00 0.0000000000000000e+00 3.0030999999999867e+01 0 0 0
671 2 8.6134999999999984e+00 2.1312885187135002e+00 3.0030999999999867e+01 0 0 0
632 2 6.1524999999999999e+00 3.5521475311891644e+00 3.0030999999999867e+01 0 0 0
669 2 8.6134999999999984e+00 3.5521475311891657e+00 3.0030999999999867e+01 0 0 0
919 2 4.9220000000000006e+00 2.8417180249513332e+00 3.3175770381610548e+01 0 0 0
920 2 4.9220000000000006e+00 0.0000000000000000e+00 3.3175770381610548e+01 0 0 0
921 2 6.1524999999999999e+00 7.1042950623783407e-01 3.3175770381610548e+01 0 0 0
933 2 6.1524999999999999e+00 2.1312885187134989e+00 3.3175770381610548e+01 0 0 0
934 2 7.3829999999999991e+00 2.8417180249513345e+00 3.3175770381610548e+01 0 0 0
935 2 7.3829999999999991e+00 0.0000000000000000e+00 3.3175770381610548e+01 0 0 0
936 2 8.6134999999999984e+00 7.1042950623783407e-01 3.3175770381610548e+01 0 0 0
952 2 8.6134999999999984e+00 2.1312885187135002e+00 3.3175770381610548e+01 0 0 0
578 2 0.0000000000000000e+00 5.6834360499026637e+00 3.0030999999999867e+01 0 0 0
580 2 0.0000000000000000e+00 4.2625770374269996e+00 3.0030999999999867e+01 0 0 0
597 2 1.2305000000000001e+00 6.3938655561404980e+00 3.0030999999999867e+01 0 0 0
599 2 2.4610000000000003e+00 5.6834360499026637e+00 3.0030999999999867e+01 0 0 0
601 2 2.4610000000000003e+00 4.2625770374269996e+00 3.0030999999999867e+01 0 0 0
626 2 3.6914999999999996e+00 6.3938655561404980e+00 3.0030999999999867e+01 0 0 0
595 2 1.2305000000000001e+00 7.8147245686161639e+00 3.0030999999999867e+01 0 0 0
624 2 3.6914999999999996e+00 7.8147245686161639e+00 3.0030999999999867e+01 0 0 0
905 2 0.0000000000000000e+00 4.2625770374269996e+00 3.3175770381610548e+01 0 0 0
906 2 1.2305000000000001e+00 4.9730065436648339e+00 3.3175770381610548e+01 0 0 0
914 2 1.2305000000000001e+00 6.3938655561404980e+00 3.3175770381610548e+01 0 0 0
916 2 2.4610000000000003e+00 4.2625770374269996e+00 3.3175770381610548e+01 0 0 0
917 2 3.6914999999999996e+00 4.9730065436648339e+00 3.3175770381610548e+01 0 0 0
929 2 3.6914999999999996e+00 6.3938655561404980e+00 3.3175770381610548e+01 0 0 0
904 2 0.0000000000000000e+00 7.1042950623783341e+00 3.3175770381610548e+01 0 0 0
915 2 2.4610000000000003e+00 7.1042950623783341e+00 3.3175770381610548e+01 0 0 0
628 2 4.9220000000000006e+00 5.6834360499026637e+00 3.0030999999999867e+01 0 0 0
630 2 4.9220000000000006e+00 4.2625770374269978e+00 3.0030999999999867e+01 0 0 0
663 2 6.1524999999999999e+00 6.3938655561404980e+00 3.0030999999999867e+01 0 0 0
665 2 7.3829999999999991e+00 5.6834360499026637e+00 3.0030999999999867e+01 0 0 0
667 2 7.3829999999999991e+00 4.2625770374269996e+00 3.0030999999999867e+01 0 0 0
708 2 8.6135000000000002e+00 6.3938655561404980e+00 3.0030999999999867e+01 0 0 0
661 2 6.1524999999999999e+00 7.8147245686161639e+00 3.0030999999999867e+01 0 0 0
706 2 8.6135000000000002e+00 7.8147245686161639e+00 3.0030999999999867e+01 0 0 0
931 2 4.9220000000000006e+00 4.2625770374269978e+00 3.3175770381610548e+01 0 0 0
932 2 6.1524999999999999e+00 4.9730065436648339e+00 3.3175770381610548e+01 0 0 0
948 2 6.1524999999999999e+00 6.3938655561404980e+00 3.3175770381610548e+01 0 0 0
950 2 7.3829999999999991e+00 4.2625770374269996e+00 3.3175770381610548e+01 0 0 0
951 2 8.6135000000000002e+00 4.9730065436648339e+00 3.3175770381610548e+01 0 0 0
971 2 8.6135000000000002e+00 6.3938655561404980e+00 3.3175770381610548e+01 0 0 0
930 2 4.9220000000000006e+00 7.1042950623783341e+00 3.3175770381610548e+01 0 0 0
949 2 7.3830000000000009e+00 7.1042950623783341e+00 3.3175770381610548e+01 0 0 0
591 2 0.0000000000000000e+00 9.9460130873296642e+00 3.0030999999999867e+01 0 0 0
593 2 0.0000000000000000e+00 8.5251540748539991e+00 3.0030999999999867e+01 0 0 0
620 2 2.4610000000000003e+00 9.9460130873296642e+00 3.0030999999999867e+01 0 0 0
622 2 2.4610000000000003e+00 8.5251540748539991e+00 3.0030999999999867e+01 0 0 0
616 2 1.2305000000000001e+00 1.2077301606043163e+01 3.0030999999999867e+01 0 0 0
618 2 1.2305000000000001e+00 1.0656442593567498e+01 3.0030999999999867e+01 0 0 0
653 2 3.6914999999999996e+00 1.2077301606043163e+01 3.0030999999999867e+01 0 0 0
655 2 3.6914999999999996e+00 1.0656442593567499e+01 3.0030999999999867e+01 0 0 0
912 2 0.0000000000000000e+00 8.5251540748539991e+00 3.3175770381610548e+01 0 0 0
913 2 1.2305000000000001e+00 9.2355835810918343e+00 3.3175770381610548e+01 0 0 0
927 2 2.4610000000000003e+00 8.5251540748539991e+00 3.3175770381610548e+01 0 0 0
928 2 3.6915000000000004e+00 9.2355835810918343e+00 3.3175770381610548e+01 0 0 0
911 2 0.0000000000000000e+00 1.1366872099805333e+01 3.3175770381610548e+01 0 0 0
925 2 1.2305000000000001e+00 1.0656442593567498e+01 3.3175770381610548e+01 0 0 0
926 2 2.4610000000000003e+00 1.1366872099805333e+01 3.3175770381610548e+01 0 0 0
944 2 3.6914999999999996e+00 1.0656442593567499e+01 3.3175770381610548e+01 0 0 0
657 2 4.9220000000000006e+00 9.9460130873296642e+00 3.0030999999999867e+01 0 0 0
659 2 4.9220000000000006e+00 8.5251540748539991e+00 3.0030999999999867e+01 0 0 0
702 2 7.3830000000000009e+00 9.9460130873296642e+00 3.0030999999999867e+01 0 0 0
704 2 7.3830000000000009e+00 8.5251540748539991e+00 3.0030999999999867e+01 0 0 0
698 2 6.1524999999999999e+00 1.2077301606043163e+01 3.0030999999999867e+01 0 0 0
700 2 6.1524999999999999e+00 1.0656442593567499e+01 3.0030999999999867e+01 0 0 0
745 2 8.6135000000000002e+00 1.2077301606043163e+01 3.0030999999999867e+01 0 0 0
747 2 8.6134999999999984e+00 1.0656442593567498e+01 3.0030999999999867e+01 0 0 0
946 2 4.9220000000000006e+00 8.5251540748539991e+00 3.3175770381610548e+01 0 0 0
947 2 6.1524999999999999e+00 9.2355835810918343e+00 3.3175770381610548e+01 0 0 0
969 2 7.3830000000000009e+00 8.5251540748539991e+00 3.3175770381610548e+01 0 0 0
970 2 8.6134999999999984e+00 9.2355835810918343e+00 3.3175770381610548e+01 0 0 0
945 2 4.9220000000000006e+00 1.1366872099805333e+01 3.3175770381610548e+01 0 0 0
967 2 6.1524999999999999e+00 1.0656442593567499e+01 3.3175770381610548e+01 0 0 0
968 2 7.3829999999999991e+00 1.1366872099805333e+01 3.3175770381610548e+01 0 0 0
991 2 8.6134999999999984e+00 1.0656442593567498e+01 3.3175770381610548e+01 0 0 0
6149 1 3.8146920531791162e+00 1.4854560928385072e+00 3.5754431405113522e+01 1 2 0
6483 1 6.6071969762355165e+00 1.9247770304708305e+00 3.6208363169035465e+01 1 1 -1
3384 1 1.3064464966256928e+00 2.4590714681732320e+00 3.6628821843303228e+01 -1 0 0
3287 1 3.1003168627566082e+00 6.5528981715455306e+00 3.5790162644811701e+01 1 0 -1
2026 1 5.7128952291882991e+00 5.5210942183227427e+00 3.5356757774861819e+01 1 0 -1
22 1 6.9577211029945927e+00 8.0616620526999956e+00 3.5932022759184235e+01 0 0 -1
2878 1 2.2754185118438617e+00 9.2135945019724748e+00 3.5397368058741819e+01 0 1 -1
3728 1 6.9422244302853164e-01 5.1845047486995082e+00 3.6459033881183231e+01 1 0 0
3329 1 9.0132391239831549e+00 1.0106590895726136e+01 3.5407027400228586e+01 0 1 0
3759 1 4.8522861158873400e+00 1.0270747087560304e+01 3.6253484602237748e+01 -1 1 0
2034 1 2.1115708050997287e-02 1.0597247307324908e+01 3.6190568643956098e+01 0 0 -1
205 1 9.5402410957102628e+00 1.9539961227385028e+00 3.5927976628915673e+01 0 0 -1
4633 1 4.2139345556867474e+00 8.2594609545777153e+00 4.2377302955510245e+01 1 1 -1
2190 1 3.9145732987335751e+00 2.8727980625832390e+00 3.9276476971751563e+01 0 1 0
3377 1 8.0187031237486206e-01 1.0292009231443490e+01 4.1812798831960734e+01 1 0 -1
1491 1 9.0403182646414546e+00 1.1200351379239695e+00 3.8659540701696073e+01 1 0 0
6401 1 5.8757954173464322e+00 4.4004768784376482e+00 3.8113015496320742e+01 1 0 -1
168 1 3.7498016620926315e+00 7.5058355367623468e+00 3.8295649612712722e+01 0 0 0
4766 1 3.8072863469822673e+00 1.0233993371087250e+01 3.9094754393785735e+01 1 0 -1
3364 1 2.6663547244044055e+00 1.4054957824351224e+00 4.2219437108380745e+01 0 1 -1
2948 1 7.1480584496234139e+00 4.8677357360945548e+00 4.0704493393344961e+01 0 0 -1
1602 1 9.0065295439493764e-01 1.0738131867095525e+01 3.9129624672542278e+01 2 1 -1
1336 1 8.9431933759637996e+00 8.5508209376210846e+00 3.9744547765113339e+01 -1 1 0
282 1 2.6342740922379448e+00 6.0197712713319946e+00 4.2323251437955520e+01 1 1 -1
1380 1 9.1524116358772396e+00 1.1277007930322105e+01 4.0507165843909291e+01 1 0 0
3347 1 6.3447477441682674e+00 7.3262506309977979e+00 3.8788332360130568e+01 0 1 -1
3254 1 6.7436668034052580e+00 1.1627124135734574e+00 4.3321339872276937e+01 -1 0 -1
3383 1 7.5988969099987020e+00 9.3202415425294802e+00 4.2581202176825016e+01 1 0 -1
6104 1 6.6801395913153803e+00 6.8639797103590068e+00 4.2715129539286252e+01 0 2 0
5440 1 1.2686327282328698e+00 2.3437974034244040e+00 3.9309559797326074e+01 1 1 0
3606 1 2.2463370652836687e+00 5.4647153493544849e+00 3.9705921204941731e+01 0 0 0
497 1 5.4468482037821069e+00 3.1474064092589935e+00 4.2026914916533599e+01 -1 0 -1
2945 1 9.3471147948262789e+00 1.9526878698186982e+00 4.1936390679324575e+01 0 1 0
3806 1 5.9515423954047471e+00 1.1053460288550838e+01 4.0616382787883012e+01 0 1 0
76 1 4.6204291631398693e+00 9.3567281519770606e+00 4.9448388620409816e+01 0 1 -1
4567 1 9.4124048913174665e+00 1.0042066456600987e+01 4.8989697237492678e+01 0 2 0
305 1 3.4151474552757741e+00 3.9427014829186433e+00 4.4145875847903923e+01 1 1 -1
5123 1 2.8018659420703020e+00 1.1642328512890114e+01 4.4850616764548946e+01 2 1 0
1551 1 8.0047879664079691e+00 9.8194347098821755e+00 4.5251891411218452e+01 1 0 0
1809 1 8.6961189181301748e+00 8.7179787353474092e-01 4.7798247227387293e+01 0 1 -1
525 1 5.5222976974342224e+00 8.2397444154234005e+00 4.6521456704842180e+01 0 0 0
2875 1 4.8430461247134415e+00 3.4326718315495701e+00 4.6714995893847686e+01 0 1 0
3751 1 8.8813652025666432e+00 4.9483514734889971e+00 4.5707714669232303e+01 1 0 0
3373 1 8.3892388075587487e-01 6.9876801727524960e+00 4.5084034398831420e+01 1 0 -1
1737 1 7.2187985171916242e+00 8.1843308333015568e+00 4.9046321172063912e+01 0 0 -1
3672 1 3.0883300812861427e+00 8.7700814634835051e+00 4.4811143462134908e+01 1 0 0
1282 1 5.9050976069020367e+00 1.1546134295943864e+01 4.5351776703537212e+01 0 0 0
1542 1 6.1298563267689348e+00 5.7706995552439411e+00 4.5224925634925683e+01 0 0 0
5362 1 3.1863112940025853e+00 1.0529572448007303e+00 4.8263264655893508e+01 1 0 -1
1673 1 3.7381229509608689e+00 1.1796778054558583e+01 4.8121299165657845e+01 1 0 -1
6485 1 4.9228762062106401e+00 2.2998312643331551e+00 5.0405353828753874e+01 0 0 0
1854 1 3.7044879796059931e+00 6.7583467912671891e+00 4.9861206890550520e+01 1 0 0
2866 1 6.5018457490900801e+00 1.2885655032432179e+00 4.6217197121901592e+01 0 1 0
2941 1 5.3941490791453504e+00 4.5880991754658007e+00 4.9292716192503391e+01 0 0 0
4536 1 8.0402863638340634e+00 5.3647072814376981e+00 4.9573592085585247e+01 0 1 0
3401 1 9.0333190776501784e+00 1.5003573888080273e+00 5.0618402993574335e+01 0 0 0
6207 1 7.2683783480754616e-01 7.4273235927685057e+00 4.9422192975900003e+01 0 1 0
3045 1 9.5947979868184383e+00 3.6143162022271822e+00 4.8008499116472507e+01 0 0 0
454 1 1.0085893336952529e+00 1.8816503889133658e+00 4.4464019665180857e+01 0 1 0
6155 1 8.9912601649938506e-01 1.1238546482118997e+01 4.6872238489012688e+01 0 0 0
3291 1 7.1807402252927111e-01 1.2186876106156815e+01 4.9529659444743473e+01 1 0 -1
419 1 8.6814698382241395e-01 9.9901015525417414e+00 5.0959767063362364e+01 1 0 -1
1837 1 3.3703195313074557e+00 5.7368632362578627e+00 5.2444976795370252e+01 1 0 -1
1682 1 2.3616771297189660e+00 9.0735338128377407e-01 5.3929959989617601e+01 0 1 -1
2964 1 4.6747087370548092e-02 1.0818718577194309e+01 5.5730474742274808e+01 0 1 0
6336 1 6.7906273756045641e+00 1.5335953996800131e+00 5.4477237152711382e+01 0 2 0
4565 1 6.4681996967790107e+00 5.4256556907391762e-01 5.1881060930851604e+01 0 1 0
3085 1 8.8346175477301347e+00 4.2300393221342754e+00 5.1814017589008046e+01 0 1 0
5244 1 8.2506271828433153e+00 9.7700533281227866e+00 5.5445802596675392e+01 0 0 -1
3063 1 6.0881221795605764e+00 6.6447159768503203e+00 5.4110079305067174e+01 0 1 -1
184 1 8.9580648436295700e+00 8.6217854816620640e+00 5.3232995055185498e+01 0 0 0
1784 1 6.8407725069520273e+00 4.2140274338690169e+00 5.5307234218962705e+01 0 0 -1
4964 1 2.3773960305549635e+00 1.0019436498748108e+01 5.3159836711647969e+01 0 0 0
9 1 4.8359270179062479e+00 1.0644710163436589e+01 5.2030434965650883e+01 1 0 0
3376 1 9.6488091573807040e+00 4.7705597975278806e+00 5.6061921712267718e+01 0 0 -1
161 1 4.1628251408993018e+00 1.0018736615697311e+01 5.6845435457815981e+01 0 0 0
2894 1 6.6299197334440185e+00 8.3710119644424630e+00 5.1950468442070004e+01 0 0 0
3410 1 2.0089601925760929e+00 1.6648939759510306e+00 5.6889311783645667e+01 1 1 -1
1376 1 6.1674514522386357e+00 8.4294133956695685e+00 5.6451894224029047e+01 0 0 -1
3158 1 9.1939210337960962e+00 4.5267598573948697e-01 5.5243903691346958e+01 -1 1 0
268 1 2.7062426232633645e+00 2.9195064562285529e+00 5.1851411034485508e+01 0 -1 -1
5074 1 3.3471985713940466e-01 5.7165161880982600e+00 5.2678187264628377e+01 1 0 -1
5162 1 1.7394705168599762e+00 6.6273509160151676e+00 5.6413845542794931e+01 1 1 -1
6296 1 3.3413662907450923e+00 7.8057756055772778e+00 5.4577253855459688e+01 1 1 0
4663 1 1.5904950623574845e+00 9.0961354244652721e+00 5.7602156076128693e+01 0 1 0
4882 1 5.4937331822885449e+00 4.1489062330936886e+00 5.7788072436204473e+01 1 1 -1
5051 1 2.7706749679292217e+00 4.1771324716393234e+00 5.7559721294081513e+01 1 1 -1
4982 1 2.5170656532071480e+00 1.2689371236938998e+01 3.7454593779064100e+00 0 0 0
1606 1 8.9017127063274923e+00 2.0608731594787596e+01 7.4103903451292199e+00 0 0 1
111 1 4.0248880931667870e+00 2.1043523365976473e+01 2.7022928365102783e+00 0 -1 1
1328 1 7.3664823494543450e+00 1.2400501457359368e+01 8.0288019090589309e+00 0 0 1
46 1 5.4528625392938599e+00 1.6585010577849182e+01 3.1550073135877303e+00 0 0 1
1730 1 7.3172308452952324e+00 1.7222715862484186e+01 5.0054313321254984e+00 0 1 1
1285 1 2.9328214344677863e+00 1.7446892939683455e+01 4.4294935291840041e+00 0 1 1
3604 1 3.0180376084783376e+00 2.1992775709843276e+01 8.9105377887645822e+00 1 0 0
326 1 6.9431778511620728e+00 1.9840111688009291e+01 5.7384737078833101e+00 0 0 0
2024 1 5.0214027732457200e+00 1.3938223915464048e+01 2.3927130689593183e+00 1 0 0
5151 1 6.0230172445591688e+00 2.2870883640361349e+01 6.4291739457241119e+00 0 0 0
2971 1 3.7418644120655467e+00 2.1517169231009909e+01 5.7685323123623480e+00 0 -1 1
449 1 1.2873390060892407e+00 2.2085202313546251e+01 4.3134937706286101e+00 0 1 0
4602 1 3.2923758148731480e-01 1.8146943927791394e+01 5.3893877144548554e+00 -1 0 1
5159 1 8.0308028674229099e+00 2.3597692859236730e+01 4.1887445311443052e+00 0 0 0
5150 1 3.9448569352117797e+00 2.4173111255032190e+01 2.6490706988360877e+00 1 -1 0
4886 1 1.2135953345762944e+00 2.0046662172558140e+01 7.5860994188159303e+00 0 0 0
5268 1 3.3031029800600882e+00 1.4771932812333882e+01 5.5896482916705024e+00 1 0 0
1531 1 3.9953390794138293e+00 1.5238280857202870e+01 8.5311808151712754e+00 0 -1 0
1626 1 6.3165180124350346e+00 1.5152592565653071e+01 6.5471452027693751e+00 1 0 0
521 1 8.2734823029574400e+00 1.6207048142185503e+01 8.2423850493092807e+00 0 0 1
3644 1 5.6821032551738746e+00 1.8499816218757545e+01 9.0516054644813924e+00 1 0 0
5443 1 4.1071199475832811e+00 1.8942550600020333e+01 6.5703358456861940e+00 0 0 0
6423 1 6.7717191986938285e+00 2.1305044518371048e+01 3.6313566041802714e+00 1 0 1
1852 1 1.1957426255276526e+00 1.4767307328421536e+01 8.1325619241962226e+00 0 0 0
1899 1 9.2802130750749168e+00 1.2866147720537802e+01 3.4876219451124593e+00 1 0 0
5394 1 1.1683031563962214e+00 1.2518306730927980e+01 6.5189349501964280e+00 1 0 1
3447 1 6.8991186187192275e+00 1.2671853646864822e+01 4.7007968718453963e+00 1 -1 1
2165 1 2.4869581914636463e+00 2.4314493465755390e+01 7.2581393946272534e+00 0 1 1
3123 1 7.2888551483803132e+00 2.2639542571012601e+01 8.7319054283284245e+00 0 0 0
1656 1 5.5044971403879570e+00 2.1157753157968511e+01 1.0055283540950313e+01 0 0 0
1610 1 5.2516564349326282e+00 1.7108461093954194e+01 1.5776084571062006e+01 0 0 0
2063 1 7.0966703429620628e+00 1.4446714667238645e+01 1.0446852228723460e+01 1 0 0
3336 1 3.3121076715268591e+00 2.0017459650623532e+01 1.1761585752726115e+01 0 1 0
3446 1 2.3385687675031894e+00 1.2540692381617099e+01 1.4566935645300768e+01 1 0 1
5039 1 1.5879231940460243e+00 1.7035415086644775e+01 1.2378725411701277e+01 1 1 1
217 1 2.4598367929045670e+00 1.7741477447783719e+01 9.5381196858640038e+00 1 0 0
5314 1 5.4275675782524893e+00 1.6668355353709710e+01 1.0845100222615658e+01 -1 1 1
1720 1 7.7605789701006929e+00 1.8129620008329471e+01 1.1675969070834713e+01 0 0 0
3629 1 5.4787901517344721e+00 2.1741575580898019e+01 1.2862017040027869e+01 0 0 1
420 1 8.1004848210386005e-01 2.1257153204530798e+01 1.1295031107556518e+01 1 0 0