LAMMPS data file via write_data, version 16 Mar 2018, timestep = 6000000

6489 atoms
2 atom types

0.0000000000000000e+00 4.9219999999999999e+01 xlo xhi
0.0000000000000000e+00 4.9019635930410494e+01 ylo yhi
5.3754137044669292e-01 5.9524458629560783e+01 zlo zhi

Masses

1 18.015
2 12.01

Atoms # atomic

1395 1 7.6058483852771808e-01 2.1205414118839339e+00 2.6887576887349738e+00 2 -1 0
4766 1 2.7894343232054242e+00 7.4196933094118589e-01 1.6456392435966773e+00 1 0 0
5208 1 5.2249117313792226e+00 2.1605898809408872e+00 2.0574339300446791e+00 -1 1 0
3764 1 7.5253314768796704e+00 8.1429271286846638e-01 1.5728862306242444e+00 0 0 1
6262 1 5.3186336150331970e+00 1.0384191369113154e+01 5.2741193823804728e+00 0 3 0
2880 1 2.9879983992137564e+00 5.9628006123579471e+00 2.3842300572303183e+00 2 1 0
422 1 7.0070694858950189e-01 4.6896778456923496e+00 1.5943603129666206e+00 0 0 0
2932 1 5.0686537198402677e+00 4.6964652082810350e+00 1.0415550496063175e+00 0 0 1
347 1 7.4122841960123775e+00 5.8001474286703436e+00 2.2792415336164940e+00 3 -2 0
1640 1 3.0371215197647006e+00 8.4906800653877834e+00 1.5922774422929686e+00 0 3 0
3797 1 7.8781277128098637e-01 9.6307246818739944e+00 2.3308954555179628e+00 0 2 0
4599 1 7.3843314865997121e+00 8.2985033871472780e+00 1.7862260463479378e+00 0 0 1
6439 1 5.3103938108116324e+00 1.0287821643698358e+01 2.4873213052213576e+00 3 -1 0
6440 1 7.5465566264680364e+00 9.1089328389867994e+00 6.0010316379725888e+00 3 0 0
2030 1 1.0209147078904508e+00 1.9593627486011425e+00 5.3344941445925240e+00 0 -1 0
1739 1 3.0877966269859320e+00 1.0271814976008602e+00 6.1732725488686713e+00 0 0 1
1315 1 5.1689617402089443e+00 2.4359274383370964e+00 4.8708705391064315e+00 1 1 1
132 1 7.5244726331631648e+00 1.1409975028258144e+00 5.8926188444427687e+00 1 -3 0
1582 1 8.9952241513541098e-01 1.0284273833530508e+01 4.8167027862892606e+00 1 1 1
5043 1 2.7560914324242867e+00 6.3991766725946926e+00 5.2084228767927989e+00 1 0 0
6450 1 1.0251118298250781e+00 4.4798625041881790e+00 6.2959026631284303e+00 0 2 0
134 1 7.3333855211528318e+00 6.6060306308323593e+00 4.9634291575955629e+00 1 -1 1
5033 1 5.0626375603311917e+00 5.0960334325552772e+00 5.9861999015367919e+00 1 -2 0
1945 1 2.9464600304603463e+00 8.9960796785995463e+00 6.0408821113549394e+00 0 -1 0
2903 1 9.7693550584005298e+00 2.3869398575977652e+00 5.1344478015272621e+00 1 -1 1
5403 1 9.6215652626364410e+00 9.7210914860345135e+00 2.3180576050669668e+00 2 1 0
5438 1 9.7278005657622426e+00 4.8585431477432657e+00 1.2950988082008350e+00 0 -1 1
1768 1 9.4941638560079777e+00 5.2876870566697693e+00 6.2045537800372639e+00 0 3 0
3654 1 9.4484051638643365e+00 2.3626362670899912e+00 2.4172813796517953e+00 1 -2 0
6470 1 6.0087085788300802e+00 1.2114422162440230e+01 5.9367862091355272e-01 2 3 1
1280 1 3.2012198660140956e+00 7.4935347419640874e-01 8.9726371835460572e+00 1 1 1
3408 1 3.0234348185100903e+00 3.3877395695992023e+00 9.8605124533209967e+00 1 -1 0
6179 1 7.6339752321160663e+00 1.0443483552136448e+00 8.6158853795996251e+00 1 1 1
45 1 7.4028710346004640e+00 3.6675933944827062e+00 9.6658308846428813e+00 0 -1 1
1577 1 8.3240891362874581e-01 4.6712295897982035e+00 8.9297799588703253e+00 1 3 0
1863 1 9.9120505305599427e-01 7.3120617806656902e+00 9.2942945541054112e+00 -1 0 0
204 1 5.1339998415750117e+00 4.8602963998031630e+00 8.6488780080913070e+00 -1 1 0
4915 1 5.3735030134730115e+00 7.8119724166411340e+00 9.3992393043200462e+00 0 1 0
3174 1 7.6753342131227589e+00 9.0364866802464725e+00 1.2907589914928632e+01 0 -1 1
4959 1 2.0031237327879858e+00 1.1295994677596859e+01 9.9143362727115854e+00 3 4 0
4926 1 3.1006790260700701e+00 8.9225214572205882e+00 8.6915697906041238e+00 1 2 0
2877 1 7.6459362536702358e+00 8.7595463671747762e+00 8.6345361145048383e+00 -1 0 1
5140 1 8.4861868962112741e+00 1.1246496243074464e+01 9.5585486630464125e+00 1 0 0
6224 1 3.4944818362375716e+00 8.5377752788947048e-01 1.3371773146750098e+01 4 1 0
3157 1 3.4551833403534817e+00 3.6532612010895056e+00 1.2599988002155222e+01 -2 -1 1
1652 1 7.8314680316396590e+00 1.1563547577056323e+01 1.2133520366831197e+01 0 0 0
1338 1 7.7202701160935261e+00 1.2491539096680269e+00 1.3631285598074630e+01 0 0 1
3540 1 8.1341503012793179e+00 3.9635376857958233e+00 1.2792711966378036e+01 -1 -1 0
1924 1 1.1487177185084063e+00 7.2103553572186421e+00 1.2116128307335670e+01 0 -1 0
1530 1 8.6015181752707548e-01 4.8230625714232440e+00 1.3582737397115828e+01 -1 0 1
1289 1 5.7377868533324667e+00 5.1977919092154545e+00 1.2988322178812611e+01 3 0 1
1563 1 5.3157296134917038e+00 7.7096236798689226e+00 1.1956431083874078e+01 -1 -1 1
1503 1 3.2756484199577089e+00 8.8362529188498886e+00 1.3366073685820666e+01 1 0 1
358 1 3.1813899229252804e+00 1.1420855924246856e+01 1.2369574685768397e+01 2 -1 0
1604 1 9.5272295797096973e+00 4.9914660067978867e+00 8.8350250813529314e+00 -1 1 0
6425 1 3.4128726588355143e+00 1.0774938333669104e+00 1.6233324047083229e+01 -1 -1 1
6189 1 7.2768994513850354e+00 1.1538969862405859e+01 1.9635864631295767e+01 2 1 1
5059 1 7.7605566864183011e+00 1.2655668770454562e+00 1.6301010831144268e+01 2 0 1
514 1 7.5966670269172800e+00 3.7852488720994555e+00 1.6955653427612056e+01 1 2 0
516 1 2.8637477634171340e+00 9.1857260323691072e+00 2.0550323253348175e+01 0 0 1
2048 1 3.5201095319027709e+00 3.7390182028535692e+00 1.6959664248795367e+01 0 -2 0
327 1 1.0897626201690689e+00 4.8000268951903600e+00 1.6156177978733062e+01 1 -1 0
5188 1 1.0529120919851112e+00 7.3028965445459333e+00 1.7160886086242375e+01 1 0 0
371 1 5.5505396859623328e+00 5.3276431189094300e+00 1.5872994807139866e+01 2 1 0
1895 1 5.7164467630040754e+00 7.8979808424995390e+00 1.6948075972944292e+01 0 0 0
6233 1 3.2186656760337637e+00 8.8397516047739675e+00 1.6103972004883886e+01 -1 0 1
1804 1 3.1269291814521827e+00 1.1585006284176593e+01 1.6914274347425447e+01 0 -2 0
543 1 8.0469901433144297e+00 8.9435835038704976e+00 1.5959719599386004e+01 0 -1 0
5350 1 7.8224666400257474e+00 1.1660700728122929e+01 1.6933127345323381e+01 2 0 1
3799 1 3.4309381334885471e+00 1.2485233905297852e+00 2.0679292284385053e+01 2 2 0
4760 1 3.1307304288887225e+00 3.7466896789650797e+00 1.9670888987198126e+01 2 2 1
4517 1 8.2655215930338404e+00 1.5596866390254496e+00 2.0732568511200480e+01 1 2 0
1883 1 7.6186140889358827e+00 4.1423486917940231e+00 1.9656773853332947e+01 0 1 0
3109 1 7.6733789704274002e-01 7.4822460766056524e+00 1.9754871154208843e+01 1 -1 1
4652 1 9.3790450120711855e-01 5.0601293488608441e+00 2.0487175687130918e+01 -1 -1 1
4747 1 5.2692170867466146e+00 5.3098639457939250e+00 2.0568213357604357e+01 2 -2 0
6289 1 5.2650619603738971e+00 7.8825946327333591e+00 1.9734233151074186e+01 0 0 1
2861 1 7.4633755712081928e+00 8.9930855059362695e+00 2.0664817265613380e+01 2 1 1
1399 1 2.9343021302789540e+00 1.1830339906826556e+01 1.9535769713047660e+01 -2 1 1
3578 1 5.9579497253069684e+00 7.9271742152832919e-02 1.9891259782982988e+01 0 2 0
3706 1 5.5757855390170539e+00 6.7867344001030006e-02 1.7341250643611446e+01 2 0 1
2972 1 3.1270967279322095e+00 1.3082463179532227e+00 2.3631374698298163e+01 0 1 0
506 1 3.4313157225111506e+00 3.9374663020555234e+00 2.4452587956835014e+01 2 1 0
1441 1 7.7461381514111389e+00 1.4677101211698167e+00 2.3403827072428999e+01 0 -2 1
3314 1 7.6048104465868382e+00 4.0603249833450139e+00 2.4368733033008610e+01 1 0 1
1903 1 1.2368484593293996e+00 5.0911821280060652e+00 2.3300235537394506e+01 2 -3 0
5216 1 1.2939902531425711e+00 7.6703464499399860e+00 2.4406107436979774e+01 1 1 0
203 1 5.5646691555313428e+00 5.0679636888632364e+00 2.3292969349605283e+01 1 1 0
1942 1 5.3168647138860843e+00 7.6978887795546012e+00 2.4117338057874402e+01 -1 -1 0
1504 1 3.1631225808172720e+00 9.2045838339777610e+00 2.3270172163443124e+01 -1 0 1
1773 1 7.4962517511855991e+00 1.1505339089714461e+01 2.4354423010676193e+01 0 2 0
5072 1 3.1988162457370097e+00 1.1821399880911791e+01 2.4182132994865814e+01 3 1 0
2051 1 7.5829191409248136e+00 8.8382897719960898e+00 2.3443383838574263e+01 4 2 1
572 2 0.0000000000000000e+00 2.8417180249513345e+00 2.6709089833602771e+01 0 0 0
574 2 0.0000000000000000e+00 0.0000000000000000e+00 2.6709089833602771e+01 0 0 0
576 2 1.2305000000000001e+00 7.1042950623783474e-01 2.6709089833602771e+01 0 0 0
583 2 1.2305000000000001e+00 2.1312885187134998e+00 2.6709089833602771e+01 0 0 0
585 2 2.4610000000000003e+00 2.8417180249513345e+00 2.6709089833602771e+01 0 0 0
587 2 2.4610000000000003e+00 0.0000000000000000e+00 2.6709089833602771e+01 0 0 0
589 2 3.6915000000000004e+00 7.1042950623783474e-01 2.6709089833602771e+01 0 0 0
604 2 3.6914999999999996e+00 2.1312885187134998e+00 2.6709089833602771e+01 0 0 0
606 2 4.9220000000000006e+00 2.8417180249513332e+00 2.6709089833602771e+01 0 0 0
608 2 4.9220000000000006e+00 0.0000000000000000e+00 2.6709089833602771e+01 0 0 0
610 2 6.1524999999999999e+00 7.1042950623783407e-01 2.6709089833602771e+01 0 0 0
633 2 6.1524999999999999e+00 2.1312885187134989e+00 2.6709089833602771e+01 0 0 0
635 2 7.3829999999999991e+00 2.8417180249513345e+00 2.6709089833602771e+01 0 0 0
637 2 7.3829999999999991e+00 0.0000000000000000e+00 2.6709089833602771e+01 0 0 0
639 2 8.6134999999999984e+00 7.1042950623783407e-01 2.6709089833602771e+01 0 0 0
670 2 8.6134999999999984e+00 2.1312885187135002e+00 2.6709089833602771e+01 0 0 0
579 2 0.0000000000000000e+00 4.2625770374269996e+00 2.6709089833602771e+01 0 0 0
581 2 1.2305000000000001e+00 4.9730065436648339e+00 2.6709089833602771e+01 0 0 0
596 2 1.2305000000000001e+00 6.3938655561404980e+00 2.6709089833602771e+01 0 0 0
600 2 2.4610000000000003e+00 4.2625770374269996e+00 2.6709089833602771e+01 0 0 0
602 2 3.6914999999999996e+00 4.9730065436648339e+00 2.6709089833602771e+01 0 0 0
625 2 3.6914999999999996e+00 6.3938655561404980e+00 2.6709089833602771e+01 0 0 0
577 2 0.0000000000000000e+00 7.1042950623783341e+00 2.6709089833602771e+01 0 0 0
598 2 2.4610000000000003e+00 7.1042950623783341e+00 2.6709089833602771e+01 0 0 0
629 2 4.9220000000000006e+00 4.2625770374269978e+00 2.6709089833602771e+01 0 0 0
631 2 6.1524999999999999e+00 4.9730065436648339e+00 2.6709089833602771e+01 0 0 0
662 2 6.1524999999999999e+00 6.3938655561404980e+00 2.6709089833602771e+01 0 0 0
666 2 7.3829999999999991e+00 4.2625770374269996e+00 2.6709089833602771e+01 0 0 0
668 2 8.6135000000000002e+00 4.9730065436648339e+00 2.6709089833602771e+01 0 0 0
707 2 8.6135000000000002e+00 6.3938655561404980e+00 2.6709089833602771e+01 0 0 0
627 2 4.9220000000000006e+00 7.1042950623783341e+00 2.6709089833602771e+01 0 0 0
664 2 7.3830000000000009e+00 7.1042950623783341e+00 2.6709089833602771e+01 0 0 0
592 2 0.0000000000000000e+00 8.5251540748539991e+00 2.6709089833602771e+01 0 0 0
594 2 1.2305000000000001e+00 9.2355835810918343e+00 2.6709089833602771e+01 0 0 0
621 2 2.4610000000000003e+00 8.5251540748539991e+00 2.6709089833602771e+01 0 0 0
623 2 3.6915000000000004e+00 9.2355835810918343e+00 2.6709089833602771e+01 0 0 0
590 2 0.0000000000000000e+00 1.1366872099805333e+01 2.6709089833602771e+01 0 0 0
617 2 1.2305000000000001e+00 1.0656442593567498e+01 2.6709089833602771e+01 0 0 0
619 2 2.4610000000000003e+00 1.1366872099805333e+01 2.6709089833602771e+01 0 0 0
654 2 3.6914999999999996e+00 1.0656442593567499e+01 2.6709089833602771e+01 0 0 0
705 2 8.6134999999999984e+00 9.2355835810918343e+00 2.6709089833602771e+01 0 0 0
701 2 7.3829999999999991e+00 1.1366872099805333e+01 2.6709089833602771e+01 0 0 0
656 2 4.9220000000000006e+00 1.1366872099805333e+01 2.6709089833602771e+01 0 0 0
660 2 6.1524999999999999e+00 9.2355835810918343e+00 2.6709089833602771e+01 0 0 0
658 2 4.9220000000000006e+00 8.5251540748539991e+00 2.6709089833602771e+01 0 0 0
699 2 6.1524999999999999e+00 1.0656442593567499e+01 2.6709089833602771e+01 0 0 0
703 2 7.3830000000000009e+00 8.5251540748539991e+00 2.6709089833602771e+01 0 0 0
746 2 8.6134999999999984e+00 1.0656442593567498e+01 2.6709089833602771e+01 0 0 0
1948 1 5.6048794443251175e+00 2.1156561801300031e-01 2.4129789999303039e+01 1 2 0
573 2 0.0000000000000000e+00 1.4208590124756650e+00 3.0031000000004184e+01 0 0 0
575 2 0.0000000000000000e+00 0.0000000000000000e+00 3.0031000000004184e+01 0 0 0
584 2 1.2305000000000001e+00 2.1312885187134998e+00 3.0031000000004184e+01 0 0 0
586 2 2.4610000000000003e+00 1.4208590124756650e+00 3.0031000000004184e+01 0 0 0
588 2 2.4610000000000003e+00 0.0000000000000000e+00 3.0031000000004184e+01 0 0 0
605 2 3.6914999999999996e+00 2.1312885187134998e+00 3.0031000000004184e+01 0 0 0
582 2 1.2305000000000001e+00 3.5521475311891644e+00 3.0031000000004184e+01 0 0 0
603 2 3.6914999999999996e+00 3.5521475311891644e+00 3.0031000000004184e+01 0 0 0
901 2 0.0000000000000000e+00 2.8417180249513345e+00 3.3352910166410922e+01 0 0 0
902 2 0.0000000000000000e+00 0.0000000000000000e+00 3.3352910166410922e+01 0 0 0
903 2 1.2305000000000001e+00 7.1042950623783474e-01 3.3352910166410922e+01 0 0 0
907 2 1.2305000000000001e+00 2.1312885187134998e+00 3.3352910166410922e+01 0 0 0
908 2 2.4610000000000003e+00 2.8417180249513345e+00 3.3352910166410922e+01 0 0 0
909 2 2.4610000000000003e+00 0.0000000000000000e+00 3.3352910166410922e+01 0 0 0
910 2 3.6915000000000004e+00 7.1042950623783474e-01 3.3352910166410922e+01 0 0 0
918 2 3.6914999999999996e+00 2.1312885187134998e+00 3.3352910166410922e+01 0 0 0
607 2 4.9220000000000006e+00 1.4208590124756650e+00 3.0031000000004184e+01 0 0 0
609 2 4.9220000000000006e+00 0.0000000000000000e+00 3.0031000000004184e+01 0 0 0
634 2 6.1524999999999999e+00 2.1312885187134989e+00 3.0031000000004184e+01 0 0 0
636 2 7.3829999999999991e+00 1.4208590124756659e+00 3.0031000000004184e+01 0 0 0
638 2 7.3829999999999991e+00 0.0000000000000000e+00 3.0031000000004184e+01 0 0 0
671 2 8.6134999999999984e+00 2.1312885187135002e+00 3.0031000000004184e+01 0 0 0
632 2 6.1524999999999999e+00 3.5521475311891644e+00 3.0031000000004184e+01 0 0 0
669 2 8.6134999999999984e+00 3.5521475311891657e+00 3.0031000000004184e+01 0 0 0
919 2 4.9220000000000006e+00 2.8417180249513332e+00 3.3352910166410922e+01 0 0 0
920 2 4.9220000000000006e+00 0.0000000000000000e+00 3.3352910166410922e+01 0 0 0
921 2 6.1524999999999999e+00 7.1042950623783407e-01 3.3352910166410922e+01 0 0 0
933 2 6.1524999999999999e+00 2.1312885187134989e+00 3.3352910166410922e+01 0 0 0
934 2 7.3829999999999991e+00 2.8417180249513345e+00 3.3352910166410922e+01 0 0 0
935 2 7.3829999999999991e+00 0.0000000000000000e+00 3.3352910166410922e+01 0 0 0
936 2 8.6134999999999984e+00 7.1042950623783407e-01 3.3352910166410922e+01 0 0 0
952 2 8.6134999999999984e+00 2.1312885187135002e+00 3.3352910166410922e+01 0 0 0
578 2 0.0000000000000000e+00 5.6834360499026637e+00 3.0031000000004184e+01 0 0 0
580 2 0.0000000000000000e+00 4.2625770374269996e+00 3.0031000000004184e+01 0 0 0
597 2 1.2305000000000001e+00 6.3938655561404980e+00 3.0031000000004184e+01 0 0 0
599 2 2.4610000000000003e+00 5.6834360499026637e+00 3.0031000000004184e+01 0 0 0
601 2 2.4610000000000003e+00 4.2625770374269996e+00 3.0031000000004184e+01 0 0 0
626 2 3.6914999999999996e+00 6.3938655561404980e+00 3.0031000000004184e+01 0 0 0
595 2 1.2305000000000001e+00 7.8147245686161639e+00 3.0031000000004184e+01 0 0 0
624 2 3.6914999999999996e+00 7.8147245686161639e+00 3.0031000000004184e+01 0 0 0
905 2 0.0000000000000000e+00 4.2625770374269996e+00 3.3352910166410922e+01 0 0 0
906 2 1.2305000000000001e+00 4.9730065436648339e+00 3.3352910166410922e+01 0 0 0
914 2 1.2305000000000001e+00 6.3938655561404980e+00 3.3352910166410922e+01 0 0 0
916 2 2.4610000000000003e+00 4.2625770374269996e+00 3.3352910166410922e+01 0 0 0
917 2 3.6914999999999996e+00 4.9730065436648339e+00 3.3352910166410922e+01 0 0 0
929 2 3.6914999999999996e+00 6.3938655561404980e+00 3.3352910166410922e+01 0 0 0
904 2 0.0000000000000000e+00 7.1042950623783341e+00 3.3352910166410922e+01 0 0 0
915 2 2.4610000000000003e+00 7.1042950623783341e+00 3.3352910166410922e+01 0 0 0
628 2 4.9220000000000006e+00 5.6834360499026637e+00 3.0031000000004184e+01 0 0 0
630 2 4.9220000000000006e+00 4.2625770374269978e+00 3.0031000000004184e+01 0 0 0
663 2 6.1524999999999999e+00 6.3938655561404980e+00 3.0031000000004184e+01 0 0 0
665 2 7.3829999999999991e+00 5.6834360499026637e+00 3.0031000000004184e+01 0 0 0
667 2 7.3829999999999991e+00 4.2625770374269996e+00 3.0031000000004184e+01 0 0 0
708 2 8.6135000000000002e+00 6.3938655561404980e+00 3.0031000000004184e+01 0 0 0
661 2 6.1524999999999999e+00 7.8147245686161639e+00 3.0031000000004184e+01 0 0 0
706 2 8.6135000000000002e+00 7.8147245686161639e+00 3.0031000000004184e+01 0 0 0
931 2 4.9220000000000006e+00 4.2625770374269978e+00 3.3352910166410922e+01 0 0 0
932 2 6.1524999999999999e+00 4.9730065436648339e+00 3.3352910166410922e+01 0 0 0
948 2 6.1524999999999999e+00 6.3938655561404980e+00 3.3352910166410922e+01 0 0 0
950 2 7.3829999999999991e+00 4.2625770374269996e+00 3.3352910166410922e+01 0 0 0
951 2 8.6135000000000002e+00 4.9730065436648339e+00 3.3352910166410922e+01 0 0 0
971 2 8.6135000000000002e+00 6.3938655561404980e+00 3.3352910166410922e+01 0 0 0
930 2 4.9220000000000006e+00 7.1042950623783341e+00 3.3352910166410922e+01 0 0 0
949 2 7.3830000000000009e+00 7.1042950623783341e+00 3.3352910166410922e+01 0 0 0
591 2 0.0000000000000000e+00 9.9460130873296642e+00 3.0031000000004184e+01 0 0 0
593 2 0.0000000000000000e+00 8.5251540748539991e+00 3.0031000000004184e+01 0 0 0
620 2 2.4610000000000003e+00 9.9460130873296642e+00 3.0031000000004184e+01 0 0 0
622 2 2.4610000000000003e+00 8.5251540748539991e+00 3.0031000000004184e+01 0 0 0
616 2 1.2305000000000001e+00 1.2077301606043163e+01 3.0031000000004184e+01 0 0 0
618 2 1.2305000000000001e+00 1.0656442593567498e+01 3.0031000000004184e+01 0 0 0
653 2 3.6914999999999996e+00 1.2077301606043163e+01 3.0031000000004184e+01 0 0 0
655 2 3.6914999999999996e+00 1.0656442593567499e+01 3.0031000000004184e+01 0 0 0
912 2 0.0000000000000000e+00 8.5251540748539991e+00 3.3352910166410922e+01 0 0 0
913 2 1.2305000000000001e+00 9.2355835810918343e+00 3.3352910166410922e+01 0 0 0
927 2 2.4610000000000003e+00 8.5251540748539991e+00 3.3352910166410922e+01 0 0 0
928 2 3.6915000000000004e+00 9.2355835810918343e+00 3.3352910166410922e+01 0 0 0
911 2 0.0000000000000000e+00 1.1366872099805333e+01 3.3352910166410922e+01 0 0 0
925 2 1.2305000000000001e+00 1.0656442593567498e+01 3.3352910166410922e+01 0 0 0
926 2 2.4610000000000003e+00 1.1366872099805333e+01 3.3352910166410922e+01 0 0 0
944 2 3.6914999999999996e+00 1.0656442593567499e+01 3.3352910166410922e+01 0 0 0
657 2 4.9220000000000006e+00 9.9460130873296642e+00 3.0031000000004184e+01 0 0 0
659 2 4.9220000000000006e+00 8.5251540748539991e+00 3.0031000000004184e+01 0 0 0
702 2 7.3830000000000009e+00 9.9460130873296642e+00 3.0031000000004184e+01 0 0 0
704 2 7.3830000000000009e+00 8.5251540748539991e+00 3.0031000000004184e+01 0 0 0
698 2 6.1524999999999999e+00 1.2077301606043163e+01 3.0031000000004184e+01 0 0 0
700 2 6.1524999999999999e+00 1.0656442593567499e+01 3.0031000000004184e+01 0 0 0
745 2 8.6135000000000002e+00 1.2077301606043163e+01 3.0031000000004184e+01 0 0 0
747 2 8.6134999999999984e+00 1.0656442593567498e+01 3.0031000000004184e+01 0 0 0
946 2 4.9220000000000006e+00 8.5251540748539991e+00 3.3352910166410922e+01 0 0 0
947 2 6.1524999999999999e+00 9.2355835810918343e+00 3.3352910166410922e+01 0 0 0
969 2 7.3830000000000009e+00 8.5251540748539991e+00 3.3352910166410922e+01 0 0 0
970 2 8.6134999999999984e+00 9.2355835810918343e+00 3.3352910166410922e+01 0 0 0
945 2 4.9220000000000006e+00 1.1366872099805333e+01 3.3352910166410922e+01 0 0 0
967 2 6.1524999999999999e+00 1.0656442593567499e+01 3.3352910166410922e+01 0 0 0
968 2 7.3829999999999991e+00 1.1366872099805333e+01 3.3352910166410922e+01 0 0 0
991 2 8.6134999999999984e+00 1.0656442593567498e+01 3.3352910166410922e+01 0 0 0
1387 1 3.7375426380872709e+00 1.7178310574408053e+00 3.6326654850388280e+01 1 -3 0
3175 1 1.0074157645577766e+00 2.5583688757357601e+00 3.6183608338200429e+01 0 3 -1
3110 1 5.6746384821201223e+00 3.2172843251050591e+00 3.5617335807219973e+01 -1 0 0
199 1 8.1806651494462184e+00 2.0898450692673753e+00 3.6330292313118576e+01 1 2 -1
325 1 2.7919972293844131e+00 7.0692953952978472e+00 3.5876241578675277e+01 0 0 -1
1368 1 7.2448140657676219e-01 5.3106636035744677e+00 3.6346135926794716e+01 0 1 0
4790 1 5.2716841292839751e+00 5.8188007052621140e+00 3.6554639172595543e+01 -1 0 -1
1995 1 7.3331080865264466e+00 7.3411222269235425e+00 3.5701735813207279e+01 1 1 -1
3387 1 3.0787895593596017e+00 9.6507910832333899e+00 3.6790629180856044e+01 1 0 -1
3806 1 6.0356698293311928e-01 1.0810465382507971e+01 3.5757196881757068e+01 1 1 0
3740 1 7.3529145565055369e+00 9.9355763000155370e+00 3.6500579714037116e+01 -1 -2 0
4605 1 4.9523250102876677e+00 1.1410359669377492e+01 3.5854561079819561e+01 -1 -1 0
4898 1 9.6668016507448478e+00 1.1199539940352942e+01 3.5675050521320685e+01 1 2 -1
2121 1 9.7975265642347011e+00 6.5157014783599401e+00 3.6594663372764003e+01 0 1 -1
1686 1 3.5921130790784699e+00 1.3866072723119003e+00 3.9134388691567921e+01 -1 0 0
3169 1 1.2981548764196889e+00 2.6802137953615537e+00 3.9370261965120562e+01 -3 1 -1
456 1 8.0153360344468911e+00 1.6022470912199389e+00 3.8942755519465692e+01 -1 1 0
2936 1 5.7176016077714165e+00 3.1316517307263143e+00 3.9637225013401036e+01 -1 0 -1
6426 1 3.3456265125856217e+00 7.2391866505689890e+00 4.0041705436759628e+01 3 1 -1
4890 1 9.7225129298616730e-01 5.6719864461481135e+00 3.9218702149632691e+01 3 -1 0
1612 1 5.2726770563168701e+00 5.8676891210351183e+00 3.9240737529706905e+01 1 0 0
332 1 7.4487854594031297e+00 7.2627184552323794e+00 4.0120850845864013e+01 2 1 -1
6298 1 2.8317997737782603e+00 9.6609371605742353e+00 3.9669530927990280e+01 -1 -2 -1
5311 1 1.1139505300164135e-01 1.0680589696128894e+01 4.2880951428792741e+01 2 -2 -1
2884 1 5.2025444382225148e+00 1.1122255464606994e+01 4.0247645442281637e+01 2 2 0
5303 1 7.5458573684285390e+00 9.9327898213411121e+00 3.9280082708893516e+01 -1 1 -1
5068 1 5.4414939585378770e+00 1.1131732709634109e+01 4.3004986244221271e+01 1 -1 -1
4786 1 1.4550132374495270e+00 2.8137033554819610e+00 4.2363930414997071e+01 1 -1 0
1265 1 3.6196170372630232e+00 4.3472259058962974e+00 4.2813722539646832e+01 -1 -2 0
3043 1 4.3854186035597437e-01 1.0794183733869348e+01 4.0085617743971142e+01 1 1 0
2935 1 6.0015333772171831e+00 3.0492897575734554e+00 4.2383232604452360e+01 1 0 0
2156 1 8.2377849183298011e+00 4.1677544013394767e+00 4.3452067218776634e+01 0 1 -1
5259 1 3.4571324685433376e+00 7.0265385419668309e+00 4.2578273531484783e+01 1 0 0
3187 1 8.3316795267007937e-01 8.0111818442358178e+00 4.3467720474226041e+01 0 0 0
5086 1 7.8682478241608429e+00 6.9294296278858942e+00 4.2757354759901816e+01 1 1 -1
225 1 5.7741148645946136e+00 8.3323248892798141e+00 4.3776372532100865e+01 4 0 -1
3121 1 5.9785716438660987e+00 4.4922469908751822e-01 4.3147692411058785e+01 2 0 -1
2118 1 9.8222566714273594e+00 1.1498583350317688e+01 4.0306660674079126e+01 1 0 -1
442 1 3.6165308931919808e+00 1.5020831818128242e+00 4.6390834876092086e+01 -1 1 -1
1613 1 3.5861521481387513e+00 4.2763450300596730e+00 4.5657587686709761e+01 1 0 0
3556 1 8.3706666237664233e+00 1.0289757746595855e+01 5.0112296428794579e+01 1 -1 -1
3028 1 8.8514586529958237e+00 1.5894340619561906e+00 4.6910329546660549e+01 1 1 0
1667 1 3.7620343331476760e+00 1.1815377497527106e+01 4.5184220441963916e+01 1 0 0
4505 1 1.1321628638915013e+00 5.0717295836765803e+00 4.6848397723345201e+01 -1 0 0
5282 1 7.7240215976490267e-01 7.9097932274404901e+00 4.6225509063834878e+01 1 1 -1
6172 1 8.5027298824803168e+00 4.2052557147336200e+00 4.6261700171672373e+01 2 1 0
6140 1 6.2306469790512731e+00 5.5149349470286166e+00 4.6831003911638561e+01 0 -1 -1
4820 1 6.0645123579019167e+00 1.1879385353121201e+01 5.0562151461408661e+01 -1 -2 -1
5125 1 3.3736608085297424e+00 9.6788296551931605e+00 4.6535796972026773e+01 0 -1 -1
4606 1 5.9488044994537210e+00 8.3539848486678672e+00 4.6694804481561718e+01 1 3 -1
1295 1 8.0528220395522805e+00 9.8252676713200540e+00 4.7604635491522657e+01 0 2 0
4502 1 3.0673276266118399e+00 1.1973623954051045e+00 4.9282907399811691e+01 1 0 -1
6112 1 2.9392753552162478e+00 3.7347343486935705e+00 5.0240406531594047e+01 2 2 0
3462 1 7.0015890877382994e+00 2.5535153426413424e+00 5.0135343364900919e+01 0 1 -1
3415 1 9.4638193699566084e+00 2.0005937777755767e+00 4.9597716643684024e+01 2 0 -1
6135 1 3.2773275292892123e-01 7.9934027145478845e+00 5.0232968777237332e+01 0 -2 0
1658 1 8.8681042113339414e-01 5.5067924101551817e+00 4.9600969758269471e+01 0 -1 -1
4835 1 5.4787514048684329e+00 4.7741150491037336e+00 4.9356330180905445e+01 0 0 -1
1979 1 9.0676882301906865e+00 7.5303770581799485e+00 5.0772503162147004e+01 1 0 -1
3252 1 6.4972373836477848e+00 6.4726875240713850e+00 5.1203896647397016e+01 0 -1 -1
3776 1 3.6472445771381081e+00 1.0503184536875704e+01 5.0873717200949088e+01 0 -2 0
1836 1 1.8021138521694309e+00 9.7728206179186596e+00 4.8671145895574753e+01 0 1 -1
3732 1 6.2277235629632157e+00 5.1874190668868903e-01 4.5869273401249202e+01 2 -1 0
265 1 5.5270982021855692e+00 2.0221775488539132e-01 5.0070777714548612e+01 -1 2 -1
27 1 1.8389522213267717e-01 1.2185651520125967e+01 4.9020881004546368e+01 0 -1 0
6222 1 3.1310585655388032e+00 3.9218719282429477e+00 5.3121871950380438e+01 1 -1 0
6241 1 8.3799005364493540e-01 2.1912555219258545e+00 5.4291298528149582e+01 -2 3 0
6120 1 4.7974988793943574e+00 2.0657472116731395e+00 5.4030105131690675e+01 -2 1 0
4553 1 7.2759890036406025e+00 2.7577860506778982e+00 5.3039128697109845e+01 -1 2 0
3576 1 2.8334908844856148e+00 6.9834833940614454e+00 5.3612867946404023e+01 -1 3 0
5369 1 4.7208510161740325e+00 8.4664680776453078e+00 5.2529910267317419e+01 -1 0 0
6335 1 2.6056963226933716e-01 7.9347082574802510e+00 5.3063550394465878e+01 0 2 0
1518 1 7.5547919562655910e+00 5.3270694885902703e+00 5.3558009276472049e+01 -1 4 -1
4992 1 6.2235626349791264e+00 1.2084301148843350e+01 5.3378234707864365e+01 0 0 0
3471 1 2.7298886349293121e+00 8.4606194162752377e+00 5.7479031274992138e+01 -1 2 -1
4863 1 9.6015381917782356e+00 2.0380428029335267e+00 5.7003307880933818e+01 2 0 0
564 1 9.2062789353082817e+00 9.9668820396761326e+00 5.4468343115930637e+01 0 -1 -1
477 1 6.3331133742482209e+00 9.6413074142712745e+00 5.4590223580077705e+01 -1 0 -1
2996 1 5.1425322006308614e+00 1.0128049010244556e+01 5.7179053898135862e+01 0 1 0
4771 1 8.7959414341121356e-01 2.4031982425153346e+00 5.7056781640041777e+01 -1 2 -1
521 1 2.9796161501682112e+00 6.2166669291423315e-01 5.7911704370790062e+01 0 -2 0
1342 1 5.1599161259149007e+00 2.0011546346560039e+00 5.6764170804469941e+01 0 2 0
4930 1 7.2689492983981472e+00 8.3443040924698906e+00 5.8060007751102873e+01 0 3 -1
157 1 7.3818398595407242e+00 5.8061533660942533e-01 5.7942724026233606e+01 -2 -2 0
3628 1 5.7150675764797620e-01 5.0843442630113334e+00 5.7797545644587558e+01 0 -1 -1
5392 1 3.0111696601581333e+00 6.0045123601573840e+00 5.6298842103058789e+01 -2 -1 -1
369 1 5.0951817607808225e+00 4.4831043143698484e+00 5.7271220889767847e+01 0 0 -1
3350 1 7.2578696183242233e+00 6.0094088173997058e+00 5.6383886261426781e+01 1 -1 -1
174 1 8.7846864936483247e+00 1.1869988570146669e+01 5.9224124168906116e+01 0 -1 -1
1443 1 5.9331029868765783e-01 1.0013229161086239e+01 5.6534135511166895e+01 0 -1 0
3276 1 9.4499887557783886e+00 1.6158486309105609e+00 5.4416329996850152e+01 0 -1 0
1267 1 9.7026516714972857e+00 7.4565150821323476e+00 5.3488527418110607e+01 2 -2 0
3392 1 9.4159392799187636e+00 4.8419802306839150e+00 5.7553297123355293e+01 0 -2 0
2927 1 9.5872672421593865e+00 9.8035770800967938e+00 5.7234830266460534e+01 -3 1 0
3172 1 4.3629699841343206e-01 1.0464981835142645e+01 5.3765246223352690e+01 0 0 -1
3114 1 1.8862280834253309e+00 1.2188914203017932e+01 5.2256000531726272e+01 -1 0 0
3624 1 5.8222051895885685e-01 1.4584807370370045e+01 2.3116787914793440e+00 3 0 1
6195 1 3.1797357558564694e+00 1.6051576120952237e+01 2.1954212159875688e+00 0 0 1
6257 1 5.3217452420911098e+00 1.4623615663822619e+01 1.7353393191457047e+00 2 1 1
295 1 3.2074328596047201e+00 1.8711072386081447e+01 1.3625515857360471e+00 -2 0 0
3079 1 7.7072510350715406e+00 1.6177100796157756e+01 2.3112526669246631e+00 3 0 1
3396 1 7.7843471988562474e+00 1.8760678683870758e+01 8.8135758940088360e-01 -1 1 0
1639 1 5.4854654823689337e+00 1.9937730724595468e+01 2.0433348286711857e+00 0 2 0
1282 1 5.5200134318941565e+00 1.9951666973456838e+01 4.7628801236425593e+00 0 1 1
245 1 1.0860283021210795e+00 2.0398319706036236e+01 2.0235492099018404e+00 1 -3 0
6388 1 5.6172999478612562e+00 2.2611688254713101e+01 1.0758948617611845e+00 3 -1 0
1644 1 3.4286935723006544e+00 2.4003066497123697e+01 2.1285993715675797e+00 0 1 0
5133 1 7.7611429697133669e+00 2.3957505669779607e+01 1.8181787216402276e+00 1 0 1
6338 1 7.6347368272210199e+00 2.1529366631049381e+01 5.6878899196556274e+00 1 4 0
1485 1 3.0072839844065329e+00 1.3880044117037951e+01 6.1566537022886862e+00 -1 -2 1
2920 1 9.8091266576709935e-01 1.2883937707824717e+01 4.7557059106118134e+00 1 1 1
3342 1 5.1655889242544655e+00 1.3075716726626306e+01 4.4535353589989697e+00 0 0 0
2171 1 7.3564515806006474e+00 1.3966048753787934e+01 6.0982366460606361e+00 0 0 0
3559 1 1.1780262048516144e+00 2.2829837767148547e+01 1.0522018441454319e+00 -2 4 0
3291 1 3.2408916800730387e+00 1.6246015026041217e+01 4.9782583756361189e+00 0 -2 0
298 1 1.3345643445037365e+00 1.8014427239285723e+01 6.0677896317302897e+00 0 2 0
2085 1 1.1569064108493663e+00 2.0539399289835341e+01 4.6244933496888088e+00 1 2 0
5145 1 7.4395399484399105e+00 1.6436216190334608e+01 5.1895388023797429e+00 2 0 0
4735 1 5.3892144169138181e+00 1.7623410098141790e+01 6.3907414785374597e+00 0 0 1
3601 1 3.3785031533442909e+00 2.1552499557494080e+01 5.4765697465835839e+00 2 2 1
5335 1 3.1265254990634865e+00 2.4201477068965534e+01 4.9108565739176164e+00 1 2 1
3805 1 7.4034811181015181e+00 2.3993193989947102e+01 4.5749789377472982e+00 -1 0 1
3402 1 9.7335675185617934e+00 1.2803877507584280e+01 5.0950560402089753e+00 1 0 0
3767 1 9.6961180294045022e+00 1.7729518449686541e+01 6.1044226540049662e+00 -1 -1 0