
# Create simulation box and atoms

read_data data.ML_graphite_m500atm_240K
  orthogonal box = (0 0 2.16312) to (49.22 49.0196 57.8989)
  5 by 4 by 8 MPI processor grid
  reading atoms ...
  6489 atoms
  reading velocities ...
  6489 velocities
group water type 1
3729 atoms in group water
group graphite type 2
2760 atoms in group graphite

# Define potential

pair_style sw
pair_coeff * * MLC_e.sw mW C


# Fix graphite atoms in place

fix 5 graphite setforce 0.0 0.0 0.0
velocity graphite set 0.0 0.0 0.0


# Equilibration of molecular water

# Add velocity/set timestep

velocity	    water create ${TEMP} ${SEED} rot yes dist gaussian
velocity	    water create 240 ${SEED} rot yes dist gaussian
velocity	    water create 240 3703 rot yes dist gaussian
timestep	    5.0

# Define output

compute			1 water msd
compute			3 water temp
thermo	    	50
thermo_style	custom step temp press vol etotal ke pe c_1[4] c_3

# Neighbor lists

neigh_modify    delay 0 every 1 check yes

# Set fixes

fix             1 water momentum 10 linear 1 1 1 rescale
fix             2 water nve
fix             3 water temp/csvr ${TEMP} ${TEMP} 500.0 ${SEED}
fix             3 water temp/csvr 240 ${TEMP} 500.0 ${SEED}
fix             3 water temp/csvr 240 240 500.0 ${SEED}
fix             3 water temp/csvr 240 240 500.0 3703
fix             4 water press/berendsen z ${PRES} ${PRES} 1000.0 modulus 20000
fix             4 water press/berendsen z -500 ${PRES} 1000.0 modulus 20000
fix             4 water press/berendsen z -500 -500 1000.0 modulus 20000

# Run 0.5 ns equilibration

dump		    1 all atom 2000 ${DIR}/eq.${NAME}-${TEMP}.dump
dump		    1 all atom 2000 run_22/eq.${NAME}-${TEMP}.dump
dump		    1 all atom 2000 run_22/eq.het_freeze_22-${TEMP}.dump
dump		    1 all atom 2000 run_22/eq.het_freeze_22-240.dump

reset_timestep  0

run	            100000
Neighbor list info ...
  update every 1 steps, delay 0 steps, check yes
  max neighbors/atom: 2000, page size: 100000
  master list distance cutoff = 6.67472
  ghost atom cutoff = 6.67472
  binsize = 3.33736, bins = 15 15 17
  1 neighbor lists, perpetual/occasional/extra = 1 0 0
  (1) pair sw, perpetual
      attributes: full, newton on
      pair build: full/bin/atomonly
      stencil: full/bin/3d
      bin: standard
Per MPI rank memory allocation (min/avg/max) = 4.067 | 4.175 | 4.485 Mbytes
Step Temp Press Volume TotEng KinEng PotEng c_1[4] c_3 
       0    137.90382   -585.46729    134476.24   -35583.071    2666.9904   -38250.061            0          240 
      50     140.7858   -296.31952    134590.36   -35586.531    2722.7264   -38309.258   0.52651841    245.01563 
     100    136.62893    -265.6033    134634.97   -35607.207    2642.3345   -38249.541   0.85289359    237.78124 
     150    138.85542   -702.46659    134652.58   -35621.199    2685.3938   -38306.593    1.0682571    241.65611 
     200    139.31313   -785.93045    134683.48   -35603.467    2694.2457   -38297.712     1.274333    242.45268 
     250    138.80454   -932.33109    134724.97   -35592.225    2684.4098   -38276.635    1.4740829    241.56756 
     300    138.06509   -1001.9855    134607.39   -35651.453    2670.1093   -38321.562    1.6655111    240.28067 
     350    136.79984    -998.7268    134511.41   -35671.469      2645.64   -38317.109    1.8524951     238.0787 
     400    137.50064   -826.31733    134466.91   -35627.288     2659.193   -38286.481    2.0321308    239.29832 
     450    140.26525    -626.2793    134428.15   -35569.312    2712.6592   -38281.971    2.2083767     244.1097 
     500    138.56337    -589.2705    134416.49   -35631.657    2679.7457   -38311.402    2.3714138    241.14784 
     550     136.1492   -444.61806    134419.88   -35591.986    2633.0568   -38225.043    2.6401026    236.94635 
     600    134.93725    -712.1298    134410.92   -35645.552    2609.6184    -38255.17    2.8332347    234.83715 
     650    135.99368   -541.08072    134411.16     -35730.6    2630.0491   -38360.649    2.9964087    236.67569 
     700    136.80538   -565.93017    134480.32   -35740.833    2645.7471    -38386.58    3.2298091    238.08834 
     750    135.79398   -828.90324    134504.51   -35727.528     2626.187   -38353.715    3.3975172    236.32814 
     800    137.49801   -603.74794     134579.8   -35716.527    2659.1421   -38375.669     3.648547    239.29374 
     850    134.70618   -605.64375    134581.98   -35745.627    2605.1495   -38350.777    3.7810458      234.435 
     900    133.14854   -528.57338    134676.63   -35774.357    2575.0256   -38349.383    3.9620327    231.72418 
     950    139.08991   -562.57512    134747.49    -35771.85    2689.9287   -38461.779    4.1239318     242.0642 
    1000    135.47116   -608.22089    134822.71   -35771.447     2619.944   -38391.391    4.3032973    235.76634 
    1050    136.95465   -693.26969    134880.61   -35776.269    2648.6338   -38424.902    4.4411065    238.34811 
    1100    137.44079   -823.11888    134870.25   -35716.146    2658.0356   -38374.181    4.6191186    239.19417 
    1150    135.47136   -628.67115    134830.15   -35711.439    2619.9477   -38331.387    4.7856868    235.76668 
    1200    137.22106   -965.76664     134722.1   -35716.143    2653.7861   -38369.929    4.8805152    238.81176 
    1250    137.04946   -1080.7756    134732.61   -35706.152    2650.4675   -38356.619    5.1258221    238.51312 
    1300    136.94187    -569.5119    134713.08   -35708.844    2648.3866   -38357.231    5.3889795    238.32586 
    1350    138.58142   -509.51725     134735.4   -35699.028    2680.0948   -38379.123    5.5191895    241.17925 
    1400    136.93646    -454.5879    134818.56    -35679.37     2648.282   -38327.652    5.7234479    238.31645 
    1450    136.67129   -595.80632    134867.65   -35613.458    2643.1539   -38256.612    5.8971917    237.85498 
    1500    135.77651   -714.91225    134886.01    -35615.51    2625.8492    -38241.36    6.1344938    236.29774 
    1550     138.6084   -774.76966    134777.86   -35606.903    2680.6166   -38287.519    6.3687754    241.22621 
    1600    137.59631   -657.36202     134718.2   -35636.968    2661.0432   -38298.011    6.5604242    239.46482 
    1650    139.63419   -830.50194    134720.03   -35618.223    2700.4548   -38318.678    6.7754447    243.01143 
    1700    134.29651   -490.06556    134675.28   -35658.566    2597.2268   -38255.793    6.9998817    233.72204 
    1750    137.02199   -708.72511    134635.81    -35639.93    2649.9362   -38289.866    7.1818311    238.46531 
    1800    136.42339   -762.39845    134572.88   -35661.609    2638.3596   -38299.969    7.2528956    237.42354 
    1850    136.32274   -467.11307    134620.12   -35628.857     2636.413    -38265.27    7.4370451    237.24837 
    1900    136.65216    -484.8246    134688.19   -35640.049    2642.7839   -38282.833    7.5796691    237.82168 
    1950    135.95991   -682.96005    134744.96   -35649.431    2629.3962   -38278.827     7.720184    236.61693 
    2000    139.38289   -585.37779    134797.48   -35592.651    2695.5948   -38288.246    7.8309935    242.57409 
    2050    140.49762   -688.39465    134848.41   -35613.128    2717.1532   -38330.281    7.9627547    244.51411 
    2100    138.74793   -609.37541    134850.21   -35646.146     2683.315   -38329.461    8.0535587    241.46904 
    2150    139.16374    -705.2419    134835.17   -35670.438    2691.3566   -38361.794    8.1992066    242.19269 
    2200      137.697   -737.27041    134780.64   -35648.247    2662.9906   -38311.237     8.361494    239.64006 
    2250    137.81238   -569.77273     134781.6    -35635.97    2665.2219   -38301.192    8.5734563    239.84085 
    2300    134.99015   -584.23916    134810.08   -35655.073    2610.6414   -38265.715    8.7156889    234.92921 
    2350    138.93467   -924.59251    134725.27   -35594.795    2686.9265   -38281.721    8.8414053    241.79403 
    2400    136.81044    -737.2381    134697.68   -35622.147     2645.845   -38267.992    9.0769699    238.09715 
    2450     135.4988   -573.26308    134652.81   -35557.507    2620.4785   -38177.986    9.3753596    235.81444 
    2500    139.14552   -696.83756    134581.57   -35582.817    2691.0041   -38273.822    9.5147212    242.16098 
    2550    134.96036   -626.94702    134595.23    -35585.94    2610.0652   -38196.006    9.7575309    234.87736 
    2600    140.99082   -693.31559    134526.65   -35534.792    2726.6913   -38261.483    9.9223986    245.37244 
    2650    138.86243   -730.43173    134468.11   -35568.818    2685.5293   -38254.347    10.090897     241.6683 
    2700    138.08408   -538.19114    134462.28   -35588.622    2670.4764   -38259.098    10.326696    240.31371 
    2750    140.49026   -775.43059    134451.43   -35603.474    2717.0108   -38320.485    10.533805    244.50129 
    2800    138.85161   -699.76636     134424.5   -35588.575    2685.3201   -38273.895    10.873984    241.64948 
    2850    140.30153   -631.66129     134417.6   -35615.276    2713.3607   -38328.637    11.081612    244.17283 
    2900    136.19844   -868.22551    134455.83   -35628.094    2634.0091   -38262.104     11.30218    237.03204 
    2950    141.80698   -704.18581     134488.9   -35528.797    2742.4754   -38271.272    11.521015    246.79283 
    3000    137.88359   -458.01609    134475.64   -35584.212    2666.5991   -38250.811    11.709742    239.96479 
    3050    139.16933   -594.96168    134467.91   -35599.081    2691.4645   -38290.545    11.843384    242.20241 
    3100    140.03585   -718.86135     134464.7   -35632.068    2708.2226    -38340.29    11.962996    243.71045 
    3150    138.14006   -853.22199    134512.07   -35617.498    2671.5591   -38289.057    12.121551    240.41114 
    3200    135.78919   -550.10602    134470.25   -35657.154    2626.0945   -38283.248    12.233572    236.31981 
    3250    136.21571   -521.07052    134439.99   -35673.618    2634.3432   -38307.961    12.448349    237.06211 
    3300    134.49133   -698.33674    134392.13   -35680.304    2600.9944   -38281.299    12.616785    234.06109 
    3350    134.98155   -601.44618    134417.32   -35696.617    2610.4751   -38307.092    12.782582    234.91425 
    3400    135.33672   -676.70331    134467.05   -35679.156     2617.344     -38296.5    13.028682    235.53237 
    3450    136.42481   -901.32936    134519.52   -35715.383     2638.387    -38353.77    13.312439    237.42601 
    3500    136.52941   -724.85849    134595.34   -35675.671      2640.41   -38316.081    13.606307    237.60806 
    3550    139.46615   -723.35111    134656.69   -35616.793     2697.205   -38313.998    13.845293    242.71899 
    3600    140.72162   -608.47714    134671.55   -35571.113    2721.4852   -38292.598    14.110858    244.90394 
    3650    141.48451   -428.64658    134706.32   -35591.315     2736.239   -38327.554    14.393622    246.23162 
    3700    137.62283   -811.02793    134692.87   -35646.251    2661.5562   -38307.807    14.646807    239.51098 
    3750    136.52747   -825.07075    134692.79   -35706.663    2640.3724   -38347.036    14.835616    237.60468 
    3800    136.03401    -593.3638    134677.39    -35690.64    2630.8291   -38321.469    14.914933    236.74588 
    3850    138.68451   -897.32256    134615.39   -35679.754    2682.0884   -38361.843     15.19894    241.35866 
    3900    137.14913   -662.89332    134500.56   -35634.022    2652.3949   -38286.417    15.407326    238.68657 
    3950    139.42015   -801.58241    134464.89   -35619.321    2696.3153   -38315.637    15.560573    242.63893 
    4000    141.09571   -485.60464    134579.74   -35627.783    2728.7199   -38356.503    15.840871    245.55499 
    4050     138.6429   -605.31043    134697.76   -35592.533    2681.2838   -38273.817    16.026887    241.28625 
    4100    138.16662   -643.85763    134759.42   -35600.271    2672.0727   -38272.344    16.249678    240.45736 
    4150    139.18138   -946.05231    134729.09   -35628.013    2691.6978    -38319.71    16.496465     242.2234 
    4200     138.0461   -655.66869    134629.39   -35667.824     2669.742   -38337.566    16.670602    240.24762 
    4250    137.20678   -807.46316    134630.37   -35674.292      2653.51   -38327.802     16.95561    238.78691 
    4300    139.56522   -666.79063    134626.87    -35661.48     2699.121   -38360.601    17.210938     242.8914 
    4350     138.4065    -597.9273    134629.67   -35631.428    2676.7118    -38308.14    17.572657    240.87482 
    4400    138.01866   -824.48898    134663.27   -35647.405    2669.2112   -38316.616    17.836535    240.19985 
    4450    138.03961   -1136.1313    134613.93   -35607.517    2669.6165   -38277.134     18.02412    240.23632 
    4500    139.93527    -612.0744    134594.65   -35569.766    2706.2775   -38276.043    18.178119    243.53541 
    4550    138.50409   -640.25344     134569.8    -35593.78    2678.5992   -38272.379    18.335071    241.04467 
    4600    139.83367   -618.85686    134515.52   -35619.571    2704.3127   -38323.884    18.426205    243.35861 
    4650    138.32307    -591.0583    134563.51   -35653.587    2675.0983   -38328.685    18.528998    240.72963 
    4700     136.8517   -795.68147    134560.85   -35631.552    2646.6428   -38278.194     18.72673    238.16894 
    4750    138.97365   -706.81656    134582.82   -35639.646    2687.6804   -38327.326    18.926269    241.86187 
    4800    138.40994   -782.07553     134619.5   -35642.074    2676.7784   -38318.853    18.949809    240.88082 
    4850    138.98265   -560.21758    134598.64   -35583.906    2687.8544   -38271.761     19.09645    241.87754 
    4900    138.82946   -796.81654    134600.49   -35637.226    2684.8917   -38322.118    19.224328    241.61092 
    4950    136.19605   -733.11488    134590.33   -35689.466     2633.963   -38323.429    19.318344     237.0279 
    5000    136.72278   -831.59236    134579.47   -35656.331    2644.1497    -38300.48    19.484464    237.94459 
    5050    136.27854   -598.29871    134580.11   -35689.725    2635.5582   -38325.283    19.598223    237.17145 
    5100    137.31565   -581.62381    134576.69   -35683.685    2655.6154     -38339.3    19.663013    238.97638 
    5150     138.8202    -528.7258    134674.42   -35603.011    2684.7126   -38287.723    19.792688    241.59481 
    5200    138.69755   -584.63524    134693.24   -35561.536    2682.3406   -38243.876    19.989536    241.38136 
    5250    140.10796   -661.01483    134741.14   -35561.395    2709.6172   -38271.012    20.033013    243.83595 
    5300    138.09229   -834.33289    134839.69   -35598.704    2670.6353   -38269.339    20.317924    240.32801 
    5350    138.79868   -933.28339    134795.94   -35571.147    2684.2964   -38255.443    20.373485    241.55735 
    5400    139.32688   -735.16887    134678.68   -35622.397    2694.5116   -38316.908    20.515664    242.47661 
    5450    138.30041   -644.63338    134615.99   -35595.396    2674.6601   -38270.056    20.762133    240.69019 
    5500    133.36416   -801.93178    134486.87    -35647.57    2579.1956   -38226.765    20.814212    232.09943 
    5550    138.44253   -819.28597     134417.6   -35652.225    2677.4086   -38329.634    20.924995    240.93753 
    5600    140.23628   -569.14995    134471.35   -35598.313     2712.099   -38310.412     21.21486    244.05928 
    5650     137.0652   -533.34347    134538.72    -35621.12    2650.7719   -38271.892    21.456293    238.54051 
    5700    139.73881   -612.29884    134629.69   -35630.511    2702.4781    -38332.99    21.573969    243.19351 
    5750    141.57801   -504.35956    134725.09   -35619.979    2738.0473   -38358.026    21.862925    246.39435 
    5800    138.51449   -737.33021    134738.33   -35589.746    2678.8004   -38268.547    22.044823    241.06277 
    5850    141.34269   -423.93692    134699.39   -35621.074    2733.4964   -38354.571    22.119744    245.98482 
    5900    136.75228    -702.8034    134681.91    -35628.44    2644.7202   -38273.161    22.331324    237.99593 
    5950    139.94449   -667.01189    134731.91    -35590.03    2706.4558   -38296.486    22.522245    243.55146 
    6000    139.67781   -584.48622    134756.62   -35563.141    2701.2983   -38264.439    22.643541    243.08734 
    6050     137.9474   -727.05729    134806.74   -35597.878    2667.8332   -38265.712     22.66861    240.07585 
    6100    135.94945   -627.55512    134780.95   -35618.569    2629.1937   -38247.762    22.890375    236.59871 
    6150    137.20841   -833.31388    134756.04   -35660.235    2653.5414   -38313.776    23.109282    238.78974 
    6200    137.51414   -675.81765    134798.34   -35656.886    2659.4541    -38316.34     23.25791    239.32182 
    6250    138.81506   -569.05226    134784.09   -35608.613    2684.6132   -38293.226    23.455913    241.58587 
    6300    137.45578   -676.28304    134795.94   -35612.255    2658.3255    -38270.58    23.615324    239.22026 
    6350    137.11316   -521.18876    134859.44   -35618.025    2651.6994   -38269.725    23.852252    238.62398 
    6400    138.99108   -637.69277    134892.01   -35651.753    2688.0173    -38339.77    23.977346     241.8922 
    6450    139.05379   -581.04322    134916.53   -35623.019    2689.2301   -38312.249    24.108875    242.00134 
    6500    138.78944   -554.63722    134935.06   -35645.306    2684.1179   -38329.424    24.346477    241.54129 
    6550    138.01205   -514.20969    134946.43   -35649.683    2669.0835   -38318.767    24.521191    240.18836 
    6600    138.60091   -923.28755    134895.37   -35645.258    2680.4717    -38325.73    24.844061    241.21318 
    6650    140.17794   -540.84805    134880.31   -35591.727    2710.9706   -38302.698    24.967797    243.95774 
    6700    139.97146   -878.47065    134857.26   -35575.059    2706.9774   -38282.037    25.229396     243.5984 
    6750    139.92982   -715.23036    134807.46   -35562.614    2706.1722   -38268.786    25.351317    243.52594 
    6800    138.24796   -671.56374    134752.68   -35683.034    2673.6459    -38356.68    25.609902    240.59892 
    6850    138.01442   -794.06626    134765.16   -35694.394    2669.1293   -38363.523    25.822591    240.19248 
    6900    138.42076   -769.77128    134755.85   -35684.798    2676.9876   -38361.786    25.971482    240.89964 
    6950     136.5672   -883.68341    134776.78   -35701.346    2641.1407   -38342.487    26.190258    237.67382 
    7000    136.35943    -858.2673    134853.62   -35696.716    2637.1227   -38333.839    26.386898    237.31223 
    7050    136.86379    -682.5192     134774.7   -35707.143    2646.8766    -38354.02    26.616711    238.18998 
    7100    136.24603   -590.20497    134748.23   -35704.817    2634.9294   -38339.747    26.674093    237.11487 
    7150    137.03241   -445.54794    134723.66   -35696.147    2650.1376   -38346.285     26.75864    238.48344 
    7200    135.18211    -545.6726    134709.82   -35732.498    2614.3539   -38346.852     26.91229    235.26329 
    7250    136.28925   -798.61177     134619.8   -35721.588    2635.7654   -38357.354    27.105925    237.19009 
    7300    135.05112   -763.24539    134567.52   -35734.295    2611.8205   -38346.116    27.336889    235.03531 
    7350    137.14097   -472.29934    134609.16   -35702.877    2652.2371   -38355.114    27.558221    238.67237 
    7400    139.15379   -639.08606    134601.56   -35688.796    2691.1642    -38379.96     27.90276    242.17538 
    7450    136.72407   -640.96467    134549.47    -35731.62    2644.1745   -38375.795    28.176885    237.94682 
    7500    137.95053    -694.2005     134460.4   -35687.103    2667.8937   -38354.997    28.231552    240.08129 
    7550    135.73158    -483.7002    134584.75    -35678.01    2624.9802    -38302.99    28.415209    236.21954 
    7600    139.10558   -644.13766    134602.82   -35646.446    2690.2318   -38336.678    28.534649    242.09148 
    7650    138.01482   -584.82813    134588.27   -35632.561     2669.137   -38301.698    28.673234    240.19317 
    7700    138.79065   -816.25879    134609.19   -35698.802    2684.1411   -38382.943      28.9256    241.54338 
    7750    136.51138   -535.93792    134665.87   -35721.859    2640.0613    -38361.92    29.036354    237.57667 
    7800    135.34226    -786.0849    134621.57   -35701.499     2617.451    -38318.95    29.129342      235.542 
    7850    136.39288   -769.82714    134553.44   -35691.032    2637.7695   -38328.802    29.279891    237.37044 
    7900    137.82815   -454.40521    134550.02   -35654.563    2665.5268    -38320.09    29.558064     239.8683 
    7950    137.98807    -553.8483    134671.96   -35626.841    2668.6197   -38295.461    29.683017    240.14662 
    8000    136.96653   -630.52348    134651.58   -35647.162    2648.8636   -38296.026    29.862591    238.36879 
    8050    134.12132   -762.75537    134660.22   -35612.362    2593.8388     -38206.2    30.173051    233.41715 
    8100    138.15655   -891.82222    134574.95   -35662.668    2671.8781   -38334.546    30.270341    240.43984 
    8150    136.53857   -557.71529    134593.05   -35703.658    2640.5871   -38344.245    30.303187      237.624 
    8200    134.81059    -538.6115    134654.25   -35720.697    2607.1689   -38327.866       30.356    234.61672 
    8250    138.45873   -623.14111    134647.89   -35662.591    2677.7219   -38340.313    30.509688    240.96572 
    8300    138.78463   -618.78645    134757.15    -35625.52    2684.0247   -38309.545    30.636842    241.53291 
    8350     139.3371   -691.77597    134816.99   -35576.136    2694.7092   -38270.845    30.729036    242.49439 
    8400    139.21482   -785.23715    134856.34   -35608.743    2692.3443   -38301.087    30.777379    242.28158 
    8450    143.03082    -840.0397    134797.34   -35609.384    2766.1439   -38375.528    30.914831    248.92273 
    8500    137.26414   -931.27779    134773.62   -35580.482    2654.6193   -38235.102    30.997447    238.88674 
    8550    137.23632    -803.5865    134733.97   -35596.096    2654.0813   -38250.177    31.050493    238.83832 
    8600    135.92058   -887.27938    134664.17   -35572.347    2628.6355   -38200.983    31.301904    236.54848 
    8650    138.05056   -658.73032    134633.79   -35571.405    2669.8281   -38241.233    31.415382    240.25537 
    8700     137.0283   -707.34834    134674.42   -35605.848    2650.0582   -38255.906    31.572634    238.47629 
    8750    138.73676   -626.43905    134730.96   -35584.867     2683.099   -38267.966    31.638312     241.4496 
    8800    136.95928   -380.14768    134768.42   -35586.792    2648.7235   -38235.515    31.614683    238.35618 
    8850    139.91981   -663.90892    134755.19   -35590.722    2705.9785   -38296.701     31.76927     243.5085 
    8900    136.80523   -617.65218    134734.84   -35626.755     2645.744   -38272.499    31.924134    238.08806 
    8950    136.83766   -930.12144    134690.73   -35599.799    2646.3713    -38246.17    32.249411    238.14451 
    9000    139.70154   -808.88779    134596.37   -35603.871    2701.7573   -38305.628    32.338307    243.12864 
    9050    136.68697   -703.45978     134677.9   -35599.249    2643.4571   -38242.706    32.501392    237.88226 
    9100    139.14672   -613.16772     134711.9    -35614.24    2691.0274   -38305.267    32.699956    242.16307 
    9150    138.95124   -608.86213    134757.69   -35650.607    2687.2468   -38337.854    32.897739    241.82286 
    9200    138.08573   -677.25301    134826.48   -35634.063    2670.5083   -38304.571     33.12091    240.31658 
    9250    136.00096   -956.79984    134803.69    -35644.63    2630.1899    -38274.82    33.199953    236.68836 
    9300    139.86724   -823.22659    134786.78   -35627.064    2704.9619   -38332.026    33.273965    243.41703 
    9350    139.40516   -863.06803    134823.33   -35604.007    2696.0256   -38300.033    33.525707    242.61285 
    9400    137.19102   -614.30017    134810.14   -35606.951    2653.2051   -38260.156    33.620454    238.75948 
    9450    139.16318   -877.41972    134773.36   -35581.603    2691.3457   -38272.948    33.737264    242.19171 
    9500    135.15181   -788.08992    134828.04   -35589.256    2613.7678   -38203.023    33.984943    235.21055 
    9550    139.88527   -905.39422    134836.88   -35571.877    2705.3105   -38277.187    34.172018    243.44839 
    9600    138.61682   -742.57794    134855.34   -35577.454    2680.7793   -38258.233    34.213555    241.24086 
    9650    136.93537    -582.1161    134856.46   -35569.723    2648.2609   -38217.984    34.337621    238.31456 
    9700    139.01002   -672.11661    134825.97   -35602.483    2688.3837   -38290.866    34.374875    241.92517 
    9750    139.75583   -764.32954    134890.59   -35605.998    2702.8072   -38308.805    34.479366    243.22312 
    9800    137.43401    -710.4363    134823.19   -35642.643    2657.9044   -38300.547    34.727174    239.18237 
    9850    138.45454   -719.27571    134868.78   -35659.591    2677.6411   -38337.232    34.794432    240.95845 
    9900    137.55623   -866.91547    134756.42   -35604.664    2660.2681   -38264.932    34.836678    239.39507 
    9950    137.03921   -869.07853    134681.35   -35618.251    2650.2692    -38268.52    34.928476    238.49527 
   10000    137.75005   -803.69915    134681.29   -35568.455    2664.0164   -38232.471    34.980733    239.73237 
   10050    137.93628   -838.69704    134669.93   -35534.888     2667.618   -38202.506     35.32668    240.05648 
   10100     139.6042   -778.78643    134657.38   -35483.561    2699.8748   -38183.435     35.52176    242.95924 
   10150    142.32929    -707.5891    134631.39   -35520.955    2752.5767   -38273.532    35.737715    247.70184 
   10200    139.50748   -683.97706    134753.29   -35543.376    2698.0043    -38241.38    36.078626    242.79091 
   10250    140.87325   -642.29626    134849.76   -35482.813    2724.4177   -38207.231    36.278719    245.16783 
   10300    141.72801   -563.09039    134844.94   -35452.355    2740.9482   -38193.303    36.531495     246.6554 
   10350    144.26985   -802.57391     134841.3   -35383.826    2790.1061   -38173.932    36.853953    251.07907 
   10400    140.85255   -608.28198    134829.07   -35450.522    2724.0173   -38174.539    37.103787     245.1318 
   10450    142.00375   -885.30784    134840.44   -35460.912    2746.2809   -38207.193    37.399566    247.13529 
   10500    138.31577   -882.84008    134847.68   -35495.825    2674.9573   -38170.783    37.719091    240.71694 
   10550    139.83117   -856.94413    134853.49   -35494.509    2704.2643   -38198.773    37.817811    243.35425 
   10600    140.23958   -1061.9447    134767.41   -35470.068    2712.1628    -38182.23    38.001603    244.06502 
   10650    138.86637   -891.84481    134789.69   -35444.827    2685.6055   -38130.432    38.195954    241.67516 
   10700    141.50792   -730.08577    134800.35   -35483.772    2736.6917   -38220.464    38.465853    246.27236 
   10750    139.19772   -673.72582    134778.31   -35530.186    2692.0137   -38222.199    38.669191    242.25183 
   10800    137.44619   -910.76039    134689.02   -35577.653      2658.14   -38235.793    38.739151    239.20356 
   10850    135.51753    -835.0493    134638.48   -35621.882    2620.8406   -38242.722    39.015873    235.84703 
   10900    136.57346   -812.12983    134620.47   -35623.478    2641.2619    -38264.74     39.27831    237.68472 
   10950    137.16889   -824.35198    134570.82   -35618.671    2652.7772   -38271.448    39.414931    238.72097 
   11000    135.54604   -927.17906    134523.67   -35610.685    2621.3921   -38232.077    39.602772    235.89665 
   11050    140.92418   -731.58399    134493.07   -35618.005    2725.4026   -38343.408    39.679304    245.25646 
   11100    134.45013   -700.24024    134473.31   -35664.626    2600.1976   -38264.824    39.846806    233.98938 
   11150    136.71948   -535.67077    134471.85   -35663.702    2644.0858   -38307.788    40.085391    237.93884 
   11200    139.72566   -693.99827    134504.81   -35617.268    2702.2239   -38319.492      40.2397    243.17063 
   11250    139.05152   -875.14083    134443.19   -35609.754    2689.1863   -38298.941    40.372944    241.99739 
   11300    136.10481   -435.31309    134544.95   -35650.677    2632.1984   -38282.875    40.418732     236.8691 
   11350     137.3338   -791.78984    134562.22   -35649.802    2655.9665   -38305.769    40.662329    239.00797 
   11400    141.83172   -618.50273    134615.85   -35598.315     2742.954   -38341.269    40.912555    246.83589 
   11450    139.71555   -850.73905    134560.76    -35598.89    2702.0282   -38300.918    41.113644    243.15302 
   11500    138.91309   -560.46161    134583.62   -35620.634    2686.5091   -38307.143    41.476417    241.75648 
   11550     136.7682   -600.66705    134612.54   -35641.072    2645.0279   -38286.099    41.780221    238.02362 
   11600    136.97911    -612.8183     134612.5   -35658.299    2649.1068   -38307.406    42.131544    238.39067 
   11650    136.13307   -499.71764    134575.91    -35669.55    2632.7449   -38302.295    42.325533    236.91828 
   11700    135.96245   -538.79415    134584.28   -35661.597    2629.4453   -38291.042     42.54448    236.62135 
   11750     137.6038   -702.39642    134579.46   -35689.601    2661.1882    -38350.79    42.658325    239.47786 
   11800    136.36055    -660.1917     134525.9   -35694.483    2637.1442   -38331.627    42.941825    237.31417 
   11850    137.33927   -544.57249    134538.79   -35651.635    2656.0722   -38307.707    43.125686    239.01748 
   11900    136.05103   -581.87316    134507.16    -35700.73    2631.1582   -38331.888    43.480721     236.7755 
   11950    134.83594   -915.26373    134529.31   -35751.327    2607.6591   -38358.986    43.658369    234.66084 
   12000     133.6194   -683.52265     134444.3    -35718.59    2584.1318   -38302.722    43.671455    232.54364 
   12050    137.65192   -432.94861    134511.69   -35669.447    2662.1187   -38331.566    43.932262    239.56161 
   12100    131.38545   -957.92337    134487.03   -35677.705    2540.9283   -38218.634    44.261665     228.6558 
   12150    139.44745   -761.66482    134454.67   -35650.039    2696.8433   -38346.882     44.29294    242.68644 
   12200    136.33249   -687.49029    134444.63   -35652.848    2636.6016   -38289.449    44.484094    237.26535 
   12250    136.30948   -853.15629    134460.07    -35685.03    2636.1566   -38321.187    44.852522     237.2253 
   12300    134.28894   -598.20322    134495.81   -35709.484    2597.0803   -38306.564    45.154776    233.70886 
   12350    135.15923   -804.61594    134570.11   -35722.975    2613.9113   -38336.886     45.36231    235.22347 
   12400    135.89449   -702.41554    134598.08   -35702.956     2628.131   -38331.087    45.436027    236.50308 
   12450     134.8548   -557.32566    134705.55   -35731.617    2608.0237   -38339.641    45.918435    234.69365 
   12500    137.80327   -562.23869    134777.73   -35738.378    2665.0457   -38403.423    46.020846      239.825 
   12550    134.83812   -816.78917    134712.06   -35710.618    2607.7013   -38318.319    46.096505    234.66463 
   12600    138.02656   -724.86193     134633.1   -35707.619     2669.364   -38376.983    46.300953     240.2136 
   12650    134.99236   -624.90643    134701.26   -35728.438    2610.6842   -38339.122    46.364842    234.93306 
   12700    138.01597   -595.54549    134759.59   -35697.962    2669.1593   -38367.121    46.341159    240.19518 
   12750    139.35157   -639.77186    134770.17   -35700.954    2694.9891   -38395.943    46.498615    242.51958 
   12800    135.49712   -516.41142    134778.36   -35682.623    2620.4459   -38303.069    46.722216    235.81151 
   12850    138.27819    -596.8155    134825.69   -35641.146    2674.2304   -38315.376    47.131124    240.65153 
   12900    138.77866   -701.32055    134782.62   -35687.905    2683.9093   -38371.815    47.285822    241.52252 
   12950    135.96746   -782.74433    134746.26   -35707.711     2629.542   -38337.253    47.466357    236.63006 
   13000    135.72905   -632.65131    134674.49   -35698.184    2624.9314   -38323.115    47.622005    236.21515 
   13050    139.03141   -599.34815    134731.15   -35651.087    2688.7973   -38339.884    47.758538    241.96238 
   13100    139.74525   -484.97222     134831.1   -35614.336    2702.6027   -38316.939    47.894801    243.20472 
   13150    139.21572   -633.04033    134780.57   -35601.434    2692.3619   -38293.796     47.93214    242.28316 
   13200    137.76439   -686.48607     134800.4   -35612.025    2664.2939   -38276.319    48.069891    239.75734 
   13250     137.8431   -449.83416    134906.79   -35584.202    2665.8161   -38250.018    48.211077    239.89433 
   13300    141.72683   -538.06263    134975.56   -35588.762    2740.9254   -38329.687    48.323783    246.65335 
   13350    139.41968   -653.34615    135028.73   -35578.795    2696.3063   -38275.101    48.679693    242.63811 
   13400    137.15335   -549.66159    135119.65   -35637.068    2652.4765   -38289.545    49.163844    238.69391 
   13450      137.282   -726.10945    135094.04   -35622.241    2654.9646   -38277.206    49.380911    238.91781 
   13500    138.37425   -660.07678    135131.38   -35672.072    2676.0882    -38348.16    49.357206    240.81871 
   13550    139.93709   -611.50406    135064.69   -35633.617    2706.3127    -38339.93    49.471789    243.53858 
   13600    137.98696   -737.13617    135057.68    -35631.91    2668.5982   -38300.508    49.680617    240.14469 
   13650    136.78891   -712.80374    135051.12   -35590.296    2645.4285   -38235.724    49.931059    238.05967 
   13700     136.3468   -553.54253    135027.63   -35616.169    2636.8783   -38253.047    49.978711    237.29024 
   13750    136.42184   -799.12039    134977.21   -35627.509    2638.3296   -38265.839    50.022515    237.42084 
   13800    136.52541   -687.30177    135003.94   -35629.569    2640.3325   -38269.901    50.204181    237.60109 
   13850    140.85895   -811.51693    135039.57   -35627.104    2724.1411   -38351.245    50.331675    245.14294 
   13900    137.33948   -952.13569    135076.96   -35604.132    2656.0763   -38260.208    50.684096    239.01786 
   13950    138.73556   -723.11475    135081.51   -35619.852    2683.0757   -38302.928    50.802741    241.44751 
   14000    141.69025   -794.34525    135046.95   -35570.557     2740.218   -38310.775    50.942059    246.58969 
   14050    138.15475   -567.93515     135027.7   -35606.588    2671.8431   -38278.431    50.866472    240.43669 
   14100    138.81557   -868.14523    135037.35   -35591.367    2684.6231    -38275.99     51.09344    241.58675 
   14150    139.38785    -716.9329    135054.01   -35623.698    2695.6908   -38319.389    51.278433    242.58272 
   14200    140.83138   -666.78897    135048.36   -35583.066    2723.6079   -38306.674     51.39226    245.09496 
   14250     137.9027   -764.96938    135005.54   -35650.594    2666.9688   -38317.563    51.568443    239.99805 
   14300    138.17863   -688.88177    134921.56   -35708.672     2672.305   -38380.977    51.676069    240.47826 
   14350    135.67278   -806.64259    134948.17   -35750.744    2623.8432   -38374.587    52.080302    236.11722 
   14400    138.51914   -687.19913    134943.34   -35707.952    2678.8903   -38386.842    52.457705    241.07086 
   14450    139.23793   -649.38328    134956.39   -35703.402    2692.7914   -38396.193    52.577252    242.32181 
   14500    137.97755   -710.92412    134932.91   -35695.932    2668.4162   -38364.348    52.709831    240.12831 
   14550    138.53469   -384.12625    135012.99   -35711.274    2679.1909   -38390.465    52.917117    241.09792 
   14600    138.52764   -475.02338    135030.13   -35720.463    2679.0546   -38399.517    53.065991    241.08565 
   14650     140.9142   -536.55648    135014.24   -35680.726    2725.2095   -38405.936    52.974323    245.23909 
   14700    139.47426   -790.93569    135008.14   -35714.238    2697.3618     -38411.6    53.205119     242.7331 
   14750     137.3153   -571.26923    135061.18   -35757.286    2655.6086   -38412.895     53.43486    238.97577 
   14800    137.91373   -822.98372    135058.93   -35779.275    2667.1819   -38446.457    53.693963    240.01724 
   14850     136.9258   -729.36444    135034.94   -35735.318    2648.0759   -38383.394    53.939876    238.29791 
   14900    135.52418   -618.86574    135106.31   -35708.616    2620.9692   -38329.585    54.403731     235.8586 
   14950    139.01367   -914.06967     135111.9   -35666.702    2688.4542   -38355.156    54.508718    241.93151 
   15000    139.76253   -1079.5974    135054.38   -35650.063    2702.9368       -38353    54.456976    243.23479 
   15050    138.44404   -487.19482    134991.21    -35674.29    2677.4379   -38351.728    54.810485    240.94016 
   15100    134.94979   -939.40224    134984.98   -35728.787    2609.8608   -38338.648    55.214112    234.85896 
   15150    136.17738   -632.89418    134998.73   -35692.405    2633.6018   -38326.007    55.303234    236.99539 
   15200    135.28808   -658.92371    134996.59   -35712.954    2616.4032   -38329.357    55.465122     235.4477 
   15250    136.63183   -812.77475    134973.33   -35711.268    2642.3906   -38353.658    55.452164    237.78629 
   15300    134.82952   -768.83057    134962.15   -35746.387    2607.5349   -38353.922    55.666442    234.64966 
   15350    139.29374   -640.41667    134942.38   -35667.073    2693.8707   -38360.944    55.863076    242.41893 
   15400    137.18701    -643.4933     135008.1   -35708.493    2653.1276    -38361.62    56.036102     238.7525 
   15450    137.01937   -667.80509    135055.18   -35672.498    2649.8855   -38322.384    56.468863    238.46075 
   15500    140.49021   -556.46902    135058.89   -35620.602    2717.0099   -38337.612    56.641003    244.50121 
   15550    138.03765   -528.68739    135106.63   -35603.261    2669.5785    -38272.84    56.753142     240.2329 
   15600     140.4879   -474.66506    135160.88    -35673.23    2716.9651   -38390.195     56.81466    244.49718 
   15650    139.57886   -647.86609    135255.16   -35689.117    2699.3847   -38388.502    56.813637    242.91513 
   15700    138.74172    -506.1238    135334.66    -35654.59    2683.1948   -38337.785     56.93108    241.45822 
   15750    140.80759   -591.23937    135402.18    -35671.88    2723.1477   -38395.028    57.112084    245.05354 
   15800     136.2254   -490.33598    135474.54   -35680.998    2634.5305   -38315.528    57.341049    237.07896 
   15850    138.70813   -612.11628    135520.32   -35685.954    2682.5453   -38368.499    57.264005    241.39978 
   15900    137.03329   -724.92404     135468.6   -35727.104    2650.1548   -38377.259    57.240449    238.48498 
   15950    135.53013   -680.97619    135478.92   -35684.103    2621.0844   -38305.187    57.289792    235.86896 
   16000    136.55609   -850.61872     135461.7    -35692.47     2640.926   -38333.396    57.410783    237.65449 
   16050    136.54071   -885.41674    135417.53   -35719.229    2640.6284   -38359.858    57.683838    237.62771 
   16100    139.19712   -664.67563    135453.59    -35682.52     2692.002   -38374.522      57.9293    242.25077 
   16150    138.23785   -850.42803    135362.12   -35690.325    2673.4504   -38363.775    58.020551    240.58133 
   16200    139.31483   -620.07147    135343.44   -35663.518    2694.2786   -38357.797    58.132918    242.45564 
   16250    139.85911   -868.86558    135290.84   -35691.176    2704.8047    -38395.98    58.610914    243.40287 
   16300    137.82397   -793.31591    135330.79   -35726.729     2665.446   -38392.175    58.794059    239.86103 
   16350    139.60961   -771.89582    135398.83   -35708.593    2699.9794   -38408.573     59.27103    242.96865 
   16400    135.00972   -502.19049    135418.39   -35793.688    2611.0199   -38404.707    59.441091    234.96327 
   16450    136.44491   -390.05626    135534.13   -35826.038    2638.7757   -38464.813    59.743841    237.46099 
   16500    134.86685   -711.74865    135544.84   -35852.289    2608.2569   -38460.546    60.056881    234.71463 
   16550    136.01749    -694.5373     135557.7   -35803.707    2630.5097   -38434.216    60.260417    236.71714 
   16600    135.01043   -726.68866    135558.19   -35803.355    2611.0337   -38414.388    60.385702    234.96451 
   16650    135.57145   -372.88258    135567.26   -35776.998    2621.8834   -38398.881    60.676281    235.94086 
   16700    133.89834   -858.13248    135620.52    -35759.85    2589.5265   -38349.376    60.822956    233.02909 
   16750    133.28564   -762.95922    135603.04   -35768.936     2577.677   -38346.613    61.186385    231.96277 
   16800    140.01507   -858.75135     135604.3   -35740.785    2707.8208   -38448.605     61.30434    243.67429 
   16850     136.7228   -1034.2274    135550.93    -35724.25      2644.15     -38368.4    61.502405    237.94461 
   16900     136.9872   -758.90309    135532.77   -35707.549    2649.2634   -38356.812    61.551421    238.40476 
   16950    137.65991   -815.53513    135458.17   -35728.659    2662.2731   -38390.933    61.539849     239.5755 
   17000    137.26699   -815.27235    135406.34   -35759.776    2654.6743    -38414.45    61.327763    238.89168 
   17050    135.32347   -932.28564    135340.65   -35743.585    2617.0877   -38360.673    61.268691    235.50931 
   17100    138.00642   -845.15056     135230.3   -35740.326    2668.9745   -38409.301    61.339285    240.17855 
   17150    140.95922   -640.35723    135146.17   -35679.184    2726.0803   -38405.264    61.611944    245.31744 
   17200    137.19481   -772.14905    135134.73   -35677.532    2653.2785    -38330.81    62.052461    238.76608 
   17250    138.39989   -655.31345     135125.1   -35697.952    2676.5841   -38374.537    62.043797    240.86333 
   17300    137.00586   -758.76925    135073.39   -35755.807    2649.6243   -38405.432    62.076576    238.43725 
   17350    136.19442   -586.63769    135064.95   -35711.144    2633.9314   -38345.075     62.37085    237.02506 
   17400    138.00952   -970.87659    135065.48   -35712.308    2669.0345   -38381.342    62.648692    240.18395 
   17450    137.33389   -495.47194    135074.87   -35731.099    2655.9682   -38387.067    62.844685    239.00812 
   17500    139.46291     -973.793    135024.67   -35713.293    2697.1423   -38410.435    62.826763    242.71334 
   17550    136.73076   -847.09099    134994.54   -35719.354    2644.3039   -38363.657    62.684817    237.95846 
   17600    138.83906    -733.7008    135039.64   -35731.629    2685.0773   -38416.706    62.591439    241.62763 
   17650    136.21323   -755.29477    134986.84   -35754.234    2634.2951   -38388.529    62.549528    237.05778 
   17700    137.39857   -871.74427    135048.94    -35727.78    2657.2191   -38384.999    62.691795    239.12069 
   17750    137.08245   -902.32167    134963.76   -35744.278    2651.1054   -38395.383    62.875492    238.57052 
   17800    137.16474   -941.74366    134903.42   -35751.286    2652.6969   -38403.983    62.848388    238.71374 
   17850    138.41903   -1028.3773    134862.74   -35721.879    2676.9543   -38398.833     63.34866    240.89665 
   17900    136.29506   -790.14044    134771.78   -35730.888    2635.8777   -38366.766    63.404705     237.2002 
   17950    135.85733    -831.1658    134776.16   -35709.549    2627.4123   -38336.961    63.578895    236.43841 
   18000     136.5816   -869.50369    134783.56   -35703.396    2641.4193   -38344.815    63.802567    237.69888 
   18050    137.68406   -865.20894     134712.2   -35662.375    2662.7402   -38325.115    63.927746    239.61753 
   18100    141.45855   -614.58524    134701.23   -35681.484     2735.737   -38417.221    64.106128    246.18644 
   18150    136.81118    -810.9763    134718.13   -35705.709    2645.8591   -38351.568    64.262006    238.09842 
   18200    135.30122   -666.88975    134784.02   -35720.631    2616.6574   -38337.289    64.378678    235.47059 
   18250    141.43445   -631.45709    134801.41   -35646.862     2735.271   -38382.133     64.34879    246.14451 
   18300    137.55129   -788.41844    134799.89   -35680.728    2660.1725     -38340.9    64.540598    239.38647 
   18350    137.86095   -721.01887    134839.28   -35666.671    2666.1612   -38332.832    64.692388    239.92538 
   18400    137.97791   -581.54976    134802.27   -35682.814    2668.4232   -38351.237    64.970401    240.12894 
   18450    136.79506   -640.47268    134759.29   -35717.482    2645.5474   -38363.029    65.375252    238.07037 
   18500    141.73045   -737.55657    134813.41    -35637.96    2740.9954   -38378.956    65.498009    246.65964 
   18550    140.25503   -519.22794    134850.93   -35614.726    2712.4615   -38327.187    65.396724     244.0919 
   18600    141.25775   -700.70109    134921.23   -35577.846    2731.8536   -38309.699    65.548352    245.83698 
   18650    139.87607   -454.33182    134948.31   -35544.683    2705.1326   -38249.815    65.676611    243.43238 
   18700    140.03128   -519.37106    135003.72   -35573.876    2708.1343   -38282.011    65.964163    243.70251 
   18750    139.62482   -613.42992    135112.45   -35561.814    2700.2735   -38262.087    66.136506    242.99512 
   18800    140.63477   -772.24659    135109.41    -35605.69    2719.8055   -38325.495    66.326612    244.75279 
   18850     137.4597    -805.9198    135127.41   -35628.465    2658.4012   -38286.866    66.551876    239.22707 
   18900    136.19654   -448.20428     135073.4   -35687.188    2633.9725    -38321.16     66.91219    237.02875 
   18950    137.34355   -723.41172    135099.24   -35655.089     2656.155   -38311.244    67.257477    239.02493 
   19000    136.94541   -839.42694    135024.32   -35667.502    2648.4551   -38315.957    67.310448    238.33203 
   19050    139.76285   -697.91767    135000.37   -35665.128    2702.9431   -38368.071    67.437855    243.23535 
   19100    138.68344   -567.40887    134976.75   -35659.851    2682.0677   -38341.919    67.411688    241.35679 
   19150    139.48901   -536.55527    135058.02   -35654.042     2697.647   -38351.689    67.426512    242.75876 
   19200    138.35379   -602.25018    135081.63   -35643.144    2675.6925   -38318.836    67.608581     240.7831 
   19250    139.92357   -470.56481    135122.44   -35646.275    2706.0513   -38352.327    67.667863    243.51506 
   19300    137.43205   -837.40918     135103.6   -35647.263    2657.8665    -38305.13    67.873146    239.17895 
   19350    138.30919    -576.7957     134981.2    -35683.12      2674.83    -38357.95    67.879649    240.70548 
   19400    138.39895   -686.64438    135041.85   -35697.125    2676.5659   -38373.691    68.093366    240.86169 
   19450    138.95079   -694.02277    135007.72   -35685.078    2687.2383   -38372.316    68.315502    241.82209 
   19500    137.38459   -656.43635     134901.9   -35716.847    2656.9488   -38373.796    68.413317    239.09636 
   19550    138.01128    -744.1609    134844.71   -35701.152    2669.0685   -38370.221    68.654758    240.18701 
   19600    137.79355   -758.25415    134880.13    -35713.59    2664.8577   -38378.448    69.090624    239.80808 
   19650    135.97714   -679.88509    134911.46   -35759.347    2629.7292   -38389.076    69.288798     236.6469 
   19700    138.11297   -524.58681    134920.43   -35729.905    2671.0352   -38400.941    69.458939    240.36399 
   19750    135.86368   -542.04953    134982.41   -35747.155     2627.535    -38374.69     69.47016    236.44945 
   19800     136.0903   -878.69497    135071.44   -35808.133    2631.9178   -38440.051    69.773977    236.84385 
   19850    138.77727   -736.64017    135057.77   -35803.737    2683.8824    -38487.62    70.016812     241.5201 
   19900    135.06674   -805.19068    135038.32   -35796.574    2612.1225   -38408.696    70.508216    235.06249 
   19950    138.05424    -520.8613    135048.69   -35745.395    2669.8993   -38415.295    70.776218    240.26177 
   20000    137.43408   -478.88118    135154.38   -35765.371    2657.9058   -38423.277    70.962341    239.18249 
   20050    137.72145   -535.19319    135207.96   -35819.846    2663.4634    -38483.31     71.14662    239.68261 
   20100     135.4426   -512.79305    135233.92   -35826.603    2619.3915   -38445.994    71.355975    235.71662 
   20150    133.29082   -674.31454     135253.4   -35846.398    2577.7772   -38424.176    71.406097    231.97179 
   20200    138.71101   -663.35727    135287.99   -35778.804     2682.601   -38461.405    71.596608    241.40479 
   20250     136.4839   -912.43418    135333.96   -35819.406    2639.5299   -38458.936    72.057824    237.52885 
   20300    139.53513   -785.49902    135342.57   -35797.246    2698.5391   -38495.785    72.182593    242.83904 
   20350    133.81448   -817.90182    135328.38   -35849.544    2587.9045   -38437.449     72.26247    232.88314 
   20400    134.12835   -889.15309    135354.16   -35895.478    2593.9746   -38489.453    72.316004    233.42937 
   20450    132.99071   -842.22107     135340.5   -35864.958    2571.9733   -38436.931    72.481654     231.4495 
   20500    135.30592   -879.18382    135335.18   -35780.013    2616.7483   -38396.762    72.467169    235.47876 
   20550    138.98147   -809.49428    135358.62   -35783.325    2687.8314   -38471.156    72.649262    241.87547 
   20600    137.10749   -769.28573    135365.83   -35731.252    2651.5898   -38382.842    72.920512    238.61412 
   20650    138.71279   -949.62183    135377.61   -35718.378    2682.6355   -38401.014    73.104794    241.40789 
   20700    139.59543   -835.17059    135406.79   -35707.966    2699.7053   -38407.672    73.254673    242.94398 
   20750    137.56099   -1015.1972    135447.69   -35707.106    2660.3602   -38367.466    73.493918    239.40335 
   20800    138.67574   -627.73062    135482.57     -35717.3    2681.9189   -38399.219    73.509951     241.3434 
   20850    138.26919   -586.95425    135482.83   -35706.258    2674.0563   -38380.315    73.393152    240.63586 
   20900    135.32049   -885.26239    135516.99   -35747.885      2617.03   -38364.916    73.612132    235.50412 
   20950    138.61202   -953.85078    135454.75   -35777.178    2680.6866   -38457.864    73.961014    241.23251 
   21000    133.84016   -954.93745    135330.53   -35750.987    2588.4012   -38339.389    74.027824    232.92783 
   21050    138.51572   -668.16736    135195.71   -35719.833    2678.8242   -38398.657    73.967236    241.06491 
   21100    136.63063   -956.52551    135054.17   -35703.221    2642.3674   -38345.588    74.188672    237.78421 
   21150    140.51937   -577.15155    135006.49   -35644.814    2717.5738   -38362.388    74.412313    244.55195 
   21200    138.51307   -664.67955    135078.97   -35673.289     2678.773   -38352.062    74.598116    241.06031 
   21250    136.49295   -778.71336    135062.66   -35689.022    2639.7048   -38328.727    74.674005     237.5446 
   21300    133.51744   -764.61296    135025.21   -35777.823      2582.16   -38359.983    74.800554     232.3662 
   21350    137.00127   -734.63811    134934.96   -35799.192    2649.5355   -38448.727    74.699877    238.42925 
   21400    135.92042   -450.44277    134894.02   -35828.897    2628.6324    -38457.53    74.549083     236.5482 
   21450    137.96903    -670.5228    134931.79   -35771.396    2668.2514   -38439.648    74.423188    240.11348 
   21500     135.5054   -751.00275    134914.84    -35766.68    2620.6062   -38387.287    74.567368    235.82593 
   21550    136.90522   -578.86143     134982.2   -35770.487    2647.6779   -38418.165    74.613113    238.26208 
   21600      135.866   -797.93473    134929.02   -35732.345    2627.5799   -38359.925     74.72164    236.45349 
   21650    136.46056   -838.60016    134906.58   -35741.817    2639.0785   -38380.895    74.688394    237.48823 
   21700    137.64063   -637.72177    134935.89    -35715.56    2661.9004    -38377.46    74.722915    239.54196 
   21750     137.2536   -930.73081    134900.29   -35748.597    2654.4154   -38403.013    75.063642    238.86839 
   21800    137.15961   -953.17474    134878.17   -35769.448    2652.5977   -38422.046    75.038607    238.70481 
   21850    137.40996   -891.05989    134828.15   -35787.321    2657.4392    -38444.76    75.171829     239.1405 
   21900    139.54303   -1004.6823    134766.09   -35741.851    2698.6917   -38440.542    75.295217    242.85278 
   21950     138.3516   -660.17462    134780.76   -35791.798    2675.6501   -38467.448    75.516865    240.77928 
   22000    136.65388   -645.57582    134752.24    -35804.48     2642.817   -38447.297    75.543248    237.82466 
   22050    138.23471    -629.8575    134807.28   -35779.691    2673.3895   -38453.081    75.681924    240.57585 
   22100     138.9943   -676.35008    134867.59   -35739.982    2688.0797   -38428.061    75.652724    241.89781 
   22150    139.62086   -534.23084    134771.64   -35789.245    2700.1971   -38489.442     75.68958    242.98824 
   22200    135.66308   -784.40985    134834.69   -35770.512    2623.6555   -38394.167    76.069957    236.10033 
   22250    135.83911    -798.9428    134784.73   -35771.568    2627.0599   -38398.628    76.404796    236.40669 
   22300    135.57811   -504.98225    134770.03   -35788.661    2622.0122   -38410.673    76.486414    235.95245 
   22350    138.77829   -846.11063    134816.65   -35771.125    2683.9021   -38455.027    76.905151    241.52187 
   22400    138.05163   -658.32669    134823.18   -35739.086    2669.8488   -38408.935    77.352172    240.25723 
   22450    135.55921   -627.00927    134835.73   -35789.943    2621.6468    -38411.59    77.382654    235.91958 
   22500      137.776   -771.90525    134777.63   -35786.479    2664.5183   -38450.997    77.392349    239.77754 
   22550    136.52564   -680.30729    134770.11   -35746.358     2640.337   -38386.695    77.474604    237.60148 
   22600    135.52926   -437.86023    134860.72   -35773.221    2621.0675   -38394.289    77.409278    235.86744 
   22650    133.95503   -811.49494    134861.08   -35758.613    2590.6227   -38349.236    77.549536    233.12775 
   22700    137.57266    -619.5845    134899.19   -35776.726    2660.5858   -38437.312    77.615516    239.42366 
   22750    136.76971   -567.83438    134987.29   -35771.407    2645.0572   -38416.465    78.070947    238.02625 
   22800    140.15405   -805.99324    135077.42    -35789.55    2710.5086   -38500.059    78.137548    243.91616 
   22850    136.69824   -788.09318    134953.82   -35751.576    2643.6751   -38395.252    78.218157    237.90188 
   22900    136.22876   -629.07358     134927.2   -35772.125    2634.5955   -38406.721    78.529037    237.08481 
   22950    134.66238   -614.20435    134964.56   -35796.268    2604.3026    -38400.57    79.030953    234.35878 
   23000    137.07245   -715.17166    135015.42   -35764.875     2650.912   -38415.787    79.120972    238.55312 
   23050    138.51745   -631.02341    134998.38   -35786.295    2678.8576   -38465.152    79.095325    241.06792 
   23100    136.94421   -937.92515    134964.88   -35779.139     2648.432   -38427.571    79.044712    238.32995 
   23150    137.76657   -518.08051    134898.38   -35762.041     2664.336   -38426.377    79.266955    239.76113 
   23200    133.24706    -647.7925    134846.77   -35753.626    2576.9309   -38330.557    79.597881    231.89563 
   23250    135.28639   -681.39428    134832.97    -35699.97    2616.3705   -38316.341    79.514117    235.44477 
   23300    137.30771   -814.33208    134785.87   -35762.353    2655.4619   -38417.815    79.495558    238.96257 
   23350    137.51739   -619.50686    134895.69   -35782.539     2659.517   -38442.056    79.686716    239.32748 
   23400    139.53262   -499.34923    134928.33   -35766.592    2698.4904   -38465.083    79.518507    242.83466 
   23450    136.23595   -827.97624    134928.29    -35790.76    2634.7345   -38425.495    79.428036    237.09732 
   23500    136.06479   -817.76617    134987.64    -35758.18    2631.4244   -38389.604     79.29803    236.79945 
   23550    137.06024   -928.98064    134863.02   -35734.068    2650.6759   -38384.744    79.392339    238.53187 
   23600    139.24396   -993.89488    134789.28   -35728.048     2692.908   -38420.956    79.507326    242.33231 
   23650    140.72425    -963.8779    134752.85   -35720.705     2721.536   -38442.241    79.707433    244.90851 
   23700    137.20491   -804.81579    134788.69   -35759.015    2653.4737   -38412.489    79.884765    238.78365 
   23750    135.45012    -711.9639     134859.4   -35788.721    2619.5371   -38408.258    79.909851    235.72972 
   23800    135.81243   -582.18796    134880.91    -35756.63     2626.544   -38383.174    80.219896    236.36027 
   23850    136.06529   -885.35173    134976.54   -35702.618    2631.4341   -38334.052    80.194321    236.80032 
   23900    139.23551   -735.85893    134942.97   -35707.005    2692.7446    -38399.75    80.033164     242.3176 
   23950    135.83494   -805.00978     134984.5   -35701.652    2626.9793   -38328.632    80.129671    236.39944 
   24000    138.36698   -759.76214    134912.77   -35700.438    2675.9477   -38376.386     80.15979    240.80606 
   24050    138.08113   -840.76072    134898.84   -35681.198    2670.4194   -38351.618    80.256239    240.30858 
   24100    138.30094   -755.81525    134860.83   -35674.434    2674.6704   -38349.105     80.40966    240.69112 
   24150    139.13587   -1013.4246       134843   -35692.255    2690.8175   -38383.072    80.696158    242.14418 
   24200    136.33203   -589.57414    134854.03   -35693.443    2636.5928   -38330.036    80.944018    237.26455 
   24250    136.15612   -789.38865    134914.37   -35660.074    2633.1907   -38293.265    81.005331     236.9584 
   24300    139.45873   -667.53653    134856.63   -35641.666    2697.0615   -38338.728    81.178666    242.70607 
   24350    137.43497   -773.29236    134903.12   -35690.138     2657.923   -38348.061    81.238667    239.18404 
   24400    138.44837   -1002.7728    134896.09   -35703.438    2677.5216    -38380.96    81.194913    240.94769 
   24450    136.37371   -919.38929    134878.62   -35684.798    2637.3989   -38322.197    81.071586    237.33709 
   24500    136.58357   -727.62988    134830.15   -35733.711    2641.4573   -38375.169    81.197797     237.7023 
   24550    137.81126    -774.0858    134897.72    -35718.23    2665.2003    -38383.43    81.612791    239.83891 
   24600    140.66454   -807.83752    134839.08   -35693.075    2720.3813   -38413.456    81.624084     244.8046 
   24650    137.99369   -657.03579    134873.13   -35703.947    2668.7284   -38372.675    82.010941     240.1564 
   24700    141.22155   -699.43391    134860.35   -35699.526    2731.1535   -38430.679    82.105001    245.77398 
   24750    136.73466   -722.32387    134883.57    -35707.66    2644.3794   -38352.039    82.331738    237.96526 
   24800    137.05095   -742.55341    134909.84   -35704.241    2650.4962   -38354.737    82.683695    238.51571 
   24850    138.13229   -720.59973    134954.04   -35655.833    2671.4089   -38327.242    82.680619    240.39762 
   24900    140.59085   -654.29271    134976.15   -35645.846    2718.9561   -38364.802    82.567113    244.67635 
   24950    138.63624   -797.51061    135026.65   -35697.445    2681.1549     -38378.6    82.748221    241.27465 
   25000    134.91243   -674.76613    135048.02   -35701.198    2609.1384   -38310.336    82.766732    234.79395 
   25050     138.5732   -713.39639    135057.69    -35686.49    2679.9359   -38366.425    82.876047    241.16495 
   25100    137.25279   -570.14413    135053.19   -35772.744    2654.3997   -38427.144     83.18864    238.86698 
   25150     135.4944   -879.36544    135075.21   -35822.657    2620.3933   -38443.051    83.562124    235.80677 
   25200    137.74015   -699.58983    135065.02   -35758.804    2663.8251   -38422.629     83.72745    239.71516 
   25250    136.91277   -651.64473    134960.27   -35764.154    2647.8239   -38411.978     83.89502    238.27523 
   25300    137.74174   -570.91185    134919.15   -35735.608    2663.8558   -38399.464    84.143637    239.71792 
   25350    137.99629   -724.88673    134969.32   -35753.439    2668.7787   -38422.218    84.164889    240.16093 
   25400    142.81609   -748.07194    135049.25   -35685.965    2761.9912   -38447.956    84.437985    248.54904 
   25450    140.02539   -569.77741    135039.67   -35703.425    2708.0205   -38411.445    84.475898    243.69226 
   25500    137.80225   -838.63428    135110.09   -35729.623    2665.0259   -38394.649    84.772975    239.82322 
   25550    136.14708   -782.92768    135153.43    -35787.67    2633.0158   -38420.686    85.051015    236.94266 
   25600     135.5382   -890.49638    135117.39   -35733.274    2621.2404   -38354.515     85.26627      235.883 
   25650    135.36637   -858.35811    135008.38   -35781.703    2617.9173    -38399.62    85.056851    235.58396 
   25700    139.63919   -804.50828    134943.85   -35731.208    2700.5514    -38431.76    85.020389    243.02013 
   25750    135.25642    -647.7251    135032.79   -35691.832     2615.791   -38307.623    84.852576    235.39261 
   25800    136.70828   -658.25094    135024.42   -35662.138    2643.8691   -38306.007    84.972405    237.91934 
   25850    136.02232   -886.76929    135066.75   -35656.398     2630.603   -38287.001    85.269981    236.72554 
   25900    138.06772   -522.78458    135088.09   -35665.461      2670.16   -38335.621    85.442859    240.28523 
   25950    137.90074   -596.59813     135076.3   -35713.954    2666.9307   -38380.884    85.591862    239.99463 
   26000    135.99889   -560.97014    135047.06   -35741.373    2630.1499   -38371.523    85.997415    236.68476 
   26050    138.50096   -743.23687    135056.02   -35699.017    2678.5387   -38377.556     86.30068    241.03923 
   26100    138.55977   -905.47807    135022.99   -35735.191    2679.6761   -38414.867    86.577674    241.14158 
   26150    137.61324   -723.46848    135015.05   -35745.193    2661.3706   -38406.563    86.698627    239.49428 
   26200    134.30662   -838.60492    135058.69   -35796.516    2597.4223   -38393.938     86.99053    233.73963 
   26250    131.51864   -825.62497    135025.55   -35762.617    2543.5041   -38306.121    87.241367    228.88759 
   26300    133.25771     -837.062    135024.43   -35690.084    2577.1369    -38267.22    87.390767    231.91417 
   26350    137.36479   -984.96422    134968.91   -35698.548    2656.5657   -38355.113     87.81205     239.0619 
   26400    134.86737   -1029.9362    134870.26   -35721.249    2608.2668   -38329.516    87.725038    234.71552 
   26450    137.22686   -620.52495    134907.26   -35751.404    2653.8983   -38405.302    87.671023    238.82186 
   26500    136.13647   -675.07417    134907.94   -35705.065    2632.8106   -38337.875    87.807786    236.92419 
   26550    140.82545   -617.84776    134905.78   -35702.454    2723.4931   -38425.947    87.810578    245.08463 
   26600    137.16343   -876.62216    134876.59   -35701.738    2652.6715   -38354.409     88.06485    238.71146 
   26650    137.45252     -856.129    134811.59     -35689.5    2658.2625   -38347.762    88.091182    239.21458 
   26700    135.73798   -596.50316    134827.52   -35709.907    2625.1041   -38335.011    88.303719    236.23069 
   26750    138.86329   -660.78358    134825.82   -35673.689    2685.5459   -38359.235    88.582058     241.6698 
   26800    138.21655   -546.11275    134856.23   -35684.083    2673.0384   -38357.122    88.909091    240.54426 
   26850    135.79645   -631.64967    134887.08   -35692.273    2626.2349   -38318.508    89.202207    236.33245 
   26900    137.15976   -655.87549    134867.36   -35667.156    2652.6007   -38319.757    89.333325    238.70508 
   26950    140.50149   -562.19021    134930.24   -35620.149    2717.2279   -38337.377     89.50854    244.52083 
   27000    139.43856   -575.70004    135031.03   -35602.132    2696.6715   -38298.803    89.721594    242.67098 
   27050    139.64082   -753.17222     135070.2   -35605.759     2700.583   -38306.342    89.852893    243.02297 
   27100    139.20035   -555.78467    135097.07   -35580.133    2692.0645   -38272.197    89.815053     242.2564 
   27150     138.2353   -599.90206    135105.25   -35572.176    2673.4011   -38245.577    89.888396    240.57689 
   27200    139.11659   -485.86934    135119.58   -35568.573    2690.4448   -38259.018    90.016026    242.11064 
   27250    141.84261   -800.22345    135022.95   -35544.909    2743.1645   -38288.073    90.114905    246.85484 
   27300    139.86267   -635.10252    135061.17   -35536.436    2704.8736    -38241.31    90.261246    243.40907 
   27350    138.69057   -566.04146    135115.75   -35549.748    2682.2057   -38231.953    90.634436    241.36921 
   27400    139.83711   -626.10403    135131.84   -35601.306    2704.3792   -38305.685     90.91758    243.36458 
   27450    138.40435   -753.19566    135068.37   -35675.342    2676.6703   -38352.012    91.215696    240.87109 
   27500    136.95846    -531.8642    135078.54   -35669.129    2648.7076   -38317.837    91.457851    238.35475 
   27550    137.79919   -655.29785    135183.22   -35686.595    2664.9668   -38351.562    91.828735     239.8179 
   27600    139.79298   -866.80955    135104.85   -35669.441    2703.5258   -38372.966    92.134337    243.28779 
   27650     136.2828   -669.09853    135075.06   -35703.478    2635.6406   -38339.118    92.623203    237.17886 
   27700     137.5629   -908.86347    135067.87   -35732.897    2660.3971   -38393.294    93.027851    239.40667 
   27750    140.26489   -734.14969    135145.35   -35677.612    2712.6523   -38390.264    93.472772    244.10907 
   27800    137.90866   -644.70716    135113.56   -35667.135    2667.0839   -38334.219    94.041487    240.00842 
   27850     138.2986   -737.03498    135162.23   -35705.066    2674.6252   -38379.691    94.228422    240.68705 
   27900    136.48033   -723.59309    135206.73   -35746.271    2639.4607   -38385.732    94.319257    237.52263 
   27950    137.59495   -705.05147    135306.54   -35703.084     2661.017   -38364.101    94.405598    239.46246 
   28000    139.15372   -617.94489    135340.58   -35713.882    2691.1627   -38405.045    94.540991    242.17524 
   28050    137.13591   -617.14397    135411.25   -35734.725    2652.1392   -38386.865    94.364672    238.66356 
   28100    136.46611   -612.57394    135460.24    -35742.01    2639.1857   -38381.196    94.420765    237.49788 
   28150    139.32639   -782.22544    135502.91   -35731.005    2694.5021   -38425.507    94.861915    242.47575 
   28200    134.28675   -736.09597    135454.72    -35762.62    2597.0379   -38359.658    95.077304    233.70504 
   28250    136.73896   -772.58706    135435.24   -35726.177    2644.4625    -38370.64    94.950676    237.97274 
   28300    138.28184   -866.58982    135386.18   -35700.579    2674.3011   -38374.881    95.021557    240.65789 
   28350    138.17948   -851.66728    135373.89   -35714.041    2672.3214   -38386.362    95.266812    240.47973 
   28400    138.00956   -555.01815    135290.69   -35684.412    2669.0353   -38353.448    95.409153    240.18402 
   28450    138.11809   -524.05031    135301.92   -35684.707    2671.1341   -38355.841    95.821857    240.37289 
   28500    137.14048   -563.30596    135220.56   -35612.676    2652.2277   -38264.904    95.847836    238.67152 
   28550     138.2821    -769.8487    135234.14   -35587.099    2674.3061   -38261.405    95.691984    240.65834 
   28600    141.95766   -726.84467    135207.96   -35590.092    2745.3896   -38335.481     95.98292    247.05508 
   28650    141.33772   -786.27798    135252.66   -35545.215    2733.4002   -38278.616    96.490569    245.97616 
   28700     139.6565   -801.07997    135284.83   -35602.652    2700.8862   -38303.539    96.475555    243.05025 
   28750    138.63693   -652.15706    135184.74   -35623.773    2681.1683   -38304.942    96.458106    241.27586 
   28800    135.28965   -921.10158    135163.64   -35651.314    2616.4337   -38267.748    96.416235    235.45045 
   28850    138.52696   -636.19114    135100.15   -35662.034    2679.0415   -38341.075    96.670028    241.08447 
   28900    135.08885    -741.4192    135067.39   -35652.944    2612.5501   -38265.494    96.994202    235.10097 
   28950    139.05202   -639.23784    135105.37   -35699.849     2689.196   -38389.045    97.252897    241.99826 
   29000    135.26384   -711.29678    135113.81   -35745.527    2615.9345   -38361.462    97.607227    235.40553 
   29050    134.15384   -782.25986    135094.39   -35715.335    2594.4676   -38309.803    97.743478    233.47374 
   29100    137.01991   -572.40127    135114.42   -35703.656     2649.896   -38353.552    98.073789    238.46169 
   29150    139.46157   -501.18117    135150.47   -35709.093    2697.1164    -38406.21    98.397924    242.71102 
   29200    140.34194   -583.81208    135246.25   -35720.705    2714.1423   -38434.847    98.692846    244.24316 
   29250    138.33104    -765.5592     135209.8   -35715.246    2675.2526   -38390.498    99.030818    240.74351 
   29300    142.13028    -630.5998     135198.5   -35634.785     2748.728   -38383.513    99.333833     247.3555 
   29350    139.05114   -693.96771    135160.31   -35651.841    2689.1789    -38341.02    99.589477    241.99673 
   29400    138.62016   -760.00585    135180.14   -35645.508    2680.8441   -38326.352    99.971707    241.24668 
   29450     136.6037   -574.83437     135176.8   -35728.981    2641.8467   -38370.828     100.4502    237.73734 
   29500    134.63675   -497.81492    135139.31   -35732.643    2603.8069    -38336.45    100.56685    234.31418 
   29550    133.78602   -633.69871    135107.08   -35779.511    2587.3541   -38366.866    100.76083    232.83361 
   29600    138.51816   -716.33036    135124.95   -35788.968    2678.8714   -38467.839    100.85816    241.06917 
   29650    136.16832   -593.32361    135175.31   -35781.856    2633.4266   -38415.283    101.21398    236.97963 
   29700    137.88595   -604.14947    135121.34   -35783.326    2666.6447    -38449.97      101.582    239.96889 
   29750    137.80539   -799.59737    135112.83   -35790.166    2665.0867   -38455.253     101.8547    239.82869 
   29800    135.09456   -637.74523     135121.7   -35777.711    2612.6607   -38390.372    101.99642    235.11092 
   29850    133.61951    -838.2211    135187.84   -35828.244     2584.134   -38412.378    102.17315    232.54383 
   29900    133.37056   -580.76914    135197.97   -35817.069    2579.3193   -38396.388    102.12504    232.11056 
   29950    136.79644   -932.83051    135151.17   -35692.427    2645.5741   -38338.001    102.13521    238.07277 
   30000    138.54375   -565.61943    135169.07   -35668.384    2679.3663   -38347.751    102.16033     241.1137 
   30050    138.34666   -658.93411    135199.92   -35661.314    2675.5547   -38336.869    102.11794     240.7707 
   30100    138.49895   -697.62355    135214.37   -35666.175    2678.4999   -38344.675      102.191    241.03573 
   30150    136.91533   -761.66968    135159.32   -35643.882    2647.8734   -38291.756    102.19749    238.27968 
   30200    136.63022   -945.41431     135038.5   -35631.456    2642.3595   -38273.816    102.05565    237.78349 
   30250    138.09285    -858.6254    135076.67   -35575.482    2670.6462   -38246.129    102.10389    240.32898 
   30300    139.37361   -882.07203    135158.29   -35571.854    2695.4153   -38267.269    102.50173    242.55793 
   30350    140.53092   -782.97603     135154.1   -35546.628    2717.7971   -38264.425    102.65834    244.57205 
   30400    139.38932   -754.91788    135126.87   -35571.522    2695.7192   -38267.242    102.85875    242.58528 
   30450    138.96875   -942.30661    135110.06   -35560.285    2687.5855   -38247.871    103.22883    241.85334 
   30500     136.6132   -671.19405    135115.82   -35555.494    2642.0304   -38197.524    103.59063    237.75387 
   30550    140.60746   -896.54356    135113.33   -35540.075    2719.2774   -38259.352    103.42993    244.70527 
   30600    140.03608   -642.49126    135053.55   -35600.258    2708.2272   -38308.485    103.58488    243.71086 
   30650    137.59314   -877.98923    135037.37   -35665.794    2660.9819   -38326.776    103.75183     239.4593 
   30700     134.3616   -834.33543    135016.56   -35711.706    2598.4855   -38310.191    103.92862    233.83531 
   30750    133.61966    -549.4681    135024.13   -35718.666    2584.1368   -38302.803     104.0484    232.54409 
   30800    138.27263   -567.29303     135210.7   -35686.804    2674.1229   -38360.927    104.18699    240.64185 
   30850    133.02797   -738.14172    135168.83   -35708.208    2572.6939   -38280.902    104.40833    231.51435 
   30900    138.25765   -555.10082    135201.75   -35687.161    2673.8331   -38360.994    104.65349    240.61577 
   30950    136.06583   -525.28412    135320.31   -35674.153    2631.4445   -38305.598    104.78392    236.80126 
   31000    138.40797    -847.3925    135310.88   -35677.221    2676.7403   -38353.961    105.02248    240.87739 
   31050    139.65201   -677.54704    135321.33   -35623.495    2700.7994   -38324.294    105.11956    243.04245 
   31100     139.7084   -620.01794    135282.74   -35662.078      2701.89   -38363.968    105.21881    243.14058 
   31150    138.70158   -573.51065    135341.37   -35695.653    2682.4186   -38378.072    105.15848    241.38837 
   31200     138.0224   -779.68537    135254.13   -35694.827    2669.2835   -38364.111    105.23478    240.20636 
   31250    134.49826   -683.97592    135262.74   -35723.996    2601.1284   -38325.124    105.48403    234.07315 
   31300    135.48695   -926.36549    135332.04   -35782.232    2620.2493   -38402.482    105.85814    235.79381 
   31350    133.83898   -698.17466    135332.67   -35767.905    2588.3784   -38356.284    106.00521    232.92578 
   31400    134.58348   -490.70476    135321.12   -35711.721    2602.7766   -38314.498     106.2106    234.22146 
   31450    136.25049   -672.83855    135318.31   -35718.145    2635.0158    -38353.16    106.81503    237.12264 
   31500     137.0303   -483.82682    135292.95   -35732.454    2650.0969   -38382.551    106.81306    238.47977 
   31550    136.30805   -821.25133    135216.37   -35709.031     2636.129    -38345.16    106.93428    237.22281 
   31600      138.752   -554.00626    135249.98   -35650.226    2683.3938    -38333.62    107.19974    241.47613 
   31650    137.51508   -571.55208     135237.6   -35670.656    2659.4724   -38330.129     107.3672    239.32346 
   31700    137.41957   -668.27739     135329.2   -35724.749    2657.6252   -38382.374     107.7964    239.15724 
   31750     141.3009   -468.84965     135393.7   -35679.788    2732.6881   -38412.477    108.12159    245.91208 
   31800    139.61492   -761.89281    135414.33   -35682.004    2700.0822   -38382.086    108.25551     242.9779 
   31850    138.44789   -673.91402    135407.29   -35624.707    2677.5123   -38302.219    108.62858    240.94686 
   31900    138.60907   -677.20902     135460.3   -35613.874    2680.6294   -38294.503    109.18657    241.22736 
   31950    141.26059    -723.1119    135462.03   -35606.152    2731.9085    -38338.06     109.3178    245.84192 
   32000    135.76843   -721.01378    135510.53   -35612.453     2625.693   -38238.146    110.09304    236.28369 
   32050    137.10556   -866.68189    135473.64   -35671.769    2651.5523   -38323.321    110.17661    238.61075 
   32100     136.3695   -523.42879    135504.16   -35662.874    2637.3174   -38300.191    110.30975    237.32976 
   32150    138.18048   -938.86613    135436.16    -35691.13    2672.3407   -38363.471    110.21014    240.48147 
   32200    139.20653   -861.34268     135313.7   -35698.813     2692.184   -38390.997    110.30227    242.26716 
   32250    136.31663   -856.07603    135267.96    -35741.87    2636.2948   -38378.164     110.4133    237.23773 
   32300    135.90065   -802.23269    135250.27   -35754.915    2628.2501   -38383.165    110.55603     236.5138 
   32350    136.89902    -557.3935    135226.43   -35750.038     2647.558   -38397.596    111.04695     238.2513 
   32400    138.36685   -695.64387    135299.05   -35760.033     2675.945   -38435.978    111.31864    240.80582 
   32450    137.61102    -837.6677    135332.25   -35768.619    2661.3277   -38429.947    111.59083    239.49042 
   32500    137.99215   -745.41172    135466.98   -35717.422    2668.6986    -38386.12    111.76132    240.15372 
   32550    140.26442   -844.85645    135461.88   -35741.483    2712.6431   -38454.126     111.8749    244.10825 
   32600    136.78951   -615.99067    135482.16   -35734.321    2645.4401   -38379.761    112.13692    238.06071 
   32650    135.28702   -814.63552    135539.29   -35750.134    2616.3828   -38366.517    112.38614    235.44587 
   32700    141.06534   -739.43953    135534.05   -35710.823    2728.1324   -38438.956    112.43853    245.50212 
   32750    137.41429   -611.98312    135620.85   -35709.939     2657.523   -38367.462    112.68446    239.14804 
   32800    138.22101   -635.72392    135656.61   -35782.679    2673.1247   -38455.804    112.74336    240.55202 
   32850    140.33279    -661.7489    135688.81   -35746.999    2713.9653   -38460.964    112.84362    244.22723 
   32900    137.53102    -535.9973    135760.51   -35735.373    2659.7805   -38395.154    113.20841    239.35119 
   32950    135.00727   -646.72425    135700.35   -35751.266    2610.9726   -38362.239    113.30395    234.95901 
   33000    138.99156     -821.203    135644.55   -35698.056    2688.0266   -38386.082    113.40799    241.89303 
   33050    137.29404   -702.03926    135651.53    -35746.08    2655.1975   -38401.278    113.54762    238.93877 
   33100    137.36098   -893.63821    135587.52   -35758.551    2656.4921   -38415.043    114.06679    239.05527 
   33150    139.30192   -800.28402    135572.04   -35730.948    2694.0289   -38424.977    114.40892    242.43317 
   33200     141.4846   -824.63453    135501.95   -35727.021    2736.2407   -38463.262    114.60759    246.23178 
   33250      141.202   -765.78503     135378.5   -35722.367    2730.7754   -38453.142    114.71814    245.73996 
   33300    138.21564   -619.49761    135313.28   -35741.513    2673.0208   -38414.534    114.84201    240.54267 
   33350    138.79645    -360.7898    135441.99   -35730.905    2684.2533   -38415.159    115.21279    241.55348 
   33400     140.9886   -872.78672     135451.6   -35701.965    2726.6484   -38428.613    115.36633    245.36857 
   33450     139.5491    -688.6453    135459.45   -35691.418    2698.8091   -38390.227    115.47883    242.86334 
   33500    138.04818   -665.22866    135465.46   -35680.133    2669.7821   -38349.915    115.85066    240.25122 
   33550    137.73969   -835.83903    135402.91   -35635.548    2663.8162   -38299.364    115.88278    239.71436 
   33600     138.3249   -576.24494    135412.56   -35694.849    2675.1337   -38369.983     115.9544    240.73281 
   33650    137.45548   -538.91099    135514.23   -35731.126    2658.3196   -38389.446    116.22637    239.21972 
   33700    137.75047   -940.32812    135595.48   -35703.408    2664.0246   -38367.433     116.5416    239.73312 
   33750    136.78847   -712.63023    135591.69   -35752.869    2645.4199   -38398.289    116.77556     238.0589 
   33800     137.7147   -797.92043    135629.37   -35775.662    2663.3328   -38438.995    116.98362    239.67086 
   33850    134.89358   -953.87276    135595.75   -35817.201    2608.7739   -38425.975    117.18521    234.76115 
   33900    135.47812   -853.38309    135608.08   -35786.366    2620.0786   -38406.444    117.55359    235.77845 
   33950    137.21148   -878.54425    135592.18    -35803.87    2653.6008   -38457.471    117.77114    238.79508 
[...]
   92000    136.73211   -891.74037    135240.17   -35754.626    2644.3301   -38398.956    289.15501    237.96083 
   92050    136.79322    -964.0712    135155.09   -35742.415    2645.5119   -38387.927     288.9878    238.06717 
   92100    136.30011   -781.43791    135010.93   -35785.661    2635.9753   -38421.636    289.20739    237.20898 
   92150    135.86396   -649.78555    135082.93    -35758.73    2627.5405    -38386.27    289.56543    236.44994 
   92200    134.44573   -763.86537    135051.97   -35745.916    2600.1126   -38346.029    289.61875    233.98173 
   92250    138.24718   -707.91565    135129.74   -35754.947    2673.6307   -38428.578    289.89461    240.59756 
   92300      131.179    -858.5089    135187.82     -35780.6    2536.9357   -38317.536    289.62497     228.2965 
   92350    135.04356   -627.56182    135167.03   -35772.015    2611.6744   -38383.689     289.1632    235.02217 
   92400     136.7629   -881.14422    135142.67   -35761.624    2644.9255   -38406.549    289.42301     238.0144 
   92450     134.4305   -566.78704    135077.79   -35772.342     2599.818    -38372.16    289.30728    233.95522 
   92500    137.98514   -780.42425    135127.49   -35756.102     2668.563   -38424.665    289.38889    240.14152 
   92550    138.86966   -705.11898    135106.94   -35739.748    2685.6692   -38425.417    289.26926    241.68089 
   92600    135.19263   -743.65218    135079.95   -35778.607    2614.5572   -38393.164    289.43802    235.28159 
   92650    135.30454    -493.7236     135015.4   -35782.051    2616.7215   -38398.773    289.84971    235.47635 
   92700    138.36312    -592.3796    135036.07   -35776.173    2675.8729   -38452.046    289.88671    240.79933 
   92750    137.17263   -471.02447    135125.66    -35720.52    2652.8494    -38373.37     290.1394    238.72747 
   92800    138.95579   -859.31709    135207.38   -35712.993    2687.3349   -38400.328    290.65602    241.83079 
   92850    139.93699   -531.37804    135319.52    -35716.06    2706.3108    -38422.37    291.03593    243.53841 
   92900    138.66168   -955.09208    135394.36   -35717.202     2681.647   -38398.849    291.34888    241.31894 
   92950    137.84052   -674.66605    135375.63    -35692.69    2665.7662   -38358.456    291.18021    239.88984 
   93000    141.01169   -703.01125    135361.84   -35675.048    2727.0949   -38402.143     291.2852    245.40875 
   93050    135.90327   -614.91826    135474.65   -35744.885    2628.3007   -38373.185    291.00022    236.51835 
   93100    140.29352   -722.17112    135531.23   -35712.235    2713.2059   -38425.441    291.33058    244.15889 
   93150     136.1867   -779.13475     135514.5   -35727.859     2633.782   -38361.641    291.76009    237.01161 
   93200      138.704   -741.02865    135469.66   -35676.281    2682.4654   -38358.746    291.67723    241.39258 
   93250    140.39803   -907.75431    135455.42    -35652.01    2715.2271   -38367.237    291.71405    244.34078 
   93300     138.3291   -806.24172    135400.24   -35670.783     2675.215   -38345.998    291.37726    240.74013 
   93350    138.76137   -522.18435    135366.26   -35650.014    2683.5749   -38333.589    291.49828    241.49243 
   93400    136.31847   -916.57744    135387.86   -35704.247    2636.3305   -38340.578    291.88984    237.24095 
   93450    134.92825   -587.85809    135329.19   -35725.955    2609.4443     -38335.4    292.35521    234.82149 
   93500    135.64302   -713.13632    135349.16   -35747.745    2623.2675   -38371.013     292.3013    236.06542 
   93550     136.0161   -838.01759    135317.86    -35784.42    2630.4828   -38414.903    292.50503    236.71472 
   93600    137.92953   -835.96887    135271.06   -35737.268    2667.4876   -38404.756    292.38221    240.04474 
   93650    135.78045   -710.04878    135289.25   -35731.291    2625.9255   -38357.216    292.96999    236.30461 
   93700    138.06156    -707.4655    135271.11   -35667.112    2670.0409   -38337.153    293.45962    240.27451 
   93750    136.11597   -871.37678    135186.92   -35675.069    2632.4142   -38307.483     293.6159    236.88852 
   93800    135.55356   -879.80581    135166.28   -35707.495    2621.5375   -38329.033    294.06028    235.90974 
   93850    136.05378   -727.16321    135068.39    -35710.03    2631.2114   -38341.241    294.08511    236.78028 
   93900    137.33019   -850.81208    135084.09     -35683.4    2655.8967   -38339.296    293.96784    239.00169 
   93950     133.6285   -916.31391    135054.99    -35695.95    2584.3078   -38280.258     293.7378    232.55947 
   94000    138.06827   -950.75208    135058.67    -35621.88    2670.1707   -38292.051    294.06348     240.2862 
   94050    139.29382   -684.12423    135112.98    -35676.47    2693.8723   -38370.343    294.54592    242.41908 
   94100    137.32489   -1016.1499    135006.76   -35621.783    2655.7941   -38277.578    293.88149    238.99245 
   94150      139.011   -883.79821    134917.24    -35673.36    2688.4026   -38361.762    293.49063    241.92687 
   94200    138.98792   -863.09933    134841.24    -35654.41    2687.9562   -38342.366    293.57807    241.88669 
   94250    137.17591   -582.54283    134847.48   -35606.695    2652.9128   -38259.608    293.66342    238.73317 
   94300    137.64105   -763.44623    134960.01   -35628.847    2661.9085   -38290.756    293.72374    239.54269 
   94350    137.14363   -931.07671    135017.15   -35656.495    2652.2886   -38308.784    294.35338    238.67701 
   94400    137.74738   -883.38444    134978.78   -35646.788    2663.9649   -38310.753     294.2461    239.72774 
   94450    140.15215   -747.02685    134923.33   -35639.862    2710.4719   -38350.334    294.08654    243.91286 
   94500    136.63435   -767.07934    134833.79   -35687.617    2642.4394   -38330.056    293.96452    237.79068 
   94550    131.44318   -821.20677    134799.93   -35715.813    2542.0449   -38257.858    294.34278    228.75627 
   94600    133.67074    -903.8437    134801.74   -35707.046    2585.1247   -38292.171     294.2719    232.63299 
   94650    135.15948   -855.37381    134814.52   -35700.663    2613.9162   -38314.579    294.87897    235.22391 
   94700     135.0708   -815.42397    134815.49   -35691.248    2612.2011   -38303.449    294.65132    235.06956 
   94750    136.52939   -761.71243    134823.94    -35683.08    2640.4095   -38323.489    294.95182    237.60801 
   94800    137.24993    -1047.329    134819.33   -35712.456    2654.3443     -38366.8    294.82116    238.86199 
   94850    135.55473   -691.75545     134743.8   -35718.383    2621.5601   -38339.943    295.03268    235.91177 
   94900    137.21259   -799.69804    134725.34   -35693.611    2653.6223   -38347.233    294.92526    238.79702 
   94950    136.97633   -861.80603    134703.13    -35676.64     2649.053   -38325.693     295.1786    238.38584 
   95000    137.60874   -776.40732    134645.61   -35676.465    2661.2836   -38337.748    295.27913    239.48645 
   95050    138.23748   -711.87434    134724.81   -35644.056    2673.4432   -38317.499     295.4726    240.58069 
   95100    137.51579   -652.32823    134728.35   -35684.634     2659.486    -38344.12     295.4442    239.32469 
   95150    136.33331   -650.35979    134688.57   -35720.317    2636.6175   -38356.935    295.45011    237.26678 
   95200    135.38571   -729.07316    134698.06   -35658.656    2618.2914   -38276.947    295.52319    235.61762 
   95250    136.00416   -866.08412    134683.64   -35606.912    2630.2518   -38237.163    295.95736    236.69393 
   95300      138.128   -610.03601    134724.73   -35606.759    2671.3258   -38278.085    295.79111    240.39014 
   95350    138.27431   -961.04037    134733.03   -35559.201    2674.1555   -38233.356    296.57254    240.64478 
   95400    141.12694   -793.03183    134706.42    -35555.62    2729.3238   -38284.944    296.62802    245.60933 
   95450    141.69085   -708.76893    134751.89   -35490.643    2740.2296   -38230.872     295.9747    246.59073 
   95500    140.69485   -734.03306    134809.78   -35455.973    2720.9673    -38176.94    296.29497    244.85734 
   95550    140.45836   -588.76181    134897.83   -35491.732    2716.3939   -38208.126    296.10264    244.44578 
   95600    139.35693   -487.02799    134894.63   -35518.781    2695.0927   -38213.874    296.04385     242.5289 
   95650    139.80081   -817.62149    134943.49   -35534.986    2703.6771   -38238.663    296.48573     243.3014 
   95700    138.13785   -882.69769    134922.29   -35585.232    2671.5163   -38256.748    296.70097    240.40728 
   95750     135.1478   -761.69983    135002.24   -35641.071    2613.6903   -38254.761    296.71761    235.20357 
   95800    136.97333   -969.84596    134969.87   -35677.055    2648.9952    -38326.05    296.33663    238.38063 
   95850    138.04308   -780.44059    134862.67    -35673.37    2669.6836   -38343.054    296.28433    240.24236 
   95900    135.10568   -745.88714    134919.48   -35667.756    2612.8756   -38280.632     296.8486    235.13027 
   95950    137.82612   -938.11102    134993.54    -35667.31    2665.4877   -38332.797    296.81885    239.86477 
   96000    138.30043   -850.54239    134956.99   -35652.073    2674.6605   -38326.734    296.98888    240.69023 
   96050    137.15053   -967.33554    134971.34   -35660.873    2652.4222   -38313.296    296.80084    238.68902 
   96100     135.6955   -1226.4622    134838.22   -35646.826    2624.2825   -38271.108    296.82315    236.15676 
   96150    137.62038   -976.48798     134758.5   -35684.826    2661.5088   -38346.335    296.85967    239.50672 
   96200    137.57903   -716.94484    134771.24   -35666.494     2660.709   -38327.203    296.92122    239.43475 
   96250    136.82845   -440.75793     134821.9   -35700.469    2646.1933   -38346.662     297.0947    238.12849 
   96300    136.48382   -722.61343     134837.3   -35660.138    2639.5283   -38299.666     297.4394    237.52872 
   96350    136.90896   -831.94811    134827.56    -35656.86    2647.7502    -38304.61    297.42212    238.26859 
   96400    139.52101   -830.32869    134884.24   -35598.164    2698.2659    -38296.43    297.40902    242.81445 
   96450    137.02726   -943.58563    134854.25   -35648.143    2650.0381   -38298.181    297.35056    238.47448 
   96500    139.65217   -666.38697    134859.36   -35670.388    2700.8026   -38371.191    297.42524    243.04273 
   96550    139.56254   -681.88021    134957.26   -35696.805    2699.0691   -38395.874    297.26984    242.88673 
   96600    135.49592    -804.7715    135001.06   -35703.823    2620.4227   -38324.245    297.52124    235.80942 
   96650     139.8182   -564.37485    134946.04   -35667.042    2704.0134   -38371.055    297.97426    243.33167 
   96700    138.13831   -825.72178    134866.75   -35687.029    2671.5253   -38358.554    297.76795    240.40809 
   96750    136.27238    -831.9855    134732.63   -35675.649     2635.439   -38311.088    297.37769    237.16073 
   96800    136.74954   -931.48934    134667.62   -35729.227    2644.6671   -38373.894    297.65999    237.99115 
   96850     137.7542     -959.616    134581.28   -35702.254    2664.0967   -38366.351    297.90393     239.7396 
   96900    138.99671   -673.74655    134487.43   -35668.636    2688.1262   -38356.762    298.21636    241.90199 
   96950    136.25447   -639.34502    134451.42   -35687.303    2635.0927   -38322.396    298.27404    237.12955 
   97000    138.84833     -873.372    134485.97   -35701.709    2685.2567   -38386.966    298.87846    241.64377 
   97050    135.07342   -681.79979    134489.88   -35724.442    2612.2519   -38336.694    299.23718    235.07414 
   97100    135.39452   -606.14088    134563.84   -35714.801    2618.4617   -38333.262    299.80202    235.63295 
   97150    138.78947    -762.1565    134584.69   -35705.371    2684.1184    -38389.49    300.00254    241.54134 
   97200    137.89632   -524.42184    134685.18   -35696.789    2666.8452   -38363.634    300.80165    239.98694 
   97250    134.28222   -666.80397    134762.73   -35718.375    2596.9505   -38315.325    301.25846    233.69717 
   97300    135.92307    -800.9032    134765.84   -35720.649    2628.6836   -38349.332    301.56499    236.55281 
   97350    137.34056   -663.90843       134752   -35721.645    2656.0972   -38377.742    302.00895    239.01974 
   97400    138.56501   -613.36048    134780.94   -35690.552    2679.7774   -38370.329    301.97752     241.1507 
   97450    133.77452   -999.25583    134734.68   -35722.227    2587.1318   -38309.359    302.01865     232.8136 
   97500    137.27798   -859.59085    134680.36   -35679.216     2654.887   -38334.103    302.15882    238.91083 
   97550    135.78108   -564.10304    134624.31   -35654.494    2625.9376   -38280.431    302.04514     236.3057 
   97600    138.38747    -792.0984    134671.91   -35654.608    2676.3439   -38330.952    302.27373    240.84171 
   97650    135.68357   -751.17918    134639.25   -35722.539    2624.0518   -38346.591    302.60187      236.136 
   97700    133.17136   -592.20885    134613.65   -35746.511    2575.4668   -38321.978    302.80953    231.76388 
   97750    135.38959   -777.49476    134677.15   -35688.048    2618.3663   -38306.415     303.0521    235.62437 
   97800     139.9703    -707.2007    134684.75   -35615.728    2706.9551   -38322.684    303.00141    243.59639 
   97850    134.27946   -900.05623    134720.45   -35661.122     2596.897   -38258.019    303.35773    233.69236 
   97900    137.79156   -411.64058    134880.88   -35648.665    2664.8193   -38313.484    303.62422    239.80463 
   97950    138.45865   -592.67747    134952.63   -35672.139    2677.7204   -38349.859    303.57138    240.96559 
   98000    138.86894   -856.26568    134952.73   -35691.372    2685.6553   -38377.027    304.03977    241.67964 
   98050    135.51112   -548.53003    134994.23   -35686.629    2620.7168   -38307.346    304.12596    235.83588 
   98100    138.16807   -599.17899    135019.54   -35656.559    2672.1007   -38328.659    303.84755    240.45987 
   98150    137.80133   -808.66862    135001.13   -35698.077    2665.0081   -38363.085    304.20206    239.82162 
   98200    138.66511   -651.88295    135037.28   -35662.319    2681.7133   -38344.032    304.41936     241.3249 
   98250    141.86411   -725.13563    135012.41   -35598.709    2743.5804   -38342.289    304.86211    246.89227 
   98300     139.1824   -643.74275    135078.46   -35576.208    2691.7174   -38267.925      305.027    242.22517 
   98350    137.84951   -753.48551    135054.63   -35633.638      2665.94   -38299.578    305.04829    239.90548 
   98400    138.41066   -487.04574    135013.24   -35689.662    2676.7923   -38366.454    305.47681    240.88207 
   98450    137.20925   -485.17364    135057.66   -35670.682    2653.5577   -38324.239    305.81432    238.79121 
   98500    137.27738    -599.9399    135094.31   -35648.124    2654.8753   -38302.999    305.85562    238.90978 
   98550    136.95786   -488.43222    135159.59   -35690.093    2648.6959   -38338.789      306.184     238.3537 
   98600    138.61332    -554.3135    135234.92   -35675.722    2680.7117   -38356.434    307.05409    241.23477 
   98650    139.90991   -618.46948    135270.35   -35635.599     2705.787   -38341.386    307.40402    243.49128 
   98700    139.70403    -522.2558     135316.1   -35624.892    2701.8055   -38326.698    307.76207    243.13298 
   98750    138.78439   -733.44641     135325.9   -35629.576    2684.0202   -38313.597    307.95437     241.5325 
   98800    136.75279   -746.06272    135356.99   -35647.209      2644.73   -38291.939    307.86559    237.99681 
   98850    138.56156   -901.79574     135279.2   -35667.714    2679.7106   -38347.425    308.37365    241.14468 
   98900    136.25024   -594.06574    135273.92   -35691.256    2635.0109   -38326.267    308.62594     237.1222 
   98950    135.96428   -954.10866    135176.83   -35708.566    2629.4806   -38338.046    308.84656    236.62453 
   99000    138.85997   -701.80617    135154.56   -35688.786    2685.4819   -38374.268    308.99745    241.66403 
   99050    137.92114    -870.9872    135167.81   -35607.844    2667.3253    -38275.17    309.60125    240.03014 
   99100    138.42613   -827.12586    135121.65   -35610.319    2677.0915   -38287.411    309.71414    240.90899 
   99150    137.17837   -847.49764    135104.19   -35608.403    2652.9604   -38261.363    309.06214    238.73746 
   99200     136.6403   -756.05663    135142.66   -35703.612    2642.5545   -38346.167    309.18666    237.80104 
   99250    136.10101   -798.36238    135138.99   -35712.468    2632.1249   -38344.593    309.31358    236.86249 
   99300    136.38651   -896.74479    135100.67    -35674.63    2637.6464   -38312.277     309.5842    237.35936 
   99350    138.87442   -890.86534    135058.44   -35677.236    2685.7613   -38362.997    310.08004    241.68918 
   99400     137.0611   -650.93669    135080.81   -35609.426    2650.6926   -38260.118    310.49746    238.53338 
   99450    137.89312   -846.18908    135035.38   -35574.346    2666.7835    -38241.13    310.77264    239.98138 
   99500    136.75945   -663.95542     135016.8   -35608.479    2644.8588   -38253.337    310.76324     238.0084 
   99550    139.36138   -812.51284    134981.08   -35658.825    2695.1787   -38354.003    311.03157    242.53665 
   99600    135.30078    -803.5518    134979.79   -35674.225    2616.6489   -38290.874    310.93525    235.46981 
   99650    141.61761   -648.79269    134959.05   -35606.355    2738.8131   -38345.168      310.841    246.46326 
   99700    139.24073   -889.78796    134933.34   -35644.793    2692.8456   -38337.638    311.64692    242.32669 
   99750    137.25838   -902.20744    134852.81   -35640.845    2654.5078   -38295.353     311.5957    238.87671 
   99800    136.31967   -720.87537    134745.93   -35664.962    2636.3537   -38301.315    311.20722    237.24304 
   99850    132.56824   -679.14487    134787.27   -35720.718    2563.8029   -38284.521    311.49436    230.71425 
   99900    137.79683   -948.13625    134787.36   -35627.189    2664.9212    -38292.11    311.63623     239.8138 
   99950    137.93766   -981.75294    134762.63   -35596.958    2667.6447   -38264.603    311.94878    240.05888 
  100000     137.4401   -665.54564    134731.28    -35619.85    2658.0222   -38277.872    312.02748    239.19296 
Loop time of 123.585 on 160 procs for 100000 steps with 6489 atoms

Performance: 349.557 ns/day, 0.069 hours/ns, 809.159 timesteps/s
98.0% CPU use with 160 MPI tasks x no OpenMP threads

MPI task timing breakdown:
Section |  min time  |  avg time  |  max time  |%varavg| %total
---------------------------------------------------------------
Pair    | 15.131     | 34.251     | 90.944     | 521.4 | 27.71
Neigh   | 0.37363    | 0.77692    | 2.4613     |  78.0 |  0.63
Comm    | 9.4798     | 33.852     | 93.559     | 563.4 | 27.39
Output  | 0.18976    | 0.19257    | 0.32677    |   2.4 |  0.16
Modify  | 8.3717     | 53.404     | 96.303     | 572.1 | 43.21
Other   |            | 1.109      |            |       |  0.90

Nlocal:    40.5562 ave 110 max 22 min
Histogram: 116 4 0 10 10 0 0 0 5 15
Nghost:    522.856 ave 881 max 347 min
Histogram: 80 0 1 39 0 0 0 0 14 26
Neighs:    0 ave 0 max 0 min
Histogram: 160 0 0 0 0 0 0 0 0 0
FullNghs:  3263.91 ave 13842 max 805 min
Histogram: 120 0 0 1 19 0 0 0 2 18

Total # of neighbors = 522226
Ave neighs/atom = 80.4787
Neighbor list builds = 5982
Dangerous builds = 0

write_data		${DIR}/data.eq-${NAME}-${TEMP}
write_data		run_22/data.eq-${NAME}-${TEMP}
write_data		run_22/data.eq-het_freeze_22-${TEMP}
write_data		run_22/data.eq-het_freeze_22-240
undump          1

reset_timestep  0

unfix           2
unfix           3
unfix           4


################################################
#######         Run Simulation         #########
################################################

log				${DIR}/log.run_${NAME}
log				run_22/log.run_${NAME}
log				run_22/log.run_het_freeze_22
