LAMMPS data file via write_data, version 16 Mar 2018, timestep = 8000000

4063 atoms
2 atom types

0.0000000000000000e+00 4.9219999999999999e+01 xlo xhi
0.0000000000000000e+00 4.9019635930410494e+01 ylo yhi
1.1059206850005694e+00 2.6834079314997059e+01 zlo zhi

Masses

1 18.015
2 12.01

Atoms # atomic

53 2 0.0000000000000000e+00 2.8417180249513345e+00 2.7106616431218233e+00 0 0 0
55 2 0.0000000000000000e+00 0.0000000000000000e+00 2.7106616431218233e+00 0 0 0
57 2 1.2305000000000001e+00 7.1042950623783474e-01 2.7106616431218233e+00 0 0 0
64 2 1.2305000000000001e+00 2.1312885187134998e+00 2.7106616431218233e+00 0 0 0
66 2 2.4610000000000003e+00 2.8417180249513345e+00 2.7106616431218233e+00 0 0 0
68 2 2.4610000000000003e+00 0.0000000000000000e+00 2.7106616431218233e+00 0 0 0
70 2 3.6915000000000004e+00 7.1042950623783474e-01 2.7106616431218233e+00 0 0 0
85 2 3.6914999999999996e+00 2.1312885187134998e+00 2.7106616431218233e+00 0 0 0
87 2 4.9220000000000006e+00 2.8417180249513332e+00 2.7106616431218233e+00 0 0 0
89 2 4.9220000000000006e+00 0.0000000000000000e+00 2.7106616431218233e+00 0 0 0
60 2 0.0000000000000000e+00 4.2625770374269996e+00 2.7106616431218233e+00 0 0 0
81 2 2.4610000000000003e+00 4.2625770374269996e+00 2.7106616431218233e+00 0 0 0
110 2 4.9220000000000006e+00 4.2625770374269978e+00 2.7106616431218233e+00 0 0 0
62 2 1.2305000000000001e+00 4.9730065436648339e+00 2.7106616431218233e+00 0 0 0
77 2 1.2305000000000001e+00 6.3938655561404980e+00 2.7106616431218233e+00 0 0 0
83 2 3.6914999999999996e+00 4.9730065436648339e+00 2.7106616431218233e+00 0 0 0
106 2 3.6914999999999996e+00 6.3938655561404980e+00 2.7106616431218233e+00 0 0 0
58 2 0.0000000000000000e+00 7.1042950623783341e+00 2.7106616431218233e+00 0 0 0
73 2 0.0000000000000000e+00 8.5251540748539991e+00 2.7106616431218233e+00 0 0 0
75 2 1.2305000000000001e+00 9.2355835810918343e+00 2.7106616431218233e+00 0 0 0
79 2 2.4610000000000003e+00 7.1042950623783341e+00 2.7106616431218233e+00 0 0 0
102 2 2.4610000000000003e+00 8.5251540748539991e+00 2.7106616431218233e+00 0 0 0
104 2 3.6915000000000004e+00 9.2355835810918343e+00 2.7106616431218233e+00 0 0 0
108 2 4.9220000000000006e+00 7.1042950623783341e+00 2.7106616431218233e+00 0 0 0
139 2 4.9220000000000006e+00 8.5251540748539991e+00 2.7106616431218233e+00 0 0 0
54 2 0.0000000000000000e+00 1.4208590124756650e+00 5.7826392603813765e+00 0 0 0
56 2 0.0000000000000000e+00 0.0000000000000000e+00 5.7826392603813765e+00 0 0 0
65 2 1.2305000000000001e+00 2.1312885187134998e+00 5.7826392603813765e+00 0 0 0
67 2 2.4610000000000003e+00 1.4208590124756650e+00 5.7826392603813765e+00 0 0 0
69 2 2.4610000000000003e+00 0.0000000000000000e+00 5.7826392603813765e+00 0 0 0
86 2 3.6914999999999996e+00 2.1312885187134998e+00 5.7826392603813765e+00 0 0 0
382 2 0.0000000000000000e+00 2.8417180249513345e+00 8.8546168776434477e+00 0 0 0
383 2 0.0000000000000000e+00 0.0000000000000000e+00 8.8546168776434477e+00 0 0 0
384 2 1.2305000000000001e+00 7.1042950623783474e-01 8.8546168776434477e+00 0 0 0
388 2 1.2305000000000001e+00 2.1312885187134998e+00 8.8546168776434477e+00 0 0 0
389 2 2.4610000000000003e+00 2.8417180249513345e+00 8.8546168776434477e+00 0 0 0
390 2 2.4610000000000003e+00 0.0000000000000000e+00 8.8546168776434477e+00 0 0 0
391 2 3.6915000000000004e+00 7.1042950623783474e-01 8.8546168776434477e+00 0 0 0
399 2 3.6914999999999996e+00 2.1312885187134998e+00 8.8546168776434477e+00 0 0 0
88 2 4.9220000000000006e+00 1.4208590124756650e+00 5.7826392603813765e+00 0 0 0
90 2 4.9220000000000006e+00 0.0000000000000000e+00 5.7826392603813765e+00 0 0 0
400 2 4.9220000000000006e+00 2.8417180249513332e+00 8.8546168776434477e+00 0 0 0
401 2 4.9220000000000006e+00 0.0000000000000000e+00 8.8546168776434477e+00 0 0 0
61 2 0.0000000000000000e+00 4.2625770374269996e+00 5.7826392603813765e+00 0 0 0
63 2 1.2305000000000001e+00 3.5521475311891644e+00 5.7826392603813765e+00 0 0 0
82 2 2.4610000000000003e+00 4.2625770374269996e+00 5.7826392603813765e+00 0 0 0
84 2 3.6914999999999996e+00 3.5521475311891644e+00 5.7826392603813765e+00 0 0 0
386 2 0.0000000000000000e+00 4.2625770374269996e+00 8.8546168776434477e+00 0 0 0
397 2 2.4610000000000003e+00 4.2625770374269996e+00 8.8546168776434477e+00 0 0 0
111 2 4.9220000000000006e+00 4.2625770374269978e+00 5.7826392603813765e+00 0 0 0
412 2 4.9220000000000006e+00 4.2625770374269978e+00 8.8546168776434477e+00 0 0 0
59 2 0.0000000000000000e+00 5.6834360499026637e+00 5.7826392603813765e+00 0 0 0
78 2 1.2305000000000001e+00 6.3938655561404980e+00 5.7826392603813765e+00 0 0 0
80 2 2.4610000000000003e+00 5.6834360499026637e+00 5.7826392603813765e+00 0 0 0
107 2 3.6914999999999996e+00 6.3938655561404980e+00 5.7826392603813765e+00 0 0 0
387 2 1.2305000000000001e+00 4.9730065436648339e+00 8.8546168776434477e+00 0 0 0
395 2 1.2305000000000001e+00 6.3938655561404980e+00 8.8546168776434477e+00 0 0 0
398 2 3.6914999999999996e+00 4.9730065436648339e+00 8.8546168776434477e+00 0 0 0
410 2 3.6914999999999996e+00 6.3938655561404980e+00 8.8546168776434477e+00 0 0 0
109 2 4.9220000000000006e+00 5.6834360499026637e+00 5.7826392603813765e+00 0 0 0
74 2 0.0000000000000000e+00 8.5251540748539991e+00 5.7826392603813765e+00 0 0 0
76 2 1.2305000000000001e+00 7.8147245686161639e+00 5.7826392603813765e+00 0 0 0
103 2 2.4610000000000003e+00 8.5251540748539991e+00 5.7826392603813765e+00 0 0 0
105 2 3.6914999999999996e+00 7.8147245686161639e+00 5.7826392603813765e+00 0 0 0
385 2 0.0000000000000000e+00 7.1042950623783341e+00 8.8546168776434477e+00 0 0 0
393 2 0.0000000000000000e+00 8.5251540748539991e+00 8.8546168776434477e+00 0 0 0
394 2 1.2305000000000001e+00 9.2355835810918343e+00 8.8546168776434477e+00 0 0 0
396 2 2.4610000000000003e+00 7.1042950623783341e+00 8.8546168776434477e+00 0 0 0
408 2 2.4610000000000003e+00 8.5251540748539991e+00 8.8546168776434477e+00 0 0 0
409 2 3.6915000000000004e+00 9.2355835810918343e+00 8.8546168776434477e+00 0 0 0
140 2 4.9220000000000006e+00 8.5251540748539991e+00 5.7826392603813765e+00 0 0 0
411 2 4.9220000000000006e+00 7.1042950623783341e+00 8.8546168776434477e+00 0 0 0
427 2 4.9220000000000006e+00 8.5251540748539991e+00 8.8546168776434477e+00 0 0 0
1307 1 4.0355896763643200e+00 2.8100232821312776e+00 1.1417082763603339e+01 -1 -1 -1
2044 1 3.6590255758210635e+00 3.5231797001052317e-01 1.2120083078568841e+01 -3 0 0
3901 1 1.8866815153873999e+00 4.4293027712127273e+00 1.2259550995052956e+01 2 3 0
667 1 3.6246713665625858e+00 8.6101731012837188e+00 1.1951479497912295e+01 -1 2 -1
2093 1 1.6310324345386480e+00 7.0185197804132153e+00 1.1367997934296367e+01 3 1 0
2575 1 5.9823934421560248e+00 7.3193325968697778e+00 1.1204926614263217e+01 -1 2 0
573 1 5.9322353287908109e+00 4.5706345862710913e+00 1.1963927632568444e+01 0 5 0
4038 1 3.5680295556086632e+00 3.3503736782355849e+00 1.5814344048014286e+01 2 2 0
2679 1 4.0272322241602572e+00 5.3556916237301422e-01 1.4849355449513943e+01 0 1 -2
3900 1 1.3739079076446901e+00 4.7484565847407811e+00 1.4965041244923114e+01 -1 0 0
658 1 5.7715223625514334e+00 4.6050058097918320e+00 1.4663204871303835e+01 7 0 0
2002 1 1.4738750299887191e+00 7.3328427179091236e+00 1.5856208450350884e+01 1 2 -1
2580 1 3.9729796067821952e+00 8.4920347169843566e+00 1.4791627659915427e+01 1 0 -1
3285 1 3.5718538490946177e+00 6.0761266101953604e+00 2.5740596797319082e+01 -4 -4 -1
3404 1 1.5482876050438930e+00 1.9940952203430586e+00 2.5911651962854840e+01 0 -2 -1
2061 1 3.6120324385008855e+00 3.4321129628113467e+00 1.8474658261069280e+01 2 1 0
633 1 1.2802200425841259e+00 7.3013673620271460e+00 2.2486877894595036e+01 2 0 1
3313 1 1.1124792476583842e+00 7.3955851187091151e+00 2.5469530499309073e+01 0 2 0
670 1 1.6872653978835146e+00 1.8079476564469927e+00 1.9126124573338600e+01 2 2 -1
2655 1 1.5866527682719120e+00 1.5976700748445938e+00 2.1908239828562213e+01 2 0 0
3462 1 1.4076664249633106e+00 7.0668054833244405e+00 1.8589370912415387e+01 2 3 1
2047 1 3.8022962985893916e+00 6.1294985807236291e+00 1.9294764339648300e+01 2 -1 -1
2127 1 3.6910521573742643e+00 6.1363928317880889e+00 2.2017231624512156e+01 -2 2 0
3369 1 3.9090303511770945e+00 3.2693534308699697e+00 2.5437491381820074e+01 0 0 -1
1936 1 3.6554811183698375e+00 3.3249875768746509e+00 2.2715231018705015e+01 -1 -1 0
3253 1 5.8408489116670292e+00 2.1166308857194496e+00 2.1932706255998340e+01 1 2 0
1428 1 6.0498330264809201e+00 7.3180782719508333e+00 2.5391889083381749e+01 3 -2 1
2109 1 5.8966877968885267e+00 7.6396316772789010e+00 2.2669417111823240e+01 2 3 0
1269 1 6.0933180304120382e+00 7.4089933210991461e+00 1.8408882887398430e+01 1 2 0
3892 1 5.7397570906384026e+00 1.8281078842795719e+00 1.9119821380012795e+01 -1 0 -2
4020 1 6.0303220400795592e+00 7.1540684676546018e+00 1.5767238292128866e+01 1 1 1
71 2 0.0000000000000000e+00 1.1366872099805333e+01 2.7106616431218233e+00 0 0 0
94 2 0.0000000000000000e+00 1.2787731112280996e+01 2.7106616431218233e+00 0 0 0
96 2 1.2305000000000001e+00 1.3498160618518829e+01 2.7106616431218233e+00 0 0 0
98 2 1.2305000000000001e+00 1.0656442593567498e+01 2.7106616431218233e+00 0 0 0
100 2 2.4610000000000003e+00 1.1366872099805333e+01 2.7106616431218233e+00 0 0 0
131 2 2.4610000000000003e+00 1.2787731112280996e+01 2.7106616431218233e+00 0 0 0
133 2 3.6915000000000004e+00 1.3498160618518829e+01 2.7106616431218233e+00 0 0 0
135 2 3.6914999999999996e+00 1.0656442593567499e+01 2.7106616431218233e+00 0 0 0
137 2 4.9220000000000006e+00 1.1366872099805333e+01 2.7106616431218233e+00 0 0 0
176 2 4.9220000000000006e+00 1.2787731112280996e+01 2.7106616431218233e+00 0 0 0
178 2 6.1524999999999990e+00 1.3498160618518829e+01 2.7106616431218233e+00 0 0 0
92 2 0.0000000000000000e+00 1.5629449137232333e+01 2.7106616431218233e+00 0 0 0
123 2 0.0000000000000000e+00 1.7050308149707998e+01 2.7106616431218233e+00 0 0 0
127 2 1.2305000000000001e+00 1.4919019630994494e+01 2.7106616431218233e+00 0 0 0
129 2 2.4610000000000003e+00 1.5629449137232328e+01 2.7106616431218233e+00 0 0 0
168 2 2.4610000000000003e+00 1.7050308149707998e+01 2.7106616431218233e+00 0 0 0
172 2 3.6915000000000004e+00 1.4919019630994494e+01 2.7106616431218233e+00 0 0 0
174 2 4.9220000000000006e+00 1.5629449137232333e+01 2.7106616431218233e+00 0 0 0
215 2 4.9220000000000006e+00 1.7050308149707998e+01 2.7106616431218233e+00 0 0 0
219 2 6.1524999999999990e+00 1.4919019630994494e+01 2.7106616431218233e+00 0 0 0
125 2 1.2305000000000001e+00 1.7760737655945832e+01 2.7106616431218233e+00 0 0 0
164 2 1.2305000000000001e+00 1.9181596668421495e+01 2.7106616431218233e+00 0 0 0
170 2 3.6914999999999996e+00 1.7760737655945832e+01 2.7106616431218233e+00 0 0 0
211 2 3.6914999999999996e+00 1.9181596668421495e+01 2.7106616431218233e+00 0 0 0
72 2 0.0000000000000000e+00 9.9460130873296642e+00 5.7826392603813765e+00 0 0 0
101 2 2.4610000000000003e+00 9.9460130873296642e+00 5.7826392603813765e+00 0 0 0
138 2 4.9220000000000006e+00 9.9460130873296642e+00 5.7826392603813765e+00 0 0 0
95 2 0.0000000000000000e+00 1.2787731112280996e+01 5.7826392603813765e+00 0 0 0
97 2 1.2305000000000001e+00 1.2077301606043163e+01 5.7826392603813765e+00 0 0 0
99 2 1.2305000000000001e+00 1.0656442593567498e+01 5.7826392603813765e+00 0 0 0
132 2 2.4610000000000003e+00 1.2787731112280996e+01 5.7826392603813765e+00 0 0 0
134 2 3.6914999999999996e+00 1.2077301606043163e+01 5.7826392603813765e+00 0 0 0
136 2 3.6914999999999996e+00 1.0656442593567499e+01 5.7826392603813765e+00 0 0 0
392 2 0.0000000000000000e+00 1.1366872099805333e+01 8.8546168776434477e+00 0 0 0
404 2 0.0000000000000000e+00 1.2787731112280996e+01 8.8546168776434477e+00 0 0 0
405 2 1.2305000000000001e+00 1.3498160618518829e+01 8.8546168776434477e+00 0 0 0
406 2 1.2305000000000001e+00 1.0656442593567498e+01 8.8546168776434477e+00 0 0 0
407 2 2.4610000000000003e+00 1.1366872099805333e+01 8.8546168776434477e+00 0 0 0
423 2 2.4610000000000003e+00 1.2787731112280996e+01 8.8546168776434477e+00 0 0 0
424 2 3.6915000000000004e+00 1.3498160618518829e+01 8.8546168776434477e+00 0 0 0
425 2 3.6914999999999996e+00 1.0656442593567499e+01 8.8546168776434477e+00 0 0 0
177 2 4.9220000000000006e+00 1.2787731112280996e+01 5.7826392603813765e+00 0 0 0
426 2 4.9220000000000006e+00 1.1366872099805333e+01 8.8546168776434477e+00 0 0 0
446 2 4.9220000000000006e+00 1.2787731112280996e+01 8.8546168776434477e+00 0 0 0
447 2 6.1524999999999990e+00 1.3498160618518829e+01 8.8546168776434477e+00 0 0 0
93 2 0.0000000000000000e+00 1.4208590124756663e+01 5.7826392603813765e+00 0 0 0
130 2 2.4610000000000003e+00 1.4208590124756663e+01 5.7826392603813765e+00 0 0 0
175 2 4.9220000000000006e+00 1.4208590124756663e+01 5.7826392603813765e+00 0 0 0
124 2 0.0000000000000000e+00 1.7050308149707998e+01 5.7826392603813765e+00 0 0 0
126 2 1.2305000000000001e+00 1.6339878643470165e+01 5.7826392603813765e+00 0 0 0
128 2 1.2305000000000001e+00 1.4919019630994494e+01 5.7826392603813765e+00 0 0 0
169 2 2.4610000000000003e+00 1.7050308149707998e+01 5.7826392603813765e+00 0 0 0
171 2 3.6915000000000004e+00 1.6339878643470165e+01 5.7826392603813765e+00 0 0 0
173 2 3.6915000000000004e+00 1.4919019630994494e+01 5.7826392603813765e+00 0 0 0
403 2 0.0000000000000000e+00 1.5629449137232333e+01 8.8546168776434477e+00 0 0 0
419 2 0.0000000000000000e+00 1.7050308149707998e+01 8.8546168776434477e+00 0 0 0
421 2 1.2305000000000001e+00 1.4919019630994494e+01 8.8546168776434477e+00 0 0 0
422 2 2.4610000000000003e+00 1.5629449137232328e+01 8.8546168776434477e+00 0 0 0
442 2 2.4610000000000003e+00 1.7050308149707998e+01 8.8546168776434477e+00 0 0 0
444 2 3.6915000000000004e+00 1.4919019630994494e+01 8.8546168776434477e+00 0 0 0
216 2 4.9220000000000006e+00 1.7050308149707998e+01 5.7826392603813765e+00 0 0 0
220 2 6.1524999999999990e+00 1.4919019630994494e+01 5.7826392603813765e+00 0 0 0
445 2 4.9220000000000006e+00 1.5629449137232333e+01 8.8546168776434477e+00 0 0 0
466 2 4.9220000000000006e+00 1.7050308149707998e+01 8.8546168776434477e+00 0 0 0
468 2 6.1524999999999990e+00 1.4919019630994494e+01 8.8546168776434477e+00 0 0 0
122 2 0.0000000000000000e+00 1.8471167162183658e+01 5.7826392603813765e+00 0 0 0
165 2 1.2305000000000001e+00 1.9181596668421495e+01 5.7826392603813765e+00 0 0 0
167 2 2.4610000000000003e+00 1.8471167162183658e+01 5.7826392603813765e+00 0 0 0
212 2 3.6914999999999996e+00 1.9181596668421495e+01 5.7826392603813765e+00 0 0 0
420 2 1.2305000000000001e+00 1.7760737655945832e+01 8.8546168776434477e+00 0 0 0
440 2 1.2305000000000001e+00 1.9181596668421495e+01 8.8546168776434477e+00 0 0 0
443 2 3.6914999999999996e+00 1.7760737655945832e+01 8.8546168776434477e+00 0 0 0
464 2 3.6914999999999996e+00 1.9181596668421495e+01 8.8546168776434477e+00 0 0 0
214 2 4.9220000000000006e+00 1.8471167162183658e+01 5.7826392603813765e+00 0 0 0
3392 1 3.8704659048925731e+00 1.1257422950607205e+01 1.1260245160920551e+01 -2 4 -1
3267 1 1.5972419766624508e+00 1.2649594163816582e+01 1.2127548130688416e+01 1 1 0
1405 1 1.5299688290495232e+00 1.5436838155717430e+01 1.1643755662559379e+01 -2 0 1
3989 1 3.6748853458030664e+00 1.6546496905725480e+01 1.2626934823338429e+01 -1 4 0
3282 1 5.8992560924707469e+00 1.2690443861167147e+01 1.1983583324093264e+01 1 -2 -1
1389 1 5.7516502869830868e+00 1.5466571955057171e+01 1.1461384022580797e+01 2 -5 -1
2642 1 3.8768375637965238e+00 1.9215756811543454e+01 1.1679822926777144e+01 0 -2 -1
1934 1 3.9342793374491096e+00 1.1109535924458228e+01 1.5706040012597601e+01 1 2 0
38 1 1.7290648217268649e+00 1.2666739502263951e+01 1.4884836448474131e+01 0 1 0
4019 1 3.7559043222306232e+00 1.1174628506324558e+01 1.8461017358574441e+01 -1 -2 -1
3376 1 1.4544331569537836e+00 1.5319014800676571e+01 1.5896646788730118e+01 0 4 -1
1410 1 3.7397925350069183e+00 1.6874875246679188e+01 1.5267046038121824e+01 0 1 -1
735 1 1.5385546084997361e+00 1.5427954946268192e+01 1.8756358843922840e+01 3 -2 1
1241 1 6.0683373146629211e+00 1.5201496082725852e+01 1.5613058992415192e+01 4 -2 0
731 1 5.9798562660240195e+00 1.5643069779012666e+01 2.2851928221733736e+01 0 -2 -1
2700 1 3.6868903041339247e+00 1.9545359612698732e+01 2.2916437052427533e+01 1 0 -1
2771 1 3.6960658809712927e+00 1.3865621112040051e+01 1.9449891024426343e+01 -1 0 1
2596 1 3.6680514829212756e+00 1.4189824512247469e+01 2.2201715847452881e+01 -3 4 0
3237 1 1.0045781235154887e+00 1.0117683134016710e+01 2.2566886454408966e+01 -4 3 0
3928 1 5.8175727092461083e+00 1.0087969130390480e+01 2.5877846602423904e+01 2 -1 -1
3254 1 5.6438919308695121e+00 1.0163464850877276e+01 2.1934462739103910e+01 3 2 0
3902 1 5.9059732598046200e+00 1.5746010254167773e+01 2.5570333650230889e+01 4 0 1
2678 1 1.3657253834313676e+00 1.5444201081206460e+01 2.2901965882862783e+01 -1 1 0
3959 1 1.2925854258778959e+00 1.8066767613097163e+01 2.2081997624638625e+01 2 2 0
1356 1 1.7637164120357025e+00 1.8121115003306929e+01 1.9392092353015176e+01 2 0 0
3367 1 1.2648853776720785e+00 1.8322536629648923e+01 2.6086694547920150e+01 2 3 0
2626 1 3.5037754846115092e+00 1.1598485868437390e+01 2.3015750816192387e+01 2 -1 0
549 1 3.3985310667797055e+00 1.1500306677363305e+01 2.5815266765135039e+01 4 -2 0
769 1 3.7255104857686918e+00 1.4183826044326624e+01 2.6234921111206344e+01 2 0 -1
1328 1 1.1065357230668975e+00 1.5428907418546325e+01 2.5619766844938404e+01 -3 2 0
2755 1 1.4966947141965827e+00 9.8846634291308231e+00 1.9549538307252725e+01 3 4 0
704 1 1.1478194853882651e+00 9.9753110885137755e+00 2.5646482344702978e+01 1 -3 0
43 1 5.8869120445605922e+00 1.8255062411063612e+01 1.9061035661465024e+01 -1 -2 -1
3431 1 4.0105556687912909e+00 1.9522536012625167e+01 1.5702538679647168e+01 -1 -1 1
1970 1 5.9578321304844524e+00 1.2696806548686341e+01 1.4703783788479402e+01 -4 -2 -1
3321 1 6.0208579807271008e+00 1.5313846566940324e+01 1.8406377759465702e+01 -2 0 0
1392 1 5.8628226170606563e+00 1.8268804892609332e+01 2.5953463180642910e+01 0 1 -1
36 1 6.0414292452773122e+00 1.0105444473690547e+01 1.9268149271381624e+01 2 1 0
121 2 0.0000000000000000e+00 1.9892026174659328e+01 2.7106616431218233e+00 0 0 0
166 2 2.4610000000000003e+00 1.9892026174659328e+01 2.7106616431218233e+00 0 0 0
213 2 4.9220000000000006e+00 1.9892026174659328e+01 2.7106616431218233e+00 0 0 0
158 2 0.0000000000000000e+00 2.4154603212086325e+01 2.7106616431218233e+00 0 0 0
160 2 0.0000000000000000e+00 2.1312885187134999e+01 2.7106616431218233e+00 0 0 0
162 2 1.2304999999999993e+00 2.2023314693372832e+01 2.7106616431218233e+00 0 0 0
203 2 1.2304999999999993e+00 2.3444173705848499e+01 2.7106616431218233e+00 0 0 0
205 2 2.4610000000000003e+00 2.4154603212086325e+01 2.7106616431218233e+00 0 0 0
207 2 2.4610000000000003e+00 2.1312885187134995e+01 2.7106616431218233e+00 0 0 0
209 2 3.6914999999999996e+00 2.2023314693372832e+01 2.7106616431218233e+00 0 0 0
250 2 3.6915000000000004e+00 2.3444173705848499e+01 2.7106616431218233e+00 0 0 0
252 2 4.9220000000000006e+00 2.4154603212086325e+01 2.7106616431218233e+00 0 0 0
254 2 4.9220000000000006e+00 2.1312885187134995e+01 2.7106616431218233e+00 0 0 0
256 2 6.1524999999999990e+00 2.2023314693372832e+01 2.7106616431218233e+00 0 0 0
777 2 0.0000000000000000e+00 2.5575462224561992e+01 2.7106616431218233e+00 0 0 0
779 2 1.2305000000000001e+00 2.6285891730799833e+01 2.7106616431218233e+00 0 0 0
787 2 1.2305000000000010e+00 2.7706750743275496e+01 2.7106616431218233e+00 0 0 0
791 2 2.4610000000000003e+00 2.5575462224561992e+01 2.7106616431218233e+00 0 0 0
793 2 3.6914999999999991e+00 2.6285891730799833e+01 2.7106616431218233e+00 0 0 0
809 2 3.6914999999999996e+00 2.7706750743275496e+01 2.7106616431218233e+00 0 0 0
813 2 4.9220000000000006e+00 2.5575462224561992e+01 2.7106616431218233e+00 0 0 0
839 2 6.1524999999999990e+00 2.7706750743275496e+01 2.7106616431218233e+00 0 0 0
775 2 0.0000000000000000e+00 2.8417180249513333e+01 2.7106616431218233e+00 0 0 0
789 2 2.4610000000000003e+00 2.8417180249513326e+01 2.7106616431218233e+00 0 0 0
811 2 4.9220000000000006e+00 2.8417180249513336e+01 2.7106616431218233e+00 0 0 0
163 2 1.2305000000000001e+00 2.0602455680897162e+01 5.7826392603813765e+00 0 0 0
210 2 3.6915000000000004e+00 2.0602455680897162e+01 5.7826392603813765e+00 0 0 0
418 2 0.0000000000000000e+00 1.9892026174659328e+01 8.8546168776434477e+00 0 0 0
441 2 2.4610000000000003e+00 1.9892026174659328e+01 8.8546168776434477e+00 0 0 0
465 2 4.9220000000000006e+00 1.9892026174659328e+01 8.8546168776434477e+00 0 0 0
159 2 0.0000000000000000e+00 2.2733744199610655e+01 5.7826392603813765e+00 0 0 0
161 2 0.0000000000000000e+00 2.1312885187134999e+01 5.7826392603813765e+00 0 0 0
204 2 1.2304999999999993e+00 2.3444173705848499e+01 5.7826392603813765e+00 0 0 0
206 2 2.4610000000000003e+00 2.2733744199610655e+01 5.7826392603813765e+00 0 0 0
208 2 2.4610000000000003e+00 2.1312885187134995e+01 5.7826392603813765e+00 0 0 0
251 2 3.6915000000000004e+00 2.3444173705848499e+01 5.7826392603813765e+00 0 0 0
437 2 0.0000000000000000e+00 2.4154603212086325e+01 8.8546168776434477e+00 0 0 0
438 2 0.0000000000000000e+00 2.1312885187134999e+01 8.8546168776434477e+00 0 0 0
439 2 1.2304999999999993e+00 2.2023314693372832e+01 8.8546168776434477e+00 0 0 0
460 2 1.2304999999999993e+00 2.3444173705848499e+01 8.8546168776434477e+00 0 0 0
461 2 2.4610000000000003e+00 2.4154603212086325e+01 8.8546168776434477e+00 0 0 0
462 2 2.4610000000000003e+00 2.1312885187134995e+01 8.8546168776434477e+00 0 0 0
463 2 3.6914999999999996e+00 2.2023314693372832e+01 8.8546168776434477e+00 0 0 0
484 2 3.6915000000000004e+00 2.3444173705848499e+01 8.8546168776434477e+00 0 0 0
253 2 4.9220000000000006e+00 2.2733744199610655e+01 5.7826392603813765e+00 0 0 0
255 2 4.9220000000000006e+00 2.1312885187134995e+01 5.7826392603813765e+00 0 0 0
485 2 4.9220000000000006e+00 2.4154603212086325e+01 8.8546168776434477e+00 0 0 0
486 2 4.9220000000000006e+00 2.1312885187134995e+01 8.8546168776434477e+00 0 0 0
487 2 6.1524999999999990e+00 2.2023314693372832e+01 8.8546168776434477e+00 0 0 0
776 2 0.0000000000000000e+00 2.6996321237037659e+01 5.7826392603813765e+00 0 0 0
778 2 0.0000000000000000e+00 2.5575462224561992e+01 5.7826392603813765e+00 0 0 0
780 2 1.2305000000000001e+00 2.4865032718324155e+01 5.7826392603813765e+00 0 0 0
788 2 1.2305000000000010e+00 2.7706750743275496e+01 5.7826392603813765e+00 0 0 0
790 2 2.4610000000000003e+00 2.6996321237037659e+01 5.7826392603813765e+00 0 0 0
792 2 2.4610000000000003e+00 2.5575462224561992e+01 5.7826392603813765e+00 0 0 0
794 2 3.6914999999999996e+00 2.4865032718324166e+01 5.7826392603813765e+00 0 0 0
810 2 3.6914999999999996e+00 2.7706750743275496e+01 5.7826392603813765e+00 0 0 0
1091 2 0.0000000000000000e+00 2.5575462224561992e+01 8.8546168776434477e+00 0 0 0
1092 2 1.2305000000000001e+00 2.6285891730799833e+01 8.8546168776434477e+00 0 0 0
1096 2 1.2305000000000010e+00 2.7706750743275496e+01 8.8546168776434477e+00 0 0 0
1098 2 2.4610000000000003e+00 2.5575462224561992e+01 8.8546168776434477e+00 0 0 0
1099 2 3.6914999999999991e+00 2.6285891730799833e+01 8.8546168776434477e+00 0 0 0
1107 2 3.6914999999999996e+00 2.7706750743275496e+01 8.8546168776434477e+00 0 0 0
812 2 4.9220000000000006e+00 2.6996321237037659e+01 5.7826392603813765e+00 0 0 0
814 2 4.9220000000000006e+00 2.5575462224561992e+01 5.7826392603813765e+00 0 0 0
816 2 6.1524999999999990e+00 2.4865032718324155e+01 5.7826392603813765e+00 0 0 0
840 2 6.1524999999999990e+00 2.7706750743275496e+01 5.7826392603813765e+00 0 0 0
1109 2 4.9220000000000006e+00 2.5575462224561992e+01 8.8546168776434477e+00 0 0 0
1122 2 6.1524999999999990e+00 2.7706750743275496e+01 8.8546168776434477e+00 0 0 0
786 2 1.2304999999999993e+00 2.9127609755751163e+01 5.7826392603813765e+00 0 0 0
808 2 3.6914999999999991e+00 2.9127609755751152e+01 5.7826392603813765e+00 0 0 0
1090 2 0.0000000000000000e+00 2.8417180249513333e+01 8.8546168776434477e+00 0 0 0
1097 2 2.4610000000000003e+00 2.8417180249513326e+01 8.8546168776434477e+00 0 0 0
838 2 6.1524999999999981e+00 2.9127609755751152e+01 5.7826392603813765e+00 0 0 0
1108 2 4.9220000000000006e+00 2.8417180249513336e+01 8.8546168776434477e+00 0 0 0
2601 1 1.6221377927865397e+00 2.0655085984157523e+01 1.2262047935254778e+01 1 0 1
1968 1 1.3450799572914112e+00 2.3324070397229171e+01 1.1663395363859177e+01 3 -3 0
3379 1 5.9850764719649066e+00 2.9103993840219950e+01 1.1730224712880389e+01 -1 3 0
608 1 3.6772540782653622e+00 2.4786953954748999e+01 1.2090610254039648e+01 -3 4 0
4053 1 3.6729662568510641e+00 2.7589222709292514e+01 1.1353983142143736e+01 2 -1 -1
1348 1 1.6872989446187274e+00 2.9264780079055775e+01 1.2130347939199575e+01 -1 2 -1
2615 1 5.8699884446673813e+00 2.3834060739835774e+01 1.1076929570371011e+01 0 2 -1
2011 1 5.6083676863443044e+00 2.0993722334632348e+01 1.1798908967376581e+01 -1 0 0
1381 1 1.2716921844409164e+00 2.3361113396951399e+01 1.5448758530238162e+01 2 0 0
697 1 1.6860636428882685e+00 2.0707704281710381e+01 1.4983823761852140e+01 2 4 0
1430 1 1.6962102532514540e+00 2.3746068022839449e+01 1.8408287385790668e+01 2 -1 0
1263 1 3.6516234983071989e+00 2.7606980692108937e+01 2.5724122547158110e+01 -2 2 -1
1926 1 3.4270160507368539e+00 2.4964291948960938e+01 1.4734066807985466e+01 -1 -1 0
1345 1 3.8896800291560907e+00 2.7692191672310930e+01 1.5570233177856366e+01 -4 1 0
4001 1 3.5530099476320585e+00 2.7654329905101839e+01 1.8479840566150095e+01 0 2 0
51 1 9.6639709070037694e-01 2.6583538745235323e+01 2.5950887678127739e+01 0 -2 0
4049 1 5.9393432250495453e+00 2.8993693911613974e+01 1.4543018130367102e+01 1 2 0
1900 1 1.6233183069531978e+00 2.3681952206936650e+01 2.2888407638067157e+01 1 -1 2
2065 1 3.7914821472576432e+00 2.2259300877832164e+01 1.9367615581648522e+01 -2 -2 -1
3344 1 3.9542647409761820e+00 2.2210934448235388e+01 2.2283563923149277e+01 2 -1 -1
666 1 1.4627698258167723e+00 2.6619003036397839e+01 2.2036050261879659e+01 1 -3 0
561 1 1.4322730728644291e+00 2.6208992894985407e+01 1.9178601571544746e+01 0 1 1
2045 1 3.5535853740219361e+00 1.9686340306401451e+01 2.5705217012189877e+01 1 0 0
1247 1 3.9194477684524331e+00 2.7865198211058605e+01 2.2759404694762580e+01 1 -1 0
3360 1 1.6202489772309281e+00 2.3676117153465782e+01 2.5710240350242877e+01 3 -2 -1
3976 1 3.9593222070575349e+00 2.2467309220896372e+01 2.5863737781670867e+01 -2 2 -1
1286 1 1.4294826982810545e+00 2.9066148064844224e+01 1.4742101634966032e+01 4 -1 -1
3286 1 6.1392926327598394e+00 2.6488940335295322e+01 1.9017932263845736e+01 0 0 -1
730 1 5.9559678737306028e+00 2.3824296620424224e+01 1.8548350881347950e+01 2 -1 1
747 1 5.4184267670265189e+00 2.3622756970852151e+01 1.5748472877406774e+01 3 -1 -1
2703 1 5.9994609380661261e+00 2.1107164258032395e+01 1.4610058902442011e+01 -2 1 -1
758 1 5.8509342639851134e+00 2.6304694418901249e+01 2.1616901365584248e+01 0 -1 1
4050 1 6.0296527375124818e+00 2.6492154147730592e+01 2.6117735445642285e+01 -6 0 1
1426 1 3.6872757403699232e+00 1.9615325797253750e+01 1.8231412072256138e+01 -1 1 0
783 2 0.0000000000000000e+00 2.9838039261988989e+01 2.7106616431218233e+00 0 0 0
785 2 1.2304999999999993e+00 3.0548468768226829e+01 2.7106616431218233e+00 0 0 0
805 2 2.4610000000000003e+00 2.9838039261988989e+01 2.7106616431218233e+00 0 0 0
807 2 3.6915000000000004e+00 3.0548468768226829e+01 2.7106616431218233e+00 0 0 0
835 2 4.9220000000000006e+00 2.9838039261988989e+01 2.7106616431218233e+00 0 0 0
781 2 0.0000000000000000e+00 3.2679757286940330e+01 2.7106616431218233e+00 0 0 0
797 2 0.0000000000000000e+00 3.4100616299415996e+01 2.7106616431218233e+00 0 0 0
801 2 1.2304999999999993e+00 3.1969327780702493e+01 2.7106616431218233e+00 0 0 0
803 2 2.4610000000000003e+00 3.2679757286940337e+01 2.7106616431218233e+00 0 0 0
827 2 2.4609999999999985e+00 3.4100616299415996e+01 2.7106616431218233e+00 0 0 0
831 2 3.6914999999999996e+00 3.1969327780702493e+01 2.7106616431218233e+00 0 0 0
833 2 4.9220000000000015e+00 3.2679757286940337e+01 2.7106616431218233e+00 0 0 0
865 2 4.9220000000000006e+00 3.4100616299415996e+01 2.7106616431218233e+00 0 0 0
799 2 1.2305000000000010e+00 3.4811045805653833e+01 2.7106616431218233e+00 0 0 0
829 2 3.6915000000000018e+00 3.4811045805653833e+01 2.7106616431218233e+00 0 0 0
795 2 0.0000000000000000e+00 3.6942334324367337e+01 2.7106616431218233e+00 0 0 0
819 2 0.0000000000000000e+00 3.8363193336842990e+01 2.7106616431218233e+00 0 0 0
823 2 1.2304999999999993e+00 3.6231904818129486e+01 2.7106616431218233e+00 0 0 0
825 2 2.4610000000000021e+00 3.6942334324367337e+01 2.7106616431218233e+00 0 0 0
857 2 2.4610000000000003e+00 3.8363193336842990e+01 2.7106616431218233e+00 0 0 0
861 2 3.6914999999999996e+00 3.6231904818129486e+01 2.7106616431218233e+00 0 0 0
863 2 4.9220000000000006e+00 3.6942334324367316e+01 2.7106616431218233e+00 0 0 0
902 2 4.9220000000000006e+00 3.8363193336842990e+01 2.7106616431218233e+00 0 0 0
821 2 1.2305000000000010e+00 3.9073622843080841e+01 2.7106616431218233e+00 0 0 0
859 2 3.6915000000000018e+00 3.9073622843080820e+01 2.7106616431218233e+00 0 0 0
782 2 0.0000000000000000e+00 3.1258898274464656e+01 5.7826392603813765e+00 0 0 0
784 2 0.0000000000000000e+00 2.9838039261988989e+01 5.7826392603813765e+00 0 0 0
804 2 2.4609999999999985e+00 3.1258898274464656e+01 5.7826392603813765e+00 0 0 0
806 2 2.4610000000000003e+00 2.9838039261988989e+01 5.7826392603813765e+00 0 0 0
1094 2 0.0000000000000000e+00 2.9838039261988989e+01 8.8546168776434477e+00 0 0 0
1095 2 1.2304999999999993e+00 3.0548468768226829e+01 8.8546168776434477e+00 0 0 0
1105 2 2.4610000000000003e+00 2.9838039261988989e+01 8.8546168776434477e+00 0 0 0
1106 2 3.6915000000000004e+00 3.0548468768226829e+01 8.8546168776434477e+00 0 0 0
834 2 4.9219999999999979e+00 3.1258898274464656e+01 5.7826392603813765e+00 0 0 0
836 2 4.9220000000000006e+00 2.9838039261988989e+01 5.7826392603813765e+00 0 0 0
1120 2 4.9220000000000006e+00 2.9838039261988989e+01 8.8546168776434477e+00 0 0 0
798 2 0.0000000000000000e+00 3.4100616299415996e+01 5.7826392603813765e+00 0 0 0
800 2 1.2304999999999993e+00 3.3390186793178160e+01 5.7826392603813765e+00 0 0 0
802 2 1.2304999999999993e+00 3.1969327780702493e+01 5.7826392603813765e+00 0 0 0