LAMMPS data file via write_data, version 16 Mar 2018, timestep = 100000

4063 atoms
2 atom types

0.0000000000000000e+00 4.9219999999999999e+01 xlo xhi
0.0000000000000000e+00 4.9019635930410494e+01 ylo yhi
1.8844448668406759e+00 2.6055555133158361e+01 zlo zhi

Masses

1 18.015
2 12.01

Atoms # atomic

53 2 0.0000000000000000e+00 2.8417180249513345e+00 3.3920681369490482e+00 0 0 0
55 2 0.0000000000000000e+00 0.0000000000000000e+00 3.3920681369490482e+00 0 0 0
57 2 1.2305000000000001e+00 7.1042950623783474e-01 3.3920681369490482e+00 0 0 0
64 2 1.2305000000000001e+00 2.1312885187134998e+00 3.3920681369490482e+00 0 0 0
66 2 2.4610000000000003e+00 2.8417180249513345e+00 3.3920681369490482e+00 0 0 0
68 2 2.4610000000000003e+00 0.0000000000000000e+00 3.3920681369490482e+00 0 0 0
70 2 3.6915000000000004e+00 7.1042950623783474e-01 3.3920681369490482e+00 0 0 0
85 2 3.6914999999999996e+00 2.1312885187134998e+00 3.3920681369490482e+00 0 0 0
87 2 4.9220000000000006e+00 2.8417180249513332e+00 3.3920681369490482e+00 0 0 0
89 2 4.9220000000000006e+00 0.0000000000000000e+00 3.3920681369490482e+00 0 0 0
60 2 0.0000000000000000e+00 4.2625770374269996e+00 3.3920681369490482e+00 0 0 0
81 2 2.4610000000000003e+00 4.2625770374269996e+00 3.3920681369490482e+00 0 0 0
110 2 4.9220000000000006e+00 4.2625770374269978e+00 3.3920681369490482e+00 0 0 0
62 2 1.2305000000000001e+00 4.9730065436648339e+00 3.3920681369490482e+00 0 0 0
77 2 1.2305000000000001e+00 6.3938655561404980e+00 3.3920681369490482e+00 0 0 0
83 2 3.6914999999999996e+00 4.9730065436648339e+00 3.3920681369490482e+00 0 0 0
106 2 3.6914999999999996e+00 6.3938655561404980e+00 3.3920681369490482e+00 0 0 0
58 2 0.0000000000000000e+00 7.1042950623783341e+00 3.3920681369490482e+00 0 0 0
73 2 0.0000000000000000e+00 8.5251540748539991e+00 3.3920681369490482e+00 0 0 0
75 2 1.2305000000000001e+00 9.2355835810918343e+00 3.3920681369490482e+00 0 0 0
79 2 2.4610000000000003e+00 7.1042950623783341e+00 3.3920681369490482e+00 0 0 0
102 2 2.4610000000000003e+00 8.5251540748539991e+00 3.3920681369490482e+00 0 0 0
104 2 3.6915000000000004e+00 9.2355835810918343e+00 3.3920681369490482e+00 0 0 0
108 2 4.9220000000000006e+00 7.1042950623783341e+00 3.3920681369490482e+00 0 0 0
139 2 4.9220000000000006e+00 8.5251540748539991e+00 3.3920681369490482e+00 0 0 0
54 2 0.0000000000000000e+00 1.4208590124756650e+00 6.2781320325540682e+00 0 0 0
56 2 0.0000000000000000e+00 0.0000000000000000e+00 6.2781320325540682e+00 0 0 0
65 2 1.2305000000000001e+00 2.1312885187134998e+00 6.2781320325540682e+00 0 0 0
67 2 2.4610000000000003e+00 1.4208590124756650e+00 6.2781320325540682e+00 0 0 0
69 2 2.4610000000000003e+00 0.0000000000000000e+00 6.2781320325540682e+00 0 0 0
86 2 3.6914999999999996e+00 2.1312885187134998e+00 6.2781320325540682e+00 0 0 0
382 2 0.0000000000000000e+00 2.8417180249513345e+00 9.1641959281586605e+00 0 0 0
383 2 0.0000000000000000e+00 0.0000000000000000e+00 9.1641959281586605e+00 0 0 0
384 2 1.2305000000000001e+00 7.1042950623783474e-01 9.1641959281586605e+00 0 0 0
388 2 1.2305000000000001e+00 2.1312885187134998e+00 9.1641959281586605e+00 0 0 0
389 2 2.4610000000000003e+00 2.8417180249513345e+00 9.1641959281586605e+00 0 0 0
390 2 2.4610000000000003e+00 0.0000000000000000e+00 9.1641959281586605e+00 0 0 0
391 2 3.6915000000000004e+00 7.1042950623783474e-01 9.1641959281586605e+00 0 0 0
399 2 3.6914999999999996e+00 2.1312885187134998e+00 9.1641959281586605e+00 0 0 0
88 2 4.9220000000000006e+00 1.4208590124756650e+00 6.2781320325540682e+00 0 0 0
90 2 4.9220000000000006e+00 0.0000000000000000e+00 6.2781320325540682e+00 0 0 0
400 2 4.9220000000000006e+00 2.8417180249513332e+00 9.1641959281586605e+00 0 0 0
401 2 4.9220000000000006e+00 0.0000000000000000e+00 9.1641959281586605e+00 0 0 0
61 2 0.0000000000000000e+00 4.2625770374269996e+00 6.2781320325540682e+00 0 0 0
63 2 1.2305000000000001e+00 3.5521475311891644e+00 6.2781320325540682e+00 0 0 0
82 2 2.4610000000000003e+00 4.2625770374269996e+00 6.2781320325540682e+00 0 0 0
84 2 3.6914999999999996e+00 3.5521475311891644e+00 6.2781320325540682e+00 0 0 0
386 2 0.0000000000000000e+00 4.2625770374269996e+00 9.1641959281586605e+00 0 0 0
397 2 2.4610000000000003e+00 4.2625770374269996e+00 9.1641959281586605e+00 0 0 0
111 2 4.9220000000000006e+00 4.2625770374269978e+00 6.2781320325540682e+00 0 0 0
412 2 4.9220000000000006e+00 4.2625770374269978e+00 9.1641959281586605e+00 0 0 0
59 2 0.0000000000000000e+00 5.6834360499026637e+00 6.2781320325540682e+00 0 0 0
78 2 1.2305000000000001e+00 6.3938655561404980e+00 6.2781320325540682e+00 0 0 0
80 2 2.4610000000000003e+00 5.6834360499026637e+00 6.2781320325540682e+00 0 0 0
107 2 3.6914999999999996e+00 6.3938655561404980e+00 6.2781320325540682e+00 0 0 0
387 2 1.2305000000000001e+00 4.9730065436648339e+00 9.1641959281586605e+00 0 0 0
395 2 1.2305000000000001e+00 6.3938655561404980e+00 9.1641959281586605e+00 0 0 0
398 2 3.6914999999999996e+00 4.9730065436648339e+00 9.1641959281586605e+00 0 0 0
410 2 3.6914999999999996e+00 6.3938655561404980e+00 9.1641959281586605e+00 0 0 0
109 2 4.9220000000000006e+00 5.6834360499026637e+00 6.2781320325540682e+00 0 0 0
74 2 0.0000000000000000e+00 8.5251540748539991e+00 6.2781320325540682e+00 0 0 0
76 2 1.2305000000000001e+00 7.8147245686161639e+00 6.2781320325540682e+00 0 0 0
103 2 2.4610000000000003e+00 8.5251540748539991e+00 6.2781320325540682e+00 0 0 0
105 2 3.6914999999999996e+00 7.8147245686161639e+00 6.2781320325540682e+00 0 0 0
385 2 0.0000000000000000e+00 7.1042950623783341e+00 9.1641959281586605e+00 0 0 0
393 2 0.0000000000000000e+00 8.5251540748539991e+00 9.1641959281586605e+00 0 0 0
394 2 1.2305000000000001e+00 9.2355835810918343e+00 9.1641959281586605e+00 0 0 0
396 2 2.4610000000000003e+00 7.1042950623783341e+00 9.1641959281586605e+00 0 0 0
408 2 2.4610000000000003e+00 8.5251540748539991e+00 9.1641959281586605e+00 0 0 0
409 2 3.6915000000000004e+00 9.2355835810918343e+00 9.1641959281586605e+00 0 0 0
140 2 4.9220000000000006e+00 8.5251540748539991e+00 6.2781320325540682e+00 0 0 0
411 2 4.9220000000000006e+00 7.1042950623783341e+00 9.1641959281586605e+00 0 0 0
427 2 4.9220000000000006e+00 8.5251540748539991e+00 9.1641959281586605e+00 0 0 0
2763 1 3.9071440073936068e+00 2.4248909465151964e+00 1.1717134163851041e+01 1 0 0
2594 1 1.5825740942390407e+00 3.9723982003406011e+00 1.1558433721459085e+01 1 1 -1
4005 1 2.8398061819074041e+00 6.4113801538399624e+00 1.1677487062412393e+01 0 1 0
2583 1 8.7212353837346623e-01 8.5782732249092764e+00 1.2125247236852209e+01 1 0 1
2656 1 5.5594225216522526e+00 6.3544710673360001e+00 1.1964629486362634e+01 0 0 0
580 1 3.4845212716185903e+00 2.4280092668397399e+00 1.4314832696290553e+01 0 0 -1
3446 1 1.4340608519868867e+00 4.4881963937320037e+00 1.4724444664124800e+01 0 1 0
553 1 3.2279452789292158e+00 4.1500221802189188e+00 2.1656900497056668e+01 1 0 0
4044 1 3.1723255793760603e+00 6.9548404376046644e+00 1.4704471008989318e+01 2 0 0
2708 1 2.1017179849233378e+00 1.3167929471650670e+00 1.8116352536195549e+01 1 1 0
1319 1 2.1801070726908107e+00 7.7513140378504355e+00 1.7928768347300334e+01 0 1 -1
2695 1 5.8096730043096061e+00 3.4907963614494140e+00 1.4833634586981288e+01 1 -1 -2
2663 1 3.5490970025725681e+00 7.1802606799215818e+00 2.3821556671623092e+01 0 0 0
585 1 1.4540310190902217e+00 3.9602056756420607e+00 1.7761746892885746e+01 0 -1 -1
3444 1 1.6634983937559664e+00 8.5642284660193368e+00 2.0608009361564719e+01 1 1 0
2063 1 5.6875282692124181e+00 9.7042338199645943e+00 1.9600218940946242e+01 0 1 -1
576 1 6.9404788436649745e-01 3.1693848802746518e+00 2.5229125565693444e+01 1 1 0
562 1 1.3160309578730018e+00 9.0422687777142396e+00 1.5100134025138587e+01 1 1 0
1299 1 5.6772202256214115e+00 5.4977498944756213e+00 2.1297122821348715e+01 2 1 0
2726 1 5.3846169810361335e+00 5.5753085173742811e-01 2.1644368853525798e+01 0 0 0
1293 1 9.6780427615633802e-01 6.7210082012838681e+00 2.5102309313725058e+01 0 1 0
2102 1 3.2868701610073110e+00 3.2510790278926125e+00 2.4678601877319046e+01 0 1 1
577 1 1.0082648673448866e+00 6.4056053352925844e+00 2.2213223429369158e+01 1 1 0
3238 1 4.7422075776205928e+00 8.5833473477686317e-01 2.4733338352019793e+01 0 1 0
3399 1 4.7123779094926741e+00 5.4710707786593327e+00 2.5320406470757511e+01 0 1 0
3267 1 3.6120566282789328e+00 5.2259198612631170e+00 1.8514053166342983e+01 0 1 0
2577 1 2.9812587105382380e+00 1.4232558987345005e+00 2.0855864577966216e+01 0 1 0
543 1 7.4782232324475173e-01 2.0056610967955868e-01 2.5138284145732030e+01 0 0 -1
559 1 5.0323032398233920e+00 5.4390415952243121e+00 1.6377752451353054e+01 0 0 0
678 1 8.1744797999627516e-01 9.2784496116867352e+00 2.5683244593929253e+01 1 1 0
1385 1 4.2953433612773589e-01 3.3808320081333032e+00 2.2549480510852213e+01 0 1 0
1276 1 5.8559189024868328e+00 7.9489992144989410e+00 2.1999290893153727e+01 -1 1 0
545 1 5.7411432402871423e+00 8.5403435526436375e+00 1.4303091902315710e+01 2 0 0
3983 1 6.0473427489596210e+00 9.7550805976507515e+00 2.5053936680552184e+01 -1 0 -1
3407 1 5.4440265741047267e-01 1.6316474650435453e-01 2.2422354376618046e+01 2 0 0
71 2 0.0000000000000000e+00 1.1366872099805333e+01 3.3920681369490482e+00 0 0 0
94 2 0.0000000000000000e+00 1.2787731112280996e+01 3.3920681369490482e+00 0 0 0
96 2 1.2305000000000001e+00 1.3498160618518829e+01 3.3920681369490482e+00 0 0 0
98 2 1.2305000000000001e+00 1.0656442593567498e+01 3.3920681369490482e+00 0 0 0
100 2 2.4610000000000003e+00 1.1366872099805333e+01 3.3920681369490482e+00 0 0 0
131 2 2.4610000000000003e+00 1.2787731112280996e+01 3.3920681369490482e+00 0 0 0
133 2 3.6915000000000004e+00 1.3498160618518829e+01 3.3920681369490482e+00 0 0 0
135 2 3.6914999999999996e+00 1.0656442593567499e+01 3.3920681369490482e+00 0 0 0
137 2 4.9220000000000006e+00 1.1366872099805333e+01 3.3920681369490482e+00 0 0 0
176 2 4.9220000000000006e+00 1.2787731112280996e+01 3.3920681369490482e+00 0 0 0
178 2 6.1524999999999990e+00 1.3498160618518829e+01 3.3920681369490482e+00 0 0 0
92 2 0.0000000000000000e+00 1.5629449137232333e+01 3.3920681369490482e+00 0 0 0
123 2 0.0000000000000000e+00 1.7050308149707998e+01 3.3920681369490482e+00 0 0 0
127 2 1.2305000000000001e+00 1.4919019630994494e+01 3.3920681369490482e+00 0 0 0
129 2 2.4610000000000003e+00 1.5629449137232328e+01 3.3920681369490482e+00 0 0 0
168 2 2.4610000000000003e+00 1.7050308149707998e+01 3.3920681369490482e+00 0 0 0
172 2 3.6915000000000004e+00 1.4919019630994494e+01 3.3920681369490482e+00 0 0 0
174 2 4.9220000000000006e+00 1.5629449137232333e+01 3.3920681369490482e+00 0 0 0
215 2 4.9220000000000006e+00 1.7050308149707998e+01 3.3920681369490482e+00 0 0 0
219 2 6.1524999999999990e+00 1.4919019630994494e+01 3.3920681369490482e+00 0 0 0
125 2 1.2305000000000001e+00 1.7760737655945832e+01 3.3920681369490482e+00 0 0 0
164 2 1.2305000000000001e+00 1.9181596668421495e+01 3.3920681369490482e+00 0 0 0
170 2 3.6914999999999996e+00 1.7760737655945832e+01 3.3920681369490482e+00 0 0 0
211 2 3.6914999999999996e+00 1.9181596668421495e+01 3.3920681369490482e+00 0 0 0
72 2 0.0000000000000000e+00 9.9460130873296642e+00 6.2781320325540682e+00 0 0 0
101 2 2.4610000000000003e+00 9.9460130873296642e+00 6.2781320325540682e+00 0 0 0
138 2 4.9220000000000006e+00 9.9460130873296642e+00 6.2781320325540682e+00 0 0 0
95 2 0.0000000000000000e+00 1.2787731112280996e+01 6.2781320325540682e+00 0 0 0
97 2 1.2305000000000001e+00 1.2077301606043163e+01 6.2781320325540682e+00 0 0 0
99 2 1.2305000000000001e+00 1.0656442593567498e+01 6.2781320325540682e+00 0 0 0
132 2 2.4610000000000003e+00 1.2787731112280996e+01 6.2781320325540682e+00 0 0 0
134 2 3.6914999999999996e+00 1.2077301606043163e+01 6.2781320325540682e+00 0 0 0
136 2 3.6914999999999996e+00 1.0656442593567499e+01 6.2781320325540682e+00 0 0 0
392 2 0.0000000000000000e+00 1.1366872099805333e+01 9.1641959281586605e+00 0 0 0
404 2 0.0000000000000000e+00 1.2787731112280996e+01 9.1641959281586605e+00 0 0 0
405 2 1.2305000000000001e+00 1.3498160618518829e+01 9.1641959281586605e+00 0 0 0
406 2 1.2305000000000001e+00 1.0656442593567498e+01 9.1641959281586605e+00 0 0 0
407 2 2.4610000000000003e+00 1.1366872099805333e+01 9.1641959281586605e+00 0 0 0
423 2 2.4610000000000003e+00 1.2787731112280996e+01 9.1641959281586605e+00 0 0 0
424 2 3.6915000000000004e+00 1.3498160618518829e+01 9.1641959281586605e+00 0 0 0
425 2 3.6914999999999996e+00 1.0656442593567499e+01 9.1641959281586605e+00 0 0 0
177 2 4.9220000000000006e+00 1.2787731112280996e+01 6.2781320325540682e+00 0 0 0
426 2 4.9220000000000006e+00 1.1366872099805333e+01 9.1641959281586605e+00 0 0 0
446 2 4.9220000000000006e+00 1.2787731112280996e+01 9.1641959281586605e+00 0 0 0
447 2 6.1524999999999990e+00 1.3498160618518829e+01 9.1641959281586605e+00 0 0 0
93 2 0.0000000000000000e+00 1.4208590124756663e+01 6.2781320325540682e+00 0 0 0
130 2 2.4610000000000003e+00 1.4208590124756663e+01 6.2781320325540682e+00 0 0 0
175 2 4.9220000000000006e+00 1.4208590124756663e+01 6.2781320325540682e+00 0 0 0
124 2 0.0000000000000000e+00 1.7050308149707998e+01 6.2781320325540682e+00 0 0 0
126 2 1.2305000000000001e+00 1.6339878643470165e+01 6.2781320325540682e+00 0 0 0
128 2 1.2305000000000001e+00 1.4919019630994494e+01 6.2781320325540682e+00 0 0 0
169 2 2.4610000000000003e+00 1.7050308149707998e+01 6.2781320325540682e+00 0 0 0
171 2 3.6915000000000004e+00 1.6339878643470165e+01 6.2781320325540682e+00 0 0 0
173 2 3.6915000000000004e+00 1.4919019630994494e+01 6.2781320325540682e+00 0 0 0
403 2 0.0000000000000000e+00 1.5629449137232333e+01 9.1641959281586605e+00 0 0 0
419 2 0.0000000000000000e+00 1.7050308149707998e+01 9.1641959281586605e+00 0 0 0
421 2 1.2305000000000001e+00 1.4919019630994494e+01 9.1641959281586605e+00 0 0 0
422 2 2.4610000000000003e+00 1.5629449137232328e+01 9.1641959281586605e+00 0 0 0
442 2 2.4610000000000003e+00 1.7050308149707998e+01 9.1641959281586605e+00 0 0 0
444 2 3.6915000000000004e+00 1.4919019630994494e+01 9.1641959281586605e+00 0 0 0
216 2 4.9220000000000006e+00 1.7050308149707998e+01 6.2781320325540682e+00 0 0 0
220 2 6.1524999999999990e+00 1.4919019630994494e+01 6.2781320325540682e+00 0 0 0
445 2 4.9220000000000006e+00 1.5629449137232333e+01 9.1641959281586605e+00 0 0 0
466 2 4.9220000000000006e+00 1.7050308149707998e+01 9.1641959281586605e+00 0 0 0
468 2 6.1524999999999990e+00 1.4919019630994494e+01 9.1641959281586605e+00 0 0 0
122 2 0.0000000000000000e+00 1.8471167162183658e+01 6.2781320325540682e+00 0 0 0
165 2 1.2305000000000001e+00 1.9181596668421495e+01 6.2781320325540682e+00 0 0 0
167 2 2.4610000000000003e+00 1.8471167162183658e+01 6.2781320325540682e+00 0 0 0
212 2 3.6914999999999996e+00 1.9181596668421495e+01 6.2781320325540682e+00 0 0 0
420 2 1.2305000000000001e+00 1.7760737655945832e+01 9.1641959281586605e+00 0 0 0
440 2 1.2305000000000001e+00 1.9181596668421495e+01 9.1641959281586605e+00 0 0 0
443 2 3.6914999999999996e+00 1.7760737655945832e+01 9.1641959281586605e+00 0 0 0
464 2 3.6914999999999996e+00 1.9181596668421495e+01 9.1641959281586605e+00 0 0 0
214 2 4.9220000000000006e+00 1.8471167162183658e+01 6.2781320325540682e+00 0 0 0
2018 1 3.6628572021330048e+00 1.2404377745976221e+01 1.1991290142984443e+01 1 0 -1
2712 1 1.2503028819576518e+00 1.1244595256208854e+01 1.2529346308564726e+01 0 0 -1
3895 1 3.7497918120179241e+00 1.5583367924204184e+01 1.2060261094368604e+01 1 0 0
2762 1 2.6716328776737273e+00 1.8510189656170770e+01 1.1723101071532801e+01 1 1 0
2698 1 7.3121272825672623e-01 1.4665199430490004e+01 1.1617999361661589e+01 0 -1 1
2679 1 5.6804215474757180e+00 1.0468645720857163e+01 1.1778822176435948e+01 0 1 -2
700 1 4.7382646978752820e+00 1.2864029853215996e+01 1.4709383668420333e+01 0 1 0
2661 1 4.6559735480571671e+00 1.2828170465020854e+01 1.8945450991041255e+01 0 0 -1
1364 1 1.7384715023678095e+00 1.4767644538968476e+01 1.4300122659354866e+01 0 0 -1
640 1 4.1959216976483509e+00 1.5868181701663735e+01 1.5216584115502386e+01 0 0 -1
1905 1 1.7128249819575727e+00 1.2644467764440506e+01 1.8409849754876426e+01 1 1 0
3269 1 2.6475989298858189e+00 1.8306925150997813e+01 1.4663172520875742e+01 1 1 0
3426 1 5.1131144278233229e+00 1.8944284597496615e+01 1.6396601502358660e+01 0 0 -1
3393 1 3.9109965315597717e+00 1.5011049812154603e+01 2.1866647026456874e+01 -1 1 0
1261 1 1.9175283402405463e+00 1.5718880517879436e+01 1.9070206764633276e+01 0 0 0
747 1 3.4386075109968242e+00 1.0515736401119975e+01 2.1629115852529686e+01 1 0 -1
2737 1 1.0444299199695735e+00 1.2142136906573466e+01 2.1142341500583569e+01 2 1 1
4042 1 1.9393293706033374e+00 1.2068176316403429e+01 1.5487358605856484e+01 0 1 -1
3392 1 1.0077893871933303e+00 1.8473241779020295e+01 2.1976710900477116e+01 1 2 -1
3897 1 4.5369723193116256e+00 1.5435787184101084e+01 1.8092409113665298e+01 0 0 0
2719 1 6.0468301504862854e-01 1.4810282791467865e+01 2.1431520237146636e+01 -1 1 0
756 1 1.7972978079325184e+00 1.8596035278849776e+01 1.9343577604112248e+01 0 0 0
1345 1 4.6681892670407930e+00 1.7562522180836762e+01 2.0090294726186556e+01 -1 0 0
2077 1 3.2322826363786690e+00 1.0266519757756285e+01 2.4515282894903699e+01 1 0 -1
3974 1 3.4505710604153710e+00 1.2931377727643206e+01 2.5265530398809553e+01 0 0 0
2573 1 5.3968016038032536e+00 1.2617333135782742e+01 2.1643127646751218e+01 1 0 0
2093 1 2.0565987866201585e+00 1.5007699919188825e+01 2.4029611549280041e+01 1 0 0
4000 1 3.7578148852771704e+00 1.0156455099404685e+01 1.7231131263216774e+01 1 0 -1
1985 1 4.9259748778123420e+00 1.6769026895238767e+01 2.4737901702864939e+01 1 1 0
2653 1 5.8654989630673242e+00 1.4289524954899271e+01 2.4439004572938160e+01 1 2 0
1351 1 1.8565398944718845e+00 1.8142844429092094e+01 2.4941402975218608e+01 0 -1 0
121 2 0.0000000000000000e+00 1.9892026174659328e+01 3.3920681369490482e+00 0 0 0
166 2 2.4610000000000003e+00 1.9892026174659328e+01 3.3920681369490482e+00 0 0 0
213 2 4.9220000000000006e+00 1.9892026174659328e+01 3.3920681369490482e+00 0 0 0
158 2 0.0000000000000000e+00 2.4154603212086325e+01 3.3920681369490482e+00 0 0 0
160 2 0.0000000000000000e+00 2.1312885187134999e+01 3.3920681369490482e+00 0 0 0
162 2 1.2304999999999993e+00 2.2023314693372832e+01 3.3920681369490482e+00 0 0 0
203 2 1.2304999999999993e+00 2.3444173705848499e+01 3.3920681369490482e+00 0 0 0
205 2 2.4610000000000003e+00 2.4154603212086325e+01 3.3920681369490482e+00 0 0 0
207 2 2.4610000000000003e+00 2.1312885187134995e+01 3.3920681369490482e+00 0 0 0
209 2 3.6914999999999996e+00 2.2023314693372832e+01 3.3920681369490482e+00 0 0 0
250 2 3.6915000000000004e+00 2.3444173705848499e+01 3.3920681369490482e+00 0 0 0
252 2 4.9220000000000006e+00 2.4154603212086325e+01 3.3920681369490482e+00 0 0 0
254 2 4.9220000000000006e+00 2.1312885187134995e+01 3.3920681369490482e+00 0 0 0
256 2 6.1524999999999990e+00 2.2023314693372832e+01 3.3920681369490482e+00 0 0 0
777 2 0.0000000000000000e+00 2.5575462224561992e+01 3.3920681369490482e+00 0 0 0
779 2 1.2305000000000001e+00 2.6285891730799833e+01 3.3920681369490482e+00 0 0 0
787 2 1.2305000000000010e+00 2.7706750743275496e+01 3.3920681369490482e+00 0 0 0
791 2 2.4610000000000003e+00 2.5575462224561992e+01 3.3920681369490482e+00 0 0 0
793 2 3.6914999999999991e+00 2.6285891730799833e+01 3.3920681369490482e+00 0 0 0
809 2 3.6914999999999996e+00 2.7706750743275496e+01 3.3920681369490482e+00 0 0 0
813 2 4.9220000000000006e+00 2.5575462224561992e+01 3.3920681369490482e+00 0 0 0
839 2 6.1524999999999990e+00 2.7706750743275496e+01 3.3920681369490482e+00 0 0 0
775 2 0.0000000000000000e+00 2.8417180249513333e+01 3.3920681369490482e+00 0 0 0
789 2 2.4610000000000003e+00 2.8417180249513326e+01 3.3920681369490482e+00 0 0 0
811 2 4.9220000000000006e+00 2.8417180249513336e+01 3.3920681369490482e+00 0 0 0
163 2 1.2305000000000001e+00 2.0602455680897162e+01 6.2781320325540682e+00 0 0 0
210 2 3.6915000000000004e+00 2.0602455680897162e+01 6.2781320325540682e+00 0 0 0
418 2 0.0000000000000000e+00 1.9892026174659328e+01 9.1641959281586605e+00 0 0 0
441 2 2.4610000000000003e+00 1.9892026174659328e+01 9.1641959281586605e+00 0 0 0
465 2 4.9220000000000006e+00 1.9892026174659328e+01 9.1641959281586605e+00 0 0 0
159 2 0.0000000000000000e+00 2.2733744199610655e+01 6.2781320325540682e+00 0 0 0
161 2 0.0000000000000000e+00 2.1312885187134999e+01 6.2781320325540682e+00 0 0 0
204 2 1.2304999999999993e+00 2.3444173705848499e+01 6.2781320325540682e+00 0 0 0
206 2 2.4610000000000003e+00 2.2733744199610655e+01 6.2781320325540682e+00 0 0 0
208 2 2.4610000000000003e+00 2.1312885187134995e+01 6.2781320325540682e+00 0 0 0
251 2 3.6915000000000004e+00 2.3444173705848499e+01 6.2781320325540682e+00 0 0 0
437 2 0.0000000000000000e+00 2.4154603212086325e+01 9.1641959281586605e+00 0 0 0
438 2 0.0000000000000000e+00 2.1312885187134999e+01 9.1641959281586605e+00 0 0 0
439 2 1.2304999999999993e+00 2.2023314693372832e+01 9.1641959281586605e+00 0 0 0
460 2 1.2304999999999993e+00 2.3444173705848499e+01 9.1641959281586605e+00 0 0 0
461 2 2.4610000000000003e+00 2.4154603212086325e+01 9.1641959281586605e+00 0 0 0
462 2 2.4610000000000003e+00 2.1312885187134995e+01 9.1641959281586605e+00 0 0 0
463 2 3.6914999999999996e+00 2.2023314693372832e+01 9.1641959281586605e+00 0 0 0
484 2 3.6915000000000004e+00 2.3444173705848499e+01 9.1641959281586605e+00 0 0 0
253 2 4.9220000000000006e+00 2.2733744199610655e+01 6.2781320325540682e+00 0 0 0
255 2 4.9220000000000006e+00 2.1312885187134995e+01 6.2781320325540682e+00 0 0 0
485 2 4.9220000000000006e+00 2.4154603212086325e+01 9.1641959281586605e+00 0 0 0
486 2 4.9220000000000006e+00 2.1312885187134995e+01 9.1641959281586605e+00 0 0 0
487 2 6.1524999999999990e+00 2.2023314693372832e+01 9.1641959281586605e+00 0 0 0
776 2 0.0000000000000000e+00 2.6996321237037659e+01 6.2781320325540682e+00 0 0 0
778 2 0.0000000000000000e+00 2.5575462224561992e+01 6.2781320325540682e+00 0 0 0
780 2 1.2305000000000001e+00 2.4865032718324155e+01 6.2781320325540682e+00 0 0 0
788 2 1.2305000000000010e+00 2.7706750743275496e+01 6.2781320325540682e+00 0 0 0
790 2 2.4610000000000003e+00 2.6996321237037659e+01 6.2781320325540682e+00 0 0 0
792 2 2.4610000000000003e+00 2.5575462224561992e+01 6.2781320325540682e+00 0 0 0
794 2 3.6914999999999996e+00 2.4865032718324166e+01 6.2781320325540682e+00 0 0 0
810 2 3.6914999999999996e+00 2.7706750743275496e+01 6.2781320325540682e+00 0 0 0
1091 2 0.0000000000000000e+00 2.5575462224561992e+01 9.1641959281586605e+00 0 0 0
1092 2 1.2305000000000001e+00 2.6285891730799833e+01 9.1641959281586605e+00 0 0 0
1096 2 1.2305000000000010e+00 2.7706750743275496e+01 9.1641959281586605e+00 0 0 0
1098 2 2.4610000000000003e+00 2.5575462224561992e+01 9.1641959281586605e+00 0 0 0
1099 2 3.6914999999999991e+00 2.6285891730799833e+01 9.1641959281586605e+00 0 0 0
1107 2 3.6914999999999996e+00 2.7706750743275496e+01 9.1641959281586605e+00 0 0 0
812 2 4.9220000000000006e+00 2.6996321237037659e+01 6.2781320325540682e+00 0 0 0
814 2 4.9220000000000006e+00 2.5575462224561992e+01 6.2781320325540682e+00 0 0 0
816 2 6.1524999999999990e+00 2.4865032718324155e+01 6.2781320325540682e+00 0 0 0
840 2 6.1524999999999990e+00 2.7706750743275496e+01 6.2781320325540682e+00 0 0 0
1109 2 4.9220000000000006e+00 2.5575462224561992e+01 9.1641959281586605e+00 0 0 0
1122 2 6.1524999999999990e+00 2.7706750743275496e+01 9.1641959281586605e+00 0 0 0
786 2 1.2304999999999993e+00 2.9127609755751163e+01 6.2781320325540682e+00 0 0 0
808 2 3.6914999999999991e+00 2.9127609755751152e+01 6.2781320325540682e+00 0 0 0
1090 2 0.0000000000000000e+00 2.8417180249513333e+01 9.1641959281586605e+00 0 0 0
1097 2 2.4610000000000003e+00 2.8417180249513326e+01 9.1641959281586605e+00 0 0 0
838 2 6.1524999999999981e+00 2.9127609755751152e+01 6.2781320325540682e+00 0 0 0
1108 2 4.9220000000000006e+00 2.8417180249513336e+01 9.1641959281586605e+00 0 0 0
774 1 2.6195059159247243e+00 2.3764963692953241e+01 1.1869988555466193e+01 1 0 0
1270 1 5.1528413859589870e+00 1.9960468978916126e+01 1.1555054519878423e+01 0 0 -1
4023 1 5.2604103540658125e+00 2.2659149565576755e+01 1.1960894362898646e+01 1 1 0
3302 1 5.8484521749806655e+00 2.9279067447168242e+01 1.2074488599979869e+01 1 1 1
3279 1 1.3484768111579588e+00 2.1119943100459913e+01 1.1989668411945717e+01 1 0 0
4031 1 2.8985742125503942e+00 2.6621992735844078e+01 1.2124431241495977e+01 1 0 -1
3247 1 3.1949766442148997e+00 2.3034585447339964e+01 2.4944644409929914e+01 0 0 0
4061 1 2.8532164750422342e+00 2.0840899809094456e+01 1.7464697761208335e+01 0 1 1
2054 1 2.8957200432240469e+00 2.8992667074248146e+01 2.4355856230227580e+01 0 0 -1
2721 1 2.4992737913404244e+00 2.1355916456405165e+01 1.4767614107772683e+01 1 0 0
1401 1 3.2162079012034956e+00 2.6833279279861436e+01 1.5083536782097529e+01 -1 0 0
727 1 5.0648140898343144e+00 2.4058848799470596e+01 2.1777675619361752e+01 1 0 1
3978 1 3.1475349038972529e+00 2.6634291682125511e+01 1.8401023815476869e+01 1 0 0
1360 1 5.1332155382478408e+00 2.2731972430729922e+01 1.4698760163444435e+01 -1 0 -1
2664 1 2.3430481925437121e+00 2.5997930718383820e+01 2.4626464733878393e+01 0 1 -1
1251 1 5.8334846602250492e+00 2.4398706209575284e+01 2.4623990801949596e+01 -1 1 0
2778 1 3.8295142648566705e+00 2.2082038023745447e+01 2.0279097478748675e+01 -1 1 0
3329 1 5.4738810068273649e+00 2.8922257341641483e+01 1.5065645594766565e+01 1 0 1
1927 1 2.2041583875417552e+00 2.3696033520058947e+01 1.8685638153841737e+01 0 0 0
3957 1 1.4231064707245165e+00 2.4718533515249934e+01 2.1677083719574220e+01 0 1 0
716 1 6.0711239261533398e+00 2.7084616721321932e+01 1.7469621900580528e+01 0 -1 0
750 1 2.5202980890493469e+00 2.1208421171855019e+01 2.2480200772155541e+01 0 0 0
744 1 2.6227751436191085e+00 2.9196852811979603e+01 2.1617362619726009e+01 -1 -1 0
2011 1 9.1611798528544486e-01 2.7910013332987536e+01 1.8858194241212644e+01 1 -1 0
2741 1 3.6375483956185741e+00 2.6477399342736664e+01 2.1239013479471247e+01 1 0 1
662 1 3.8114062469297258e+00 2.0123895346345677e+01 2.5056231400826320e+01 1 0 1
3278 1 1.2028921534929109e+00 2.9191356044822868e+01 1.4534112757430391e+01 1 0 0
3425 1 3.6020865323217344e-01 2.3704032811141428e+01 2.5285527450982009e+01 1 1 1
3241 1 5.8849591760582882e+00 2.0318197321376726e+01 2.0019679816060162e+01 0 -1 0
1288 1 5.8911719294778129e+00 2.8350290591718263e+01 2.0212270541408188e+01 1 -1 0
4001 1 1.3553835194399624e-01 2.0317322390542181e+01 1.7477500897371435e+01 0 0 0
690 1 7.5949151875897969e-01 2.5037905544113784e+01 1.4060244313855161e+01 1 0 0
783 2 0.0000000000000000e+00 2.9838039261988989e+01 3.3920681369490482e+00 0 0 0
785 2 1.2304999999999993e+00 3.0548468768226829e+01 3.3920681369490482e+00 0 0 0
805 2 2.4610000000000003e+00 2.9838039261988989e+01 3.3920681369490482e+00 0 0 0
807 2 3.6915000000000004e+00 3.0548468768226829e+01 3.3920681369490482e+00 0 0 0
835 2 4.9220000000000006e+00 2.9838039261988989e+01 3.3920681369490482e+00 0 0 0
781 2 0.0000000000000000e+00 3.2679757286940330e+01 3.3920681369490482e+00 0 0 0
797 2 0.0000000000000000e+00 3.4100616299415996e+01 3.3920681369490482e+00 0 0 0
801 2 1.2304999999999993e+00 3.1969327780702493e+01 3.3920681369490482e+00 0 0 0
803 2 2.4610000000000003e+00 3.2679757286940337e+01 3.3920681369490482e+00 0 0 0
827 2 2.4609999999999985e+00 3.4100616299415996e+01 3.3920681369490482e+00 0 0 0
831 2 3.6914999999999996e+00 3.1969327780702493e+01 3.3920681369490482e+00 0 0 0
833 2 4.9220000000000015e+00 3.2679757286940337e+01 3.3920681369490482e+00 0 0 0
865 2 4.9220000000000006e+00 3.4100616299415996e+01 3.3920681369490482e+00 0 0 0
799 2 1.2305000000000010e+00 3.4811045805653833e+01 3.3920681369490482e+00 0 0 0
829 2 3.6915000000000018e+00 3.4811045805653833e+01 3.3920681369490482e+00 0 0 0
795 2 0.0000000000000000e+00 3.6942334324367337e+01 3.3920681369490482e+00 0 0 0
819 2 0.0000000000000000e+00 3.8363193336842990e+01 3.3920681369490482e+00 0 0 0
823 2 1.2304999999999993e+00 3.6231904818129486e+01 3.3920681369490482e+00 0 0 0
825 2 2.4610000000000021e+00 3.6942334324367337e+01 3.3920681369490482e+00 0 0 0
857 2 2.4610000000000003e+00 3.8363193336842990e+01 3.3920681369490482e+00 0 0 0
861 2 3.6914999999999996e+00 3.6231904818129486e+01 3.3920681369490482e+00 0 0 0
863 2 4.9220000000000006e+00 3.6942334324367316e+01 3.3920681369490482e+00 0 0 0
902 2 4.9220000000000006e+00 3.8363193336842990e+01 3.3920681369490482e+00 0 0 0
821 2 1.2305000000000010e+00 3.9073622843080841e+01 3.3920681369490482e+00 0 0 0
859 2 3.6915000000000018e+00 3.9073622843080820e+01 3.3920681369490482e+00 0 0 0
782 2 0.0000000000000000e+00 3.1258898274464656e+01 6.2781320325540682e+00 0 0 0
784 2 0.0000000000000000e+00 2.9838039261988989e+01 6.2781320325540682e+00 0 0 0
804 2 2.4609999999999985e+00 3.1258898274464656e+01 6.2781320325540682e+00 0 0 0
806 2 2.4610000000000003e+00 2.9838039261988989e+01 6.2781320325540682e+00 0 0 0
1094 2 0.0000000000000000e+00 2.9838039261988989e+01 9.1641959281586605e+00 0 0 0
1095 2 1.2304999999999993e+00 3.0548468768226829e+01 9.1641959281586605e+00 0 0 0
1105 2 2.4610000000000003e+00 2.9838039261988989e+01 9.1641959281586605e+00 0 0 0
1106 2 3.6915000000000004e+00 3.0548468768226829e+01 9.1641959281586605e+00 0 0 0
834 2 4.9219999999999979e+00 3.1258898274464656e+01 6.2781320325540682e+00 0 0 0
836 2 4.9220000000000006e+00 2.9838039261988989e+01 6.2781320325540682e+00 0 0 0
1120 2 4.9220000000000006e+00 2.9838039261988989e+01 9.1641959281586605e+00 0 0 0
798 2 0.0000000000000000e+00 3.4100616299415996e+01 6.2781320325540682e+00 0 0 0
800 2 1.2304999999999993e+00 3.3390186793178160e+01 6.2781320325540682e+00 0 0 0
802 2 1.2304999999999993e+00 3.1969327780702493e+01 6.2781320325540682e+00 0 0 0
828 2 2.4609999999999985e+00 3.4100616299415996e+01 6.2781320325540682e+00 0 0 0
830 2 3.6914999999999978e+00 3.3390186793178160e+01 6.2781320325540682e+00 0 0 0
832 2 3.6914999999999996e+00 3.1969327780702493e+01 6.2781320325540682e+00 0 0 0
1093 2 0.0000000000000000e+00 3.2679757286940330e+01 9.1641959281586605e+00 0 0 0
1101 2 0.0000000000000000e+00 3.4100616299415996e+01 9.1641959281586605e+00 0 0 0
1103 2 1.2304999999999993e+00 3.1969327780702493e+01 9.1641959281586605e+00 0 0 0