LAMMPS data file via write_data, version 29 Oct 2020, timestep = 300676

4609 atoms
1 atom types

0.0 49.22 xlo xhi
0.0 49.019635930410494 ylo yhi
0.2526329496634041 59.80936705033555 zlo zhi

Masses

1 18.015

Atoms # atomic

198 1 11.704688486821352 4.928215114544524 19.989597737190977 0 0 0
4508 1 23.622493537602264 4.442737425987729 1.780238114384346 1 1 1
3451 1 8.682810185010947 2.744234782504946 2.8542417480067046 1 0 1
2460 1 11.452633128311588 2.790860607608222 2.0412679777540097 1 0 0
3354 1 24.207199286421172 19.382933101088774 15.934589005753008 0 0 1
702 1 9.039669242945523 7.359811499385758 20.06893934339482 0 0 0
944 1 0.27197426526175644 16.900083460505286 9.709568390977488 0 0 1
3415 1 4.596981618346982 5.021760482199223 0.5165408704579344 1 0 1
937 1 23.840265889676935 1.8900971686120542 3.235777047312221 0 0 1
54 1 2.5688246914811446 5.0786789922740985 4.316681980272048 0 0 0
2501 1 12.207490125153216 23.601400634849263 3.796191315173993 1 0 0
4360 1 4.708531814744673 3.790952765335647 3.074443637310698 1 0 1
1373 1 7.194867740729707 5.553431737347896 0.3331645111243457 0 1 0
27 1 7.686029265238207 6.688745190493804 3.1140566320091776 0 0 0
1894 1 9.337208606131272 16.807812952177272 1.053320824455408 0 1 1
1569 1 13.973724098730063 2.774638545451619 3.4298186652548064 0 0 1
1045 1 16.707993211126066 3.75788154757655 3.595862960653291 0 0 1
1169 1 19.622710021775703 2.6269104157177128 3.1783755613237177 0 0 0
974 1 22.213217007805806 6.721200565497165 3.4612937771773282 -1 0 1
1501 1 2.913581903437758 7.227911312002219 1.7460680021970232 0 1 0
1348 1 4.604698182946326 10.877129477489888 2.356154882736566 0 1 0
1177 1 5.453868932386941 8.392601479974163 3.1136908458316555 0 0 0
4489 1 9.998913609270293 8.386268420367061 3.124199974020947 1 1 1
1713 1 1.0131989321925998 23.04751955807659 9.291524337475886 0 0 0
131 1 14.523653271521066 9.65920116104661 2.2834737593369043 0 0 0
87 1 20.41148459753352 7.401011068410201 1.4718959099087106 0 0 0
3131 1 18.644549675735714 9.19367247238755 2.268597604532635 0 0 1
2420 1 10.617598706130995 10.40470955972999 0.9246183197745077 1 0 0
2272 1 10.576766271344882 12.793809943798466 2.0158328005380888 0 1 1
1377 1 13.422663514578922 12.684035345657408 2.849445386832988 0 1 0
664 1 12.452932436524005 23.373411181398442 18.993017567207513 0 -1 0
768 1 20.69560111831357 2.245796322240895 0.4668516678995139 0 0 1
1882 1 23.94573156123859 1.6741095969773485 12.451610021111499 0 1 0
2179 1 3.8827553409868645 16.17630154045313 3.3216860610399173 0 0 1
3403 1 7.794355138012561 10.63340063960581 1.4063702318463929 1 0 1
4602 1 18.267022876231014 23.6841747337194 3.3859130584895056 1 0 1
769 1 8.621577511562098 16.482970545868763 4.559660379538242 0 0 1
4137 1 13.706033457124345 15.098574688854724 3.895452777854403 1 1 0
2603 1 24.378038859072408 24.08559757099446 15.619966460176704 0 0 0
869 1 19.241630840460953 13.306992133271033 1.7050867336150868 0 0 1
2867 1 3.437910603282871 23.03701249984093 8.01134004879391 1 0 1
498 1 23.601153281192232 14.693332226952663 5.162304301014741 -1 0 1
3643 1 1.6660445964223956 16.82405635269715 1.374601670635467 1 1 0
3005 1 19.20176969262385 0.13608476338177591 11.643239788781399 0 0 0
3397 1 13.2278008192398 0.45603839979167965 4.929310961116015 1 0 1
1652 1 12.477617014659199 17.784779162259607 4.624560589027825 0 1 1
3197 1 16.59705676296028 13.92038344974072 1.50325884516478 0 0 1
448 1 16.4335171758836 15.560571940510505 3.781420691325571 -1 0 1
678 1 20.98119393820863 17.530277868303322 2.6495360363767544 0 0 0
1905 1 20.43706271763181 15.33962509002115 0.6984500363596289 0 0 1
1788 1 23.673755007713297 18.055121713788886 1.6684813566362304 0 0 1
3098 1 0.7305703758210437 21.703482306059897 2.1271155527988053 1 0 1
431 1 6.870636999763811 18.736474918735734 19.49630260006727 0 0 0
3456 1 7.053402691424263 19.94718839052713 1.3752662511833633 0 0 1
205 1 8.86614554476802 20.624243684007492 3.78528567962161 0 0 0
3119 1 5.9463729774632474 23.284325574770513 17.866926043959527 1 0 0
482 1 9.582688775663941 23.180291028543298 2.9758338270761926 0 0 1
3820 1 13.778366437181237 21.083422219994727 2.8611178246757034 0 0 0
128 1 16.865184147046115 21.26295781323609 3.228228620408327 0 0 0
2638 1 18.90895672884974 19.452151770336865 2.1619301438304417 1 0 0
3961 1 24.358811206892945 13.148148530933923 8.848937820651708 0 0 0
1691 1 3.5625700502717152 21.115062840822805 17.82105739770767 0 0 0
2880 1 4.846771275141835 23.591525562735683 3.5692553857775007 1 0 1
3222 1 17.069806289782655 4.486190009514603 0.8980074729941571 1 0 1
2478 1 3.5716761249194073 21.960525361632353 0.7056848125058226 1 0 0
2628 1 23.640188962157094 21.70056889398495 1.5776169040096284 0 0 0
3094 1 16.386498114997863 7.468319474214991 1.6080580467816097 0 0 1
4574 1 4.152763896911478 1.1813041612222208 3.8236839380112273 0 1 1
3117 1 2.330942773743824 1.691669228853439 6.034627451786619 1 0 1
1391 1 23.850381913807734 15.129285408706224 0.914446432326123 0 1 0
385 1 11.153966706560452 1.196784393382224 7.064888888492555 0 0 0
3083 1 2.3163016643899716 10.778392590517226 12.541428903874323 1 0 1
2299 1 14.75190983578832 1.9425865344859028 6.749611571286708 1 0 0
335 1 1.1373134802745826 7.635126578715148 4.442369727957569 0 0 0
2366 1 17.53214910220578 2.328739367087513 6.452925000816008 0 0 0
1132 1 23.637149146003882 1.235391895926075 6.106255293724192 0 1 0
3721 1 2.75383164025499 4.478717536630942 6.981845379653754 1 1 0
237 1 5.283116934172443 5.5879552133901145 6.515551103595548 0 0 0
2654 1 6.926543763770239 4.635195925464477 4.5545729064563405 1 0 0
3970 1 8.90787714470845 2.7899696304699333 6.234492850527713 1 1 0
886 1 10.287867816059668 5.223801763044756 3.802520554862517 0 0 1
3246 1 18.271094147025376 5.116739699676823 5.890588368655614 0 0 1
785 1 20.77630653982393 4.641478923453279 4.86829246201174 0 0 1
1413 1 4.02897034781893 0.07721834736461212 17.849860190230924 0 1 0
986 1 5.198309353717632 8.077319585886599 5.807600854166326 0 0 1
2516 1 13.29302476418988 5.575832202300316 3.5824017662706815 0 0 0
1144 1 14.156110794005327 6.812548130729417 6.267759478060029 0 0 0
4477 1 16.452799973409753 6.857546549134889 4.588102373104694 0 0 1
3243 1 17.55733305818868 9.269148285889429 5.27389811073373 0 0 1
686 1 19.377621190838337 8.658659388459798 7.385503087362491 0 0 1
947 1 23.626952147015242 8.079136299107839 5.591335087668922 0 0 1
3665 1 2.962231959834244 9.719519516402558 5.103558001166613 1 1 0
1267 1 7.563116842426882 9.705648351666285 6.421290986842992 0 1 0
2663 1 7.348536782349068 11.593902794233239 4.196946148110832 1 0 0
1052 1 10.196982100111317 9.06664721359657 5.868664211863656 0 0 1
459 1 11.567108747863202 10.82486169728528 7.142478181272712 0 0 0
160 1 13.977261454674203 9.586459436321036 6.702031014936548 0 0 0
2509 1 15.582092004529366 11.299200913152577 5.0418441169867565 1 0 0
821 1 22.06892754271326 9.568243198055518 7.175443302170309 0 0 1
1061 1 4.538615028521292 16.691564348426503 5.818110669093169 0 0 1
1977 1 4.502712547802606 13.477984125525527 3.936868557776565 0 1 1
676 1 9.407774114985374 13.693690106615742 4.33340882227804 0 0 0
1591 1 10.955396407069637 13.435217658822769 6.69332834552448 0 1 0
2342 1 15.160157753907475 12.646295002652806 7.602612583926173 1 -1 0
1226 1 19.144066993162102 11.633958862842977 4.554623398196194 0 0 0
970 1 21.713877143456454 12.044652294886895 5.760544833425703 0 0 1
2295 1 1.943606841817543 17.063322464989458 6.184656675067909 1 0 0
1224 1 6.7302463480676735 16.377813142684897 2.5879347757173377 0 0 0
4422 1 6.7162666927502785 18.11986173145545 6.602470139669723 1 1 1
1543 1 9.911836156423416 18.26492801040923 6.114075776997503 0 0 0
773 1 10.35718155828954 21.056407263332165 6.3364047484955845 0 0 1
4432 1 13.468582495570715 14.502923175911507 6.5036206132560475 1 1 1
1799 1 13.963265599483703 17.251364066271886 7.277678579815247 0 0 0
3810 1 18.46697332249624 14.1438504900482 4.954410055491959 1 1 0
2031 1 20.816919279011646 15.579971104420107 4.797161409201612 0 1 1
1330 1 4.832459188485431 20.800570419039538 3.094364316545207 0 0 0
1643 1 2.5130813100421876 20.533108359069047 4.761212911234395 0 0 0
214 1 13.894197370718151 21.663602924852377 6.986286999131245 0 0 0
4152 1 14.639458053412067 19.695855281699277 5.1134657309203275 1 0 0
2370 1 17.056330661166136 18.23673094774959 4.133704902765259 1 -1 0
1038 1 18.92428327377389 19.257845407839085 6.176540137026886 0 0 1
181 1 23.386365521837014 19.05584934314575 4.906940361544119 0 0 0
3368 1 21.517678251312123 20.46944059706657 3.3190685566933507 0 0 1
2570 1 1.2769451468033575 23.28677850716099 4.459202546149042 1 0 0
1623 1 2.767719038493465 23.586412482957297 12.385809154738276 0 0 0
3841 1 12.129677834283317 0.18294391033227672 0.4292062317253906 1 0 0
2311 1 6.606191940308327 3.576946020034039 19.78400148952331 1 0 0
72 1 11.563306874314803 23.58446253685423 6.40499701875379 0 0 0
731 1 18.6772727530152 1.2117254515766218 19.35047204331419 0 0 0
203 1 18.360790478598958 21.89498459380143 6.309998380235182 0 0 0
1016 1 20.6740641974935 22.86811271354462 4.840766549126701 0 0 1
390 1 1.274176406205602 2.908408371160402 10.365221923823052 0 0 0
2052 1 2.7774615280494737 1.430649256429432 8.752145142843263 0 1 1
3347 1 5.502895272356686 1.3920932741298464 9.499085137460316 1 0 1
278 1 11.620459810228676 2.632504479326016 9.54971036253627 0 1 0
742 1 18.27103050163157 1.3141868241462418 9.091957350045096 0 0 0
1851 1 21.09536695557369 1.1986468293134815 7.732076871152583 0 1 0
3514 1 1.6826237488166964 5.634786950008057 9.469110780659403 1 1 0
2009 1 6.152637486505403 5.260240890655623 9.044048469462691 0 1 1
2187 1 7.785617477997224 2.871767583848676 8.860562698491826 0 1 1
294 1 7.8793396743706 6.933064534082837 12.577735066239828 0 0 0
724 1 10.5957529799232 4.83626655851877 6.583411165168797 0 0 0
269 1 13.333376395917883 4.161667546475567 7.360035206658369 0 0 0
3485 1 17.238443669148133 5.6215766221217685 10.399757429344694 0 1 0
1512 1 21.555059521207184 4.964583999280239 9.356737513443916 0 0 0
2367 1 22.53585895447719 4.047020318278173 6.859010559920598 0 0 0
84 1 1.87919389104562 10.681769462567168 8.453253464003478 0 0 0
1708 1 4.139034189052486 7.020433661578467 9.698143008948847 0 1 0
313 1 4.841761114461969 9.454747909454573 8.500120594355616 0 0 0
1624 1 7.949257732847446 7.268497309371712 9.588833496032002 0 0 0
4046 1 9.996465787638511 7.249471864441206 7.992920946942782 0 1 0
1150 1 14.610425171443826 5.873518623984105 9.319332195723264 0 1 0
975 1 14.896701035511038 9.070425103113184 9.573137239134788 0 0 1
2309 1 19.102657339422034 6.028418577950128 8.45293405610398 0 0 0
1248 1 22.988841374677417 6.876915419980236 10.840369914166128 -1 1 0
186 1 3.2145320116687404 12.05164874256092 6.477834519529639 1 0 0
898 1 7.488195424755505 10.902570749214366 8.91930906062005 0 0 1
1184 1 11.928300894146966 7.646926767386931 9.879778594176733 0 1 0
2400 1 14.489258361942875 11.535963220016683 10.445878677402373 0 0 0
3464 1 17.79196236612771 9.741587488355473 9.625416649517943 0 0 1
1082 1 23.21069631994948 9.391870209027477 9.543222308693657 0 0 1
2481 1 4.186690662458339 19.276612410255986 19.891504599838427 1 0 0
310 1 4.283867630543435 14.28692513160095 7.863632802820104 0 0 0
2453 1 6.65973279800876 14.213577026265629 5.709087318390247 1 0 0
2677 1 7.818968594685229 13.723374997425731 8.366012586407635 1 0 0
291 1 11.578755489559617 13.287526389814543 11.212088969360208 0 0 0
1092 1 10.195739590902614 14.496170911355609 8.99825097174597 0 0 1
916 1 13.690203517227145 14.629495305279127 9.869141773551167 0 0 1
169 1 22.00795700474361 13.98740225168601 7.71557049555694 0 0 0
2967 1 19.56164047920509 14.432419557106162 9.378968871874802 0 0 0
993 1 0.10927993464125552 9.887169814884972 0.5890413387304541 0 0 1
168 1 6.228345318554003 20.56581659568762 5.866293901939248 0 0 0
3602 1 6.6472109388313925 17.971706827944455 9.300923187138554 0 0 0
307 1 10.208317413032274 17.121978743003705 8.437260814483587 0 -1 0
3825 1 12.635500382026585 18.138705364637076 9.235242377192561 1 1 0
348 1 16.742040758737417 17.29732269181038 7.190470571007348 0 0 0
1966 1 17.4956683171053 14.613400398298639 7.480671408599412 0 0 1
415 1 23.29634098958726 17.00180465408188 9.133156758734442 0 0 0
1066 1 1.8373646107224357 18.789167650014633 8.19883587718248 0 0 1
148 1 5.57639870190409 22.09270825200832 10.00983160157832 0 0 0
287 1 7.895694010532577 22.146760104815133 7.725533961358971 0 0 0
4338 1 12.870803859365038 20.774837542732563 9.261334079342602 1 0 1
299 1 21.263859605089316 17.85630269226704 6.747559624600082 0 0 0
828 1 20.446335792566572 19.290970775878613 9.082559228319356 0 0 1
1682 1 23.150075622307426 19.839719728217407 9.762034109908953 0 0 1
377 1 23.544433732192232 20.671840230857235 7.172540505910123 0 0 0
1004 1 22.699441542545546 8.604590814946942 0.29781556669373743 0 0 1
1036 1 3.7560390417014102 20.45851512251231 7.157306749209489 0 -1 1
2878 1 10.554670966321774 22.3908706186442 9.347484994759288 1 0 0
2885 1 19.707795360824317 17.979032726522036 18.58262398908249 0 0 0
620 1 20.7433390980605 21.006328772280156 19.5148678939031 0 0 0
189 1 16.089854338199494 23.361250253718065 7.448525470185094 0 0 0
1989 1 21.882263649039974 23.00640052111024 7.349640388115126 0 0 1
1945 1 5.9063987445787465 1.5947858954012368 12.14898046214395 0 1 0
3531 1 9.416932632377337 3.393663708946038 10.96010474442395 0 1 0
2169 1 13.459362399785283 2.5617410068461903 12.661107896985122 0 1 1
2249 1 12.615978783481086 0.43759303701997165 10.829170623293452 0 1 1
2994 1 15.889268654279823 2.066449305505687 13.452712710587031 0 0 0
2519 1 17.432111567470372 2.922982648775878 11.363630846897927 0 0 0
1073 1 11.247764113575414 19.097410178117435 2.545549542680064 0 0 1
2476 1 21.471400644214945 1.2174830556094036 10.584258754318144 0 0 0
3977 1 23.812458501602205 2.8130521409504206 9.583280732063423 0 1 0
2665 1 1.9800083820708314 7.942729412759834 13.05651154544469 1 0 0
3834 1 0.6127618525025084 2.7831757391651015 13.367848206792564 0 1 0
4171 1 7.325620257076602 4.897546047766371 14.348686031778021 0 1 0
2474 1 13.56807222600038 5.21858962559804 12.004386286818557 1 0 0
1794 1 20.269191489603255 4.128020718425018 11.68247139651436 0 1 0
2278 1 4.710920876501181 6.625994361459938 12.450059289298325 1 0 0
3692 1 9.036798835626083 9.61312325557108 10.673560246667249 1 1 0
1282 1 10.620686945546971 6.0611731980810095 11.855047084811279 0 1 0
1446 1 18.13982065525364 7.812959224237483 11.549222372426161 0 1 0
668 1 20.766187283938613 7.834982142712294 12.215273376731876 0 0 0
2930 1 1.2986169308670303 24.34165056625534 16.661800705174315 0 -1 0
1578 1 4.067969661366454 11.153527546760788 10.435859305087687 0 0 0
557 1 6.0164365381342835 9.46775508944029 11.572815334285005 0 0 0
4436 1 11.829017517840283 10.54388576205948 9.898615242882212 0 1 1
3537 1 11.688573079012262 10.642230956697839 13.472438057415491 0 0 0
1055 1 14.575843755946229 10.492797330736598 13.412090616030914 0 0 1
3085 1 16.48828674741641 14.86295611985226 10.548189571730953 0 0 1
3827 1 19.147159089703315 12.196201139634313 10.759757886711188 0 1 0
586 1 21.846702126542244 10.909967764149995 11.759968237602333 0 0 0
356 1 7.473507931121758 24.384633335363056 4.454993954656991 0 0 0
3888 1 3.9507468674143715 13.92127048627853 10.76502595342942 0 1 0
3429 1 6.452921412120607 15.198638246886425 10.298422624608007 0 0 1
3880 1 6.947483654412787 14.700255843602855 12.92311931280171 1 0 0
609 1 11.52996769548159 15.673242378340666 12.856868984788733 0 0 0
1275 1 15.084116452299826 12.984319813185753 14.957580701580119 0 1 0
3442 1 18.03663337717807 16.82050586662602 11.579332906214107 0 0 1
2251 1 16.72351738029689 12.873735817923395 12.296877968467758 0 1 1
3423 1 14.654584567304793 1.3540971602057454 1.1195560652033438 0 0 1
578 1 0.5258841015712242 16.97488495750279 15.765414946714866 0 0 0
3427 1 1.942836925130252 15.774559302201103 11.437206348745404 1 0 1
854 1 8.90206766675277 18.480244389998273 10.464788514196767 0 0 1
392 1 9.006533665382726 16.695963952433296 12.519094946708664 0 0 0
351 1 11.221796389675152 19.32293891903063 13.184220228457562 0 0 0
1174 1 13.300015995268655 17.112173091469842 11.435393229124303 0 1 0
3979 1 15.659540694331218 18.384803732174284 12.281129205721578 0 0 0
810 1 20.654769971373884 16.646810432777762 10.685213589245052 0 0 1
353 1 0.9411262788658763 18.16313066065589 13.52177641387249 0 0 0
1867 1 4.288066364714861 19.321342243738343 9.917355418268597 0 1 0
1744 1 3.613544375253355 17.667719851612098 12.605877282951898 0 0 0
1139 1 4.096422291955802 20.808530854191048 12.740214524268971 1 1 0
1398 1 8.695174199781821 21.19839025377118 10.990865898610375 0 0 0
2617 1 10.484490992435386 22.187731915833275 13.288254328729652 1 0 0
1489 1 14.478857871812853 21.137826712993036 11.503349043970026 0 0 0
2828 1 17.450018768626943 19.246223245745025 9.179103830045895 1 0 0
1688 1 18.10540368861935 21.49338522306456 12.89229619648084 0 0 0
1722 1 22.780989217967438 21.18583257665496 12.054820608472804 0 0 0
268 1 0.0247881840637061 14.585568340377483 12.904761976536971 0 0 0
994 1 0.09456208894307028 18.626152027289912 4.490235618216716 0 0 1
34 1 6.472324244956036 22.249720829283877 12.777678035921207 0 0 0
661 1 13.249709695686725 22.910499054093624 13.535533186292326 0 0 0
53 1 16.362780273739187 23.414898573571858 14.241597344073764 0 0 0
85 1 16.857322338948595 22.412634621573645 10.133868370426049 0 0 0
37 1 20.521865241203166 22.792873061608198 12.791970130301042 0 0 0
2522 1 19.91799098492987 23.946090624933426 15.418129035315664 0 0 0
2426 1 19.920164373504612 22.006899641678473 8.931880218036063 1 0 0
97 1 1.4798899341231302 14.776868332389265 8.045579920048365 0 0 0
1854 1 16.103763650283664 22.21131842343308 16.934069058419603 0 0 0
2320 1 21.67305231734935 15.933990754648704 17.012132238813404 0 0 0
650 1 22.46969447291526 0.06794897487970378 14.629709630278764 0 0 0
102 1 2.8916478438100364 2.741819172924727 15.070451972567438 0 0 0
1547 1 8.78404870835976 2.928486168816354 15.073733588469278 0 0 0
991 1 11.67236359674506 2.0133135449591473 14.862665493672033 0 1 1
1121 1 19.7176013580599 0.45194153385230984 14.600743182195815 0 1 0
4392 1 22.928788225362617 21.775931764470233 16.805627262209995 0 0 1
496 1 19.261053648648456 2.9264778857204896 15.913597653525022 0 0 0
167 1 18.863637816331156 16.35711411319277 16.250889493624953 0 0 0
2611 1 24.46582170908305 11.376261378001638 0.6400115880827958 0 0 0
3624 1 2.521969336109176 3.992003637224159 17.510190634618525 1 1 0
558 1 5.003125333661633 3.8269736127198346 13.56623116719629 0 0 0
1340 1 8.583463317180922 1.5414470286725903 12.552106812549845 0 1 0
2691 1 12.757306080994072 3.967007690249302 16.656963098844628 0 0 0
2520 1 16.805226331798167 4.053194242513013 15.17202212071409 0 0 0
281 1 17.860005658431653 6.788730882589792 15.58019957693081 0 0 0
121 1 21.23496366402337 4.442522431524796 14.391919247509517 0 0 0
3012 1 23.964408213905177 3.92341573817233 14.246718328613554 1 0 0
2823 1 23.923171168273388 17.630477347615855 18.03172679354671 0 0 0
1364 1 1.2267288634610147 7.800234837794418 15.575739564930068 0 1 0
2372 1 7.052273566170698 6.520153732013342 16.62766208366239 0 0 0
41 1 8.457221050379282 8.583823320643956 15.261013050543399 0 0 0
1504 1 10.867883861407032 7.998978236255989 13.89956733414563 0 1 0
2471 1 14.810820321104325 6.356683112943289 14.28238017872434 0 1 0
1102 1 12.4541423662842 6.8649006860332715 15.954320598531286 0 0 1
1233 1 20.47905474037097 7.2478680783081915 14.71867602704947 0 1 0
373 1 17.344612781894234 19.630912737618385 19.830307346861893 0 0 0
2910 1 21.497390990571255 9.0730008607259 16.466083108044856 0 0 0
1008 1 12.28935964532459 7.697983916473866 1.831051892506195 0 0 1
2300 1 2.020139000380295 10.801576301514771 16.071536373718544 1 0 0
492 1 6.284696027497003 10.15842688874965 14.242214121998808 0 0 0
100 1 10.66517100673019 12.27537126571163 15.321154545615133 -1 0 0
3501 1 17.085235180743563 10.464274586065203 15.379560889252064 1 0 0
3478 1 16.400951162272836 8.408482076420203 13.69131020901812 0 1 0
4135 1 14.858085720997353 13.065153259130227 17.913808772170178 0 1 0
155 1 20.955611046818333 12.580005846693991 13.815907974109935 -1 0 0
922 1 22.721333667919296 11.70326699537483 16.182183796389978 0 0 1
3000 1 2.3580841640291825 13.497809824281598 14.68202767891364 0 0 0
1482 1 4.780843976959321 12.369713813524607 13.605973900315497 0 1 0
2129 1 7.897864172478884 12.929059837737812 15.218474666092595 0 1 0
3813 1 12.461496274301453 14.4378759974044 15.192822611143253 1 0 0
1595 1 17.645278843162927 13.825794210801693 15.992392358809472 0 0 0
3749 1 0.14676622825463903 4.080433096543333 0.33587626900872286 1 1 0
3035 1 22.82557405317204 15.014644088701823 13.905168898508842 0 0 0
2944 1 4.430980423360082 15.55215401460211 14.24945027304503 1 0 1
2576 1 9.352833544075919 17.979814577167005 14.93848104625849 1 0 0
2710 1 15.605018313655423 18.183097174437197 14.853353579238952 0 0 0
3007 1 19.08827837459083 14.602233612097852 13.388532972501567 0 0 0
372 1 19.269296348752064 19.490843945228978 14.467477500611562 0 0 0
337 1 21.00981972469692 17.44218920362149 13.425412559554024 0 0 0
2567 1 23.34618634152863 18.93664915406177 13.44600451537315 0 0 0
4122 1 1.6095650987479664 21.040247817508636 14.148890137736975 1 0 0
3305 1 6.7414972143714404 18.311980096598614 16.495836941975348 1 0 1
2555 1 5.203192398881358 20.535055923284226 15.688458028326314 1 -1 0
3831 1 9.198320266005668 20.979708802398058 15.851541235409524 0 0 0
4314 1 12.910209600804558 19.095896409284304 15.485351343464687 1 1 1
2247 1 13.480568742923705 21.83211455325144 16.154267842612555 0 0 1
4564 1 17.279739693390162 19.72827942701951 16.57737704267498 0 0 0
2897 1 20.16037018562474 21.28506157751559 16.593388539313565 0 0 0
2089 1 3.9694487659049487 0.6041937221317922 1.0375189773332962 0 1 1
1005 1 1.1502281554238096 21.700313662409908 16.88334835511684 0 0 1
2997 1 7.121731236416846 22.812661579584155 15.571453807781007 1 -1 0
2443 1 11.018946542618835 23.207668310148584 16.542514174720218 1 0 0
706 1 1.0460878441531751 12.971026876422481 17.80548778845332 0 0 0
2821 1 1.4489452184369285 13.936624637779731 2.7906648146939097 1 0 0
445 1 1.8434631407893234 1.6451623685001031 18.5807517314312 0 0 0
98 1 7.618785993013911 0.653630041182164 15.874603056621359 0 0 0
2547 1 6.465996337279651 1.1232511976639186 18.26946740358318 1 0 0
201 1 10.692494759792831 1.0396526144941431 19.2040278196078 0 0 0
1727 1 10.28129216787531 3.3444904778135442 18.036217486077152 0 1 0
1221 1 15.40041589820957 3.4249497009824794 17.415038137188507 0 1 0
1699 1 15.457530190847908 1.0020532084266114 18.84677909687793 0 1 0
3557 1 17.12490646633591 16.222331157439417 18.437445994961784 1 1 0
3091 1 19.754222162012 3.5080570792012344 18.686620209278136 0 0 0
3029 1 23.628485749663774 0.6163011346938554 17.159917123516653 0 0 0
3949 1 22.012344610360792 1.6005547095080312 19.16359105597274 1 1 0
2729 1 0.9829002485761917 6.520041538455737 19.314999821324484 1 0 0
3666 1 3.802199019245339 6.529351857548942 19.3722543689892 1 1 0
2802 1 8.495562432119986 5.307681833652696 18.588933966562408 0 0 0
3735 1 24.561457610039895 11.666600756832638 11.27846604743136 0 0 0
1168 1 16.45146624033653 5.438036582534427 19.30246824809524 0 1 0
1644 1 9.46491624631991 20.12435028674862 18.472886141785335 0 0 0
1892 1 0.5236682195175905 13.475406045487086 5.6750009361722515 0 0 1
4553 1 8.837360546921719 0.5850697575782984 4.358511970487166 1 1 1
2106 1 4.028916572697296 6.624199379768787 16.56380607962403 0 0 0
656 1 17.369366000360372 13.506254274579682 19.074009218316554 0 0 0
290 1 12.87396426058209 8.95130223298438 17.843304633579862 0 0 0
2360 1 13.609253295500727 6.653580887827116 19.473167130976037 1 0 0
2870 1 17.073128032240753 8.073809624153661 18.501135540070575 0 0 0
3212 1 1.5059218333253666 10.960378824796607 2.8472651404295535 1 0 1
1783 1 19.569345115217743 9.219100312514241 18.494042984038284 0 1 0
2640 1 23.20667318594209 7.681284867981624 18.48544439375828 1 0 0
1852 1 13.581435289286839 16.729440150361935 19.196160165606084 0 0 0
4167 1 4.46785444718756 9.341038895894094 16.12101706635818 1 1 0
2893 1 5.706715280911721 10.143033088714601 18.6177566732062 1 0 0
251 1 8.231039092952493 9.407827890791715 17.9310069200804 0 0 0
1810 1 10.873578188552708 10.922596434486785 17.687423266838227 0 1 0
206 1 15.416101864219186 10.091605218687823 17.607572187047534 0 0 0
4223 1 22.216075496593653 13.256094606956163 18.55876235742579 0 0 0
774 1 19.548978194170953 11.703724337451336 16.207911290778323 0 0 0
4396 1 22.32927193657472 0.4135573420230923 1.252405457801696 0 1 1
510 1 5.269775307669552 15.99875386291017 16.741378292437144 0 0 0
3061 1 7.092675062789637 13.879877549666567 17.696098645956567 0 0 0
1231 1 14.773432542107168 16.013687083213394 16.68711500974682 0 1 0
3055 1 11.9631853346599 13.961024538847123 18.09983577339631 0 -1 1
682 1 19.69532070243599 11.99686605137181 19.090508825737803 0 0 0
4186 1 2.2360550073463905 15.15647840385226 17.069520217634228 0 1 0
1099 1 3.632086455815693 16.717487783891325 19.29162539474353 0 0 0
515 1 8.164843408905014 16.20826790361754 18.6569958789948 0 0 0
1261 1 11.587435033939434 18.343010008119155 17.946952420320248 0 0 0
1270 1 10.285784235106282 16.20727367446479 16.856954814145062 0 0 0
1579 1 16.806405469965995 22.404086447725007 19.967940828698026 0 0 0
2147 1 8.148773364689358 23.897112480190465 0.3982038524951791 0 0 1
1934 1 15.203712438447178 20.76471433384024 0.2998049027158092 0 1 1
887 1 24.076089272700784 11.25020797733065 4.586805064462597 0 0 1
537 1 24.355479271906837 4.950906180399449 18.724563555879683 -1 0 0
2750 1 0.01713467588187001 19.057004351754724 1.6577410266737929 1 0 0
3705 1 19.68917421582905 24.278699288464146 10.5921332886193 0 0 0
1031 1 11.302544487001246 23.180839917767962 0.3963493239387298 0 0 1
2613 1 24.224160474739346 9.293292947429764 2.7043829551676697 0 0 0
4350 1 0.10787930723721206 3.948246034457606 3.266000816508188 1 1 1
2787 1 0.040023766791593085 5.428768190406621 16.551567736075416 1 0 0
323 1 16.645593885987694 0.1243720691025956 2.0171004571514835 0 0 0
3308 1 20.43524088148024 0.3416024480699017 4.537836434228173 0 0 1
3709 1 23.313942368526078 21.498944765277678 20.06012953825287 0 0 0
815 1 3.2567291326418983 23.581014634327467 19.848238583806346 0 0 0
19 1 7.7250166084852845 1.7968745206267323 0.258382846215774 0 0 0
4189 1 1.8432669098380678 2.550600696268928 21.19031641882857 1 1 0
2631 1 7.852156931672671 2.5960390144840204 22.270098239372054 1 0 0
2088 1 22.534239230534983 24.41695377878641 26.162396321493137 0 0 0
4465 1 22.68352537631016 19.128424585897825 35.17955672856613 0 0 0
1195 1 24.460957007001774 9.3173872148515 33.67687299390727 0 1 0
3881 1 17.796291607427616 1.670186410443198 22.153309232677802 0 1 0
1243 1 20.495704686721794 1.60694146957291 23.213909380458563 0 1 0
4514 1 23.49144752454392 8.344949027120817 36.981635966899475 1 1 0
2937 1 4.11892372183226 4.413680288499361 21.08175908022052 1 0 0
2643 1 7.524443746962291 5.510421790927124 23.197023307920965 0 0 0
2155 1 10.515270782147068 6.308336277816993 22.294817294613146 0 1 0
3534 1 12.568911523419768 2.937916611804864 21.418272035893313 0 1 0
2634 1 17.805589435749045 4.373502874824598 21.460780516941746 1 0 0
1309 1 16.04449513510214 5.821298423089299 23.17386680648648 0 1 0
1537 1 24.35859601103533 22.62297345613581 36.43232516379217 0 0 0
78 1 21.021278630567004 4.650507407644284 24.13565420759824 0 0 0
2946 1 3.6081837718646153 7.81089324518718 24.9653988259712 0 0 0
499 1 0.09801562751948736 15.600497918166948 39.08561521334071 0 0 0
1716 1 7.106098454183361 7.924342632349295 21.6125150782863 0 0 0
665 1 14.734022076549445 7.810965843161892 21.804101127347344 0 0 0
2568 1 21.30456927942045 9.32887993813062 22.614037461076876 0 0 0
1773 1 2.719809822693912 9.807469859335788 22.649135140308047 0 1 0
962 1 6.976194015304694 10.609239127334003 22.726727944295742 0 0 0
2822 1 1.0151510981308964 12.123000695800169 22.996148346510417 1 0 0
2623 1 11.278568628298096 11.756315323659518 22.39554281233191 0 0 0
4058 1 22.725905401189056 0.45079287964983955 21.804121573353726 0 1 0
2690 1 18.44877571340715 10.2267023831411 23.162168703440873 0 0 0
4071 1 23.735161678839905 9.203440084120025 23.756624079078936 0 0 0
1701 1 1.0957988636002054 13.878403809415667 20.677409653870033 0 0 0
1217 1 5.851010846423003 13.651810328457906 22.398770020723116 0 0 0
4121 1 3.337893250701501 15.159082519272676 21.73501424987046 1 1 0
2746 1 13.2808110497959 0.44585187237874413 20.290287501025986 1 0 0
512 1 9.11502608288845 14.965025981694668 21.064673404871062 0 0 0
2429 1 16.94713280545098 14.340388024344726 22.038280764899472 1 0 0
4473 1 19.359301394267504 12.56038501892782 21.81525657182431 0 1 0
2607 1 23.584446596647833 14.04887222478585 21.029761490809534 0 0 0
644 1 8.413634364958012 0.21603152433333264 20.623466574438687 0 0 0
4185 1 1.6778691735422768 17.064472471056554 23.527092328403814 1 0 0
3809 1 7.15888686193233 19.569415530163734 22.389880062173212 1 0 0
101 1 11.63476949688962 16.38709142538442 21.439348544210375 0 0 0
1944 1 23.521876956163293 17.353095256039555 22.163404786910213 0 0 0
1785 1 16.490335530156294 17.14679364799524 23.545347756329516 0 0 0
1657 1 19.827734600199463 15.609207836540191 22.61296238957721 0 0 0
502 1 21.39127800848789 16.107196092183578 20.210560193934153 0 0 0
3836 1 0.4943071422666011 20.8116876453649 21.389994846071506 1 0 0
2217 1 2.873272373693995 19.825953033505023 22.301936824837423 0 0 0
2413 1 13.714294507598852 19.95320508015564 22.554738261301225 1 0 0
1561 1 1.3338078332737442 0.4111954890019473 36.05960688325607 0 1 0
326 1 19.06590685545966 20.241184541694988 21.895319502571787 0 0 0
1519 1 19.26150097498354 18.195132062896107 23.684077004337368 -1 1 0