
# read in water data
read_data data.liquidML_500_240K group water extra/atom/types 1
Reading data file ...
  orthogonal box = (0.0000000 0.0000000 0.25263295) to (49.220000 49.019636 59.809367)
  2 by 2 by 3 MPI processor grid
  reading atoms ...
  4609 atoms
  reading velocities ...
  4609 velocities
  read_data CPU = 0.010 seconds

# remove area for graphite
region substrate block 0 ${XDIM} 0 ${YDIM} ${Z_LO} ${Z_HI}
region substrate block 0 49.22 0 ${YDIM} ${Z_LO} ${Z_HI}
region substrate block 0 49.22 0 49.019635930410494 ${Z_LO} ${Z_HI}
region substrate block 0 49.22 0 49.019635930410494 25 ${Z_HI}
region substrate block 0 49.22 0 49.019635930410494 25 35.062
delete_atoms region substrate
Deleted 777 atoms, new total = 3832

# Insert substrate
read_data data.graphite add append shift 0.0 0.0 ${Z_LO} group graphite offset 1 0 0 0 0
read_data data.graphite add append shift 0.0 0.0 25 group graphite offset 1 0 0 0 0
Reading data file ...
  orthogonal box = (0.0000000 0.0000000 0.25263295) to (49.220000 49.019636 59.809367)
  2 by 2 by 3 MPI processor grid
  reading atoms ...
  2760 atoms
  reading velocities ...
  2760 velocities
  read_data CPU = 0.012 seconds


# Define potential
# CHECK ON THIS %%%%%%%%%%%%
#
pair_style sw
pair_coeff * * MLC_e.sw mW C


# Delete water and ice atoms that are overlapping
#
delete_atoms overlap 2.5 water graphite
System init for delete_atoms ...
Neighbor list info ...
  update every 1 steps, delay 10 steps, check yes
  max neighbors/atom: 2000, page size: 100000
  master list distance cutoff = 6.6747184
  ghost atom cutoff = 6.6747184
  binsize = 3.3373592, bins = 15 15 18
  2 neighbor lists, perpetual/occasional/extra = 1 1 0
  (1) command delete_atoms, occasional, copy from (2)
      attributes: full, newton on
      pair build: copy
      stencil: none
      bin: none
  (2) pair sw, perpetual
      attributes: full, newton on
      pair build: full/bin/atomonly
      stencil: full/bin/3d
      bin: standard
Deleted 103 atoms, new total = 6489

# set timestep
#
timestep 10.0

# Define output
#
compute 1 all msd
compute 2 water temp
thermo 50
thermo_style custom step c_2 press vol etotal ke pe c_1[4]

# Neighbor lists
#
neigh_modify delay 0 every 1 check yes


# Fix graphite atoms in place
# CHECK ON THIS %%%%%%%%%%%%%%%%%%%%
#
fix 1 graphite setforce 0.0 0.0 0.0
velocity graphite set 0.0 0.0 0.0


### NEW FOR TESTING

# Set fixes

#fix             2 water momentum 10 linear 1 1 1 rescale
#fix             3 all nve
#fix             4 water temp/csvr ${TEMP} ${TEMP} 500.0 837493
#fix             5 water press/berendsen z ${PRES} ${PRES} 1000.0 modulus 20000

# Run 0.5 ns equilibration

#timestep 5.0

#dump		    1 all atom 2000 testnve.${NAME}.dump

#reset_timestep  0

#run	            50000

#write_data		testdata.eq-${NAME}-${TEMP}
#undump          1

#reset_timestep  0

#unfix           3
#unfix           4
#unfix           5

### END NEW FOR TESTING



# Set fixes
#
fix 2 water momentum 10 linear 1 1 1 rescale
fix 3 water nph z ${PRES} ${PRES} ${PCOUPL}
fix 3 water nph z -500 ${PRES} ${PCOUPL}
fix 3 water nph z -500 -500 ${PCOUPL}
fix 3 water nph z -500 -500 10000.0
fix 4 water temp/csvr ${TEMP} ${TEMP} ${TCOUPL} 837492
fix 4 water temp/csvr 240 ${TEMP} ${TCOUPL} 837492
fix 4 water temp/csvr 240 240 ${TCOUPL} 837492
fix 4 water temp/csvr 240 240 5000.0 837492


# Run 0.25 ns equilibration of water
#
dump 	1 all atom 2000 testnph.${NAME}.dump
dump 	1 all atom 2000 testnph.ML_graphite_m500atm_240K.dump
run 	25000
Neighbor list info ...
  update every 1 steps, delay 0 steps, check yes
  max neighbors/atom: 2000, page size: 100000
  master list distance cutoff = 6.6747184
  ghost atom cutoff = 6.6747184
  binsize = 3.3373592, bins = 15 15 18
  1 neighbor lists, perpetual/occasional/extra = 1 0 0
  (1) pair sw, perpetual
      attributes: full, newton on
      pair build: full/bin/atomonly
      stencil: full/bin/3d
      bin: standard
Per MPI rank memory allocation (min/avg/max) = 4.544 | 4.550 | 4.558 Mbytes
Step c_2 Press Volume TotEng KinEng PotEng c_1[4] 
       0    242.97129    -1191.988     143695.3   -34728.414    2700.0087   -37428.423            0 
      50    251.77116   -1984.5008    143456.98   -34760.502    2797.7969   -37558.299   0.58916059 
     100    255.42264    -2060.782    142543.76   -34792.099    2838.3739   -37630.473    1.0236519 
     150     256.7076   -1167.5888    141345.23   -34809.639    2852.6529   -37662.292     1.402908 
     200     256.7061   -1235.5459    140473.39   -34900.422    2852.6362   -37753.058    1.8042401 
     250    252.27352   -1141.2387    139831.49   -34926.827    2803.3794   -37730.207    2.1619268 
     300    260.38724   -1282.2073    139218.15   -34913.706    2893.5427   -37807.248    2.4427659 
     350    252.60134   -1180.5304    138628.71   -34977.565    2807.0222   -37784.587    2.8029327 
     400    253.98246   -988.43812    138120.86   -35011.259    2822.3699   -37833.629    3.1438576 
     450    253.18794   -770.81097    137703.34   -35007.877    2813.5408   -37821.418    3.5309355 
     500    255.03238   -1057.0135    137380.54   -35055.245    2834.0371   -37889.282    3.8718036 
     550    249.32074   -1051.7642     137128.3   -35089.609    2770.5668   -37860.175    4.2616638 
     600    255.67832   -1124.7909    136843.09   -35113.434     2841.215   -37954.649    4.4779165 
     650    251.48065   -1040.0522    136516.14   -35132.472    2794.5686   -37927.041    4.8133058 
     700    244.71536   -1043.3273    136169.83   -35155.423    2719.3896   -37874.813    5.2018354 
     750    250.34376   -630.44346    135869.06    -35186.41    2781.9349   -37968.345    5.5169416 
     800    246.04894   -566.33338    135686.73   -35191.448     2734.209   -37925.657    5.8599713 
     850    242.98452   -636.05073    135533.82   -35188.889    2700.1558   -37889.045    6.1673728 
     900    247.81355   -891.61302    135423.37   -35196.919    2753.8181   -37950.738    6.5218784 
     950    253.88261   -684.91511    135333.98    -35210.96    2821.2603    -38032.22     6.775462 
    1000    250.21481   -431.27287    135256.16   -35222.541     2780.502   -38003.043    6.9951554 
    1050    249.26863    -1025.405    135224.09   -35246.141    2769.9876   -38016.129    7.3243648 
    1100    244.87225   -852.06992    135100.89   -35268.555     2721.133   -37989.688    7.5844902 
    1150    247.55115    -939.4717    134910.63   -35284.085    2750.9022   -38034.988    7.8258134 
    1200    241.51637   -1104.3976    134707.69   -35309.826    2683.8409   -37993.667    8.1543852 
    1250    250.85588    -889.6832    134477.29   -35327.006    2787.6259   -38114.632    8.4533281 
    1300    246.79701   -450.80797    134310.55   -35353.516    2742.5219   -38096.038    8.8528898 
    1350    243.44997   -412.23007    134218.57   -35371.986     2705.328   -38077.314     9.178671 
    1400    245.72377   -852.88604    134168.37   -35370.228    2730.5956   -38100.823    9.6153852 
    1450     239.7492   -845.62382    134126.18   -35367.006    2664.2034    -38031.21    9.8579847 
    1500    245.19282   -662.11323    134098.41   -35386.948    2724.6954   -38111.644    10.134206 
    1550    248.27951   -687.26845    134103.41    -35398.75    2758.9961   -38157.746    10.391112 
    1600    244.90949   -823.55281    134162.84   -35402.708    2721.5468   -38124.254    10.664325 
    1650    240.82623   -658.71963    134159.02   -35415.964    2676.1718   -38092.136    10.781148 
    1700    246.93127   -985.82341    134133.32    -35409.09    2744.0138   -38153.104    10.989321 
    1750    239.36287      -1136.6    134093.44   -35422.152    2659.9102   -38082.062    11.266986 
    1800    240.01091   -1099.8222    133999.27   -35408.914    2667.1116   -38076.025    11.556386 
    1850    243.28135    -616.5122    133916.25   -35403.642    2703.4542   -38107.096    11.738606 
    1900    248.73458   -593.13191     133972.6   -35386.007     2764.053    -38150.06    11.926396 
    1950    244.69796   -855.29102    134089.77   -35380.372    2719.1963   -38099.568    12.087176 
    2000    245.44607   -835.33904    134232.61   -35363.984    2727.5097   -38091.494    12.254363 
    2050    243.35923   -1035.9365    134317.65   -35384.767    2704.3196   -38089.087    12.320452 
    2100    244.57492   -845.24931    134321.17   -35398.436     2717.829   -38116.264    12.524355 
    2150    237.33827   -847.66981    134275.58   -35399.918     2637.412    -38037.33    12.751918 
    2200     245.4217   -1079.7574     134148.5    -35392.55    2727.2388   -38119.789    13.135836 
    2250    240.13866   -923.56092       133961   -35398.305    2668.5312   -38066.836    13.402129 
    2300    244.96958   -608.82954    133820.05   -35377.348    2722.2147   -38099.562     13.82538 
    2350    245.89266   -746.18595    133748.13   -35354.045    2732.4723   -38086.517    14.278759 
    2400    242.65766   -338.33917    133749.09   -35364.258    2696.5235   -38060.781    14.569799 
    2450    248.17873     -845.445    133841.71   -35361.074    2757.8762    -38118.95    14.711141 
    2500    244.92752    -653.4512    133873.13   -35339.095    2721.7473   -38060.842    14.890506 
    2550    250.37075   -510.72643    133903.76   -35337.114    2782.2349   -38119.349     15.13572 
    2600    245.09156   -587.31692    134018.68   -35344.981    2723.5701   -38068.551    15.409017 
    2650    246.17974   -539.78182    134174.82    -35317.75    2735.6625   -38053.413    15.512383 
    2700    247.70127   -972.31769    134344.37   -35315.878    2752.5704   -38068.449    15.733658 
    2750    241.38694    -451.3282    134461.41   -35341.685    2682.4027   -38024.087    15.841524 
    2800    245.92572   -1012.0215    134530.04   -35343.283    2732.8397   -38076.122     16.04145 
    2850    243.11761   -947.49089    134514.53   -35365.624    2701.6346   -38067.258     16.46835 
    2900    238.22833   -894.71291    134438.33   -35388.772    2647.3028   -38036.075    16.636892 
    2950    244.65048   -1004.5121     134295.7   -35401.972    2718.6687   -38120.641    16.878937 
    3000    249.51529   -797.42546    134148.17   -35391.688    2772.7286   -38164.416    17.182396 
    3050     244.1775   -409.39372    133983.39   -35409.004    2713.4126   -38122.417    17.344799 
    3100    241.09874    -431.6592    133906.01   -35407.159    2679.2001   -38086.359     17.64346 
    3150    240.31219   -762.10746    133914.56   -35425.611    2670.4596    -38096.07     17.94798 
    3200    245.46919   -292.20947       133957   -35419.925    2727.7665   -38147.691    18.053544 
    3250    242.50519   -430.02784    134121.73   -35415.034    2694.8292   -38109.863    18.237963 
    3300     250.0886   -379.40996    134355.58   -35403.379    2779.0995   -38182.478    18.434081 
    3350    243.84931   -850.29267    134597.37   -35356.394    2709.7656    -38066.16    18.509467 
    3400    245.96571   -762.21621    134823.47   -35392.998    2733.2841   -38126.282     18.53477 
    3450    244.21204    -942.8758    134999.31   -35412.153    2713.7965   -38125.949    18.776126 
    3500    241.41049   -768.80869    135079.63   -35412.856    2682.6644    -38095.52    18.909499 
    3550    244.10946   -648.12053    135137.18   -35396.582    2712.6565   -38109.238    19.065568 
    3600    245.02971    -785.3829    135189.28    -35413.87    2722.8828   -38136.753    19.133615 
    3650     246.2071   -953.09198    135164.13   -35427.613    2735.9665    -38163.58    19.378145 
    3700    246.63693   -647.35885    135052.68   -35436.484     2740.743   -38177.227    19.637233 
    3750      243.192   -466.67583    134952.51    -35459.28    2702.4613   -38161.741    19.910178 
    3800    244.82971   -736.09863    134868.81    -35468.03    2720.6604    -38188.69     20.07753 
    3850    241.42222   -801.61424    134740.16   -35475.925    2682.7947    -38158.72    20.292035 
    3900    244.61587     -835.952    134585.17   -35482.184     2718.284   -38200.468    20.605624 
    3950    242.11864   -568.27385    134455.24   -35468.102    2690.5337   -38158.636    20.762347 
    4000    238.76665   -676.70134    134421.93   -35476.385    2653.2848   -38129.669    21.150906 
    4050    244.43996   -720.80066     134497.7   -35475.082    2716.3293   -38191.411    21.476823 
    4100    243.66486   -815.05574    134575.81    -35474.82    2707.7159   -38182.536    21.722403 
    4150    243.98414   -404.03579    134642.74   -35465.948    2711.2639   -38177.212    22.001955 
    4200    239.26516   -575.45915    134711.56   -35466.588    2658.8245   -38125.412    22.193923 
    4250    241.17792   -841.66699    134829.46   -35456.785      2680.08   -38136.865    22.444696 
    4300    243.73328   -913.28346    134927.59   -35465.342    2708.4762   -38173.819    22.622161 
    4350    243.75038   -945.31532    134940.65   -35479.532    2708.6664   -38188.198    22.907608 
    4400    246.10218   -937.06927    134890.33   -35479.047    2734.8006   -38213.848    23.133771 
    4450     247.2323   -552.01933    134856.79   -35444.624     2747.359   -38191.983      23.4939 
    4500    243.81474   -627.97299    134876.06   -35424.369    2709.3815    -38133.75    23.795133 
    4550    244.54232   -664.70983    134920.74   -35403.699    2717.4667   -38121.165    24.163972 
    4600    246.26851   -887.52415    134972.06   -35415.719     2736.649   -38152.368    24.418094 
    4650     246.4351   -846.41696    135038.75    -35387.69    2738.5002    -38126.19    24.641451 
    4700    245.58396   -958.12852    135112.36   -35372.571    2729.0419   -38101.613    24.730242 
    4750    247.17009   -1295.6462    135149.17   -35387.397    2746.6677   -38134.065    24.799633 
    4800    249.45883   -1021.3124     135078.5   -35393.816    2772.1012   -38165.917    24.974682 
    4850    241.96639   -917.59469    134918.91   -35398.732    2688.8418   -38087.574    25.159743 
    4900    245.24675   -956.09877    134690.94     -35407.2    2725.2947   -38132.495    25.494832 
    4950    246.05306   -712.38417    134427.69   -35405.076    2734.2548    -38139.33    25.859998 
    5000     242.9303   -770.35005    134227.33   -35424.913    2699.5532   -38124.466    26.088158 
    5050    243.92953   -803.16966    134086.56   -35446.279    2710.6571   -38156.936    26.413618 
    5100    241.86194   -486.66174    133992.51   -35447.749    2687.6812    -38135.43    26.366679 
    5150    237.96207   -591.53354    133930.54     -35463.6     2644.344   -38107.944    26.630538 
    5200    245.54503   -738.95234     133943.4   -35470.995    2728.6093   -38199.605     26.59693 
    5250    240.60347   -390.92357    134033.53   -35462.405    2673.6964   -38136.101    26.817074 
    5300    241.30781   -790.07479    134179.91   -35452.035    2681.5233   -38133.558    27.024892 
    5350    240.18892   -882.65779       134287   -35436.487    2669.0898   -38105.576     27.37833 
    5400    241.78046   -431.71444    134337.54   -35462.986    2686.7756   -38149.761    27.690773 
    5450    239.86955   -675.50399     134429.5   -35454.429    2665.5408    -38119.97    27.924568 
    5500    243.35641   -637.17131    134529.41   -35451.545    2704.2884   -38155.833    28.044254 
    5550     244.4955   -597.38891    134617.08   -35481.089    2716.9464   -38198.036    28.229789 
    5600    240.77217   -967.88425       134694   -35511.158    2675.5711   -38186.729    28.456383 
    5650    237.66516   -1132.8866    134679.21   -35568.738    2641.0446   -38209.783    28.754216 
    5700    243.20211   -563.83451    134569.88   -35561.866    2702.5737   -38264.439    28.905906 
    5750    242.10172   -590.83638    134499.65   -35548.879    2690.3456   -38239.225       29.112 
    5800    235.77023   -787.96667    134475.77   -35547.189    2619.9872   -38167.176    29.320978 
    5850    239.51992    -837.0227     134436.6   -35516.577    2661.6554   -38178.232    29.598008 
    5900    242.24221   -694.00605    134388.16   -35533.343    2691.9068   -38225.249    29.871905 
    5950    238.45027   -835.32973     134394.2   -35545.801    2649.7691    -38195.57    30.123106 
    6000    238.55505   -773.99023    134364.59    -35547.97    2650.9334   -38198.903    30.213796 
    6050    239.69804   -656.73818    134319.67   -35513.291    2663.6348   -38176.926    30.284737 
    6100     242.4374   -661.67297    134306.32   -35528.783    2694.0759   -38222.859    30.569708 
    6150     240.6161   -318.17528    134336.19   -35516.494    2673.8367   -38190.331    30.734571 
    6200    243.30226   -592.53199     134360.3   -35526.735    2703.6866   -38230.421    30.921502 
    6250    240.61459   -555.20829    134382.38   -35515.639      2673.82   -38189.459    31.109798 
    6300    241.53577   -797.04557    134482.55   -35498.022    2684.0565   -38182.078    31.276953 
    6350    239.18606   -565.38852    134550.54   -35478.256    2657.9455   -38136.202    31.469818 
    6400    231.09239   -905.75833    134601.53   -35510.539    2568.0049   -38078.544    31.773653 
    6450    240.33939   -707.58749    134630.77   -35513.902    2670.7618   -38184.663     32.13355 
    6500    240.48035   -813.05221    134646.64   -35487.436    2672.3283   -38159.764    32.214332 
    6550    242.63068   -635.20018    134686.03   -35472.007    2696.2237   -38168.231    32.422202 
    6600    237.13032   -432.58311    134767.15   -35478.969    2635.1012    -38114.07    32.662674 
    6650    237.76037   -1130.5415    134860.91   -35502.219    2642.1025   -38144.322    32.897114 
    6700    233.11833   -893.61361    134880.65   -35506.731    2590.5181   -38097.249    33.040277 
    6750    237.80154   -1059.5298    134845.14   -35521.288      2642.56   -38163.848    33.187312 
    6800     238.0656   -656.88982    134737.07   -35507.716    2645.4944    -38153.21    33.390857 
    6850    243.03544    -831.4714    134606.94   -35503.527    2700.7215   -38204.248    33.554775 
    6900    239.65031   -465.00024     134500.4   -35487.565    2663.1045    -38150.67    33.650606 
    6950    245.99089   -579.30746    134470.12   -35487.592    2733.5638   -38221.156    33.923409 
    7000    245.90178   -537.25579    134534.68   -35470.771    2732.5736   -38203.345    34.248535 
    7050     241.0308    -673.6769    134648.35   -35464.477    2678.4451   -38142.922    34.309752 
    7100    237.55826   -624.35114     134756.4   -35468.713    2639.8566   -38108.569    34.669001 
    7150    237.56438   -568.45461    134849.69   -35499.353    2639.9246   -38139.278    34.751552 
    7200    242.72629   -1039.8219    134931.75    -35523.88    2697.2862   -38221.166    34.904837 
    7250    241.54475   -771.93351    134934.68   -35499.149    2684.1564   -38183.306    35.026702 
    7300    241.35975   -576.17648    134897.77    -35487.69    2682.1006   -38169.791    35.025325 
    7350    241.27646   -881.12525    134814.15    -35476.27     2681.175   -38157.445    35.476862 
    7400    243.81493    -617.0099    134722.99   -35460.684    2709.3836   -38170.068    35.675283 
    7450    244.31221   -648.16099    134643.29   -35452.444    2714.9096   -38167.354    35.803458 
    7500    241.18861   -560.50214    134574.68     -35489.6    2680.1988   -38169.799    36.023871 
    7550    244.49109     -65.2816    134587.05   -35511.853    2716.8974    -38228.75     36.32521 
    7600    244.00173   -524.11264    134768.83   -35482.058    2711.4594   -38193.518    36.490124 
    7650    239.33106   -916.36997    135016.78   -35487.589    2659.5568   -38147.145    36.645755 
    7700    242.15307   -765.85997    135189.61   -35477.245    2690.9163   -38168.161    36.869178 
    7750    243.82871    -1283.143     135211.7   -35468.867    2709.5368   -38178.403    37.109278 
    7800     238.1326   -781.29921    135134.49   -35491.602     2646.239   -38137.841    37.524292 
    7850    241.26909   -514.46392    135009.91   -35475.777    2681.0931    -38156.87    37.758368 
    7900    242.34427   -747.42041    134889.83    -35506.02     2693.041   -38199.061    38.328896 
    7950    244.35937   -722.59319     134787.1   -35529.035    2715.4337   -38244.469    38.365831 
    8000    245.48876    -621.6029    134719.52   -35522.634     2727.984   -38250.618    38.457722 
    8050    242.07757   -750.64068    134719.98   -35507.762    2690.0773    -38197.84    38.530919 
    8100    243.51623   -534.57434    134741.07   -35534.654    2706.0643   -38240.719    38.706697 
    8150    244.91239   -842.60678    134757.25   -35511.323    2721.5792   -38232.902    38.858027 
    8200    241.90629    -837.8151    134742.44   -35523.687    2688.1739   -38211.861    39.026519 
    8250    242.53875   -672.80827    134656.08   -35526.116    2695.2021   -38221.318     39.05092 
    8300    242.19568   -789.33499    134521.38   -35519.061    2691.3897   -38210.451    39.250996 
    8350    236.19855   -778.62705    134351.45   -35552.098    2624.7469   -38176.845    39.721445 
    8400    239.06983   -807.11332    134219.47   -35551.265    2656.6539   -38207.919    39.846044 
    8450    233.93973   -754.64219    134131.17   -35549.987    2599.6458   -38149.632    40.284479 
    8500    240.95903   -464.58505    134107.32   -35546.076    2677.6475   -38223.723    40.613127 
    8550    235.18786   -607.18288    134171.92   -35561.973    2613.5156   -38175.488    40.946409 
    8600    232.41085   -876.26869    134319.07   -35557.515    2582.6563   -38140.171    41.309975 
    8650    235.47796   -949.09692    134439.31   -35544.627    2616.7394   -38161.366    41.468001 
    8700     237.1674   -738.93602    134496.92     -35546.5    2635.5132   -38182.013     41.78507 
    8750    238.46357   -937.78554    134550.28   -35526.521    2649.9169   -38176.438     42.25917 
    8800    238.03684   -633.13278    134576.16   -35518.356    2645.1748   -38163.531    42.526834 
    8850    232.92844   -640.92906    134591.07   -35537.428    2588.4079   -38125.836    42.929972 
    8900    238.39353   -488.36072    134602.11   -35556.392    2649.1385   -38205.531     43.15942 
    8950    240.78035   -632.91629    134612.58   -35545.372     2675.662   -38221.034    43.473955 
    9000    238.05821   -787.48048    134647.55   -35540.034    2645.4123   -38185.446    43.853043 
    9050    240.82847    -689.5315    134673.46   -35540.752    2676.1968   -38216.949    44.152371 
    9100    238.96228   -695.55048    134729.14   -35574.964    2655.4588   -38230.423    44.438041 
    9150    241.93938   -438.35846    134867.05   -35557.963    2688.5416   -38246.505    44.789669 
    9200    237.33258   -455.73478    135088.06   -35562.082    2637.3487   -38199.431    45.276416 
    9250    243.86792   -520.40831    135407.49   -35585.391    2709.9725   -38295.363    45.504597 
    9300    244.36101   -754.95768    135749.46   -35614.248    2715.4519     -38329.7    45.739695 
    9350    238.94841   -661.16883    135987.56   -35603.184    2655.3046   -38258.488    46.143013 
    9400    238.32871   -848.03746    136116.22   -35599.375    2648.4182   -38247.793    46.156813 
    9450    238.14481   -1224.7536    136182.26   -35575.379    2646.3747   -38221.754    46.210899 
    9500    240.45769   -874.91038    136113.99   -35587.633    2672.0765   -38259.709    46.315447 
    9550    239.60902   -614.04236    135962.91   -35578.191    2662.6457   -38240.837    46.489612 
    9600    243.18322   -749.67595    135775.92   -35570.417    2702.3638   -38272.781    46.509078 
    9650    240.24278   -811.20711    135587.97   -35588.232    2669.6882    -38257.92    46.811287 
    9700    233.72149   -867.13739    135413.31   -35590.458    2597.2207   -38187.679    46.884025 
    9750    237.44038   -629.74068    135302.56   -35591.663    2638.5467    -38230.21    47.131517 
    9800    239.16403   -521.78732    135240.43   -35598.038    2657.7006   -38255.739    47.303007 
    9850    238.14937   -500.98695    135262.06   -35593.707    2646.4253   -38240.132    47.456235 
    9900    237.43034   -748.39485    135386.21   -35594.059    2638.4351   -38232.494    47.711359 
    9950    234.13876   -963.22203    135472.43   -35579.101    2601.8576   -38180.958    47.976749 
   10000    236.07879   -998.51657     135453.7    -35574.33     2623.416   -38197.746    48.105045 
   10050    237.40842   -847.40596    135355.99   -35574.437    2638.1916   -38212.629    48.333206 
   10100    239.02321    -918.9972    135231.51   -35560.841    2656.1358   -38216.977    48.618378 
   10150    239.32283   -838.58501    135086.28   -35553.028    2659.4653   -38212.493    48.566255 
   10200    244.87926   -713.06981    134943.55   -35547.292     2721.211   -38268.503     48.70586 
   10250    241.01187   -392.11945    134786.85   -35552.183    2678.2347   -38230.417    49.202949 
   10300    242.66173   -664.98986    134719.45    -35541.04    2696.5687   -38237.609    49.551517 
   10350    241.98184   -693.94265    134739.73   -35543.078    2689.0135   -38232.091     49.99351 
   10400    245.15033   -548.33525    134806.94   -35582.747    2724.2232   -38306.971    50.169888 
   10450    245.70253   -789.84749    134904.19   -35569.906    2730.3595   -38300.266    50.352151 
   10500    241.77936   -831.39162    135012.81   -35570.409    2686.7635   -38257.173    50.448146 
   10550    244.45534   -821.61054     135069.3   -35565.247    2716.5001   -38281.747    50.593776 
   10600    240.89367   -666.62732    135034.62   -35565.037    2676.9213   -38241.958    50.862514 
   10650    239.87131   -795.53467    134978.12   -35554.297    2665.5603   -38219.857    51.085464 
   10700    242.25962   -821.80484    134939.79   -35569.116    2692.1003   -38261.216     51.31342 
   10750    240.69466   -734.80743    134903.28   -35556.136    2674.7097   -38230.845    51.453282 
   10800      240.222    -720.8895    134866.73   -35570.949    2669.4574   -38240.407    51.688821 
   10850    242.99519    -848.4126    134851.17   -35544.814    2700.2743   -38245.088     52.10733 
   10900    240.97206   -907.56217     134768.2   -35538.241    2677.7923   -38216.033    52.142992 
   10950    239.15681   -431.23782    134635.55   -35548.239    2657.6204    -38205.86    52.298727 
   11000    240.47436   -582.60063     134588.9   -35568.707    2672.2617   -38240.969    52.562272 
   11050    241.08617   -596.69038    134647.02   -35589.482    2679.0603   -38268.542    52.613332 
   11100     236.0613   -721.64932    134799.55   -35575.871    2623.2217   -38199.092    52.966801 
   11150    241.54947   -1029.9818    134949.86   -35583.228    2684.2088   -38267.437    53.452574 
   11200     241.2369   -1028.8983    135036.14   -35578.973    2680.7354   -38259.708     53.65625 
   11250    237.41851   -1040.5003    135018.09   -35595.705    2638.3037   -38234.008    53.924123 
   11300    236.50685   -1080.0506    134861.35   -35589.503    2628.1729   -38217.676    54.267652 
   11350     237.6539   -647.69077    134649.25   -35599.749    2640.9194   -38240.669    54.644257 
   11400    240.89213    -721.4844    134469.61   -35611.521    2676.9042   -38288.425     54.62807 
   11450    237.11018   -644.08653    134338.68   -35637.174    2634.8773   -38272.052    54.905093 
   11500    237.32102   -388.79268    134271.08   -35632.692    2637.2203   -38269.912    55.355359 
   11550    234.55525   -922.40869    134268.84   -35637.401    2606.4859   -38243.887     55.37649 
   11600    235.41884   -977.56637    134233.81   -35632.023    2616.0825   -38248.106    55.447529 
   11650    235.38308   -852.60713    134137.28   -35616.563     2615.685   -38232.248    55.965582 
   11700    238.64995   -419.09289    134043.63   -35591.215     2651.988   -38243.203    56.173648 
   11750    233.77013    -715.4261     134032.5   -35590.253    2597.7611   -38188.015    56.264548 
   11800     234.6924   -826.67785    134008.95   -35614.472    2608.0098   -38222.482    56.257195 
   11850    230.98463    -525.4181     133973.2   -35571.998    2566.8075   -38138.805    56.508488 
   11900    231.15956   -742.40385    134009.15   -35604.443    2568.7513   -38173.194    56.542136 
   11950    236.30231   -542.60744    134064.48   -35605.017    2625.8999   -38230.917    56.870299 
   12000    233.31067   -760.44908    134170.03   -35604.208    2592.6554   -38196.863    57.049653 
   12050    241.13177   -613.60995    134246.96   -35596.282    2679.5671   -38275.849    57.230598 
   12100    237.18153   -384.87093    134304.75   -35591.495    2635.6702   -38227.165    57.379373 
   12150    240.25335    -609.5035    134446.74   -35586.651    2669.8057   -38256.457    57.524706 
   12200    240.34927   -726.43885    134653.06   -35582.834    2670.8716   -38253.706    57.733913 
   12250    235.11341    -860.2293    134840.47   -35555.057    2612.6883   -38167.746    57.926822 
   12300    237.61225   -905.47115    134999.47   -35549.708    2640.4566   -38190.164    58.142298 
   12350    238.67088   -1040.9371    135064.81    -35571.45    2652.2206   -38223.671    58.449907 
   12400    241.23834   -1258.5787     135025.2   -35602.564    2680.7514   -38283.316    58.792796 
   12450     234.7102   -623.03395    134896.83   -35586.191    2608.2077   -38194.399    58.976317 
   12500    240.13679   -762.92353    134755.55   -35580.687    2668.5104   -38249.198    59.073375 
   12550    234.51049   -707.21338    134613.53   -35598.495    2605.9884   -38204.483     59.29459 
   12600    239.61699    -528.3596    134482.92   -35572.868    2662.7342   -38235.602    59.214132 
   12650    240.74783   -572.63852    134423.86   -35582.517    2675.3007   -38257.817    59.374101 
   12700     240.2446    -698.2125    134449.77   -35565.044    2669.7085   -38234.752    59.271353 
   12750    243.56827   -586.97559       134494   -35597.141    2706.6427   -38303.784    59.414875 
   12800     239.7006   -878.97634    134559.01   -35606.596    2663.6633   -38270.259    59.425119 
   12850    236.47014   -856.16993    134583.25   -35609.988     2627.765   -38237.753    59.265192 
   12900    237.73399   -630.82706    134566.92   -35601.424    2641.8094   -38243.233    59.378653 
   12950    236.81616   -727.23148    134514.12   -35591.085      2631.61   -38222.696    59.738794 
   13000     238.0102   -911.67133    134398.04   -35588.988    2644.8788   -38233.866    59.938124 
   13050    239.24202    -973.5276     134209.1   -35566.753    2658.5674    -38225.32    60.364718 
   13100    237.98238    -362.7263    134040.83   -35557.363    2644.5697   -38201.932    60.483527 
   13150    240.54457   -619.66083    133994.96   -35580.014    2673.0419   -38253.056    60.615383 
   13200    236.63697   -584.19481    133990.48   -35573.986    2629.6189   -38203.605    60.799106 
   13250    240.88657   -657.00873    133998.04   -35603.745    2676.8423   -38280.587    61.067077 
   13300    234.17286   -806.85118    134009.48   -35607.128    2602.2365   -38209.365    61.366898 
   13350    238.57465   -726.23517    133999.39   -35592.796    2651.1512   -38243.947    61.727925 
   13400    237.01411   -529.81119    134021.93   -35597.946    2633.8098   -38231.756    62.167637 
   13450    232.24646   -728.96592    134111.09   -35613.553    2580.8294   -38194.383     62.33249 
   13500    236.40903   -872.90014    134211.76   -35602.011    2627.0858   -38229.097    62.582893 
   13550     237.2169   -810.30938    134222.03   -35629.845    2636.0632   -38265.908    62.532108 
   13600    232.27422   -709.74136    134180.36   -35649.651     2581.138   -38230.789    63.051403 
   13650      235.268   -909.62557    134068.81   -35634.561    2614.4062   -38248.967    63.256185 
   13700    234.25888   -505.63609     133873.1   -35641.576    2603.1924   -38244.768    63.403551 
   13750    233.03667   -758.07458    133702.78   -35644.981    2589.6107   -38234.591    63.553203 
   13800    241.01495   -476.79284    133567.79   -35633.318    2678.2689   -38311.587     63.82085 
   13850    241.37768   -539.39577     133564.2   -35656.028    2682.2998   -38338.328    64.195026 
   13900    236.08202   -560.33291     133663.2   -35629.934     2623.452   -38253.386    64.366755 
   13950    234.43311   -500.41955     133831.2   -35637.788    2605.1285   -38242.916    64.311463 
   14000     234.5407   -607.13494    134050.99   -35620.532    2606.3242   -38226.856    64.580484 
   14050    234.52772   -920.93837    134258.87   -35616.195    2606.1799   -38222.375    64.729093 
   14100    234.98898   -781.20548    134402.78   -35609.622    2611.3056   -38220.928    65.105438 
   14150    237.58642   -934.19701    134516.24   -35574.238    2640.1696   -38214.407    65.341677 
   14200    236.51525   -563.88544    134587.12   -35577.946    2628.2662   -38206.212     65.73754 
   14250    234.06034   -906.35337    134623.19   -35549.269    2600.9861   -38150.255    65.987578 
   14300    239.08642   -388.71918    134634.21    -35549.07    2656.8382   -38205.908    66.206402 
   14350    237.40387   -832.85595    134729.41   -35563.563    2638.1409   -38201.704    66.333029 
   14400    238.30826   -748.86074    134838.12   -35522.759     2648.191    -38170.95    66.691422 
   14450    236.37078      -789.06    134886.59   -35547.621    2626.6608   -38174.282     66.78445 
   14500    236.50268    -765.0269    134881.46   -35552.115    2628.1265   -38180.242    66.890293 
   14550    241.26437   -669.01822    134839.94   -35577.796    2681.0406   -38258.837    66.830871 
   14600    239.72814   -951.84828    134818.87   -35590.054    2663.9693   -38254.024    66.999023 
   14650    236.49405   -657.27595    134772.13   -35578.006    2628.0307   -38206.037    67.236238 
   14700     238.4497   -1126.3008    134730.16   -35581.895    2649.7628   -38231.657    67.450573 
   14750    238.64208   -1019.0429    134694.91   -35572.385    2651.9005   -38224.285    67.772805 
   14800     238.5744   -560.94897    134685.94   -35597.232    2651.1484    -38248.38    68.039865 
   14850    234.26677   -1072.6417    134705.48   -35607.984    2603.2801   -38211.264    68.172867 
   14900    238.82282   -902.11152    134672.38   -35628.727     2653.909   -38282.636    68.380045 
   14950    233.17349    -862.4953     134662.3   -35631.362     2591.131   -38222.493    68.748689 
   15000    236.99576   -933.12462    134653.93   -35661.945    2633.6058   -38295.551    68.830037 
   15050    234.07237   -871.74906    134602.91   -35650.868    2601.1199   -38251.988    69.156936 
   15100    239.03269   -613.76804     134511.1   -35637.318    2656.2412   -38293.559    69.264554 
   15150    238.72578   -442.25445    134462.45   -35650.245    2652.8306   -38303.076    69.542224 
   15200    238.30243   -514.11773     134476.7   -35648.506    2648.1261   -38296.632    69.456716 
   15250    237.57357   -456.48633    134580.11    -35649.04    2640.0268   -38289.067    69.496181 
   15300    235.36703    -843.1558    134753.55   -35620.459    2615.5067   -38235.966    69.857368 
   15350    236.12995   -765.43374    134873.65   -35599.265    2623.9845   -38223.249    70.245172 
   15400    239.09213   -620.70451    134941.16   -35597.679    2656.9017   -38254.581    70.497972 
   15450    239.54311   -623.42573    134997.08   -35606.401    2661.9132   -38268.314    70.651602 
   15500     239.6879   -780.13895     135082.8     -35599.6    2663.5221   -38263.122    70.913731 
   15550    237.63631    -995.5627     135190.5   -35601.537     2640.724   -38242.261    71.089423 
   15600    239.79041   -948.00375    135250.61   -35597.799    2664.6613   -38262.461    71.170526 
   15650    237.80683   -810.34616    135271.72   -35608.991    2642.6189    -38251.61    71.164924 
   15700    237.56271   -1026.1949    135252.58   -35601.041    2639.9061   -38240.947    71.324492 
   15750    238.82461   -816.75319    135177.61   -35597.747    2653.9289   -38251.676    71.515301 
   15800    236.80223   -576.01053     135124.5   -35589.405    2631.4553   -38220.861    71.333016 
   15850    240.81178   -678.42765    135142.66   -35589.678    2676.0113   -38265.689    71.240938 
   15900    242.81918   -844.07196    135223.86   -35598.747    2698.3184   -38297.066    71.502986 
   15950    236.55113   -1000.3049    135319.66   -35589.348    2628.6649   -38218.013    71.762217 
   16000    239.95968   -573.23672    135392.38   -35569.243    2666.5423   -38235.785    71.942649 
   16050    239.28868   -698.87479    135404.28   -35554.441    2659.0859   -38213.527    72.168375 
   16100    240.19837   -771.91918    135366.91   -35531.798    2669.1947   -38200.993    72.045737 
   16150    245.00585   -434.44562    135359.24   -35540.465    2722.6176   -38263.083    71.871045 
   16200    242.67032    -897.9683    135392.52   -35518.337    2696.6642   -38215.001    71.815843 
   16250    242.94437   -705.61015    135398.94   -35503.457    2699.7095   -38203.167    72.059744 
   16300    245.38924    -664.5114    135364.14    -35514.54    2726.8781   -38241.418    72.241151 
   16350    242.08794   -792.33676    135274.48   -35522.843    2690.1925   -38213.035     72.51008 
   16400    244.21839   -634.23491    135126.01   -35521.863    2713.8671    -38235.73    72.661907 
   16450      242.578    -808.6954    134972.95   -35533.032    2695.6383    -38228.67    72.729779 
   16500    242.20725    -406.9807     134851.1   -35538.324    2691.5184   -38229.843    72.857571 
   16550    244.13728   -858.44673    134792.02   -35522.998    2712.9657   -38235.963    72.803834 
   16600    249.52232   -726.20753    134750.36   -35501.545    2772.8067   -38274.352    73.157439 
   16650     247.7003   -463.58603    134710.84   -35485.385    2752.5596   -38237.944    73.302363 
   16700    243.48308   -758.22211    134735.09   -35519.108     2705.696   -38224.804    73.499812 
   16750    235.40403   -671.84312    134775.49   -35529.725    2615.9179   -38145.642    73.635194 
   16800    243.68981   -665.50689    134812.26   -35534.886    2707.9933   -38242.879    73.906716 
   16850     241.3661   -811.53332     134786.6   -35552.169    2682.1712    -38234.34    74.073528 
   16900    239.46511   -498.74592    134694.45   -35540.247    2661.0464   -38201.293    74.342207 
   16950    243.65181    -720.0186    134641.41   -35533.627    2707.5709   -38241.198    74.501349 
   17000    241.83655   -708.10514    134644.89    -35545.09     2687.399   -38232.489    74.659983 
   17050    243.00515   -807.85214    134662.15   -35528.875     2700.385    -38229.26     75.00718 
   17100     241.9283   -995.65665    134671.54   -35539.401    2688.4185    -38227.82    75.334701 
   17150    242.09305   -872.83325     134656.2   -35521.735    2690.2494   -38211.984    75.401645 
   17200    241.26366    -775.1538    134608.16   -35474.967    2681.0327       -38156    75.700051 
   17250    245.18142   -638.62227    134577.08   -35480.553    2724.5687   -38205.121    75.916777 
   17300    250.85446   -496.24738    134611.69   -35471.056    2787.6101   -38258.666    76.122557 
   17350    245.52094   -580.67391    134679.71   -35466.749    2728.3416   -38195.091     76.68645 
   17400    242.53874    -674.6067    134762.26   -35485.845    2695.2021   -38181.047    77.115914 
   17450    246.10899   -733.70334    134868.69   -35463.933    2734.8763   -38198.809    77.362783 
   17500    243.03448   -726.45165    134994.08   -35472.009     2700.711    -38172.72    77.495126 
   17550    241.95048   -905.92667    135021.48   -35517.323     2688.665   -38205.988    78.182056 
   17600    245.10511   -667.69722    134924.96   -35518.455    2723.7207   -38242.176    78.755746 
   17650    242.44608   -623.19424     134779.2   -35506.739    2694.1723   -38200.911    78.851895 
   17700    246.88359    -612.8157    134633.92   -35486.052     2743.484   -38229.536    78.918242 
   17750    248.17112   -647.45495    134571.53   -35477.316    2757.7916   -38235.107    79.145726 
   17800    242.87251   -753.24479     134602.6   -35482.273     2698.911   -38181.184    79.112189 
   17850    242.26865   -614.55913    134691.22   -35491.442    2692.2007   -38183.643    78.972867 
   17900    235.86117   -562.11159    134791.71   -35503.254    2620.9978   -38124.251     79.11867 
   17950    239.51198   -746.89309    134920.51   -35493.129    2661.5672   -38154.697    79.190854 
   18000    233.56715   -1197.3347    134995.82   -35533.543    2595.5056   -38129.049    79.337543 
   18050    236.33402   -621.28905    134969.88   -35539.153    2626.2523   -38165.406    79.467346 
   18100    238.60898   -1001.8077    134929.63   -35560.174    2651.5328   -38211.707    79.844811 
   18150    238.64742   -789.52417     134865.7   -35582.019    2651.9599   -38233.979    80.027285 
   18200    238.83762   -477.01117    134790.27   -35572.733    2654.0734   -38226.807    80.130946 
   18250    240.31412    -583.5244    134761.57   -35544.235     2670.481   -38214.716    80.116974 
   18300     243.6144   -720.70887    134747.98   -35551.486    2707.1553   -38258.641    80.461325 
   18350    240.54855   -383.17399    134735.19   -35521.896    2673.0861   -38194.982     80.64168 
   18400    241.84492   -536.99518    134789.08   -35532.187     2687.492   -38219.679    80.871484 
   18450    242.70418   -508.88812     134904.6   -35535.879    2697.0404   -38232.919    81.118607 
   18500    240.73202   -1022.6748    135076.51   -35522.537    2675.1249   -38197.662    81.285391 
   18550    241.43638   -1087.0925    135197.93   -35501.159     2682.952   -38184.111    81.775069 
   18600    242.83235   -876.29745    135231.67   -35489.733    2698.4647   -38188.197    81.973088 
   18650    240.72904   -678.76934    135204.04   -35501.775    2675.0918   -38176.867    82.301924 
   18700    238.83438   -837.60827     135172.8   -35514.086    2654.0375   -38168.124     82.64104 
   18750     240.5056   -964.97327    135118.32   -35505.228    2672.6089   -38177.836    82.783755 
   18800    242.87123   -669.95418    134991.55    -35484.47    2698.8968   -38183.367     82.81828 
   18850     236.5639   -640.41065    134908.19    -35497.92    2628.8068   -38126.726    83.003239 
   18900    237.86071   -892.74723    134871.69   -35499.751    2643.2176   -38142.969    83.313635 
   18950    240.47126    -633.8454    134815.07   -35517.297    2672.2272   -38189.524    83.268244 
   19000    242.27597   -644.30353    134748.81   -35503.445     2692.282   -38195.727    83.322927 
   19050    240.34952   -833.65577    134664.14   -35494.804    2670.8744   -38165.678    83.470629 
   19100    244.60598   -572.81562    134572.27   -35502.853    2718.1741   -38221.027    83.578777 
   19150    240.49592   -693.52121       134530   -35506.083    2672.5013   -38178.584    84.061752 
   19200    246.52413   -531.46852    134507.16   -35504.966    2739.4895   -38244.456    84.368528 
   19250    237.09904    -658.1787    134519.66   -35497.786    2634.7536   -38132.539    84.665587 
   19300    240.34246   -906.17454    134548.36   -35517.141     2670.796   -38187.937    84.847548 
   19350    237.32873   -862.19139    134549.12    -35529.22     2637.306   -38166.526    85.352267 
   19400    243.52673   -893.91019    134512.84   -35539.819     2706.181       -38246    85.441892 
   19450    243.91045   -578.13644    134420.19   -35544.937    2710.4451   -38255.383    85.600233 
   19500    240.63778   -490.91176    134326.98    -35577.82    2674.0777   -38251.898    85.944551 
   19550    241.76742   -647.92701    134300.12   -35542.774    2686.6308   -38229.405     86.39551 
   19600    240.05652   -408.63767    134303.56   -35539.524    2667.6184   -38207.143    86.619134 
   19650    241.98931   -502.16743     134346.7   -35520.439    2689.0965   -38209.535    86.832014 
   19700    244.03257   -931.38423    134423.18   -35494.618    2711.8022    -38206.42    87.202603 
   19750    239.47097   -576.35896    134478.68   -35508.848    2661.1116    -38169.96    87.478891 
   19800    239.42192   -812.51771    134516.21   -35513.146    2660.5665   -38173.712    87.854949 
   19850    242.77356   -1025.4341    134505.34   -35497.044    2697.8114   -38194.856     88.04796 
   19900    241.56803   -618.96845    134417.65   -35473.239     2684.415   -38157.654    88.296925 
   19950    236.40064    -1117.418    134371.62   -35453.546    2626.9926   -38080.538    88.686387 
   20000    243.85696   -384.00677    134322.53   -35450.655    2709.8506   -38160.506     89.22538 
   20050     244.0045   -598.27778    134321.91   -35459.093    2711.4902   -38170.583    89.671637 
   20100    237.02848   -1006.0565    134342.03   -35467.991    2633.9695    -38101.96    89.990876 
   20150    242.94083   -759.63024    134344.94   -35485.799    2699.6702   -38185.469    90.029693 
   20200    241.55034   -393.22175    134394.57   -35490.832    2684.2185   -38175.051    90.055927 
   20250     239.5873   -879.19114    134504.45   -35503.773    2662.4043   -38166.178    90.312974 
   20300    243.57297   -750.15421    134552.87   -35489.867    2706.6949   -38196.562     90.40788 
   20350    241.58493    -913.5519    134596.32   -35498.847    2684.6028   -38183.449     90.54729 
   20400    240.50803   -778.51622    134587.15    -35470.77    2672.6359   -38143.406     90.86881 
   20450    245.37084   -537.75073    134621.39   -35471.578    2726.6736   -38198.252    91.213191 
   20500    244.53928    -717.6169    134658.96   -35448.868     2717.433   -38166.301    91.236429 
   20550    243.20587   -897.47976    134666.54   -35422.131    2702.6155   -38124.747    91.451074 
   20600    244.43271   -660.44565    134654.83    -35444.27    2716.2487   -38160.519    91.422272 
   20650     243.2288   -859.52634    134609.87   -35415.985    2702.8703   -38118.855    91.842519 
   20700    246.69189   -988.80905    134537.85   -35422.571    2741.3537   -38163.925    92.308579 
   20750    242.96224   -612.27212    134413.99   -35456.296    2699.9082   -38156.204    92.314196 
   20800    244.27525   -650.91512    134282.76   -35454.136     2714.499   -38168.635    92.375921 
   20850    241.25991   -354.56495    134220.64   -35445.353    2680.9911   -38126.344    92.736432 
   20900    241.15266   -893.72322    134270.71    -35419.17    2679.7992    -38098.97    92.809311 
   20950    240.72889   -633.26388    134369.01   -35410.493    2675.0901   -38085.583    93.238095 
   21000    240.26005   -972.74188     134494.2    -35415.61    2669.8802    -38085.49    93.517345 
   21050    244.19415   -1228.9128    134568.95   -35416.785    2713.5977   -38130.383    93.762299 
   21100    241.93252   -674.87303    134516.89   -35409.328    2688.4655   -38097.794    94.249695 
   21150    241.24633   -454.13155    134390.46    -35414.38    2680.8402    -38095.22    94.691975 
   21200    241.73258   -1172.8798    134272.55   -35424.633    2686.2436   -38110.877    95.018055 
   21250    239.66233   -593.65842    134111.74   -35430.998     2663.238   -38094.236    95.354551 
   21300    241.62269   -186.61131    134015.69    -35433.45    2685.0224   -38118.473    95.385969 
   21350    240.46758   -759.07915    134039.14   -35455.877    2672.1863   -38128.063    95.768921 
   21400    241.25283   -615.83293    134128.37   -35463.837    2680.9124   -38144.749    96.119707 
   21450    241.80499   -452.81106    134259.21   -35443.476    2687.0483   -38130.524    96.322225 
   21500    243.02881   -1142.7085    134442.55   -35452.434    2700.6479   -38153.082    96.611915 
   21550    239.99874   -771.81979    134562.27   -35450.706    2666.9763   -38117.682    96.963006 
   21600    245.29364   -861.26567    134629.88   -35468.058    2725.8157   -38193.874    96.972572 
   21650    240.66553   -813.56957    134661.42   -35474.129    2674.3861   -38148.515    97.245312 
   21700     242.4458   -534.63811    134629.96   -35473.578    2694.1692   -38167.748    97.409992 
   21750    244.77503   -368.91779    134594.02   -35471.202    2720.0527   -38191.254    98.026835 
   21800    239.11248   -631.11069    134647.71   -35473.313    2657.1278   -38130.441    98.547279 
   21850    240.66593   -720.62837    134761.63   -35469.367    2674.3905   -38143.758    99.020727 
   21900    241.47433   -1045.3788    134854.18   -35472.143    2683.3738   -38155.517    99.406029 
   21950    239.12871    -1006.037    134870.42   -35451.377    2657.3082   -38108.685    99.540097 
   22000    241.95573   -825.35261    134817.57    -35448.09    2688.7233   -38136.813    99.713615 
   22050    243.45434   -727.44113    134719.58   -35461.765    2705.3765   -38167.142    99.700014 
   22100    246.10024   -788.37133    134602.77   -35431.588    2734.7791   -38166.367    99.805928 
   22150    243.25787   -288.00844    134476.78   -35435.938    2703.1934   -38139.132    100.12695 
   22200    246.41396   -453.20066    134400.86   -35422.779    2738.2652   -38161.044    100.84122 
   22250    248.07204   -464.88756    134409.03   -35434.327    2756.6906   -38191.017    101.17283 
   22300    240.19535   -528.60946     134453.6   -35426.633    2669.1612   -38095.794    101.70858 
   22350    248.85101   -620.50787    134494.63   -35464.352    2765.3469   -38229.699    102.28949 
   22400    239.60078   -728.55174    134524.51   -35466.438     2662.554   -38128.992    102.37158 
   22450    241.38317   -787.16459    134474.22   -35459.507    2682.3608   -38141.868     102.6145 
   22500    241.94337   -620.03347     134437.2   -35428.066     2688.586   -38116.652    102.93099 
   22550     242.9681   -553.66387    134481.58   -35429.484    2699.9733   -38129.457    103.34246 
   22600    239.43353   -721.68286    134515.03   -35442.694    2660.6955    -38103.39    103.64287 
   22650    244.70501   -544.50844    134488.68   -35435.625    2719.2746     -38154.9    103.58452 
   22700    246.39435    -608.7639    134473.11    -35434.17    2738.0473   -38172.218    103.79469 
   22750    241.51558   -707.95457    134509.82     -35430.8    2683.8322   -38114.633    104.04758 
   22800     242.7646   -592.02101    134584.83   -35431.518    2697.7119    -38129.23     104.3111 
   22850     245.1517   -550.85387    134711.37   -35448.832    2724.2384    -38173.07     104.6203 
   22900    242.70202   -962.99243    134866.63   -35417.522    2697.0164   -38114.538    104.79815 
   22950    239.41554   -340.11549    134981.05    -35407.58    2660.4956   -38068.076    105.12804 
   23000     243.7146   -622.31988    135121.59   -35454.125    2708.2688   -38162.394    105.27699 
   23050    241.04009   -735.45118    135244.13     -35439.5    2678.5484   -38118.049    105.82926 
   23100    244.46124   -668.97182    135315.96   -35464.413    2716.5658   -38180.979    106.18033 
   23150    241.77893   -851.98224    135316.65   -35467.838    2686.7587   -38154.597    106.40923 
   23200    242.77321    -1051.333     135272.9   -35466.445    2697.8076   -38164.253    106.90926 
   23250    245.52393    -828.4325    135192.64   -35436.833    2728.3749   -38165.208    107.51708 
   23300     247.5269   -659.64507    135100.41   -35467.618    2750.6328   -38218.251    107.83598 
   23350    247.34087   -603.23376    134993.29   -35456.697    2748.5655   -38205.263    108.14091 
   23400    244.16749    -866.9783    134841.91   -35467.557    2713.3014   -38180.859    108.63263 
   23450    242.96994   -514.64693    134678.24   -35471.392    2699.9937   -38171.386    108.75797 
   23500    243.09402   -628.45294    134612.64   -35484.544    2701.3725   -38185.917    108.95071 
   23550    242.60449   -698.52027    134649.45    -35491.41    2695.9327   -38187.342    108.93174 
   23600    242.56753   -981.58538    134729.51   -35489.566     2695.522   -38185.088    108.73628 
   23650    239.78105    -666.6492    134780.07   -35508.751    2664.5573   -38173.308     108.7325 
   23700    245.61712   -774.93337    134870.41   -35509.925    2729.4104   -38239.335    108.75776 
   23750    241.35548   -845.22353    134952.08   -35510.886    2682.0531   -38192.939    108.85154 
   23800    245.86241   -766.86234    134986.96    -35510.67    2732.1362   -38242.806    109.04137 
   23850    244.18123   -1149.5793    134997.02   -35502.077    2713.4541   -38215.531    109.07113 
   23900    240.85595   -766.45387    134925.06   -35491.834     2676.502   -38168.336    109.52874 
   23950    243.59014   -506.33317    134813.77   -35517.354    2706.8857    -38224.24    110.25829 
   24000    242.32936   -887.49901    134720.32   -35520.158    2692.8752   -38213.033    110.64407 
   24050    238.35128   -745.42125    134568.66   -35497.945     2648.669   -38146.614    110.60933 
   24100    239.60646   -578.42512    134408.04   -35515.272    2662.6172   -38177.889    110.80271 
   24150    242.69069   -686.11074    134279.82    -35493.82    2696.8905    -38190.71    111.18049 
   24200    242.55596   -228.92192    134231.94   -35509.036    2695.3934   -38204.429    111.32836 
   24250    242.25581   -399.24374    134295.49   -35486.116    2692.0579   -38178.174    111.39197 
   24300      244.714   -355.16901    134400.27   -35489.007    2719.3745   -38208.382    111.15347 
   24350    240.55643   -723.30204    134583.47   -35515.736    2673.1737   -38188.909    111.46695 
   24400    239.52823   -520.51714    134711.16   -35520.055    2661.7478   -38181.803     111.6194 
   24450    238.55937   -529.02265    134787.55   -35528.157    2650.9815   -38179.139     111.4885 
   24500    242.56562   -843.88333    134812.22    -35524.52    2695.5007   -38220.021    111.52949 
   24550    241.43883   -590.38656    134822.24   -35539.027    2682.9793   -38222.006    111.63242 
   24600    241.72793   -488.02487    134915.79   -35538.675    2686.1919   -38224.867    111.72279 
   24650    240.54018   -712.05839    135050.78   -35557.436    2672.9931   -38230.429    111.99771 
   24700    241.58457   -822.87732    135121.85   -35546.721    2684.5989    -38231.32    112.55794 
   24750    241.66795   -685.33802    135143.66   -35547.833    2685.5254   -38233.358    112.64211 
   24800    238.88603   -1003.7801    135170.34   -35545.664    2654.6114   -38200.276    112.42101 
   24850    242.69094   -1055.7307    135125.56   -35538.866    2696.8934   -38235.759    112.63851 
   24900    238.76556   -687.69733    135024.47   -35577.586    2653.2728   -38230.859    113.22065 
   24950    240.98665   -261.88251    134939.73   -35584.865    2677.9545   -38262.819    113.86263 
   25000    243.30587   -476.49686    134936.15   -35558.928    2703.7267   -38262.655    114.08337 
Loop time of 105.383 on 12 procs for 25000 steps with 6489 atoms

Performance: 204.967 ns/day, 0.117 hours/ns, 237.230 timesteps/s
95.7% CPU use with 12 MPI tasks x no OpenMP threads

MPI task timing breakdown:
Section |  min time  |  avg time  |  max time  |%varavg| %total
---------------------------------------------------------------
Pair    | 15.963     | 33.148     | 68.714     | 400.8 | 31.45
Neigh   | 2.3287     | 4.6371     | 9.6043     | 144.5 |  4.40
Comm    | 16.641     | 56.956     | 76.395     | 344.9 | 54.05
Output  | 0.061756   | 0.066925   | 0.09085    |   2.9 |  0.06
Modify  | 9.4799     | 9.6261     | 9.804      |   3.1 |  9.13
Other   |            | 0.9488     |            |       |  0.90

Nlocal:        540.750 ave         933 max         352 min
Histogram: 8 0 0 0 0 0 0 0 1 3
Nghost:        1686.00 ave        1862 max        1589 min
Histogram: 6 2 0 0 0 0 0 0 2 2
Neighs:        0.00000 ave           0 max           0 min
Histogram: 12 0 0 0 0 0 0 0 0 0
FullNghs:      43430.2 ave      105600 max       13457 min
Histogram: 8 0 0 0 0 0 0 0 0 4

Total # of neighbors = 521162
Ave neighs/atom = 80.314686
Neighbor list builds = 2962
Dangerous builds = 0

unfix           3
unfix           4
undump          1

fix             3 water nve

# Run 0.25 ns equilibration

dump		    1 all atom 2000 testnve.${NAME}.dump
dump		    1 all atom 2000 testnve.ML_graphite_m500atm_240K.dump
run	            25000
Per MPI rank memory allocation (min/avg/max) = 3.511 | 3.644 | 3.907 Mbytes
Step c_2 Press Volume TotEng KinEng PotEng c_1[4] 
   25000    243.30587   -476.49686    134936.15   -35558.928    2703.7267   -38262.655    114.08337 
   25050    241.99881   -710.29099    134936.15   -35558.368    2689.2021    -38247.57    114.67143 
   25100    242.16108    -740.3328    134936.15   -35556.518    2691.0053   -38247.523    114.83296 
   25150    242.66487   -331.06727    134936.15   -35557.764    2696.6036   -38254.367    114.71742 
   25200    242.23373   -841.57878    134936.15   -35558.178    2691.8126   -38249.991    115.02539 
   25250    243.62343   -1009.7485    134936.15    -35557.69    2707.2556   -38264.946    114.89141 
   25300    238.70516   -650.87375    134936.15   -35556.605    2652.6015   -38209.207    114.87753 
   25350    244.09977   -939.86882    134936.15   -35556.934    2712.5489   -38269.482    115.04367 
   25400    240.49457   -1094.2197    134936.15   -35558.429    2672.4862   -38230.915     114.9065 
   25450    240.19599   -874.48452    134936.15   -35557.805    2669.1683   -38226.973    114.98769 
   25500    241.50537   -885.36334    134936.15   -35556.718    2683.7187   -38240.436    115.05147 
   25550    244.54122   -1033.7085    134936.15   -35557.493    2717.4545   -38274.948    115.20672 
   25600    239.58593   -1013.8085    134936.15   -35557.244     2662.389   -38219.633     115.3161 
   25650    237.91824   -805.44157    134936.15   -35556.961    2643.8569   -38200.818    115.22401 
   25700    238.37896    -1063.805    134936.15   -35557.275    2648.9766   -38206.252    115.14614 
   25750    238.71671   -1067.9492    134936.15   -35557.497    2652.7299   -38210.226    115.37956 
   25800    235.35337    -762.8134    134936.15   -35556.482    2615.3548   -38171.837    115.19561 
   25850    240.48017   -727.63333    134936.15   -35557.877    2672.3263   -38230.203    115.21206 
   25900    238.51691   -652.01063    134936.15   -35556.997    2650.5096   -38207.506    115.69043 
   25950    240.12126   -747.67091    134936.15   -35557.437    2668.3378   -38225.775    115.90499 
   26000    240.98752   -889.24424    134936.15   -35557.285    2677.9642   -38235.249     116.1929 
   26050    233.55875   -704.24387    134936.15   -35554.661    2595.4123   -38150.073    116.35999 
   26100    238.18339   -901.88153    134936.15   -35557.192    2646.8034   -38203.995     116.7235 
   26150    239.80886   -628.73332    134936.15   -35557.467    2664.8663   -38222.333     116.6484 
   26200    242.00834   -620.33768    134936.15   -35557.501    2689.3079   -38246.809    116.77889 
   26250    240.04776   -741.44999    134936.15   -35557.735    2667.5211   -38225.256    116.65313 
   26300    243.53387   -753.08688    134936.15   -35558.328    2706.2603   -38264.588    116.57532 
   26350    239.32904   -997.23296    134936.15   -35557.727    2659.5343   -38217.261    116.99322 
   26400    238.79698   -760.84717    134936.15   -35558.382    2653.6219   -38212.004    117.07291 
   26450    239.93621   -632.34234    134936.15   -35557.916    2666.2815   -38224.198    116.96731 
   26500    239.07393   -839.65818    134936.15   -35557.343    2656.6994   -38214.043    117.55356 
   26550    240.67881   -1183.4087    134936.15   -35556.899    2674.5336   -38231.433     117.9348 
   26600    242.87077   -1109.2496    134936.15    -35558.12    2698.8917   -38257.011    117.93879 
   26650    237.77037   -849.09258    134936.15   -35557.069    2642.2137   -38199.283    118.14511 
   26700    238.81606   -825.89291    134936.15   -35557.593    2653.8339   -38211.427    117.97209 
   26750    242.84961    -775.3983    134936.15   -35556.942    2698.6566   -38255.599    118.07533 
   26800    233.69031   -945.99212    134936.15   -35554.604    2596.8742   -38151.479    118.28677 
   26850     237.7866   -759.11295    134936.15   -35557.118     2642.394   -38199.512    118.17435 
   26900    242.65521   -880.14558    134936.15   -35556.778    2696.4963   -38253.275    118.21124 
   26950    240.94053    -941.2042    134936.15   -35556.864    2677.4419   -38234.306    118.38987 
   27000    242.11948   -690.45362    134936.15   -35557.722     2690.543   -38248.265     118.3638 
   27050    239.60217   -763.48482    134936.15   -35555.976    2662.5695   -38218.546    118.64881 
   27100    241.15139   -773.19607    134936.15   -35557.343    2679.7851   -38237.129    118.85792 
   27150    243.28722    -1035.922    134936.15    -35558.75    2703.5195   -38262.269    118.87258 
   27200    236.86919   -829.82926    134936.15   -35557.023    2632.1993   -38189.223     118.7597 
   27250    242.25317   -837.50066    134936.15    -35556.76    2692.0286   -38248.789    119.10663 
   27300    239.71014   -832.33814    134936.15   -35557.399    2663.7694   -38221.168    119.40405 
   27350    240.67149   -937.36129    134936.15   -35557.677    2674.4523   -38232.129    119.62554 
   27400    242.89571    -632.7646    134936.15   -35557.591    2699.1688    -38256.76    119.85604 
   27450    236.37684   -780.42845    134936.15   -35556.014    2626.7282   -38182.742    119.77139 
   27500    241.92299    -781.7339    134936.15   -35558.508    2688.3595   -38246.867    119.91215 
   27550    240.01726   -831.48437    134936.15    -35556.97    2667.1821   -38224.153    119.90091 
   27600    241.96218   -885.98835    134936.15   -35557.613     2688.795   -38246.408    120.17409 
   27650    241.40346   -794.58459    134936.15   -35557.042    2682.5862   -38239.628    120.29749 
   27700    238.60937   -882.45123    134936.15   -35556.545     2651.537   -38208.082    120.24315 
   27750    237.24188   -947.40899    134936.15   -35557.112    2636.3408   -38193.453    120.29521 
   27800    238.77051   -787.42786    134936.15   -35556.345    2653.3277   -38209.672    120.51151 
   27850    241.02511   -858.46588    134936.15   -35557.204    2678.3818   -38235.586    120.99671 
   27900    240.76908    -742.7711    134936.15   -35557.378    2675.5368   -38232.914    121.45511 
   27950    240.02843   -971.53548    134936.15   -35557.821    2667.3063   -38225.128    121.74914 
   28000    237.26737   -1035.8607    134936.15   -35556.134    2636.6241   -38192.758    122.03335 
   28050    244.15274   -821.95422    134936.15   -35557.084    2713.1375   -38270.221    122.17093 
   28100    241.23608   -736.39529    134936.15   -35556.336    2680.7262   -38237.062    122.48098 
   28150    242.06645   -1020.6447    134936.15   -35556.291    2689.9537   -38246.245    123.05494 
   28200    239.16561   -696.46656    134936.15   -35556.069    2657.7183   -38213.787    123.15421 
   28250    240.29925   -755.68095    134936.15   -35557.051    2670.3158   -38227.367    123.23836 
   28300    235.94112   -1039.4018    134936.15   -35556.304    2621.8863   -38178.191    123.35207 
   28350    240.14165   -799.68199    134936.15   -35556.899    2668.5644   -38225.463     123.2596 
   28400    239.09076   -632.69456    134936.15   -35555.729    2656.8865   -38212.616    123.37147 
   28450    241.24748   -600.23464    134936.15   -35557.538    2680.8529   -38238.391    123.64158 
   28500    243.13582    -683.6924    134936.15   -35558.142     2701.837   -38259.979    123.90289 
   28550    243.30833   -1011.7721    134936.15   -35555.796     2703.754    -38259.55    123.96368 
   28600    243.32428   -738.00805    134936.15   -35558.131    2703.9313   -38262.062    124.15094 
   28650    242.74098    -800.0875    134936.15   -35557.445    2697.4494   -38254.894    124.28399 
   28700    240.57457   -629.92962    134936.15   -35557.627    2673.3753   -38231.003    124.50317 
   28750    245.17757   -643.33783    134936.15   -35557.827    2724.5259   -38282.353    124.62302 
   28800    238.53482    -570.0322    134936.15   -35556.908    2650.7086   -38207.616    124.85017 
   28850    239.03922   -988.43687    134936.15   -35556.038    2656.3137   -38212.352    124.94055 
   28900     240.7374   -762.75589    134936.15   -35557.845    2675.1847   -38233.029    125.11317 
   28950    240.73818   -731.04871    134936.15   -35557.322    2675.1934   -38232.515    125.45883 
   29000    239.08726    -534.4211    134936.15   -35556.413    2656.8476    -38213.26     125.7386 
   29050    240.63534   -752.03762    134936.15    -35556.93    2674.0506   -38230.981    126.45362 
   29100    241.38863   -926.09569    134936.15   -35556.381    2682.4215   -38238.803    126.45123 
   29150    239.55247   -956.81918    134936.15    -35557.06    2662.0172   -38219.077    126.75785 
   29200     239.9753   -690.61447    134936.15   -35557.254    2666.7159   -38223.969    126.79004 
   29250    239.33545   -505.77668    134936.15    -35556.12    2659.6056   -38215.726    127.11377 
   29300    241.50363   -780.35021    134936.15   -35557.056    2683.6994   -38240.755    126.88897 
   29350     241.6267   -1134.3852    134936.15   -35558.413     2685.067    -38243.48    127.11544 
   29400    245.15248   -814.74634    134936.15   -35557.485    2724.2471   -38281.733    127.52225 
   29450     237.2914   -944.67488    134936.15   -35556.231    2636.8911   -38193.122    127.90763 
   29500    238.67468   -899.89982    134936.15   -35557.555    2652.2628   -38209.818    128.02107 
   29550    244.03516   -1017.7892    134936.15   -35558.706     2711.831   -38270.537    128.37644 
   29600    239.01019   -912.12915    134936.15   -35556.893    2655.9911   -38212.884    128.52037 
   29650    242.08293   -972.86718    134936.15   -35557.508    2690.1369   -38247.645    128.49074 
   29700    238.50792    -831.7255    134936.15   -35556.964    2650.4097   -38207.374    128.65564 
   29750    240.97901   -525.09208    134936.15   -35556.462    2677.8696   -38234.331    128.80803 
   29800    242.43775   -754.76025    134936.15   -35557.253    2694.0798   -38251.333    128.95587 
   29850    238.88167   -899.02355    134936.15   -35556.054     2654.563   -38210.617    129.33365 
   29900    238.83173   -670.70341    134936.15    -35555.57    2654.0081   -38209.578    129.19633 
   29950     236.8904   -652.17389    134936.15   -35556.776    2632.4351   -38189.211     129.1102 
   30000     240.4393   -828.29129    134936.15   -35556.447     2671.872   -38228.319    128.94409 
   30050     245.2308   -824.21029    134936.15   -35557.451    2725.1175   -38282.569    129.02695 
   30100     242.7411   -761.39664    134936.15     -35557.4    2697.4508   -38254.851    129.13216 
   30150    238.79718   -812.81093    134936.15   -35556.144    2653.6241   -38209.768    129.18493 
   30200    238.22542   -527.35953    134936.15   -35555.868    2647.2704   -38203.139    129.17423 
   30250    241.15321   -876.82783    134936.15   -35557.346    2679.8054   -38237.151    129.55809 
   30300    238.92551     -935.959    134936.15   -35555.456    2655.0502   -38210.506    129.97854 
   30350    244.67099   -501.82701    134936.15   -35557.432    2718.8966   -38276.329    130.20657 
   30400    242.70495      -820.99    134936.15   -35557.409    2697.0491   -38254.458    130.75881 
   30450    241.57567   -687.25348    134936.15   -35556.878    2684.4999   -38241.378    130.84495 
   30500     243.0475   -763.50208    134936.15   -35557.632    2700.8556   -38258.487     131.2848 
   30550    240.67948   -1057.8526    134936.15   -35556.546     2674.541   -38231.087     131.8023 
   30600    244.21824   -751.31349    134936.15   -35556.818    2713.8654   -38270.684     132.0561 
   30650    245.13379   -727.17859    134936.15   -35556.592    2724.0394   -38280.632    132.05077 
   30700     239.7875   -882.48106    134936.15    -35558.05     2664.629   -38222.679    132.29345 
   30750    241.94691   -1038.6859    134936.15   -35557.482    2688.6254   -38246.107    132.51429 
   30800    243.50849    -503.9467    134936.15   -35557.414    2705.9784   -38263.393    132.61308 
   30850    245.03894   -753.66113    134936.15   -35557.496    2722.9854   -38280.482    133.21029 
   30900     244.4423   -432.69102    134936.15   -35557.757    2716.3553   -38274.112     133.3779 
   30950    249.76733   -472.47935    134936.15   -35558.011    2775.5295    -38333.54    133.36607 
   31000    243.18566   -630.08886    134936.15   -35556.642    2702.3909   -38259.033    133.45212 
   31050    243.46616   -565.97427    134936.15   -35557.289    2705.5079   -38262.797    133.45523 
   31100    243.64107   -558.12912    134936.15   -35557.185    2707.4516   -38264.636    133.70707 
   31150    242.50586   -635.23992    134936.15   -35557.608    2694.8367   -38252.445    133.76998 
   31200    243.90686   -741.18348    134936.15   -35557.964    2710.4052   -38268.369    134.34552 
   31250    237.31484   -787.52693    134936.15   -35556.368    2637.1516   -38193.519    134.51243 
   31300    241.93405   -521.81016    134936.15   -35556.511    2688.4824   -38244.993    134.97564 
   31350    239.14328   -1025.4621    134936.15   -35557.192    2657.4701   -38214.662    135.14266 
   31400    236.02207   -927.11347    134936.15   -35556.143    2622.7858   -38178.928    135.10674 
   31450    239.70924   -834.34547    134936.15   -35555.581    2663.7593    -38219.34    135.39623 
   31500    241.34604   -597.93969    134936.15   -35557.374    2681.9482   -38239.323    135.45774 
   31550    238.73211   -731.46724    134936.15   -35556.562     2652.901   -38209.463    135.05753 
   31600    239.98239   -944.75671    134936.15   -35555.971    2666.7947   -38222.766    135.10261 
   31650    236.16753    -618.5107    134936.15   -35554.593    2624.4022   -38178.995    135.34745 
   31700    238.85593   -668.03973    134936.15   -35555.575     2654.277   -38209.852    135.69613 
   31750     242.0885   -506.00833    134936.15   -35557.043    2690.1987   -38247.242    136.20033 
   31800    241.65202   -1093.6789    134936.15   -35556.781    2685.3484   -38242.129    136.59647 
   31850     242.8645   -916.49256    134936.15   -35556.712     2698.822   -38255.534    136.76839 
   31900    244.84959   -876.02217    134936.15   -35558.781    2720.8813   -38279.662    136.60029 
   31950    235.95907   -764.46733    134936.15   -35554.914    2622.0857       -38177    136.74248 
   32000    235.28151    -556.1266    134936.15   -35555.196    2614.5563   -38169.752    136.76892 
   32050    241.77701   -986.57552    134936.15   -35556.474    2686.7373   -38243.211    136.74524 
   32100    241.23409   -745.55664    134936.15   -35555.898    2680.7042   -38236.602    136.71148 
   32150    243.79548   -769.42021    134936.15   -35558.471    2709.1675   -38267.639    136.77401 
   32200    241.17876   -543.45949    134936.15   -35557.221    2680.0893    -38237.31    137.20553 
   32250    239.87502   -638.62647    134936.15   -35558.007    2665.6015   -38223.609    137.37491 
   32300    242.43256   -833.66263    134936.15   -35557.448    2694.0221    -38251.47    137.48399 
   32350    239.91502   -646.84396    134936.15   -35555.648    2666.0461   -38221.695    137.71752 
   32400    238.88459   -476.77045    134936.15   -35554.793    2654.5954   -38209.388     137.8517 
   32450    244.78971   -500.39182    134936.15   -35556.783    2720.2158   -38276.999    138.14719 
   32500     246.6356   -861.17633    134936.15   -35557.255    2740.7282   -38297.984    138.11308 
   32550    245.51411   -722.78498    134936.15   -35558.069    2728.2657   -38286.335    138.52914 
   32600    243.83628   -950.36496    134936.15    -35556.64    2709.6209   -38266.261    138.66538 
   32650    242.75558   -787.75285    134936.15   -35557.236    2697.6116   -38254.848     138.8368 
   32700    245.59753   -624.74002    134936.15   -35557.054    2729.1927   -38286.246    139.14596 
   32750    241.43421   -1105.1072    134936.15   -35557.872     2682.928     -38240.8    139.22286 
   32800    242.42637   -902.26254    134936.15   -35557.794    2693.9533   -38251.747    139.17454 
   32850    242.24989   -857.84582    134936.15   -35557.344    2691.9922   -38249.336    139.08319 
   32900    241.97548   -792.80082    134936.15   -35557.279    2688.9428   -38246.222    139.42068 
   32950    239.75241   -958.12048    134936.15   -35556.391     2664.239   -38220.631    139.72613 
   33000    246.40489   -812.70315    134936.15   -35557.682    2738.1644   -38295.847     140.0237 
   33050    242.41125   -1031.8473    134936.15   -35557.427    2693.7853   -38251.212    140.16841 
   33100    239.79119   -730.42637    134936.15   -35555.896      2664.67   -38220.566    140.29295 
   33150    243.29755   -750.38088    134936.15   -35557.659    2703.6343   -38261.293     140.5029 
   33200    240.38378   -694.44774    134936.15    -35556.82    2671.2551   -38228.075    140.81262 
   33250    240.41357   -1076.4525    134936.15   -35557.282    2671.5862   -38228.868    141.23739 
   33300    234.68316   -669.69066    134936.15    -35555.21    2607.9071   -38163.117    141.69955 
   33350    241.91973   -869.56321    134936.15   -35557.617    2688.3232    -38245.94    141.90288 
   33400    238.67799   -854.91624    134936.15   -35558.387    2652.2996   -38210.686    142.13814 
   33450    236.53878   -871.88884    134936.15   -35556.842    2628.5277    -38185.37    142.32738 
   33500    237.43002   -559.52474    134936.15   -35556.786    2638.4316   -38195.218    142.50559 
   33550    238.98315   -535.23695    134936.15   -35555.106    2655.6907   -38210.797    143.04758 
   33600     239.8147   -741.36711    134936.15   -35555.837    2664.9312   -38220.768    142.99271 
   33650    244.37154   -893.20041    134936.15     -35557.2     2715.569   -38272.768     143.3296 
   33700    234.41171   -709.60291    134936.15   -35555.444    2604.8907   -38160.335    143.57994 
   33750    240.21751   -1006.9546    134936.15   -35557.358    2669.4074   -38226.765    143.70533 
   33800    240.08989   -907.88591    134936.15   -35556.703    2667.9893   -38224.692    144.01805 
   33850    238.76975    -801.2367    134936.15    -35556.62    2653.3192   -38209.939    144.16999 
   33900     239.2456   -798.56953    134936.15   -35556.245    2658.6072   -38214.853    144.10752 
   33950     240.2209    -690.5389    134936.15   -35556.954    2669.4451   -38226.399    144.33607 
   34000    237.97555   -658.26317    134936.15   -35554.968    2644.4937   -38199.462    144.75914 
   34050    244.64074   -888.28125    134936.15   -35556.717    2718.5604   -38275.278    144.50216 
   34100     235.1744   -734.73386    134936.15   -35554.332     2613.366   -38167.698    144.63007 
   34150    241.89347   -908.59535    134936.15   -35557.268    2688.0315     -38245.3    144.63952 
   34200    239.54839   -511.79657    134936.15   -35557.077    2661.9719   -38219.049    144.55274 
   34250    239.67326   -483.76442    134936.15   -35557.041    2663.3595     -38220.4    144.37237 
   34300    236.10301   -807.21929    134936.15   -35555.685    2623.6853    -38179.37     144.6926 
   34350    243.42034   -759.41503    134936.15   -35557.277    2704.9988   -38262.276    144.81787 
   34400    240.89184   -905.64998    134936.15   -35555.931    2676.9009   -38232.832    145.10761 
   34450    240.81501   -939.34787    134936.15   -35556.568    2676.0472   -38232.615    145.50591 
   34500    237.61659    -722.2018    134936.15   -35556.459    2640.5048   -38196.964    145.70318 
   34550    239.67312   -673.48353    134936.15    -35556.32    2663.3579   -38219.678    145.65685 
   34600    234.63146   -858.24457    134936.15   -35554.943    2607.3327   -38162.276    145.92346 
   34650    246.35798   -797.75012    134936.15   -35558.303    2737.6432   -38295.946    146.26706 
   34700    239.97016   -743.45574    134936.15   -35555.525    2666.6588   -38222.183    146.64004 
   34750    240.93821   -898.56184    134936.15   -35557.272    2677.4161   -38234.688    147.04251 
   34800    238.89887   -851.18806    134936.15   -35555.967    2654.7541   -38210.721    146.84766 
   34850    241.30097   -979.21399    134936.15   -35555.616    2681.4473   -38237.063    146.74164 
   34900    239.67798   -737.16312    134936.15   -35556.725    2663.4119   -38220.136    146.97153 
   34950    242.45453   -512.56293    134936.15   -35557.057    2694.2662   -38251.323    147.44503 
   35000    235.68403   -696.16274    134936.15   -35554.598    2619.0294   -38173.627    147.99546 
   35050    242.71353   -861.41163    134936.15   -35556.429    2697.1444   -38253.574    148.03599 
   35100    240.13724   -599.08396    134936.15   -35556.423    2668.5155   -38224.939     148.4134 
   35150    239.35695   -771.52373    134936.15   -35557.747    2659.8444   -38217.592    148.48513 
   35200    239.92282   -741.08973    134936.15   -35556.839    2666.1327   -38222.971    148.80897 
   35250    243.38341   -512.50913    134936.15    -35557.09    2704.5884   -38261.678     149.0614 
   35300    244.04091   -818.50398    134936.15   -35557.255    2711.8948    -38269.15    149.15523 
   35350    241.12972   -743.98805    134936.15   -35555.912    2679.5443   -38235.456    149.27554 
   35400    245.15178   -689.86171    134936.15   -35557.111    2724.2393    -38281.35    149.30332 
   35450     238.9433   -898.84304    134936.15   -35556.742    2655.2478    -38211.99    149.42468 
   35500    241.39099   -375.11314    134936.15   -35556.508    2682.4477   -38238.956     150.0163 
   35550    242.92858   -423.69034    134936.15   -35556.321    2699.5341   -38255.855    150.24022 
   35600    240.79179     -674.837    134936.15    -35556.07    2675.7891   -38231.859    150.41067 
   35650    239.81946   -687.24151    134936.15   -35555.968    2664.9842   -38220.953     150.6056 
   35700    240.14851   -798.30219    134936.15   -35557.134    2668.6407   -38225.774    150.80025 
   35750    239.69421   -777.63182    134936.15   -35555.371    2663.5923   -38218.963    151.06472 
   35800    239.57324    -777.7445    134936.15   -35557.128     2662.248   -38219.376    151.28504 
   35850    242.43672    -745.3708    134936.15   -35556.685    2694.0684   -38250.753    151.34387 
   35900    244.06175   -776.85507    134936.15   -35557.927    2712.1264   -38270.054    151.74769 
   35950    243.63899    -760.6725    134936.15   -35558.357    2707.4285   -38265.786    151.95107 
   36000    242.54563   -795.90882    134936.15   -35556.898    2695.2785   -38252.176    152.11721 
   36050    244.61102   -693.70194    134936.15   -35556.697    2718.2301   -38274.927    151.84921 
   36100    238.95633    -812.6683    134936.15    -35555.71    2655.3926   -38211.103    152.38797 
   36150    239.94608    -786.5343    134936.15   -35556.739    2666.3912    -38223.13    153.04209 
   36200    238.51304   -850.93906    134936.15   -35556.126    2650.4666   -38206.592    153.35719 
   36250     236.9225   -651.20524    134936.15   -35555.241    2632.7918   -38188.033    153.77387 
   36300    239.93947   -384.24261    134936.15   -35556.914    2666.3178   -38223.232    154.14255 
   36350     243.1009   -587.58216    134936.15   -35557.231     2701.449    -38258.68    154.25319 
   36400    235.35212   -461.56247    134936.15   -35556.644     2615.341   -38171.985      154.309 
   36450    238.71147   -606.83817    134936.15   -35556.401    2652.6716   -38209.073    154.54947 
   36500    239.21163   -722.26075    134936.15   -35556.256    2658.2296   -38214.486    154.80122 
   36550    240.68101   -1048.8915    134936.15   -35557.161    2674.5581   -38231.719     155.0517 
   36600    243.07099    -1034.333    134936.15   -35556.317    2701.1166   -38257.433    155.59192 
   36650    243.91372   -932.15636    134936.15   -35557.052    2710.4815   -38267.534    155.51222 
   36700     244.2765    -490.8125    134936.15   -35557.145    2714.5128   -38271.657     155.7925 
[...]
  140850    241.17226   -679.69439    133947.08   -35395.507    2680.0171   -38075.524    571.12676 
  140900    242.19608   -582.15148     133994.7   -35402.201    2691.3942   -38093.596    571.32125 
  140950    246.84525   -639.62052    134107.11   -35413.872     2743.058    -38156.93    571.33532 
  141000    241.54226   -719.90452    134247.12   -35410.077    2684.1286   -38094.205    571.51907 
  141050    247.04719   -726.52579    134337.08   -35407.122     2745.302   -38152.424    571.81081 
  141100    240.74502   -526.44726    134350.12   -35389.096    2675.2694   -38064.366     571.6344 
  141150     247.5314    -990.1223    134255.39   -35391.832    2750.6828   -38142.514    572.37139 
  141200    243.41318    -922.9712    134096.43   -35416.678    2704.9192   -38121.597    572.76023 
  141250    235.25208   -327.42795    133948.86   -35418.814    2614.2293   -38033.043    572.58193 
  141300    243.49308   -426.30203    133902.26   -35424.486    2705.8071   -38130.293    573.44057 
  141350    243.32694   -679.12446    134000.53   -35430.623    2703.9609   -38134.583    573.92455 
  141400     241.8931   -642.97817    134199.15   -35453.404    2688.0274   -38141.431    574.83932 
  141450     241.3011   -922.37621    134383.84   -35456.432    2681.4488    -38137.88    575.92772 
  141500    240.69131   -749.39773    134497.24   -35457.245    2674.6726   -38131.918    575.81865 
  141550    238.83732   -658.98858    134568.91   -35453.646    2654.0701   -38107.716    576.00047 
  141600    239.94087   -492.42285    134599.33    -35457.37    2666.3332   -38123.703    575.92958 
  141650    241.64902   -704.78259    134621.38   -35501.749     2685.315   -38187.064    576.41442 
  141700    241.69525   -813.40463    134635.91   -35511.623    2685.8288   -38197.452     576.1348 
  141750    239.44065   -730.80502    134672.01   -35485.806    2660.7747   -38146.581    576.32007 
  141800    245.36146   -727.31286    134726.53   -35474.899    2726.5694   -38201.469    576.26872 
  141850     231.5286    -1012.142    134823.42     -35496.1    2572.8523   -38068.952    575.98267 
  141900    238.58374   -485.39537     134837.8   -35496.904    2651.2523   -38148.156    576.15631 
  141950     240.9026   -698.10307    134806.45   -35516.693    2677.0204   -38193.713     575.8913 
  142000    238.23618   -612.75992    134728.31   -35501.661      2647.39   -38149.051    575.99386 
  142050    239.91128   -599.17449    134668.41   -35524.891    2666.0044   -38190.896    576.72808 
  142100    236.76126    -1075.709    134585.94   -35497.336         2631   -38128.336    576.31791 
  142150    235.58286   -612.04343    134421.47   -35487.922     2617.905   -38105.827    576.85564 
  142200    240.06813   -522.37257    134280.74   -35481.498    2667.7475   -38149.245     576.7015 
  142250    242.28507   -527.62265    134217.04   -35462.963    2692.3831   -38155.346    576.14987 
  142300    242.65642   -428.61187    134181.27   -35479.427    2696.5097   -38175.936    576.22578 
  142350     235.6264   -792.33864    134156.65   -35480.521    2618.3889    -38098.91    575.97867 
  142400    243.10243   -588.25745    134138.76   -35491.419    2701.4659   -38192.885    575.58861 
  142450    244.04902   -666.90873    134155.15    -35478.16     2711.985   -38190.145    575.63993 
  142500    240.04375   -778.53862    134244.29   -35506.362    2667.4765   -38173.839    576.36212 
  142550    246.48247   -698.62576     134383.3   -35496.171    2739.0265   -38235.198    576.69352 
  142600    243.25424   -708.44931    134582.59   -35497.304    2703.1529   -38200.457    577.39416 
  142650     237.7906   -1031.0207     134765.1   -35499.607    2642.4385   -38142.046    577.26098 
  142700    238.98548   -1051.0125    134817.22   -35489.025    2655.7166   -38144.741    577.86977 
  142750    235.06996   -878.48812    134773.16   -35514.589    2612.2055   -38126.795    577.68752 
  142800    237.33084   -856.40257    134706.01   -35518.006    2637.3295   -38155.335     578.2749 
  142850    236.71953   -761.18458    134636.09   -35507.641    2630.5363   -38138.177    578.63307 
  142900    237.63169   -817.69327    134596.92   -35503.186    2640.6726   -38143.859    579.31015 
  142950    241.03511   -890.33657    134563.63   -35515.181     2678.493   -38193.674    579.56478 
  143000     241.3922   -884.59175    134564.96   -35492.115    2682.4612   -38174.577    579.90753 
  143050    242.29497   -827.15088    134600.87   -35495.451    2692.4932   -38187.944    580.16137 
  143100    241.83936   -623.07555    134628.38   -35467.801    2687.4302   -38155.231    580.60267 
  143150    248.33402   -837.90391    134624.62    -35487.64    2759.6018   -38247.242    580.80121 
  143200    244.14496   -418.72525    134621.29   -35492.318    2713.0511   -38205.369    581.00616 
  143250    241.60299   -670.00681    134651.24   -35470.136    2684.8036   -38154.939    581.58458 
  143300    241.19963   -599.09233    134692.38   -35477.482    2680.3213   -38157.804    582.12282 
  143350    242.00187   -792.85304    134733.82   -35493.854     2689.236    -38183.09    582.49103 
  143400    241.34888   -789.34776     134772.1   -35510.371    2681.9797   -38192.351    583.31252 
  143450    241.19524   -835.58128    134851.54   -35488.796    2680.2724   -38169.068    583.87452 
  143500    241.78769   -679.59972    134910.41   -35507.081     2686.856   -38193.937    584.22054 
  143550    236.57892   -1129.5266     135021.9   -35482.435    2628.9738   -38111.408    584.25583 
  143600     246.3867   -876.94961    135057.14   -35447.927    2737.9623   -38185.889    585.14572 
  143650    237.62401   -1086.2709    134990.35   -35466.269    2640.5873   -38106.857    585.65789 
  143700    245.25226    -812.0904    134817.67   -35462.564    2725.3559   -38187.919      584.949 
  143750    240.33839   -584.92765    134637.07   -35466.323    2670.7507   -38137.073    585.24612 
  143800    243.63342   -665.94237    134490.25   -35454.836    2707.3666   -38162.203    584.59472 
  143850    241.63473   -487.79988    134428.11   -35459.145    2685.1562   -38144.301    584.00601 
  143900    240.69089    -507.7177    134481.69   -35456.553    2674.6679   -38131.221    584.32585 
  143950    242.73233   -829.41433    134546.43   -35458.637    2697.3533    -38155.99    584.91388 
  144000    241.13356   -500.92815    134543.09   -35438.216     2679.587   -38117.802    585.09478 
  144050    243.51794   -601.70872    134538.41   -35438.649    2706.0833   -38144.733    585.92049 
  144100    242.81554   -688.01798    134532.38   -35447.401     2698.278   -38145.679    586.23133 
  144150    241.85576   -718.20245    134532.47   -35443.184    2687.6124   -38130.796    586.81098 
  144200    241.97974   -747.09431     134553.8   -35438.715    2688.9902   -38127.705     586.6818 
  144250    241.65455   -617.10516    134571.93   -35426.995    2685.3765   -38112.372    586.99159 
  144300    239.15137   -826.38237    134603.34   -35410.065      2657.56   -38067.625    587.43308 
  144350    246.96425   -789.22608    134627.72   -35412.821    2744.3803   -38157.201    587.22439 
  144400    240.30204   -672.42661    134700.37   -35417.777    2670.3468   -38088.124    587.86416 
  144450    246.60862   -363.86789    134851.65    -35420.67    2740.4284   -38161.099    588.07713 
  144500    243.36957   -739.40865    135050.69   -35437.809    2704.4346   -38142.244    588.76372 
  144550    241.40816   -608.83806    135195.67   -35433.524    2682.6384   -38116.163    589.51419 
  144600    244.14154   -920.01288     135296.3   -35459.655    2713.0131   -38172.668    589.94859 
  144650    242.67594   -945.66889    135340.38   -35441.095    2696.7267   -38137.821     590.6425 
  144700    248.96926   -921.36261    135317.76    -35421.42    2766.6609    -38188.08    591.53295 
  144750    246.61657     -797.396     135184.7   -35430.277    2740.5167   -38170.794    592.16387 
  144800    244.20493   -808.37749    134994.92    -35434.79    2713.7175   -38148.508    591.70646 
  144850    244.61172     -507.714       134858   -35450.277     2718.238   -38168.515    592.54166 
  144900     243.3048   -801.12061    134812.28   -35455.458    2703.7149   -38159.173    592.94799 
  144950    237.67388   -622.80547    134776.68   -35471.942    2641.1414   -38113.083    593.66785 
  145000    245.85331   -657.13788    134774.25   -35478.672     2732.035   -38210.707    594.12199 
  145050    240.60671   -684.03067    134812.17    -35476.18    2673.7324   -38149.912    594.18052 
  145100    241.12119   -474.01723    134893.68   -35460.846    2679.4496   -38140.296    594.69245 
  145150    240.99218   -442.05073    135017.41   -35464.986    2678.0159   -38143.002    595.12844 
  145200    239.54639   -913.80532    135156.67   -35476.328    2661.9497   -38138.278    595.34901 
  145250    242.59324   -731.37213    135185.45   -35472.478    2695.8077   -38168.286    595.90526 
  145300    235.97392   -662.08553    135100.79   -35476.165    2622.2507   -38098.415    596.46552 
  145350    239.06544   -941.01718     135010.1   -35493.753    2656.6051   -38150.358    596.47204 
  145400    244.57459   -604.83017    134930.86   -35473.677    2717.8253   -38191.503     596.8007 
  145450    243.25214   -679.20796    134910.95    -35489.45    2703.1296    -38192.58    596.95266 
  145500    241.01247   -923.42689    134926.04   -35485.634    2678.2415   -38163.876    597.48973 
  145550     239.7721   -734.44264    134929.03   -35503.209    2664.4579   -38167.667    598.43483 
  145600    238.89461   -885.76651    134946.84   -35511.231    2654.7068   -38165.938    598.65654 
  145650    239.28957   -886.68576    134981.17   -35498.982    2659.0958   -38158.078    598.97412 
  145700    241.66631   -761.09747    135005.76   -35494.866    2685.5072   -38180.374    599.66448 
  145750    240.67126   -1001.5251    135058.09    -35500.27    2674.4497   -38174.719    600.28104 
  145800    247.47674   -935.09674    135105.82   -35494.154    2750.0754   -38244.229    600.75055 
  145850     242.4069   -744.23074    135102.86   -35509.602     2693.737   -38203.339     601.5053 
  145900    244.36563   -900.29181    135113.95   -35508.341    2715.5032   -38223.844    601.53934 
  145950    241.80331   -973.48688    135089.37   -35494.879    2687.0296   -38181.909    601.47865 
  146000    242.04845   -529.02786    135015.29   -35510.739    2689.7537   -38200.493     601.9184 
  146050    240.90215   -524.38172    135002.34   -35503.415    2677.0155    -38180.43    602.82568 
  146100    241.03472   -782.08804    135058.42   -35479.444    2678.4886   -38157.933    603.59063 
  146150    239.04312   -718.76008    135117.01   -35483.899     2656.357   -38140.256    603.83627 
  146200    241.17615   -837.48913    135139.51   -35453.688    2680.0603   -38133.749    605.12474 
  146250    241.25384   -879.71182    135140.59   -35450.746    2680.9236   -38131.669    605.00454 
  146300    236.89723   -980.12545    135108.33   -35445.764     2632.511   -38078.275    605.85017 
  146350    237.57338   -850.15674    135068.41   -35466.166    2640.0246   -38106.191    605.85407 
  146400    246.04309   -793.72478    135034.94   -35472.739    2734.1439   -38206.883    605.86566 
  146450    240.04532   -591.30482    134986.73   -35465.955     2667.494   -38133.449    606.03441 
  146500    241.51462   -855.71339    134921.68    -35444.95    2683.8215   -38128.772    606.93851 
  146550    237.39668   -883.80145    134820.54   -35451.718     2638.061   -38089.779    607.07369 
  146600    242.28766   -763.57026    134729.54   -35440.191    2692.4119   -38132.603    607.09412 
  146650     240.4036   -916.95233    134689.98   -35451.006    2671.4754   -38122.482    607.03959 
  146700    242.94518   -523.37804    134715.88   -35468.983    2699.7186   -38168.701    607.12769 
  146750      246.492   -570.22576    134814.18   -35466.474    2739.1325   -38205.606    607.39754 
  146800    239.27692   -1082.8457    134942.47   -35470.804    2658.9552    -38129.76    607.64733 
  146850    244.02124   -652.02844     134978.8   -35481.894    2711.6762   -38193.571     608.0751 
  146900      242.713   -794.45072    134976.25   -35461.147    2697.1384   -38158.286    607.90764 
  146950    239.74817   -800.01319    134927.68   -35453.143     2664.192   -38117.335    608.82593 
  147000    243.27842   -476.07079    134832.83    -35469.15    2703.4217   -38172.572     608.4577 
  147050    245.45949   -785.70346    134767.01   -35465.551    2727.6587    -38193.21    608.57613 
  147100    244.21685   -543.03074    134727.55   -35485.762    2713.8499   -38199.612    608.78027 
  147150    248.52351   -733.76951    134773.33   -35513.011    2761.7075   -38274.718      608.936 
  147200    241.34239   -595.13843    134864.57   -35496.427    2681.9076   -38178.335    609.57985 
  147250    242.41782   -780.72383     134959.6   -35511.941    2693.8583   -38205.799    609.90511 
  147300    241.63739   -741.56224    134982.88   -35514.506    2685.1858   -38199.692    610.18954 
  147350    239.87899   -810.51717    134928.72   -35532.761    2665.6456   -38198.406    610.54336 
  147400    245.60651   -624.86512    134752.84   -35532.823    2729.2925   -38262.116    611.11045 
  147450    241.49931   -499.81647    134536.95   -35568.828    2683.6514    -38252.48    610.98774 
  147500    238.29334   -582.78275     134381.9     -35566.6    2648.0251   -38214.626    610.70875 
  147550     242.8993   -594.31934    134293.28   -35547.873    2699.2087   -38247.082    610.99826 
  147600    237.92719   -362.20979    134308.05   -35540.214    2643.9563    -38184.17    611.27189 
  147650    243.33396   -643.10192    134388.74   -35523.544    2704.0389   -38227.583    611.08531 
  147700    245.17479   -922.40534    134499.55   -35521.156     2724.495   -38245.651    611.33645 
  147750     241.5916   -922.91913    134611.06   -35519.458    2684.6769   -38204.135    611.41701 
  147800    241.41639   -857.26986    134745.65   -35529.475    2682.7299   -38212.205    611.50768 
  147850     234.4754   -1057.7809    134841.21   -35558.413    2605.5984   -38164.012    610.98772 
  147900    238.20698   -685.76647    134888.63   -35569.263    2647.0655   -38216.328    611.77651 
  147950    242.36378   -762.01181    134924.12   -35562.076    2693.2577   -38255.334    611.51282 
  148000     241.6759   -807.75319    134925.11   -35557.822    2685.6137   -38243.436    611.61365 
  148050     235.6113   -699.58855    134873.41   -35563.439    2618.2211    -38181.66    611.28395 
  148100     244.0786   -641.20633    134789.85   -35563.614    2712.3137   -38275.927       610.81 
  148150    235.72209   -556.71883    134732.29   -35568.721    2619.4523   -38188.173    610.29606 
  148200    241.01798   -795.79107    134673.94   -35578.622    2678.3026   -38256.925    610.99938 
  148250    237.81298   -678.19481    134638.54   -35582.653    2642.6872    -38225.34    610.57394 
  148300    234.66758   -407.71629    134606.79   -35586.503     2607.734   -38194.237    610.17927 
  148350    237.14188    -581.2561    134614.36   -35607.696    2635.2296   -38242.926    610.14249 
  148400    240.47347   -727.70285    134657.01   -35576.542    2672.2517   -38248.793    609.77208 
  148450    236.71312   -516.61686    134755.58   -35560.854     2630.465   -38191.319    609.85379 
  148500    239.68878   -955.90792    134895.31   -35584.555     2663.532   -38248.087    609.76293 
  148550    236.09238   -1007.7455    134948.49   -35578.237    2623.5671   -38201.804    610.37241 
  148600    238.62851   -853.08165    134904.32   -35597.999    2651.7497   -38249.748    610.35757 
  148650    237.58553   -644.21698    134858.81   -35613.299    2640.1596   -38253.458    610.15451 
  148700    237.63878   -502.54876    134832.41   -35602.309    2640.7514    -38243.06    610.53936 
  148750    245.43753   -526.45123    134868.72   -35590.503    2727.4147   -38317.918    610.82464 
  148800    234.25296   -804.31279    134979.69   -35592.022    2603.1266   -38195.148    611.52172 
  148850     237.0526   -649.20687    135109.96   -35577.333    2634.2375   -38211.571    611.65605 
  148900     237.9957   -653.43728    135261.51   -35571.287    2644.7177   -38216.004    611.96772 
  148950    237.94076   -1028.0651     135376.6   -35560.267    2644.1072   -38204.374    611.63722 
  149000    237.18899   -845.57487    135369.82   -35573.241    2635.7532   -38208.994    611.53009 
  149050    240.33131   -923.04063    135234.18   -35558.666    2670.6721   -38229.338    611.48112 
  149100    239.59142   -837.00395    135000.82   -35574.047      2662.45   -38236.497    610.81424 
  149150    238.85368   -765.29823    134780.23   -35591.271     2654.252   -38245.523    610.57112 
  149200    235.46174   -580.04668    134620.99   -35605.749    2616.5592   -38222.308    610.68608 
  149250    239.64042   -559.64135    134521.99   -35598.736    2662.9946    -38261.73    610.85498 
  149300    236.63121   -695.54777    134478.26   -35629.245    2629.5548     -38258.8    610.68627 
  149350    237.43817   -707.81521    134489.26   -35642.532    2638.5221   -38281.054    610.81007 
  149400    236.77632   -598.00514    134542.69   -35624.018    2631.1673   -38255.185    611.00793 
  149450    239.35379   -1269.3867    134613.19   -35623.038    2659.8093   -38282.848    610.94584 
  149500    237.14031   -798.85158    134635.33   -35636.905    2635.2121   -38272.117    611.06192 
  149550    238.22274   -482.00262    134677.76    -35625.01    2647.2406   -38272.251    610.91178 
  149600    240.10256   -1034.7937    134779.43   -35605.917    2668.1301   -38274.047      611.601 
  149650    241.65945    -822.1582    134859.53   -35617.371    2685.4309   -38302.802    612.01392 
  149700    234.46774   -846.71513    134920.58   -35606.917    2605.5134    -38212.43    613.20954 
  149750     235.6916   -853.74954     134914.9   -35613.759    2619.1135   -38232.873    613.50296 
  149800    237.40872    -846.2788    134842.43   -35614.424    2638.1949   -38252.619    613.99525 
  149850       238.82   -826.72105    134744.12   -35615.268    2653.8776   -38269.145    613.68707 
  149900    238.88471   -411.36115     134590.9   -35626.587    2654.5968   -38281.184      613.182 
  149950    242.64682   -492.16134    134490.58   -35611.202     2696.403   -38307.605    612.86627 
  150000    238.80423   -589.98423    134476.24   -35596.359    2653.7024   -38250.061    612.49526 
Loop time of 422.578 on 12 procs for 100000 steps with 6489 atoms

Performance: 204.459 ns/day, 0.117 hours/ns, 236.643 timesteps/s
96.3% CPU use with 12 MPI tasks x no OpenMP threads

MPI task timing breakdown:
Section |  min time  |  avg time  |  max time  |%varavg| %total
---------------------------------------------------------------
Pair    | 64.866     | 134.18     | 268.73     | 803.6 | 31.75
Neigh   | 9.3817     | 18.582     | 37.058     | 284.9 |  4.40
Comm    | 87.186     | 239.31     | 317.28     | 676.8 | 56.63
Output  | 0.24286    | 0.25005    | 0.30115    |   3.1 |  0.06
Modify  | 26.244     | 26.691     | 27.167     |   6.2 |  6.32
Other   |            | 3.56       |            |       |  0.84

Nlocal:        540.750 ave         932 max         350 min
Histogram: 8 0 0 0 0 0 0 0 0 4
Nghost:        1694.17 ave        1878 max        1602 min
Histogram: 8 0 0 0 0 0 0 0 2 2
Neighs:        0.00000 ave           0 max           0 min
Histogram: 12 0 0 0 0 0 0 0 0 0
FullNghs:      43533.3 ave      105399 max       13673 min
Histogram: 8 0 0 0 0 0 0 0 0 4

Total # of neighbors = 522400
Ave neighs/atom = 80.505471
Neighbor list builds = 11752
Dangerous builds = 0


# Create data file for import to other simulations
#
write_data data.${NAME}
write_data data.ML_graphite_m500atm_240K
System init for write_data ...


Total wall time: 0:10:27
