LAMMPS data file via write_data, version 16 Mar 2018, timestep = 8000000

6328 atoms
2 atom types

0.0000000000000000e+00 4.9219999999999999e+01 xlo xhi
0.0000000000000000e+00 4.9019635930410494e+01 ylo yhi
2.0784300204760271e+00 5.7983569979531019e+01 zlo zhi

Masses

1 18.015
2 12.01

Atoms # atomic

187 1 2.5983240317597467e+00 3.4034763037938967e+00 3.2093387708369558e+00 0 5 0
3502 1 2.8900708235777479e+00 2.9925117600845361e+00 5.9361189612047411e+00 1 5 0
4728 1 6.9883945685018745e+00 2.9222526144680536e+00 2.8292729579119698e+00 -1 -1 1
1526 1 7.1127789180309193e+00 3.1933603713050931e+00 5.6318846413985062e+00 -2 -1 0
1850 1 1.1557676523680861e+01 3.1566359082741031e+00 3.0589734368179315e+00 -3 1 0
3282 1 1.1775132770151378e+01 2.9427005715962262e+00 5.6799325064528334e+00 -2 0 1
3227 1 3.4053475458000992e-01 6.8052030610638123e+00 2.6589372965450897e+00 -2 -4 1
4518 1 1.9964341102775982e-01 9.5983323884619764e+00 6.0476188478501403e+00 0 4 0
3494 1 4.7878634897804861e+00 7.1825990647753812e+00 5.4139733892804527e+00 -1 0 0
4805 1 1.1587394775687361e+01 3.4118774131880341e+00 1.2683473374723722e+01 1 1 0
6294 1 9.1763059965437588e+00 6.8001118965657295e+00 5.2659418262317601e+00 1 3 1
1398 1 2.3437556112403271e+00 1.0637822069512916e+01 2.2679768458923459e+00 0 -2 1
3479 1 9.2046805348011027e+00 1.1611251255025746e+01 1.3452777522402188e+01 -1 2 0
3305 1 2.5713984643532650e+00 1.0706889898014440e+01 5.0884777796161726e+00 1 3 1
1316 1 6.9338553475962827e+00 1.0737342490390340e+01 4.7264444776772052e+00 1 1 1
177 1 9.1793047753900829e+00 4.4614440911075794e+00 1.3761220501368399e+01 -1 0 1
4971 1 1.1386147741480121e+01 1.0396949470789359e+01 5.2064466301147814e+00 -2 -1 0
3254 1 3.4142492580479900e-01 6.9718762246058672e+00 1.0166352098738313e+01 -3 -1 0
2136 1 4.8167345082385066e-01 2.2088791235742917e+00 9.3795867036703235e+00 1 2 0
5072 1 4.9226638199543304e-01 2.2638085368291754e+00 6.7247471090763886e+00 -2 2 1
3463 1 5.2149710033765011e+00 1.9944917381272580e+00 6.5607607259629139e+00 -1 1 0
4651 1 4.9833871057655950e+00 2.1550477082033930e+00 9.2830840046633831e+00 2 2 1
3187 1 9.3700043082802562e+00 1.7611515030964642e+00 6.3128319289460810e+00 2 1 0
2901 1 2.2939695498208130e+00 5.7392615443280963e+00 6.5339353514842333e+00 6 2 1
416 1 6.7780218473883087e+00 5.9751372156038034e+00 6.3995909891229843e+00 3 -1 0
1587 1 6.9587459329317181e+00 5.7022096937088644e+00 9.2458387181558681e+00 2 0 0
1265 1 1.1482832635028702e+01 5.5453427964941531e+00 6.2395537692721872e+00 -5 -2 1
1719 1 1.1367226625689675e+01 5.6143285154541847e+00 8.8705593882512250e+00 0 3 1
5187 1 4.9648644492189691e+00 9.6764684612046974e+00 6.2663732674126376e+00 -1 -1 0
5097 1 4.3914218691955300e+00 9.3308947578062256e+00 8.9904747741521795e+00 2 -4 0
2954 1 9.0372570273879980e+00 9.3908607965734667e+00 6.1448914640980163e+00 -2 -2 1
3613 1 9.1925342755087858e+00 9.4556718649067069e+00 9.1307212522993559e+00 0 -1 1
29 1 2.8309231597125106e+00 3.2492553180928287e+00 1.0255296760347360e+01 2 -3 0
1599 1 2.7069270490750270e+00 3.0659839670231475e+00 1.2959384309928712e+01 1 -2 0
3133 1 7.3677568559547693e+00 2.9735108454310946e+00 1.0335209658742999e+01 2 1 1
3188 1 1.1920021622795490e+01 7.1032962014853918e-01 1.3291031164828844e+01 4 -3 0
6065 1 9.2873551671621009e+00 1.8841058499690813e+00 9.1753653797532841e+00 -1 3 0
4606 1 2.4456099938883886e+00 5.7745143852759746e+00 9.2726904795769691e+00 -1 2 1
3703 1 3.1419844654417242e+00 8.0076970359385746e-01 2.3783135027862081e+00 -4 2 1
1490 1 4.6402338121273763e+00 6.8585458760428439e+00 1.0231506314783852e+01 1 2 1
6156 1 9.0623567689703854e+00 6.9595334125201749e+00 1.0295799447769552e+01 1 3 1
1884 1 2.3573741587357664e+00 1.0817141663714306e+01 9.9384571067048277e+00 -4 -1 0
2037 1 1.8264455556014764e-01 6.9749506018116572e+00 5.3725290174748874e+00 -2 0 0
5131 1 1.8689053556999380e+00 1.0635631598636895e+01 1.2930045033508899e+01 -2 5 1
5005 1 6.7003039328106961e+00 1.0608661877746297e+01 1.2779591453404958e+01 0 -3 0
1478 1 6.8855885836045756e+00 1.0436887371758331e+01 1.0071983183656151e+01 2 -4 1
3122 1 1.1722587556968163e+01 1.0756834812681744e+01 9.7603296431765010e+00 2 1 1
282 1 1.1590340542030692e+01 1.0512346310109482e+01 1.2498387757014177e+01 3 -2 0
1845 1 2.8413183600795255e+00 4.9011479653358431e-01 1.3857864473206035e+01 3 0 0
3562 1 7.3599290824132053e+00 5.8479396574629106e-01 1.3979726656460997e+01 2 1 0
2980 1 6.9800067603299087e+00 3.0266326749431824e+00 1.2964339083792424e+01 -1 1 1
265 1 4.7048955893805839e+00 4.5712910419849546e+00 1.3998331090724216e+01 4 0 1
19 1 9.1999434418418691e+00 6.8472526810957062e+00 1.2954135373018875e+01 -1 0 0
5063 1 1.1756485264460977e+01 7.8893139270493657e+00 1.3370318966645948e+01 2 -2 0
1989 1 4.4983313595444532e+00 7.0617383850639204e+00 2.6493836437517411e+00 -4 1 0
4834 1 6.0315234602628420e-01 4.4019446723382396e+00 1.3950405768479358e+01 -3 2 0
3639 1 2.2176567066207977e+00 8.0643613118264916e+00 1.3941280822400156e+01 3 0 1
3315 1 7.0088799180019405e+00 8.0698405517233400e+00 1.3802267163952042e+01 -2 4 1
1304 1 4.5102313647374945e+00 7.0855767682291377e+00 1.3092783745008694e+01 2 0 1
1590 1 4.4149756758679333e+00 1.1924540086082338e+01 1.3501228787909103e+01 -1 1 0
1582 1 1.1262253233852556e+01 3.2940605658308924e+00 9.9385524480473038e+00 -4 3 0
2103 1 9.1603803103926644e+00 7.2564596681842861e+00 2.5751799215385187e+00 -2 1 1
1985 1 1.6941535266210214e-01 9.5631980755250510e+00 8.9693527450400765e+00 3 -1 0
6191 1 1.1413820286831077e+01 1.0391734410324215e+01 2.3113348343309772e+00 -2 0 0
191 1 2.5303603223370175e-01 6.8315328921588412e+00 1.2826858892435194e+01 -2 -2 0
1524 1 9.1036496436011856e+00 4.3436653557259683e+00 2.1481793179495341e+00 0 -3 1
6299 1 1.0032600133016250e+00 1.6139025851992543e+00 1.7385996343189717e+01 -2 1 0
2091 1 1.2136945439925020e+01 2.8632592610602550e+00 2.1481187617393189e+01 2 -1 1
5320 1 5.4374546257671144e+00 2.0970847216432644e+00 1.7407675946205075e+01 -2 -6 0
728 2 9.8440000000000012e+00 1.1366872099805333e+01 2.6694852171881067e+01 0 0 0
6119 1 9.9417878937148316e+00 1.8351224884792021e+00 1.7341783081821404e+01 -5 -4 0
3679 1 6.7358121659531189e+00 1.0693035587775638e+01 2.3734774969255156e+01 7 3 0
6314 1 2.8556726376915025e+00 5.7026015137904951e+00 1.7843578726565667e+01 -2 -4 1
525 1 6.5345442247701990e-01 4.3738769283411951e+00 1.6556547766362470e+01 4 -2 1
2043 1 7.2524741504731018e+00 5.7963872098851503e+00 1.7569632791988589e+01 -2 -2 0
1724 1 9.2929930983474893e+00 4.3726737919261600e+00 1.6431832448206464e+01 0 -1 0
775 2 1.2304999999999998e+01 1.1366872099805333e+01 2.6694852171881067e+01 0 0 0
3302 1 1.1537419132111292e+01 5.5206709951801765e+00 1.7301006549748095e+01 0 2 1
3056 1 1.0623490658755200e-01 9.3167924223274792e+00 2.0196830788256801e+01 3 -2 1
636 2 4.9220000000000006e+00 1.1366872099805333e+01 2.6694852171881067e+01 0 0 0
4710 1 1.0362995555105280e-01 9.4748164054992277e+00 1.7353864889594725e+01 0 2 1
685 2 8.6134999999999984e+00 9.2355835810918343e+00 2.6694852171881067e+01 0 0 0
6120 1 4.5895791928900591e+00 9.3633844078108126e+00 1.7564222506267612e+01 2 -4 1
726 2 8.6134999999999984e+00 1.0656442593567498e+01 2.6694852171881067e+01 0 0 0
1404 1 9.2660754663693883e+00 9.5373530048591473e+00 1.7246490794009517e+01 -3 2 0
679 2 6.1524999999999999e+00 1.0656442593567499e+01 2.6694852171881067e+01 0 0 0
1656 1 7.1631903467334057e-01 1.6656371390588121e+00 2.0229817982558970e+01 1 -1 1
5092 1 3.0556214116096618e+00 2.8622256445558509e+00 2.1457566262344724e+01 3 2 -1
5025 1 5.4078448533584886e+00 1.8199419142285895e+00 2.0021133896471806e+01 -2 1 0
6044 1 7.5706402552606828e+00 2.9567080312443186e+00 2.1229048167591507e+01 1 -1 1
133 1 1.1957128905536447e+01 2.0961261470291678e-01 1.6069354035982759e+01 2 0 1
5107 1 9.9047969764537669e+00 1.8068001759250045e+00 2.0202953911744547e+01 2 1 1
5259 1 2.5612175388554252e+00 5.4765590804681175e+00 2.0546023188489471e+01 3 0 0
4812 1 7.1056478930010689e+00 8.2298462499739866e+00 1.6439799076344258e+01 0 2 0
1333 1 7.2431713578642141e+00 5.4304694222172216e+00 2.0229551445435167e+01 1 2 1
5049 1 4.9673569517626630e+00 6.6394499548845243e+00 2.1128953897092558e+01 0 -2 0
3419 1 1.1727368769029606e+01 5.5954282822638097e+00 2.0213273008435660e+01 3 -2 0
4860 1 9.3580019149134035e+00 6.8984721284095682e+00 2.1104193660587431e+01 -1 -1 0
732 2 1.1074500000000002e+01 9.2355835810918343e+00 2.6694852171881067e+01 0 0 0
2931 1 2.4226495525567096e+00 1.0439887143133525e+01 2.1635772787462592e+01 -3 -1 1
6081 1 4.6080287406807106e+00 9.3038708679481203e+00 2.0252339629180124e+01 1 3 1
246 1 6.9053846900353069e+00 1.0686586287412135e+01 2.0871368389552568e+01 -2 2 0
501 1 9.0402839326183564e+00 9.3720250065469060e+00 1.9877536761304743e+01 2 2 1
4456 1 1.1474196297905067e+01 1.0362824557893395e+01 2.0646561303569392e+01 6 4 0
2070 1 1.7594072824463747e+00 2.3420058407264817e+00 2.4219693789900838e+01 1 -2 0
773 2 1.1074500000000002e+01 1.0656442593567498e+01 2.6694852171881067e+01 0 0 0
255 1 4.3661540737510549e+00 3.6982024919793099e+00 2.3911636592324292e+01 -2 -4 0
542 1 6.4804906658150214e+00 2.2674900883535805e+00 2.3795919561054749e+01 -2 1 1
1613 1 8.7153538482189266e+00 3.8487314780466679e+00 2.4240500973871139e+01 -1 -1 1
2844 1 1.0841558902468307e+01 2.0728640847779078e+00 2.4121961308163275e+01 -1 -2 1
1342 1 3.3324811809136836e+00 8.0039080634558768e-01 1.6456877990295446e+01 0 -1 0
4955 1 2.2631922981269859e+00 8.3751482046724561e+00 2.4011427592694250e+01 -3 3 1
1819 1 4.4681739471979771e+00 6.5997716745590163e+00 2.3794884183339885e+01 -2 2 0
4809 1 6.8308378911772696e+00 8.0062302174048590e+00 2.4449831847007555e+01 1 3 0
3033 1 1.1615079295987027e+01 7.6653694756913620e+00 2.4143468339099179e+01 2 -2 0
4556 1 9.0211636976196932e+00 6.5995297914841373e+00 2.3728551118080343e+01 -2 -4 1
4777 1 4.0665031423399709e+00 1.1097116987831328e+01 2.4211142430923406e+01 2 -1 0
4617 1 4.1894791260165576e+00 1.1550283878365631e+01 1.6218584630234950e+01 1 0 1
4652 1 9.1097402246690962e+00 1.1846147841062507e+01 2.4160814438159296e+01 1 -5 1
3470 1 1.1193066546127385e+01 1.0418059731675770e+01 2.3408984734839471e+01 -2 -2 0
730 2 9.8440000000000012e+00 8.5251540748539956e+00 2.6694852171881067e+01 0 0 0
552 2 0.0000000000000000e+00 2.8417180249513345e+00 2.6694852171881067e+01 0 0 0
554 2 0.0000000000000000e+00 0.0000000000000000e+00 2.6694852171881067e+01 0 0 0
556 2 1.2305000000000001e+00 7.1042950623783474e-01 2.6694852171881067e+01 0 0 0
563 2 1.2305000000000001e+00 2.1312885187134998e+00 2.6694852171881067e+01 0 0 0
565 2 2.4610000000000003e+00 2.8417180249513345e+00 2.6694852171881067e+01 0 0 0
567 2 2.4610000000000003e+00 0.0000000000000000e+00 2.6694852171881067e+01 0 0 0
569 2 3.6915000000000004e+00 7.1042950623783474e-01 2.6694852171881067e+01 0 0 0
584 2 3.6914999999999996e+00 2.1312885187134998e+00 2.6694852171881067e+01 0 0 0
586 2 4.9220000000000006e+00 2.8417180249513332e+00 2.6694852171881067e+01 0 0 0
588 2 4.9220000000000006e+00 0.0000000000000000e+00 2.6694852171881067e+01 0 0 0
590 2 6.1524999999999999e+00 7.1042950623783407e-01 2.6694852171881067e+01 0 0 0
613 2 6.1524999999999999e+00 2.1312885187134989e+00 2.6694852171881067e+01 0 0 0
615 2 7.3829999999999991e+00 2.8417180249513345e+00 2.6694852171881067e+01 0 0 0
617 2 7.3829999999999991e+00 0.0000000000000000e+00 2.6694852171881067e+01 0 0 0
619 2 8.6134999999999984e+00 7.1042950623783407e-01 2.6694852171881067e+01 0 0 0
650 2 8.6134999999999984e+00 2.1312885187135002e+00 2.6694852171881067e+01 0 0 0
652 2 9.8440000000000012e+00 2.8417180249513332e+00 2.6694852171881067e+01 0 0 0
654 2 9.8440000000000012e+00 0.0000000000000000e+00 2.6694852171881067e+01 0 0 0
656 2 1.1074500000000002e+01 7.1042950623783330e-01 2.6694852171881067e+01 0 0 0
695 2 1.1074500000000002e+01 2.1312885187135002e+00 2.6694852171881067e+01 0 0 0
559 2 0.0000000000000000e+00 4.2625770374269996e+00 2.6694852171881067e+01 0 0 0
561 2 1.2305000000000001e+00 4.9730065436648339e+00 2.6694852171881067e+01 0 0 0
576 2 1.2305000000000001e+00 6.3938655561404980e+00 2.6694852171881067e+01 0 0 0
580 2 2.4610000000000003e+00 4.2625770374269996e+00 2.6694852171881067e+01 0 0 0
582 2 3.6914999999999996e+00 4.9730065436648339e+00 2.6694852171881067e+01 0 0 0
605 2 3.6914999999999996e+00 6.3938655561404980e+00 2.6694852171881067e+01 0 0 0
557 2 0.0000000000000000e+00 7.1042950623783341e+00 2.6694852171881067e+01 0 0 0
578 2 2.4610000000000003e+00 7.1042950623783341e+00 2.6694852171881067e+01 0 0 0
609 2 4.9220000000000006e+00 4.2625770374269978e+00 2.6694852171881067e+01 0 0 0
611 2 6.1524999999999999e+00 4.9730065436648339e+00 2.6694852171881067e+01 0 0 0
642 2 6.1524999999999999e+00 6.3938655561404980e+00 2.6694852171881067e+01 0 0 0
646 2 7.3829999999999991e+00 4.2625770374269996e+00 2.6694852171881067e+01 0 0 0
607 2 4.9220000000000006e+00 7.1042950623783341e+00 2.6694852171881067e+01 0 0 0
644 2 7.3830000000000009e+00 7.1042950623783341e+00 2.6694852171881067e+01 0 0 0
648 2 8.6135000000000002e+00 4.9730065436648339e+00 2.6694852171881067e+01 0 0 0
687 2 8.6135000000000002e+00 6.3938655561404980e+00 2.6694852171881067e+01 0 0 0
691 2 9.8440000000000012e+00 4.2625770374270004e+00 2.6694852171881067e+01 0 0 0
693 2 1.1074500000000002e+01 4.9730065436648339e+00 2.6694852171881067e+01 0 0 0
734 2 1.1074500000000002e+01 6.3938655561404980e+00 2.6694852171881067e+01 0 0 0
689 2 9.8440000000000012e+00 7.1042950623783341e+00 2.6694852171881067e+01 0 0 0
570 2 0.0000000000000000e+00 1.1366872099805333e+01 2.6694852171881067e+01 0 0 0
572 2 0.0000000000000000e+00 8.5251540748539991e+00 2.6694852171881067e+01 0 0 0
601 2 2.4610000000000003e+00 8.5251540748539991e+00 2.6694852171881067e+01 0 0 0
597 2 1.2305000000000001e+00 1.0656442593567498e+01 2.6694852171881067e+01 0 0 0
574 2 1.2305000000000001e+00 9.2355835810918343e+00 2.6694852171881067e+01 0 0 0
603 2 3.6915000000000004e+00 9.2355835810918343e+00 2.6694852171881067e+01 0 0 0
634 2 3.6914999999999996e+00 1.0656442593567499e+01 2.6694852171881067e+01 0 0 0
599 2 2.4610000000000003e+00 1.1366872099805333e+01 2.6694852171881067e+01 0 0 0
640 2 6.1524999999999999e+00 9.2355835810918343e+00 2.6694852171881067e+01 0 0 0
683 2 7.3830000000000009e+00 8.5251540748539991e+00 2.6694852171881067e+01 0 0 0
638 2 4.9220000000000006e+00 8.5251540748539991e+00 2.6694852171881067e+01 0 0 0
681 2 7.3829999999999991e+00 1.1366872099805333e+01 2.6694852171881067e+01 0 0 0
6173 1 2.4893386249027660e+00 8.1286553584711356e+00 1.6619258935086119e+01 1 2 1
1635 1 5.0077911905633121e-01 1.1440591864099195e+01 2.3911184141971862e+01 -2 -1 0
3568 1 1.1334504358818803e+01 8.2648728167832068e+00 1.6221217796077042e+01 4 3 1
3205 1 4.9512912846296437e+00 4.7163770997761398e+00 1.6585196370886788e+01 0 1 1
2065 1 5.3786719562811024e-02 6.6634147240648751e+00 2.1088108043098337e+01 -1 1 0
5194 1 7.6027912539873297e+00 3.9085985604116158e-01 1.6746491261239058e+01 1 -1 0
1917 1 6.2594736942820361e-02 6.5663220580694057e+00 2.3894172825869781e+01 1 -2 0
4817 1 8.9120110736164477e+00 1.1911424156610035e+01 1.6249786449696312e+01 -5 1 1
553 2 0.0000000000000000e+00 1.4208590124756650e+00 3.0031000000003605e+01 0 0 0
555 2 0.0000000000000000e+00 0.0000000000000000e+00 3.0031000000003605e+01 0 0 0
564 2 1.2305000000000001e+00 2.1312885187134998e+00 3.0031000000003605e+01 0 0 0
566 2 2.4610000000000003e+00 1.4208590124756650e+00 3.0031000000003605e+01 0 0 0
568 2 2.4610000000000003e+00 0.0000000000000000e+00 3.0031000000003605e+01 0 0 0
585 2 3.6914999999999996e+00 2.1312885187134998e+00 3.0031000000003605e+01 0 0 0
562 2 1.2305000000000001e+00 3.5521475311891644e+00 3.0031000000003605e+01 0 0 0
583 2 3.6914999999999996e+00 3.5521475311891644e+00 3.0031000000003605e+01 0 0 0
881 2 0.0000000000000000e+00 2.8417180249513345e+00 3.3367147828110191e+01 0 0 0
882 2 0.0000000000000000e+00 0.0000000000000000e+00 3.3367147828110191e+01 0 0 0
883 2 1.2305000000000001e+00 7.1042950623783474e-01 3.3367147828110191e+01 0 0 0
887 2 1.2305000000000001e+00 2.1312885187134998e+00 3.3367147828110191e+01 0 0 0
888 2 2.4610000000000003e+00 2.8417180249513345e+00 3.3367147828110191e+01 0 0 0
889 2 2.4610000000000003e+00 0.0000000000000000e+00 3.3367147828110191e+01 0 0 0
890 2 3.6915000000000004e+00 7.1042950623783474e-01 3.3367147828110191e+01 0 0 0
898 2 3.6914999999999996e+00 2.1312885187134998e+00 3.3367147828110191e+01 0 0 0
587 2 4.9220000000000006e+00 1.4208590124756650e+00 3.0031000000003605e+01 0 0 0
589 2 4.9220000000000006e+00 0.0000000000000000e+00 3.0031000000003605e+01 0 0 0
614 2 6.1524999999999999e+00 2.1312885187134989e+00 3.0031000000003605e+01 0 0 0
616 2 7.3829999999999991e+00 1.4208590124756659e+00 3.0031000000003605e+01 0 0 0
618 2 7.3829999999999991e+00 0.0000000000000000e+00 3.0031000000003605e+01 0 0 0
612 2 6.1524999999999999e+00 3.5521475311891644e+00 3.0031000000003605e+01 0 0 0
899 2 4.9220000000000006e+00 2.8417180249513332e+00 3.3367147828110191e+01 0 0 0
900 2 4.9220000000000006e+00 0.0000000000000000e+00 3.3367147828110191e+01 0 0 0
901 2 6.1524999999999999e+00 7.1042950623783407e-01 3.3367147828110191e+01 0 0 0
913 2 6.1524999999999999e+00 2.1312885187134989e+00 3.3367147828110191e+01 0 0 0
914 2 7.3829999999999991e+00 2.8417180249513345e+00 3.3367147828110191e+01 0 0 0
915 2 7.3829999999999991e+00 0.0000000000000000e+00 3.3367147828110191e+01 0 0 0
651 2 8.6134999999999984e+00 2.1312885187135002e+00 3.0031000000003605e+01 0 0 0
653 2 9.8440000000000012e+00 1.4208590124756659e+00 3.0031000000003605e+01 0 0 0
655 2 9.8440000000000012e+00 0.0000000000000000e+00 3.0031000000003605e+01 0 0 0
696 2 1.1074500000000002e+01 2.1312885187135002e+00 3.0031000000003605e+01 0 0 0
649 2 8.6134999999999984e+00 3.5521475311891657e+00 3.0031000000003605e+01 0 0 0
694 2 1.1074500000000002e+01 3.5521475311891644e+00 3.0031000000003605e+01 0 0 0
916 2 8.6134999999999984e+00 7.1042950623783407e-01 3.3367147828110191e+01 0 0 0
932 2 8.6134999999999984e+00 2.1312885187135002e+00 3.3367147828110191e+01 0 0 0
933 2 9.8440000000000012e+00 2.8417180249513332e+00 3.3367147828110191e+01 0 0 0
934 2 9.8440000000000012e+00 0.0000000000000000e+00 3.3367147828110191e+01 0 0 0
935 2 1.1074500000000002e+01 7.1042950623783330e-01 3.3367147828110191e+01 0 0 0
955 2 1.1074500000000002e+01 2.1312885187135002e+00 3.3367147828110191e+01 0 0 0
558 2 0.0000000000000000e+00 5.6834360499026637e+00 3.0031000000003605e+01 0 0 0
560 2 0.0000000000000000e+00 4.2625770374269996e+00 3.0031000000003605e+01 0 0 0
577 2 1.2305000000000001e+00 6.3938655561404980e+00 3.0031000000003605e+01 0 0 0
579 2 2.4610000000000003e+00 5.6834360499026637e+00 3.0031000000003605e+01 0 0 0
581 2 2.4610000000000003e+00 4.2625770374269996e+00 3.0031000000003605e+01 0 0 0
606 2 3.6914999999999996e+00 6.3938655561404980e+00 3.0031000000003605e+01 0 0 0
575 2 1.2305000000000001e+00 7.8147245686161639e+00 3.0031000000003605e+01 0 0 0
604 2 3.6914999999999996e+00 7.8147245686161639e+00 3.0031000000003605e+01 0 0 0
885 2 0.0000000000000000e+00 4.2625770374269996e+00 3.3367147828110191e+01 0 0 0
886 2 1.2305000000000001e+00 4.9730065436648339e+00 3.3367147828110191e+01 0 0 0
894 2 1.2305000000000001e+00 6.3938655561404980e+00 3.3367147828110191e+01 0 0 0
896 2 2.4610000000000003e+00 4.2625770374269996e+00 3.3367147828110191e+01 0 0 0
897 2 3.6914999999999996e+00 4.9730065436648339e+00 3.3367147828110191e+01 0 0 0
909 2 3.6914999999999996e+00 6.3938655561404980e+00 3.3367147828110191e+01 0 0 0
884 2 0.0000000000000000e+00 7.1042950623783341e+00 3.3367147828110191e+01 0 0 0
895 2 2.4610000000000003e+00 7.1042950623783341e+00 3.3367147828110191e+01 0 0 0
608 2 4.9220000000000006e+00 5.6834360499026637e+00 3.0031000000003605e+01 0 0 0
610 2 4.9220000000000006e+00 4.2625770374269978e+00 3.0031000000003605e+01 0 0 0
643 2 6.1524999999999999e+00 6.3938655561404980e+00 3.0031000000003605e+01 0 0 0
645 2 7.3829999999999991e+00 5.6834360499026637e+00 3.0031000000003605e+01 0 0 0
647 2 7.3829999999999991e+00 4.2625770374269996e+00 3.0031000000003605e+01 0 0 0
641 2 6.1524999999999999e+00 7.8147245686161639e+00 3.0031000000003605e+01 0 0 0
911 2 4.9220000000000006e+00 4.2625770374269978e+00 3.3367147828110191e+01 0 0 0
912 2 6.1524999999999999e+00 4.9730065436648339e+00 3.3367147828110191e+01 0 0 0
928 2 6.1524999999999999e+00 6.3938655561404980e+00 3.3367147828110191e+01 0 0 0
930 2 7.3829999999999991e+00 4.2625770374269996e+00 3.3367147828110191e+01 0 0 0
910 2 4.9220000000000006e+00 7.1042950623783341e+00 3.3367147828110191e+01 0 0 0
929 2 7.3830000000000009e+00 7.1042950623783341e+00 3.3367147828110191e+01 0 0 0
688 2 8.6135000000000002e+00 6.3938655561404980e+00 3.0031000000003605e+01 0 0 0
690 2 9.8440000000000012e+00 5.6834360499026637e+00 3.0031000000003605e+01 0 0 0
692 2 9.8440000000000012e+00 4.2625770374270004e+00 3.0031000000003605e+01 0 0 0
735 2 1.1074500000000002e+01 6.3938655561404980e+00 3.0031000000003605e+01 0 0 0
686 2 8.6135000000000002e+00 7.8147245686161639e+00 3.0031000000003605e+01 0 0 0
733 2 1.1074500000000002e+01 7.8147245686161639e+00 3.0031000000003605e+01 0 0 0
931 2 8.6135000000000002e+00 4.9730065436648339e+00 3.3367147828110191e+01 0 0 0
951 2 8.6135000000000002e+00 6.3938655561404980e+00 3.3367147828110191e+01 0 0 0
953 2 9.8440000000000012e+00 4.2625770374270004e+00 3.3367147828110191e+01 0 0 0
954 2 1.1074500000000002e+01 4.9730065436648339e+00 3.3367147828110191e+01 0 0 0
975 2 1.1074500000000002e+01 6.3938655561404980e+00 3.3367147828110191e+01 0 0 0
952 2 9.8440000000000012e+00 7.1042950623783341e+00 3.3367147828110191e+01 0 0 0
571 2 0.0000000000000000e+00 9.9460130873296642e+00 3.0031000000003605e+01 0 0 0
573 2 0.0000000000000000e+00 8.5251540748539991e+00 3.0031000000003605e+01 0 0 0
600 2 2.4610000000000003e+00 9.9460130873296642e+00 3.0031000000003605e+01 0 0 0
602 2 2.4610000000000003e+00 8.5251540748539991e+00 3.0031000000003605e+01 0 0 0
596 2 1.2305000000000001e+00 1.2077301606043163e+01 3.0031000000003605e+01 0 0 0
598 2 1.2305000000000001e+00 1.0656442593567498e+01 3.0031000000003605e+01 0 0 0
633 2 3.6914999999999996e+00 1.2077301606043163e+01 3.0031000000003605e+01 0 0 0
635 2 3.6914999999999996e+00 1.0656442593567499e+01 3.0031000000003605e+01 0 0 0
892 2 0.0000000000000000e+00 8.5251540748539991e+00 3.3367147828110191e+01 0 0 0
893 2 1.2305000000000001e+00 9.2355835810918343e+00 3.3367147828110191e+01 0 0 0
907 2 2.4610000000000003e+00 8.5251540748539991e+00 3.3367147828110191e+01 0 0 0
908 2 3.6915000000000004e+00 9.2355835810918343e+00 3.3367147828110191e+01 0 0 0
891 2 0.0000000000000000e+00 1.1366872099805333e+01 3.3367147828110191e+01 0 0 0
905 2 1.2305000000000001e+00 1.0656442593567498e+01 3.3367147828110191e+01 0 0 0
906 2 2.4610000000000003e+00 1.1366872099805333e+01 3.3367147828110191e+01 0 0 0
924 2 3.6914999999999996e+00 1.0656442593567499e+01 3.3367147828110191e+01 0 0 0
637 2 4.9220000000000006e+00 9.9460130873296642e+00 3.0031000000003605e+01 0 0 0
639 2 4.9220000000000006e+00 8.5251540748539991e+00 3.0031000000003605e+01 0 0 0
682 2 7.3830000000000009e+00 9.9460130873296642e+00 3.0031000000003605e+01 0 0 0
684 2 7.3830000000000009e+00 8.5251540748539991e+00 3.0031000000003605e+01 0 0 0
678 2 6.1524999999999999e+00 1.2077301606043163e+01 3.0031000000003605e+01 0 0 0
680 2 6.1524999999999999e+00 1.0656442593567499e+01 3.0031000000003605e+01 0 0 0
926 2 4.9220000000000006e+00 8.5251540748539991e+00 3.3367147828110191e+01 0 0 0
927 2 6.1524999999999999e+00 9.2355835810918343e+00 3.3367147828110191e+01 0 0 0
949 2 7.3830000000000009e+00 8.5251540748539991e+00 3.3367147828110191e+01 0 0 0
925 2 4.9220000000000006e+00 1.1366872099805333e+01 3.3367147828110191e+01 0 0 0
947 2 6.1524999999999999e+00 1.0656442593567499e+01 3.3367147828110191e+01 0 0 0
948 2 7.3829999999999991e+00 1.1366872099805333e+01 3.3367147828110191e+01 0 0 0
729 2 9.8440000000000012e+00 9.9460130873296642e+00 3.0031000000003605e+01 0 0 0
731 2 9.8440000000000012e+00 8.5251540748539956e+00 3.0031000000003605e+01 0 0 0
725 2 8.6135000000000002e+00 1.2077301606043163e+01 3.0031000000003605e+01 0 0 0
727 2 8.6134999999999984e+00 1.0656442593567498e+01 3.0031000000003605e+01 0 0 0
772 2 1.1074500000000002e+01 1.2077301606043163e+01 3.0031000000003605e+01 0 0 0
774 2 1.1074500000000002e+01 1.0656442593567498e+01 3.0031000000003605e+01 0 0 0
950 2 8.6134999999999984e+00 9.2355835810918343e+00 3.3367147828110191e+01 0 0 0
973 2 9.8440000000000012e+00 8.5251540748539956e+00 3.3367147828110191e+01 0 0 0
974 2 1.1074500000000002e+01 9.2355835810918343e+00 3.3367147828110191e+01 0 0 0
971 2 8.6134999999999984e+00 1.0656442593567498e+01 3.3367147828110191e+01 0 0 0
972 2 9.8440000000000012e+00 1.1366872099805333e+01 3.3367147828110191e+01 0 0 0
995 2 1.1074500000000002e+01 1.0656442593567498e+01 3.3367147828110191e+01 0 0 0
996 2 1.2304999999999998e+01 1.1366872099805333e+01 3.3367147828110191e+01 0 0 0
2149 1 2.1888306050063275e+00 1.5485736852852572e+00 3.5758545928577398e+01 0 3 -1
5011 1 6.7748691774030361e+00 1.0566183209521174e+00 3.6003851110655603e+01 0 -1 0
6167 1 8.2510557056763343e+00 8.2331712042114802e+00 4.3477407940532089e+01 6 -2 0
3190 1 1.0939299192999661e+01 1.6133756715289558e+00 3.5769983972727537e+01 -1 -1 -1
260 1 1.9871215697667415e+00 1.2154329931225091e+01 3.6353015550754570e+01 1 1 -1
6137 1 2.3521303129779874e+00 4.0126667026688549e+00 3.6540625715336610e+01 0 -1 0
2073 1 6.7617900573751886e+00 3.8600282727382789e+00 3.6654977049961978e+01 -4 3 -1
4517 1 4.4399335831507507e+00 5.3141386517201736e+00 3.5747382212615079e+01 -1 -4 0
386 1 1.1014297675291711e+01 3.9659403336501922e+00 3.6858173832406706e+01 0 3 -1
4525 1 9.0112047272287690e+00 5.5464052023914112e+00 3.5813329390658694e+01 4 1 0
6142 1 2.1070481370606808e+00 9.4981819224495929e+00 3.5700658321125815e+01 1 -2 0
3248 1 4.0711167327852831e+00 8.0466331290708002e+00 3.6464049421035881e+01 -2 0 -1
1632 1 1.1119601353351392e+01 1.1973483481464559e+01 4.3632317822724858e+01 -4 3 0
396 1 6.3426162135277240e+00 9.5247673257753291e+00 3.5832730632265019e+01 1 4 -1
1622 1 1.1243100265982003e+01 9.1569145483778467e+00 3.5652692693565491e+01 1 1 -1
1760 1 2.2296803389011148e+00 1.3767069370041225e+00 4.0192797002322699e+01 -1 5 -1
4794 1 1.9549480872738740e+00 3.9700426366765988e+00 3.9348438772975229e+01 0 1 -1
116 1 6.5216049943305254e+00 1.1888487069384450e+00 4.0442650137515763e+01 6 1 0
5985 1 4.2386537714497194e+00 8.0524028047146050e+00 4.3369958462969883e+01 -1 -2 -1
1571 1 1.0777083004648299e+01 1.1632285156006466e+00 4.0531447093201990e+01 0 4 -1
1852 1 6.5476218177132601e+00 3.9489303139635235e+00 3.9636435777575592e+01 -3 2 0
1437 1 4.2876970174248310e+00 5.2042275320405720e+00 4.0400863710239953e+01 -3 4 -1
2996 1 1.1064981615237034e+01 3.9079192766372568e+00 3.9781515354846427e+01 2 -2 0
3318 1 8.7032930268063549e+00 5.4368775069586661e+00 4.0332275770393160e+01 1 1 -1
6256 1 2.2766652723079490e+00 9.4427450941106947e+00 3.9812797167495319e+01 -3 -1 -1
4744 1 4.3894610837203070e+00 7.6298246358582658e+00 3.9069776724417686e+01 -3 -1 0
5317 1 6.5204141673762201e+00 9.5789791311091719e+00 3.9679729376769458e+01 -1 1 0
6229 1 8.9099910758956096e+00 8.2203363150135704e+00 3.6352801354849404e+01 -2 0 0
1718 1 8.8390685521290386e+00 8.0175597222682295e+00 3.9150593548871178e+01 -2 4 0
266 1 1.0992215401773583e+01 9.4253784597755779e+00 4.0156708613448160e+01 1 4 -1
4803 1 1.9229322578670971e+00 1.5857322355876218e+00 4.2995954064211389e+01 5 -3 -1
1951 1 6.3258299279445893e+00 1.1208521819862585e+00 4.3263495043796269e+01 0 -5 -1
6186 1 1.0774189634404935e+01 9.2367588508066696e+00 4.2975277470351436e+01 4 -3 -1
323 1 1.1216425193603298e+01 1.2207275941682843e+01 3.9443897511469892e+01 2 2 0
441 1 1.1066533008084773e+01 1.3777233270899927e+00 4.3434082736540553e+01 -1 5 0
1556 1 5.3631067014722658e-02 2.9270758153778331e-02 3.6524688683245060e+01 0 1 -1
4416 1 3.7026004645322619e+00 5.5124011636343209e+00 4.3069388287057848e+01 -3 -3 -1
4639 1 8.3526647811511108e+00 5.4567379733527108e+00 4.3103233433860140e+01 2 -3 0
5102 1 1.9355852059772225e+00 9.6274718493080300e+00 4.2646145673313747e+01 -1 -1 -1
2970 1 6.3528261290416772e+00 9.6840688607984973e+00 4.2347499030771203e+01 1 -2 0
1591 1 2.0221448416751877e+00 1.2209236077333271e+01 3.9199407124606509e+01 -1 0 0
4781 1 1.1065541089215564e+01 1.1733938488679284e+01 3.6754979143837190e+01 -1 1 0
5997 1 5.5682012854517939e-02 1.0275041836049326e-01 3.9064657255201894e+01 2 1 0
6048 1 1.5792071690377405e+00 4.2225887859595881e+00 4.3725474932673421e+01 2 -2 0
4440 1 9.2770684828182048e+00 1.1330147177432577e+01 5.7132880908421861e+01 -1 -1 0
1745 1 1.1903943918257333e+01 1.0790323543966140e+00 5.5087438088947415e+01 4 -3 -1
2945 1 8.6403161578274723e+00 2.9214865206516647e+00 4.7662605930753912e+01 2 -3 0
100 1 1.6136714357191981e+00 3.7766906878537903e+00 4.6636427492152883e+01 0 0 -1
336 1 1.0994215479724449e+01 1.2002677945950936e+01 4.6361890309212669e+01 -1 -2 -1
3341 1 6.3572397699106338e+00 3.9806111767256320e+00 4.6871123956180114e+01 2 -5 -1
6251 1 6.3892057305859238e+00 6.7518302234609235e+00 4.7260469526626729e+01 -3 5 -1
3488 1 1.0955807698500648e+01 4.0728515971096870e+00 4.6798340240420302e+01 3 4 0
3000 1 1.0842630476257684e+01 6.9231389149391207e+00 4.7544716201970658e+01 -1 4 0
4653 1 4.0179200497433527e+00 8.1907780228403126e+00 4.6141409099275720e+01 1 1 -1
2142 1 8.6539689653953893e+00 7.9345648048451594e+00 4.6090151546042129e+01 -3 0 0
99 1 3.9571823323991926e+00 2.4605926544241949e+00 5.0669386982901301e+01 2 1 -1
473 1 4.1469238588830448e+00 2.9190761610569655e+00 4.7876456750148478e+01 0 -2 0
4502 1 1.6317988573936049e-01 1.1737782573494491e+00 5.5261610659414870e+01 4 2 0
1302 1 8.6712729417609111e+00 2.8354873979673774e+00 5.0524443148728963e+01 5 -2 0
3616 1 1.6664102208472886e+00 6.7414242663647101e+00 4.7349884141985285e+01 0 2 0