LAMMPS data file via write_data, version 16 Mar 2018, timestep = 100000

6328 atoms
2 atom types

0.0000000000000000e+00 4.9219999999999999e+01 xlo xhi
0.0000000000000000e+00 4.9019635930410494e+01 ylo yhi
3.5927347252238206e+00 5.6469265274777335e+01 zlo zhi

Masses

1 18.015
2 12.01

Atoms # atomic

134 1 2.9841257766810849e+00 3.0547872914588514e-01 7.3015101362906076e+00 2 -1 1
1931 1 8.9306154657079662e-01 1.9697805136620317e+00 5.5878680096704816e+00 1 0 0
3415 1 4.3527584910343977e+00 2.6900730675193731e+00 7.3422132267713414e+00 -1 0 0
6049 1 7.3090146640423104e+00 2.1429866467150203e+00 6.2524761950292032e+00 0 1 1
1534 1 6.7518526124985607e+00 1.5052447545074894e+00 3.7093766835784896e+00 0 1 1
1630 1 1.1630098706212419e+01 1.0446275161056087e+00 5.2574229817700502e+00 -1 2 0
1936 1 9.8571777311547262e+00 1.2969289544934059e+00 7.3919786289198193e+00 0 0 0
2958 1 1.0092419084054154e+00 4.9746374626011827e+00 5.9883562363244138e+00 1 1 1
244 1 4.0663842011426956e+00 4.4993736916983611e+00 5.0518406295137295e+00 1 0 1
3673 1 2.3595956620650482e+00 7.7829537592558111e+00 5.6282785150908490e+00 0 0 1
3009 1 8.0674628915092832e+00 4.6351215211167931e+00 5.7582289481745370e+00 0 2 1
5968 1 6.7314398836922384e+00 7.6450168855325558e+00 5.8727452010366035e+00 0 0 1
4660 1 6.1889252718828027e+00 5.9965400904145598e+00 3.8522290363282496e+00 1 1 1
4564 1 1.1173950372006351e+01 8.0882778359804952e+00 5.9161447327268757e+00 0 0 0
446 1 1.0557466943255298e+01 5.0760418761325070e+00 4.7632854673712615e+00 -1 1 1
6213 1 1.1447638342820330e+01 4.5204006783584454e+00 7.5520464151158784e+00 0 0 0
493 1 4.4839722957833533e-01 9.4481373792878802e+00 4.5725211810369091e+00 0 0 1
3302 1 4.9597312986385750e-01 1.1820302509062842e+01 5.8030333927361992e+00 1 0 1
6312 1 4.6138393548693353e+00 9.2862983083208253e+00 4.8978886329663158e+00 0 0 1
1914 1 5.0055084706787305e+00 1.1204913761619022e+01 6.7832701022071848e+00 0 -1 1
1400 1 8.6520529586096799e+00 9.6414338934624393e+00 4.5919123393582737e+00 1 0 0
3297 1 1.0185093009721575e+01 1.0845968645459660e+01 6.9424567020711256e+00 2 1 1
2913 1 5.1190400955187454e-01 2.3887903423086403e+00 1.0598908971364159e+01 0 -1 1
4768 1 3.1158482299042096e+00 2.8147303414757352e+00 1.1668006266358596e+01 1 1 0
180 1 6.4644124143923589e+00 1.1811178863085656e+00 9.0128173354033336e+00 0 0 0
486 1 7.8514143750445378e+00 3.6309848969516256e+00 1.0030808590138825e+01 1 0 0
2139 1 1.0456814250560372e+01 2.7943955512011112e+00 9.6938511638032345e+00 0 0 1
1515 1 3.0768789518656092e+00 7.1669284802198794e+00 8.3981232323772446e+00 0 0 1
3295 1 2.1844691720674052e+00 7.0270787535654931e+00 1.2338673249900502e+01 1 0 0
1781 1 5.3717747670802063e-01 4.8060425465343171e+00 9.0129494001177726e+00 0 0 1
6190 1 3.1464574752044148e+00 4.3714675416087729e+00 9.1256897358995808e+00 1 1 0
6233 1 5.8866352480496085e+00 7.4754729699211699e+00 8.7073528773093241e+00 0 0 1
184 1 8.0632071863824795e+00 5.6129586898071935e+00 8.2421725475265291e+00 1 1 1
3093 1 4.6165693474796425e+00 5.8800384036820281e+00 1.1446696529976407e+01 0 0 1
4505 1 1.0731758118552689e+01 6.9961679981823686e+00 8.3978642745478034e+00 0 1 0
1915 1 9.5740866071330100e+00 8.0080657960050097e+00 1.0909922452657808e+01 0 -1 0
4605 1 8.4773642218202614e+00 5.1067657914899529e+00 1.2160839931925207e+01 -1 0 1
345 1 4.0368321451334115e+00 1.0459264373814438e+01 1.1457324130048928e+01 1 1 0
2013 1 1.4929059489322463e+00 1.2084506411313557e+01 1.1551925597003663e+01 -1 0 0
2078 1 1.1162888450748631e+00 1.1326288413658348e+01 9.0381181735370202e+00 1 0 0
5296 1 1.4461976173478042e+00 8.5390741481976811e+00 9.9261154769423481e+00 0 0 1
4446 1 5.9601927590162402e+00 1.0146668515772379e+01 9.2257090714896073e+00 0 0 1
1428 1 1.1647101862319237e+01 1.0749272217891368e+01 1.1476919635359943e+01 -1 0 1
1286 1 8.7841810300875149e+00 1.0251600535946686e+01 9.4387866082600738e+00 0 1 1
496 1 3.1304158515349143e+00 2.0589505441310179e+00 1.5256964512989196e+01 1 0 0
1842 1 5.0447245234381262e+00 9.4357851621401756e-01 1.3414758202171825e+01 2 0 0
5008 1 7.9676304511161691e+00 1.0793701958546544e+00 1.4039954685363927e+01 0 1 0
3047 1 7.4691550525505788e+00 3.2625410352933533e+00 1.6246572649892741e+01 0 0 1
2044 1 1.0095694139799841e+01 2.6910507337850054e+00 1.2673615742490215e+01 0 1 1
4542 1 1.1625629423648970e+01 3.6800525965342440e-01 1.3858131068802683e+01 1 1 0
3068 1 1.0273342921013212e+01 1.4767754912054534e+00 1.6107923814662080e+01 0 -1 1
3079 1 2.3400151078595401e+00 4.5517725199433414e+00 1.3973954406266815e+01 1 1 0
3277 1 5.7682040868993512e-01 6.3771855690372572e+00 1.6233192487100158e+01 3 0 0
64 1 6.9379182228332779e+00 7.8735740626351642e+00 1.2765316072706071e+01 0 0 0
432 1 6.2834389417663523e+00 4.6603469504438868e+00 1.3651825156365197e+01 0 1 0
2866 1 5.1166520029545222e+00 6.8587736131027253e+00 1.5461037716310559e+01 1 1 1
1722 1 1.0636339469038054e+01 4.4995656281011982e+00 1.4960664660945561e+01 1 0 1
5111 1 1.1217761094196538e+01 7.6026855216412716e+00 1.5182133609768126e+01 1 0 0
4961 1 1.1696097972634838e+01 6.4610986020283416e+00 1.2490626396735950e+01 0 0 0
4797 1 1.0453383306149400e+00 8.9337885605020340e+00 1.4349835017339712e+01 0 0 0
4513 1 1.4567927303478712e-01 1.1418202883292608e+01 1.3777986455853942e+01 1 2 0
62 1 3.9480566845487028e+00 9.2385557548017694e+00 1.4184049257261263e+01 1 1 0
1459 1 7.4258408830917251e+00 1.1720581563000760e+01 1.3010375598323130e+01 0 0 1
4575 1 4.9633568192794284e+00 1.1012795248092669e+01 1.6018825138745189e+01 1 1 1
5128 1 7.5837040039006016e+00 1.1800832832316310e+01 1.6438809024689206e+01 0 1 0
2133 1 9.1830192438303690e+00 9.3806194335622326e+00 1.3561147422968721e+01 1 1 1
4495 1 1.1761883856639070e+01 1.1045124036961591e+01 1.4157369916100038e+01 1 2 1
6262 1 9.0141868867424035e-01 1.7166223289847415e+00 1.7180977736241026e+01 1 0 0
3039 1 6.1512061200093449e-01 1.9752689650500463e+00 1.9941194740046949e+01 1 0 1
1504 1 3.5293806331461810e+00 9.5765683062636475e-01 1.8532351321058364e+01 0 1 0
2973 1 4.8424250372617834e+00 3.1242089248333826e+00 1.7278046195962311e+01 1 0 1
5272 1 6.4746699592136228e+00 1.7583156380687981e-01 1.8023191893710798e+01 0 0 1
498 1 1.1567678024950800e+01 2.1911279128184677e+00 1.8404362337806536e+01 0 1 1
5078 1 8.5899207338943349e+00 1.7202587637990128e+00 1.8906816272687131e+01 0 1 1
477 1 2.1263040155201831e+00 5.9905843720124912e+00 1.9660802078539138e+01 0 -1 0
2033 1 3.1472261655393354e+00 5.5151681232721410e+00 1.6951347280321560e+01 1 1 1
5091 1 7.2425557994633669e+00 4.7427904099101976e+00 1.9089746500638419e+01 0 0 0
3055 1 4.6192544631756682e+00 4.4850888053694709e+00 1.9943249077730403e+01 0 0 0
4975 1 6.0884113896529275e+00 7.3242739434462170e+00 1.9764221154954530e+01 0 0 0
4604 1 1.1058874621782603e+01 5.8242457291144918e+00 1.8947030621432724e+01 1 0 1
1498 1 8.8248482321059285e+00 5.9144242153741358e+00 1.7003468312736310e+01 -1 0 1
155 1 3.5850858011012493e-01 9.2869160328010629e+00 1.7281114461841657e+01 0 0 1
4679 1 3.9872160762467455e+00 1.1192720377318130e+01 1.8557897211814428e+01 0 1 1
5960 1 2.3614900929948179e+00 8.8748040148935168e+00 1.9704708621145883e+01 0 0 1
1886 1 1.1122017794571626e+00 1.1721654287624954e+01 1.8324048056370728e+01 0 -1 0
4710 1 6.5526545641046940e+00 8.3810498413397383e+00 1.7376652673889531e+01 0 1 1
5100 1 8.6920087896169136e+00 8.6889915659653703e+00 2.0130283044038585e+01 0 0 0
515 1 1.1286596572979358e+01 8.6313419031531549e+00 1.8497468641747744e+01 -1 0 1
1684 1 9.0782418188918808e+00 9.0584635855030360e+00 1.6813262303541798e+01 1 1 1
222 1 1.1802913057749727e+00 3.8155537856419914e+00 2.3689754039241688e+01 1 0 0
1751 1 2.1117314751232987e+00 9.1253209520956313e-01 2.4271555639526948e+01 0 0 0
2097 1 4.0099497983127472e+00 3.2236099512318188e+00 2.4681222613387007e+01 1 0 1
4962 1 3.0306207667890019e+00 1.4485026723690302e+00 2.1636781067069929e+01 0 1 0
3574 1 5.3815769765390531e+00 2.7318390715735399e+00 2.1954052241115651e+01 -1 1 0
1725 1 7.4876444332316030e+00 2.1095252134815334e+00 2.4453232997447806e+01 1 2 0
1849 1 5.2915079203943627e+00 2.7565326062364476e-01 2.4214421858906377e+01 1 0 1
2032 1 1.0835593326744952e+01 2.4608853712001220e+00 2.1390339875596297e+01 1 0 0
3448 1 8.5516958524374456e+00 3.9482017541208507e+00 2.1494087404929189e+01 1 1 0
3410 1 1.2100533877708314e+01 1.8693539635414231e+00 2.3852245727694427e+01 0 1 0
3507 1 9.6846523195284071e+00 2.4414077534890904e-01 2.4175166053892305e+01 2 1 0
4776 1 1.9691996947853694e+00 6.9518228399659128e+00 2.4136543917862966e+01 1 1 1
2827 1 4.0220602945400223e+00 8.0929992135839370e+00 2.2003814364107601e+01 1 1 0
3369 1 4.6777348690302807e+00 5.7842144690091786e+00 2.3655079892220847e+01 1 -1 0
5172 1 7.4388095080280534e+00 4.7300977158996629e+00 2.3980366521275741e+01 0 0 1
6109 1 9.9443862099485703e+00 6.2501183598400827e+00 2.1526455251455396e+01 0 1 1
2891 1 9.8556995282088096e+00 6.2721050819268962e+00 2.4353820282854134e+01 1 1 1
5283 1 1.4920494076054831e+00 1.1730050231418366e+01 2.1353765242787013e+01 1 0 1
1906 1 3.4400421877723790e+00 9.9102638242966989e+00 2.4352661342447632e+01 0 0 0
413 1 5.0980102338222355e-01 9.5713639649056059e+00 2.3820769250129700e+01 1 0 0
246 1 5.7466225844141539e+00 1.1279167597021672e+01 2.4096639105113947e+01 1 1 0
457 1 5.4491030315617728e+00 1.0992037184043916e+01 2.1408589162856337e+01 0 -2 0
5102 1 1.1726013512235037e+01 9.8354369924742535e+00 2.1245566471508262e+01 -1 0 0
327 1 8.2141485911777323e+00 1.0971210262621939e+01 2.1412045677537680e+01 0 0 0
6295 1 8.6474816398690919e+00 1.0426497885661551e+01 2.4340262058092225e+01 1 0 1
3502 1 1.0952754405405738e+01 8.7493816720317650e+00 2.3924157861339062e+01 1 1 0
552 2 0.0000000000000000e+00 2.8417180249513345e+00 2.6875584904359236e+01 0 0 0
554 2 0.0000000000000000e+00 0.0000000000000000e+00 2.6875584904359236e+01 0 0 0
556 2 1.2305000000000001e+00 7.1042950623783474e-01 2.6875584904359236e+01 0 0 0
563 2 1.2305000000000001e+00 2.1312885187134998e+00 2.6875584904359236e+01 0 0 0
565 2 2.4610000000000003e+00 2.8417180249513345e+00 2.6875584904359236e+01 0 0 0
567 2 2.4610000000000003e+00 0.0000000000000000e+00 2.6875584904359236e+01 0 0 0
569 2 3.6915000000000004e+00 7.1042950623783474e-01 2.6875584904359236e+01 0 0 0
584 2 3.6914999999999996e+00 2.1312885187134998e+00 2.6875584904359236e+01 0 0 0
586 2 4.9220000000000006e+00 2.8417180249513332e+00 2.6875584904359236e+01 0 0 0
588 2 4.9220000000000006e+00 0.0000000000000000e+00 2.6875584904359236e+01 0 0 0
590 2 6.1524999999999999e+00 7.1042950623783407e-01 2.6875584904359236e+01 0 0 0
613 2 6.1524999999999999e+00 2.1312885187134989e+00 2.6875584904359236e+01 0 0 0
615 2 7.3829999999999991e+00 2.8417180249513345e+00 2.6875584904359236e+01 0 0 0
617 2 7.3829999999999991e+00 0.0000000000000000e+00 2.6875584904359236e+01 0 0 0
619 2 8.6134999999999984e+00 7.1042950623783407e-01 2.6875584904359236e+01 0 0 0
650 2 8.6134999999999984e+00 2.1312885187135002e+00 2.6875584904359236e+01 0 0 0
652 2 9.8440000000000012e+00 2.8417180249513332e+00 2.6875584904359236e+01 0 0 0
654 2 9.8440000000000012e+00 0.0000000000000000e+00 2.6875584904359236e+01 0 0 0
656 2 1.1074500000000002e+01 7.1042950623783330e-01 2.6875584904359236e+01 0 0 0
695 2 1.1074500000000002e+01 2.1312885187135002e+00 2.6875584904359236e+01 0 0 0
559 2 0.0000000000000000e+00 4.2625770374269996e+00 2.6875584904359236e+01 0 0 0
561 2 1.2305000000000001e+00 4.9730065436648339e+00 2.6875584904359236e+01 0 0 0
576 2 1.2305000000000001e+00 6.3938655561404980e+00 2.6875584904359236e+01 0 0 0
580 2 2.4610000000000003e+00 4.2625770374269996e+00 2.6875584904359236e+01 0 0 0
582 2 3.6914999999999996e+00 4.9730065436648339e+00 2.6875584904359236e+01 0 0 0
605 2 3.6914999999999996e+00 6.3938655561404980e+00 2.6875584904359236e+01 0 0 0
557 2 0.0000000000000000e+00 7.1042950623783341e+00 2.6875584904359236e+01 0 0 0
578 2 2.4610000000000003e+00 7.1042950623783341e+00 2.6875584904359236e+01 0 0 0
609 2 4.9220000000000006e+00 4.2625770374269978e+00 2.6875584904359236e+01 0 0 0
611 2 6.1524999999999999e+00 4.9730065436648339e+00 2.6875584904359236e+01 0 0 0
642 2 6.1524999999999999e+00 6.3938655561404980e+00 2.6875584904359236e+01 0 0 0
646 2 7.3829999999999991e+00 4.2625770374269996e+00 2.6875584904359236e+01 0 0 0
607 2 4.9220000000000006e+00 7.1042950623783341e+00 2.6875584904359236e+01 0 0 0
644 2 7.3830000000000009e+00 7.1042950623783341e+00 2.6875584904359236e+01 0 0 0
648 2 8.6135000000000002e+00 4.9730065436648339e+00 2.6875584904359236e+01 0 0 0
687 2 8.6135000000000002e+00 6.3938655561404980e+00 2.6875584904359236e+01 0 0 0
691 2 9.8440000000000012e+00 4.2625770374270004e+00 2.6875584904359236e+01 0 0 0
693 2 1.1074500000000002e+01 4.9730065436648339e+00 2.6875584904359236e+01 0 0 0
734 2 1.1074500000000002e+01 6.3938655561404980e+00 2.6875584904359236e+01 0 0 0
689 2 9.8440000000000012e+00 7.1042950623783341e+00 2.6875584904359236e+01 0 0 0
572 2 0.0000000000000000e+00 8.5251540748539991e+00 2.6875584904359236e+01 0 0 0
574 2 1.2305000000000001e+00 9.2355835810918343e+00 2.6875584904359236e+01 0 0 0
601 2 2.4610000000000003e+00 8.5251540748539991e+00 2.6875584904359236e+01 0 0 0
603 2 3.6915000000000004e+00 9.2355835810918343e+00 2.6875584904359236e+01 0 0 0
570 2 0.0000000000000000e+00 1.1366872099805333e+01 2.6875584904359236e+01 0 0 0
597 2 1.2305000000000001e+00 1.0656442593567498e+01 2.6875584904359236e+01 0 0 0
599 2 2.4610000000000003e+00 1.1366872099805333e+01 2.6875584904359236e+01 0 0 0
634 2 3.6914999999999996e+00 1.0656442593567499e+01 2.6875584904359236e+01 0 0 0
636 2 4.9220000000000006e+00 1.1366872099805333e+01 2.6875584904359236e+01 0 0 0
638 2 4.9220000000000006e+00 8.5251540748539991e+00 2.6875584904359236e+01 0 0 0
679 2 6.1524999999999999e+00 1.0656442593567499e+01 2.6875584904359236e+01 0 0 0
640 2 6.1524999999999999e+00 9.2355835810918343e+00 2.6875584904359236e+01 0 0 0
681 2 7.3829999999999991e+00 1.1366872099805333e+01 2.6875584904359236e+01 0 0 0
683 2 7.3830000000000009e+00 8.5251540748539991e+00 2.6875584904359236e+01 0 0 0
732 2 1.1074500000000002e+01 9.2355835810918343e+00 2.6875584904359236e+01 0 0 0
726 2 8.6134999999999984e+00 1.0656442593567498e+01 2.6875584904359236e+01 0 0 0
685 2 8.6134999999999984e+00 9.2355835810918343e+00 2.6875584904359236e+01 0 0 0
728 2 9.8440000000000012e+00 1.1366872099805333e+01 2.6875584904359236e+01 0 0 0
730 2 9.8440000000000012e+00 8.5251540748539956e+00 2.6875584904359236e+01 0 0 0
775 2 1.2304999999999998e+01 1.1366872099805333e+01 2.6875584904359236e+01 0 0 0
773 2 1.1074500000000002e+01 1.0656442593567498e+01 2.6875584904359236e+01 0 0 0
553 2 0.0000000000000000e+00 1.4208590124756650e+00 3.0031000000000642e+01 0 0 0
555 2 0.0000000000000000e+00 0.0000000000000000e+00 3.0031000000000642e+01 0 0 0
564 2 1.2305000000000001e+00 2.1312885187134998e+00 3.0031000000000642e+01 0 0 0
566 2 2.4610000000000003e+00 1.4208590124756650e+00 3.0031000000000642e+01 0 0 0
568 2 2.4610000000000003e+00 0.0000000000000000e+00 3.0031000000000642e+01 0 0 0
585 2 3.6914999999999996e+00 2.1312885187134998e+00 3.0031000000000642e+01 0 0 0
562 2 1.2305000000000001e+00 3.5521475311891644e+00 3.0031000000000642e+01 0 0 0
583 2 3.6914999999999996e+00 3.5521475311891644e+00 3.0031000000000642e+01 0 0 0
881 2 0.0000000000000000e+00 2.8417180249513345e+00 3.3186415095640257e+01 0 0 0
882 2 0.0000000000000000e+00 0.0000000000000000e+00 3.3186415095640257e+01 0 0 0
883 2 1.2305000000000001e+00 7.1042950623783474e-01 3.3186415095640257e+01 0 0 0
887 2 1.2305000000000001e+00 2.1312885187134998e+00 3.3186415095640257e+01 0 0 0
888 2 2.4610000000000003e+00 2.8417180249513345e+00 3.3186415095640257e+01 0 0 0
889 2 2.4610000000000003e+00 0.0000000000000000e+00 3.3186415095640257e+01 0 0 0
890 2 3.6915000000000004e+00 7.1042950623783474e-01 3.3186415095640257e+01 0 0 0
898 2 3.6914999999999996e+00 2.1312885187134998e+00 3.3186415095640257e+01 0 0 0
587 2 4.9220000000000006e+00 1.4208590124756650e+00 3.0031000000000642e+01 0 0 0
589 2 4.9220000000000006e+00 0.0000000000000000e+00 3.0031000000000642e+01 0 0 0
614 2 6.1524999999999999e+00 2.1312885187134989e+00 3.0031000000000642e+01 0 0 0
616 2 7.3829999999999991e+00 1.4208590124756659e+00 3.0031000000000642e+01 0 0 0
618 2 7.3829999999999991e+00 0.0000000000000000e+00 3.0031000000000642e+01 0 0 0
612 2 6.1524999999999999e+00 3.5521475311891644e+00 3.0031000000000642e+01 0 0 0
899 2 4.9220000000000006e+00 2.8417180249513332e+00 3.3186415095640257e+01 0 0 0
900 2 4.9220000000000006e+00 0.0000000000000000e+00 3.3186415095640257e+01 0 0 0
901 2 6.1524999999999999e+00 7.1042950623783407e-01 3.3186415095640257e+01 0 0 0
913 2 6.1524999999999999e+00 2.1312885187134989e+00 3.3186415095640257e+01 0 0 0
914 2 7.3829999999999991e+00 2.8417180249513345e+00 3.3186415095640257e+01 0 0 0
915 2 7.3829999999999991e+00 0.0000000000000000e+00 3.3186415095640257e+01 0 0 0
651 2 8.6134999999999984e+00 2.1312885187135002e+00 3.0031000000000642e+01 0 0 0
653 2 9.8440000000000012e+00 1.4208590124756659e+00 3.0031000000000642e+01 0 0 0
655 2 9.8440000000000012e+00 0.0000000000000000e+00 3.0031000000000642e+01 0 0 0
696 2 1.1074500000000002e+01 2.1312885187135002e+00 3.0031000000000642e+01 0 0 0
649 2 8.6134999999999984e+00 3.5521475311891657e+00 3.0031000000000642e+01 0 0 0
694 2 1.1074500000000002e+01 3.5521475311891644e+00 3.0031000000000642e+01 0 0 0
916 2 8.6134999999999984e+00 7.1042950623783407e-01 3.3186415095640257e+01 0 0 0
932 2 8.6134999999999984e+00 2.1312885187135002e+00 3.3186415095640257e+01 0 0 0
933 2 9.8440000000000012e+00 2.8417180249513332e+00 3.3186415095640257e+01 0 0 0
934 2 9.8440000000000012e+00 0.0000000000000000e+00 3.3186415095640257e+01 0 0 0
935 2 1.1074500000000002e+01 7.1042950623783330e-01 3.3186415095640257e+01 0 0 0
955 2 1.1074500000000002e+01 2.1312885187135002e+00 3.3186415095640257e+01 0 0 0
558 2 0.0000000000000000e+00 5.6834360499026637e+00 3.0031000000000642e+01 0 0 0
560 2 0.0000000000000000e+00 4.2625770374269996e+00 3.0031000000000642e+01 0 0 0
577 2 1.2305000000000001e+00 6.3938655561404980e+00 3.0031000000000642e+01 0 0 0
579 2 2.4610000000000003e+00 5.6834360499026637e+00 3.0031000000000642e+01 0 0 0
581 2 2.4610000000000003e+00 4.2625770374269996e+00 3.0031000000000642e+01 0 0 0
606 2 3.6914999999999996e+00 6.3938655561404980e+00 3.0031000000000642e+01 0 0 0
575 2 1.2305000000000001e+00 7.8147245686161639e+00 3.0031000000000642e+01 0 0 0
604 2 3.6914999999999996e+00 7.8147245686161639e+00 3.0031000000000642e+01 0 0 0
885 2 0.0000000000000000e+00 4.2625770374269996e+00 3.3186415095640257e+01 0 0 0
886 2 1.2305000000000001e+00 4.9730065436648339e+00 3.3186415095640257e+01 0 0 0
894 2 1.2305000000000001e+00 6.3938655561404980e+00 3.3186415095640257e+01 0 0 0
896 2 2.4610000000000003e+00 4.2625770374269996e+00 3.3186415095640257e+01 0 0 0
897 2 3.6914999999999996e+00 4.9730065436648339e+00 3.3186415095640257e+01 0 0 0
909 2 3.6914999999999996e+00 6.3938655561404980e+00 3.3186415095640257e+01 0 0 0
884 2 0.0000000000000000e+00 7.1042950623783341e+00 3.3186415095640257e+01 0 0 0
895 2 2.4610000000000003e+00 7.1042950623783341e+00 3.3186415095640257e+01 0 0 0
608 2 4.9220000000000006e+00 5.6834360499026637e+00 3.0031000000000642e+01 0 0 0
610 2 4.9220000000000006e+00 4.2625770374269978e+00 3.0031000000000642e+01 0 0 0
643 2 6.1524999999999999e+00 6.3938655561404980e+00 3.0031000000000642e+01 0 0 0
645 2 7.3829999999999991e+00 5.6834360499026637e+00 3.0031000000000642e+01 0 0 0
647 2 7.3829999999999991e+00 4.2625770374269996e+00 3.0031000000000642e+01 0 0 0
641 2 6.1524999999999999e+00 7.8147245686161639e+00 3.0031000000000642e+01 0 0 0
911 2 4.9220000000000006e+00 4.2625770374269978e+00 3.3186415095640257e+01 0 0 0
912 2 6.1524999999999999e+00 4.9730065436648339e+00 3.3186415095640257e+01 0 0 0
928 2 6.1524999999999999e+00 6.3938655561404980e+00 3.3186415095640257e+01 0 0 0
930 2 7.3829999999999991e+00 4.2625770374269996e+00 3.3186415095640257e+01 0 0 0
910 2 4.9220000000000006e+00 7.1042950623783341e+00 3.3186415095640257e+01 0 0 0
929 2 7.3830000000000009e+00 7.1042950623783341e+00 3.3186415095640257e+01 0 0 0
688 2 8.6135000000000002e+00 6.3938655561404980e+00 3.0031000000000642e+01 0 0 0
690 2 9.8440000000000012e+00 5.6834360499026637e+00 3.0031000000000642e+01 0 0 0
692 2 9.8440000000000012e+00 4.2625770374270004e+00 3.0031000000000642e+01 0 0 0
735 2 1.1074500000000002e+01 6.3938655561404980e+00 3.0031000000000642e+01 0 0 0
686 2 8.6135000000000002e+00 7.8147245686161639e+00 3.0031000000000642e+01 0 0 0
733 2 1.1074500000000002e+01 7.8147245686161639e+00 3.0031000000000642e+01 0 0 0
931 2 8.6135000000000002e+00 4.9730065436648339e+00 3.3186415095640257e+01 0 0 0
951 2 8.6135000000000002e+00 6.3938655561404980e+00 3.3186415095640257e+01 0 0 0
953 2 9.8440000000000012e+00 4.2625770374270004e+00 3.3186415095640257e+01 0 0 0
954 2 1.1074500000000002e+01 4.9730065436648339e+00 3.3186415095640257e+01 0 0 0
975 2 1.1074500000000002e+01 6.3938655561404980e+00 3.3186415095640257e+01 0 0 0
952 2 9.8440000000000012e+00 7.1042950623783341e+00 3.3186415095640257e+01 0 0 0
571 2 0.0000000000000000e+00 9.9460130873296642e+00 3.0031000000000642e+01 0 0 0
573 2 0.0000000000000000e+00 8.5251540748539991e+00 3.0031000000000642e+01 0 0 0
600 2 2.4610000000000003e+00 9.9460130873296642e+00 3.0031000000000642e+01 0 0 0
602 2 2.4610000000000003e+00 8.5251540748539991e+00 3.0031000000000642e+01 0 0 0
596 2 1.2305000000000001e+00 1.2077301606043163e+01 3.0031000000000642e+01 0 0 0
598 2 1.2305000000000001e+00 1.0656442593567498e+01 3.0031000000000642e+01 0 0 0
633 2 3.6914999999999996e+00 1.2077301606043163e+01 3.0031000000000642e+01 0 0 0
635 2 3.6914999999999996e+00 1.0656442593567499e+01 3.0031000000000642e+01 0 0 0
892 2 0.0000000000000000e+00 8.5251540748539991e+00 3.3186415095640257e+01 0 0 0
893 2 1.2305000000000001e+00 9.2355835810918343e+00 3.3186415095640257e+01 0 0 0
907 2 2.4610000000000003e+00 8.5251540748539991e+00 3.3186415095640257e+01 0 0 0
908 2 3.6915000000000004e+00 9.2355835810918343e+00 3.3186415095640257e+01 0 0 0
891 2 0.0000000000000000e+00 1.1366872099805333e+01 3.3186415095640257e+01 0 0 0
905 2 1.2305000000000001e+00 1.0656442593567498e+01 3.3186415095640257e+01 0 0 0
906 2 2.4610000000000003e+00 1.1366872099805333e+01 3.3186415095640257e+01 0 0 0
924 2 3.6914999999999996e+00 1.0656442593567499e+01 3.3186415095640257e+01 0 0 0
637 2 4.9220000000000006e+00 9.9460130873296642e+00 3.0031000000000642e+01 0 0 0
639 2 4.9220000000000006e+00 8.5251540748539991e+00 3.0031000000000642e+01 0 0 0
682 2 7.3830000000000009e+00 9.9460130873296642e+00 3.0031000000000642e+01 0 0 0
684 2 7.3830000000000009e+00 8.5251540748539991e+00 3.0031000000000642e+01 0 0 0
678 2 6.1524999999999999e+00 1.2077301606043163e+01 3.0031000000000642e+01 0 0 0
680 2 6.1524999999999999e+00 1.0656442593567499e+01 3.0031000000000642e+01 0 0 0
926 2 4.9220000000000006e+00 8.5251540748539991e+00 3.3186415095640257e+01 0 0 0
927 2 6.1524999999999999e+00 9.2355835810918343e+00 3.3186415095640257e+01 0 0 0
949 2 7.3830000000000009e+00 8.5251540748539991e+00 3.3186415095640257e+01 0 0 0
925 2 4.9220000000000006e+00 1.1366872099805333e+01 3.3186415095640257e+01 0 0 0
947 2 6.1524999999999999e+00 1.0656442593567499e+01 3.3186415095640257e+01 0 0 0
948 2 7.3829999999999991e+00 1.1366872099805333e+01 3.3186415095640257e+01 0 0 0
729 2 9.8440000000000012e+00 9.9460130873296642e+00 3.0031000000000642e+01 0 0 0
731 2 9.8440000000000012e+00 8.5251540748539956e+00 3.0031000000000642e+01 0 0 0
725 2 8.6135000000000002e+00 1.2077301606043163e+01 3.0031000000000642e+01 0 0 0
727 2 8.6134999999999984e+00 1.0656442593567498e+01 3.0031000000000642e+01 0 0 0
772 2 1.1074500000000002e+01 1.2077301606043163e+01 3.0031000000000642e+01 0 0 0
774 2 1.1074500000000002e+01 1.0656442593567498e+01 3.0031000000000642e+01 0 0 0
950 2 8.6134999999999984e+00 9.2355835810918343e+00 3.3186415095640257e+01 0 0 0
973 2 9.8440000000000012e+00 8.5251540748539956e+00 3.3186415095640257e+01 0 0 0
974 2 1.1074500000000002e+01 9.2355835810918343e+00 3.3186415095640257e+01 0 0 0
971 2 8.6134999999999984e+00 1.0656442593567498e+01 3.3186415095640257e+01 0 0 0
972 2 9.8440000000000012e+00 1.1366872099805333e+01 3.3186415095640257e+01 0 0 0
995 2 1.1074500000000002e+01 1.0656442593567498e+01 3.3186415095640257e+01 0 0 0
996 2 1.2304999999999998e+01 1.1366872099805333e+01 3.3186415095640257e+01 0 0 0
3332 1 6.0896349462404942e-01 3.8330610048380553e-01 3.6841876115008837e+01 0 0 -1
3662 1 2.0047577620854993e+00 2.5595445353235444e+00 3.5455194983400375e+01 0 1 0
3098 1 3.0921390925646395e+00 2.6199835980413329e+00 3.8201098797601965e+01 0 0 -1
3713 1 4.8259860097233860e+00 1.8506916516643916e+00 3.5793170076303426e+01 0 1 0
4712 1 8.7402890223321474e+00 2.4598154963070384e+00 3.5521014574669955e+01 1 1 0
5217 1 1.1479879666727507e+01 2.6739897659707288e+00 3.6069014998500172e+01 -1 0 1
434 1 1.5292882073119909e+00 5.3086530964697207e+00 3.6112398790753616e+01 1 1 -1
352 1 3.9939373906876705e+00 5.9171449962939500e+00 3.5498168717687136e+01 0 0 -1
1278 1 2.2144232957719718e+00 5.9552504927739216e+00 3.8530725796696039e+01 -1 0 0
123 1 5.1412275252799153e+00 4.5685800437498880e+00 3.8773894158605358e+01 1 1 0
1438 1 6.3335612485632904e+00 4.3751344668732104e+00 3.6020387999441851e+01 0 1 0
6060 1 1.1687363063526506e+01 5.5814555763709652e+00 3.8426415645174316e+01 0 0 0
1686 1 8.9097356162665111e+00 5.8230847879212639e+00 3.8363078159952948e+01 0 1 -1
1257 1 8.4530190295695089e+00 6.8502174890814960e+00 3.5715881025129221e+01 0 0 0
1984 1 1.1162517330814246e+01 7.5917994716173389e+00 3.5645620108209187e+01 0 1 0
5164 1 1.2385777050014988e+00 9.0803019113883003e+00 3.6073142598663679e+01 0 2 0
1595 1 4.0843161842660303e+00 8.4725625006595013e+00 3.6399018624949072e+01 1 -1 -1
1791 1 4.1137166682489443e+00 1.1461233194949926e+01 3.6156368226743758e+01 1 1 -1
3699 1 6.7814037600792823e+00 8.8473798201981886e+00 3.6252130874907522e+01 1 0 0
2837 1 8.0816743638209179e+00 1.1004747442880547e+01 3.5637619448943987e+01 0 0 0
3 1 7.4254719906455886e+00 8.2167215796130257e+00 3.8841118854165877e+01 1 0 -1
3671 1 1.0781948684123677e+01 8.7804498229719048e+00 3.8624772660447867e+01 0 1 -1
1965 1 1.1181894495336199e+01 1.0448073626848013e+01 3.6030409570455816e+01 0 0 0
3115 1 7.9971834022327348e-01 8.6654963236187199e-01 3.9719639792237331e+01 1 1 0
1712 1 7.9390456311851743e-01 3.0447282332048724e+00 4.1704620839601162e+01 3 1 -1
4442 1 7.7642091298372939e+00 3.5958618169710528e+00 3.9745606771890849e+01 1 1 0
6221 1 5.1830250132935145e+00 1.6689705425827812e+00 4.0169950668163906e+01 1 1 -1
4597 1 5.2334303190246505e+00 1.0954829526174199e+00 4.2962500329723028e+01 0 2 -1
6172 1 9.9906268530000073e+00 1.4559072906352644e+00 4.2637105372563092e+01 1 1 0
2065 1 1.0793198557569392e+01 2.8982709870979981e+00 3.8881546691710653e+01 0 0 -1
2856 1 8.2721832782469864e+00 7.8127176599873704e-01 3.8867771251893600e+01 0 0 0
1730 1 3.2834431711378418e+00 5.2049092025002501e+00 4.1432084560836145e+01 0 0 -1
324 1 8.6334250810346777e-02 7.6991895032073687e+00 4.1786708033054225e+01 -1 0 -1
3120 1 5.1925960139926888e+00 7.1470468361771511e+00 4.0502538840566224e+01 0 1 -1
495 1 8.1437422622126263e+00 4.1230460492520038e+00 4.2446996958555303e+01 0 0 0
6013 1 6.7859365222318786e+00 6.6601098416465545e+00 4.2731144351870142e+01 0 0 0
1682 1 9.8485666468177069e+00 7.0545846265534919e+00 4.2519353559580381e+01 0 1 -1
4486 1 1.2809507771591087e+00 8.6655960850430347e+00 3.9073640556601525e+01 0 0 0
2984 1 3.0031635880482610e+00 9.4588125154176232e+00 4.3166658940929231e+01 0 0 0
6269 1 3.4810523862412426e+00 9.2405612578177685e+00 4.0589609999225978e+01 0 0 0
3668 1 4.0396502116866948e+00 1.1367138615166349e+01 3.8966822817188906e+01 1 1 -1
9 1 6.5132877633430581e+00 1.1809614136575037e+01 4.3075577562525496e+01 0 1 0
2907 1 1.1938345248674850e+01 8.4934346196659067e+00 4.1335044280710846e+01 -1 1 0
4869 1 8.7403776025087829e+00 1.0759690634463247e+01 3.9634544871647428e+01 1 1 0
3151 1 1.0033990440423983e+00 1.4236426755845963e+00 4.3990376474244030e+01 -1 1 -1
4571 1 2.0121981545532863e+00 2.1856900288468677e+00 4.6597931589714371e+01 0 0 0
2809 1 3.4288267238454462e+00 3.7232694812806981e+00 4.3969610822411575e+01 0 1 0
5098 1 4.8792745120870249e+00 1.0854128373488823e+00 4.7291855066118039e+01 1 0 -1
253 1 7.1998064162503637e+00 1.2393910584639549e+00 4.5668366267644664e+01 0 0 -1
6288 1 6.1371573158095813e+00 3.6803584056300984e+00 4.4663448166766777e+01 0 1 -1
369 1 1.0240529441421183e+01 2.3191633096073727e+00 4.5719487606937342e+01 1 1 -1
6018 1 1.6443145176308100e+00 5.3005569231567531e+00 4.5891039367841685e+01 0 0 0
5086 1 2.0249351408237430e+00 6.8825056478502233e+00 4.3482314881993865e+01 0 -1 0
1706 1 4.2231387133984555e+00 6.4140658250597244e+00 4.7097772266963240e+01 1 0 0
5206 1 6.5756277780398102e+00 4.6892543369030024e+00 4.7022455805366867e+01 1 0 -1
1948 1 1.0956080988899391e+01 5.3047374206152620e+00 4.6286147649657750e+01 1 0 -1
2054 1 8.6714251358853076e+00 6.6919143399857086e+00 4.7176465192941812e+01 0 0 0
3074 1 1.1942569511700743e+01 7.3158220022596581e+00 4.4626443038440605e+01 1 0 -1
1521 1 1.0720318545313587e+01 4.4341317847910302e+00 4.3335218605170702e+01 0 1 0
4606 1 6.0177138019678944e-01 9.3022022424003641e+00 4.5195447545994078e+01 0 1 0
4903 1 2.8850374241586128e+00 1.0448482641224357e+01 4.7137085256333712e+01 1 -2 -1
4760 1 5.2645496155969083e+00 8.9507878071683784e+00 4.6555196296985500e+01 1 0 -1
2037 1 5.5845296730637308e+00 9.2706268263637330e+00 4.3586929086592072e+01 0 0 -1
1702 1 8.6437142572553505e+00 8.2175742186926453e+00 4.4890044767484561e+01 0 0 -1
3155 1 1.1344721321571027e+01 9.9078661014055029e+00 4.5999441273348580e+01 0 1 0
1300 1 8.7775066912776385e+00 1.1135783662031976e+01 4.5603331092623620e+01 1 1 -1
36 1 3.9391934611697201e+00 3.2845174424792996e+00 4.9107042132240359e+01 2 1 -1