LAMMPS data file via write_data, version 29 Oct 2020, timestep = 150000

4990 atoms
2 atom types

0.0 49.22 xlo xhi
0.0 49.019635930410494 ylo yhi
2.1893117026725584 37.81068829732868 zlo zhi

Masses

1 18.015
2 12.01

Atoms # atomic

3746 1 12.698886762560601 1.932275128754778 3.490498334760395 1 0 1
4602 1 15.682225540310508 20.324298636573428 3.3912729947357843 1 0 1
319 2 8.6135 22.023314693372832 17.01563666485751 0 0 0
4564 1 16.283409725537673 22.254323041457244 10.876490121851718 0 0 1
1749 1 1.9868570176691829 9.922398769175812 10.98803164062951 1 1 1
6 1 14.976819822383622 4.895011926782698 3.2366969383695574 1 1 0
4367 1 7.614621359525025 23.087023153000974 10.14662432283701 0 0 1
4236 1 2.522639045700953 6.128357448364973 2.578450464434489 1 1 0
956 1 6.71754613155396 0.3596638172782045 14.147994419071676 -1 0 0
3453 1 12.334635840524555 7.003458439611712 4.086883251595332 0 0 1
4231 1 13.873085750430763 18.20066855948412 14.608220371179852 0 0 0
3069 1 13.340736724468528 2.515864578765891 6.372584424418143 0 -1 1
4593 1 0.12963234232117063 1.2708106561654398 14.908455077985282 0 0 0
1857 1 13.577252083512967 5.1127440297289315 5.971251530882826 0 0 1
2883 1 16.1580901424409 15.575576127028564 9.40480602910299 0 1 1
969 1 7.331387461419443 14.924926742434936 3.8561361396373774 1 -1 0
1033 1 8.17423042060171 8.605772489324595 4.711778959315721 0 1 0
2996 1 11.751604208736985 11.600437917921477 3.518662986615133 0 0 1
2197 1 9.447387885439676 10.089182033159462 2.932508651661934 1 0 1
3884 1 6.046883475095488 9.067114790057458 3.4148013792741163 1 0 0
4651 1 12.337594153725401 9.468629635495173 5.238077737174118 1 0 0
3848 1 6.347468371460459 12.633523234232904 5.717946418408829 2 0 1
1 1 9.844872611175017 13.269698851927444 4.510945856873452 1 0 0
2646 1 2.9094664540760147 7.224598614399598 11.66410986778375 1 0 1
949 1 14.078978008979771 13.315532605874878 4.322935991096832 0 0 0
3760 1 13.06011094483369 14.556756710317746 6.495507778761059 0 1 1
3410 1 15.917663042405254 5.706254085638367 7.468851228358361 1 0 0
1322 1 1.6332349071642092 14.15297430715247 6.208639740398019 1 -1 1
1050 1 4.722215763307965 15.81421517953916 3.2825633684993214 2 1 0
2604 1 12.54940159322514 19.11792359021324 3.8218116033643232 1 0 1
3745 1 10.386510438999428 14.430432607381631 7.836030686343363 1 0 1
2938 1 3.365772436492621 20.414624575881895 4.720565060859311 0 0 2
2987 1 14.837010687065863 7.433700189421346 13.993227397929754 0 1 1
4277 1 15.238166710842751 24.48475436184568 9.92645238876935 0 -1 1
1316 1 13.801377276123 21.276095103008856 11.949001219608743 0 0 1
993 1 15.290591702450131 17.343939838754824 4.088238691000663 1 0 1
172 2 14.765999999999998 21.312885187135 17.01563666485751 0 0 0
4618 1 14.934960216929243 9.782861602293291 4.050550571680066 0 0 1
3841 1 2.3875678775163345 23.55452601583046 4.853045102757353 1 1 1
347 2 12.305 24.154603212086325 17.01563666485751 0 0 0
2701 1 11.341093760829365 15.420956664345596 3.9103887574167198 0 0 -1
1209 1 5.710309722476257 21.847891190972597 3.633534730190554 0 0 1
980 1 15.524932782305747 23.220725533011755 5.732007306646425 1 0 0
1340 1 15.226411233414819 0.8594475894352152 7.559010551042902 1 1 1
4250 1 4.992383598601798 24.27720251689845 4.712878360229833 0 -1 1
416 1 15.217735734304226 4.8574965396635115 14.674722611604905 0 0 1
1232 1 1.8088288503454248 3.491474905350897 3.077048393014351 0 0 0
4619 1 1.7551837096007152 13.636602247931362 2.617197085056111 0 0 1
2967 1 9.031858749449984 2.8996971588572866 6.31763483153159 0 -1 1
37 1 4.315970017415116 2.5908436924306915 2.5742224783716834 -1 0 1
346 2 11.074500000000002 23.4441737058485 17.01563666485751 0 0 0
177 2 13.5355 23.4441737058485 17.01563666485751 0 0 0
3425 1 2.2062320963699897 1.7096704186072935 8.691034274041634 1 0 1
28 1 2.279016153171803 3.088708030273586 6.027032338225038 0 -1 0
3752 1 9.347642577220174 2.3874229094134574 3.4391215900241647 0 0 1
4345 1 11.142510248453217 1.925769143123715 7.705583360279525 0 1 1
1852 1 11.722503729244313 5.774120351428944 7.874286576752866 1 0 0
426 1 15.31056812767676 8.547335453628499 9.138427960842595 1 0 0
2598 1 4.068402392766628 7.472796025323322 4.601464170127145 0 1 1
4199 1 5.037367014118061 5.778316352413494 6.6187073489296875 0 1 0
1746 1 8.422097742498643 9.084931918109504 7.661680006119255 0 0 1
2194 1 9.470921826028906 5.405247329167922 6.3656698100629505 0 1 1
3505 1 11.142141228848702 8.528826653587277 7.831817937247899 0 0 0
82 1 13.40586181370861 10.081148429059107 7.95826572102216 0 1 -1
336 2 11.074500000000002 22.023314693372832 17.01563666485751 0 0 0
423 1 15.938878873476217 10.16073246902403 11.71681530250168 0 1 1
348 2 12.305 21.312885187135 17.01563666485751 0 0 0
3820 1 3.047678003073033 9.743565814342777 6.1398327029481745 0 1 1
2926 1 9.010334611629078 12.039393962454668 6.678626719975478 1 1 2
4633 1 14.468338747366172 13.274367037071073 8.575095481378309 0 1 0
3778 1 8.712776800953893 16.802162107576887 6.813886472688652 1 1 0
10 1 13.353033417886023 11.61137769221511 11.880405710250185 0 0 0
3767 1 15.984547448983156 2.3349413011671816 2.482013936564811 0 1 0
335 2 9.844000000000001 21.312885187135 17.01563666485751 0 0 0
4683 1 2.3587392971635937 16.39615176035441 7.347199686940449 1 0 0
175 2 14.766000000000002 24.154603212086325 17.01563666485751 0 0 0
3514 1 4.7444534422519515 16.499972850378576 6.027118958774878 0 0 0
4363 1 6.60037991960094 15.003437827616649 7.278378386004288 1 2 0
112 1 6.435818872873267 19.338529493579195 11.60824368690485 0 1 0
92 1 5.966310536187969 15.99290864852547 10.031481841788212 1 1 0
4361 1 8.468983555028787 20.80369076865832 8.343848549789714 -1 1 0
3477 1 9.244214898581463 17.328142897992837 4.291112941854552 0 1 0
2595 1 2.0715990475777737 14.963818293475235 14.292955995026817 0 0 0
4201 1 6.840164959347027 1.2518545611519225 3.0442931887829254 1 0 1
2708 1 15.195701004255183 16.820943270093682 7.049169958300501 0 0 -1
4565 1 2.269344215302847 19.42462761586065 8.155132221068973 -1 1 1
931 1 4.674477692910235 19.102052223449423 6.696392658918769 0 1 0
2132 1 4.819211757932631 23.064230551741634 9.078848074062964 1 0 0
2068 1 12.38975419243133 17.494825724558137 6.078024241411179 0 0 0
135 1 11.54953657057724 21.45485891707759 4.992608512326491 1 0 0
1839 1 5.875099342686131 20.392412929778107 8.999416745395425 1 0 0
3001 1 6.46054425805288 18.056396465529158 2.7283500685616877 0 0 1
3834 1 1.2443642814987352 21.861773043141476 6.864542488803703 -1 0 0
48 2 15.996499999999997 23.44417370584849 17.01563666485751 0 0 0
1812 1 0.4047340615855698 17.995500508605595 11.674355111780589 1 -1 0
4322 1 7.2324357086798665 19.93213645889354 4.888424143110868 0 -1 0
2195 1 14.655885548845195 1.3890599911303816 9.970323052670864 0 -1 0
190 2 13.5355 22.023314693372832 17.01563666485751 0 0 0
2201 1 1.2208818428544057 8.520877524032839 3.8133977591825765 1 1 1
2227 1 3.721502339397207 3.0920331496049145 10.71776418446704 0 0 1
2908 1 5.070861742127699 3.3288164682611563 5.25348048917433 1 0 1
2979 1 15.044014877849266 0.18400005420931428 4.287839016344977 0 0 1
1793 1 6.37046358415688 2.864795643924003 10.04215094188499 -1 0 0
390 1 9.278938603009626 3.0922387097853914 11.501613489879649 0 0 1
3832 1 15.49847499911863 0.6934967114582407 14.300439303319742 1 0 1
1041 1 2.931966494006904 0.3819320066211222 11.686065314529447 1 1 0
2723 1 7.466796798049432 6.555482210932355 7.799992241712736 1 0 0
1236 1 1.6706144783992711 5.098480895814578 10.20015459373117 1 1 1
1000 1 7.445039215785048 5.773033779285745 10.377326086745889 0 0 1
134 1 6.783975381320757 9.62247190245174 9.986960250548542 1 0 1
473 1 11.387411233767764 3.688050474686103 9.831413652721292 0 -1 1
3740 1 10.13478336578494 6.300419027642385 11.372819501882752 0 0 0
105 1 13.46702154477028 23.012890162598115 3.900312130172853 0 1 1
4209 1 13.795684055020637 3.7013143682170315 10.968623636582342 0 0 0
975 1 3.6260616597840793 12.004274829947517 10.163581442760012 1 1 0
962 1 5.534532876132293 10.821600410877453 7.559115626750467 1 0 0
1214 1 5.872963640146589 7.633426116715261 11.61794802405911 1 0 1
3442 1 10.919797258533793 11.265508949949663 11.120200293026903 1 1 0
3005 1 9.559817861209048 8.837628615760522 10.578910144765276 0 0 0
4702 1 10.230883013577307 12.157066441420994 13.82550019230236 -1 0 1
1380 1 13.285744476605432 7.107921695388795 11.392105790247482 1 -1 1
4568 1 3.3339477898212664 15.218119586434893 9.795362848686631 1 -1 1
2915 1 0.9030399081277982 15.295443991947325 11.543680388252586 0 1 0
1002 1 5.919311548961226 11.948228035282115 11.52932551437068 0 2 0
1821 1 9.889116526030882 13.709277768369384 10.680046539210842 0 0 0
50 1 11.552901925537872 15.769295747431745 11.686878903266521 1 -1 1
2897 1 12.746865825332563 21.184190303914 7.813253129283543 0 0 1
3411 1 4.051256785086776 17.764884434996947 11.79059592363817 0 0 0
456 1 7.370395017359909 14.514833961317777 11.586236574205683 0 0 1
2909 1 7.982881261881948 17.9528568381971 9.519555579565454 1 1 0
3527 1 11.01457740074957 18.98472073907442 7.974863324270347 1 0 1
3881 1 13.965751721873676 14.396848212810848 11.634431930799915 0 0 1
869 1 2.5420723587324296 22.058362398686956 11.881238749389064 0 -1 1
3498 1 2.4625317233085697 19.472614030504037 10.69789535174361 0 0 0
1866 1 10.157976887209024 23.122130753387328 11.573605634590193 0 1 0
317 2 7.383000000000001 24.154603212086336 17.01563666485751 0 0 0
2600 1 10.432131904466406 18.393270588383235 10.772354161057894 0 -1 0
115 1 15.544865059498875 5.766903973769994 10.209615029883446 0 -1 1
2980 1 3.1268598544124897 12.19682527753136 4.922812315556637 0 1 1
1390 1 1.8828201020883444 23.238341421143964 9.376702398982456 1 0 1
988 1 7.069497026781896 0.4763124725259833 11.391676126300327 -1 0 0
4552 1 9.013249390138876 22.176598985856188 5.745666197788141 1 0 1
333 2 8.613499999999998 23.4441737058485 17.01563666485751 0 0 0
3440 1 12.394608229214555 22.928217041846892 9.995089508626604 1 -1 0
4347 1 15.125809158543376 19.595949324109007 7.497699397630013 -1 1 0
3449 1 1.1093262705418308 9.633375771080221 7.79958455304505 1 0 0
373 1 3.3758796174300945 3.1188824433144298 13.671057169955736 1 0 1
298 2 6.152499999999999 22.023314693372832 17.01563666485751 0 0 0
3817 1 7.455479312335181 1.1808079786416619 7.853362960685119 -1 1 1
1245 1 7.264785073092962 2.8223820598767926 14.4257508450904 1 0 1
4687 1 9.880724342628216 3.633049690797978 14.403340543623946 0 0 1
3015 1 8.10756548255166 23.71436521052406 3.0451426730059787 1 0 1
3536 1 1.1503603800333027 4.034116458394159 14.436362788681757 1 1 1
34 1 5.50555517679499 5.008104213457372 14.384356074397077 0 0 1
2669 1 7.2663016061976835 7.408727760135543 14.214513261937142 1 0 0
4646 1 9.794883142206052 6.493207717200058 13.985820883119384 1 1 2
2875 1 11.542567273996442 1.3775254390192346 14.62859954590486 -2 1 1
166 2 15.996500000000003 22.023314693372832 17.01563666485751 0 0 0
4194 1 13.866331230141695 2.7557334126064195 13.581452947597942 -1 1 0
891 1 1.5128426395210617 9.609889540041278 13.662107290833633 0 1 0
79 1 2.0824400513386845 6.778940673098481 14.46494850043198 0 1 1
3446 1 8.141493544118433 10.588710563253384 14.511137912036322 1 0 1
4339 1 12.755391477121684 11.22246451312254 14.721201426124669 1 0 0
154 1 11.836837394769676 8.142511899841407 14.429953568961833 -1 0 1
4302 1 2.5929922835173564 12.171341442655766 14.563508750263663 1 0 0
2054 1 5.749977805730695 12.336075115186867 14.205374214466161 1 1 2
4336 1 9.421163280772621 15.044758254473141 14.238001395204261 1 0 1
1009 1 12.260901316586155 15.781869521832661 14.44673641575027 1 0 0
334 2 9.844000000000001 24.154603212086336 17.01563666485751 0 0 0
2619 1 4.303502041990548 16.76257437200854 14.419975519139333 0 0 0
950 1 6.3273815012801276 15.016520425856543 14.280038576293135 0 1 1
3032 1 10.108529313060188 20.43130930068881 12.75654440193388 2 1 1
2155 1 12.110486281412102 20.416778953853303 14.609782349421511 -1 0 1
3427 1 7.530016548846785 20.32666723944061 13.97170035122464 1 0 1
49 1 9.524275160830532 6.3470442879156455 3.96689101815015 0 -1 -1
539 1 13.977667398967153 13.848432054921876 14.347550032239207 0 0 1
3710 1 1.8255783091014712 20.77702254353325 14.572466703048626 1 0 1
296 2 4.922000000000001 24.154603212086325 17.01563666485751 0 0 0
2107 1 4.573202273480206 19.68344992598653 14.328429839043217 2 1 0
1040 1 13.645647357082495 24.45082422715767 7.509130694786638 0 0 -1
3512 1 7.3469109006245645 23.050455268682743 14.627453704768476 0 1 0
4530 1 2.6200008446941303 6.602612024570807 7.90649741552825 1 0 0
1756 1 13.380344588873742 18.58853195087748 11.703765593784874 -1 0 0
523 1 2.2692040487446574 23.753499367633985 14.223678787332386 0 -1 1
2601 1 9.85047969984172 24.247153133823517 14.571944456930124 1 0 0
1333 1 12.63366673122811 23.367429583667725 14.572847042710118 1 0 0
3798 1 5.285849403093773 11.68761573829933 3.075184524234971 1 0 1
193 2 0.0 2.8417180249513345 17.01563666485751 0 0 0
194 2 0.0 0.0 17.01563666485751 0 0 0
195 2 1.2305000000000001 0.7104295062378347 17.01563666485751 0 0 0
199 2 1.2305000000000001 2.1312885187135 17.01563666485751 0 0 0
200 2 2.4610000000000003 2.8417180249513345 17.01563666485751 0 0 0
201 2 2.4610000000000003 0.0 17.01563666485751 0 0 0
202 2 3.6915000000000004 0.7104295062378347 17.01563666485751 0 0 0
210 2 3.6914999999999996 2.1312885187135 17.01563666485751 0 0 0
211 2 4.922000000000001 2.841718024951333 17.01563666485751 0 0 0
212 2 4.922000000000001 0.0 17.01563666485751 0 0 0
213 2 6.1525 0.7104295062378341 17.01563666485751 0 0 0
225 2 6.1525 2.131288518713499 17.01563666485751 0 0 0
226 2 7.382999999999999 2.8417180249513345 17.01563666485751 0 0 0
227 2 7.382999999999999 0.0 17.01563666485751 0 0 0
228 2 8.613499999999998 0.7104295062378341 17.01563666485751 0 0 0
244 2 8.613499999999998 2.1312885187135002 17.01563666485751 0 0 0
245 2 9.844000000000001 2.841718024951333 17.01563666485751 0 0 0
246 2 9.844000000000001 0.0 17.01563666485751 0 0 0
247 2 11.074500000000002 0.7104295062378333 17.01563666485751 0 0 0
267 2 11.074500000000002 2.1312885187135002 17.01563666485751 0 0 0
268 2 12.305 2.841718024951333 17.01563666485751 0 0 0
269 2 12.305 0.0 17.01563666485751 0 0 0
270 2 13.5355 0.7104295062378352 17.01563666485751 0 0 0
291 2 13.5355 2.1312885187134984 17.01563666485751 0 0 0
292 2 14.765999999999998 2.841718024951335 17.01563666485751 0 0 0
293 2 14.765999999999998 0.0 17.01563666485751 0 0 0
294 2 15.996500000000003 0.7104295062378352 17.01563666485751 0 0 0
315 2 15.996500000000003 2.1312885187135002 17.01563666485751 0 0 0
197 2 0.0 4.262577037427 17.01563666485751 0 0 0
198 2 1.2305000000000001 4.973006543664834 17.01563666485751 0 0 0
206 2 1.2305000000000001 6.393865556140498 17.01563666485751 0 0 0
208 2 2.4610000000000003 4.262577037427 17.01563666485751 0 0 0
209 2 3.6914999999999996 4.973006543664834 17.01563666485751 0 0 0
221 2 3.6914999999999996 6.393865556140498 17.01563666485751 0 0 0
223 2 4.922000000000001 4.262577037426998 17.01563666485751 0 0 0
224 2 6.1525 4.973006543664834 17.01563666485751 0 0 0
240 2 6.1525 6.393865556140498 17.01563666485751 0 0 0
242 2 7.382999999999999 4.262577037427 17.01563666485751 0 0 0
243 2 8.6135 4.973006543664834 17.01563666485751 0 0 0
263 2 8.6135 6.393865556140498 17.01563666485751 0 0 0
265 2 9.844000000000001 4.2625770374270004 17.01563666485751 0 0 0
266 2 11.074500000000002 4.973006543664834 17.01563666485751 0 0 0
287 2 11.074500000000002 6.393865556140498 17.01563666485751 0 0 0
289 2 12.305 4.262577037426998 17.01563666485751 0 0 0
290 2 13.5355 4.973006543664834 17.01563666485751 0 0 0
311 2 13.5355 6.393865556140498 17.01563666485751 0 0 0
313 2 14.766000000000002 4.262577037426998 17.01563666485751 0 0 0
314 2 15.996499999999997 4.973006543664834 17.01563666485751 0 0 0
332 2 15.996500000000003 6.393865556140498 17.01563666485751 0 0 0
196 2 0.0 7.104295062378334 17.01563666485751 0 0 0
204 2 0.0 8.525154074854 17.01563666485751 0 0 0
205 2 1.2305000000000001 9.235583581091834 17.01563666485751 0 0 0
207 2 2.4610000000000003 7.104295062378334 17.01563666485751 0 0 0
219 2 2.4610000000000003 8.525154074854 17.01563666485751 0 0 0
220 2 3.6915000000000004 9.235583581091834 17.01563666485751 0 0 0
222 2 4.922000000000001 7.104295062378334 17.01563666485751 0 0 0
238 2 4.922000000000001 8.525154074854 17.01563666485751 0 0 0
239 2 6.1525 9.235583581091834 17.01563666485751 0 0 0
241 2 7.383000000000001 7.104295062378334 17.01563666485751 0 0 0
261 2 7.383000000000001 8.525154074854 17.01563666485751 0 0 0
262 2 8.613499999999998 9.235583581091834 17.01563666485751 0 0 0
264 2 9.844000000000001 7.104295062378334 17.01563666485751 0 0 0
285 2 9.844000000000001 8.525154074853996 17.01563666485751 0 0 0
286 2 11.074500000000002 9.235583581091834 17.01563666485751 0 0 0
288 2 12.305 7.104295062378334 17.01563666485751 0 0 0
309 2 12.305 8.525154074854 17.01563666485751 0 0 0
310 2 13.5355 9.235583581091829 17.01563666485751 0 0 0
312 2 14.765999999999998 7.104295062378331 17.01563666485751 0 0 0
330 2 14.765999999999998 8.525154074854 17.01563666485751 0 0 0
331 2 15.996500000000003 9.235583581091836 17.01563666485751 0 0 0
203 2 0.0 11.366872099805333 17.01563666485751 0 0 0
215 2 0.0 12.787731112280996 17.01563666485751 0 0 0
216 2 1.2305000000000001 13.49816061851883 17.01563666485751 0 0 0
217 2 1.2305000000000001 10.656442593567498 17.01563666485751 0 0 0
218 2 2.4610000000000003 11.366872099805333 17.01563666485751 0 0 0
234 2 2.4610000000000003 12.787731112280996 17.01563666485751 0 0 0
235 2 3.6915000000000004 13.49816061851883 17.01563666485751 0 0 0
236 2 3.6914999999999996 10.6564425935675 17.01563666485751 0 0 0
237 2 4.922000000000001 11.366872099805333 17.01563666485751 0 0 0
257 2 4.922000000000001 12.787731112280996 17.01563666485751 0 0 0
258 2 6.152499999999999 13.49816061851883 17.01563666485751 0 0 0
259 2 6.1525 10.6564425935675 17.01563666485751 0 0 0
260 2 7.382999999999999 11.366872099805333 17.01563666485751 0 0 0
281 2 7.382999999999999 12.787731112280996 17.01563666485751 0 0 0
282 2 8.6135 13.498160618518835 17.01563666485751 0 0 0
283 2 8.613499999999998 10.656442593567498 17.01563666485751 0 0 0
284 2 9.844000000000001 11.366872099805333 17.01563666485751 0 0 0
305 2 9.844000000000001 12.787731112280996 17.01563666485751 0 0 0
306 2 11.074500000000002 13.49816061851883 17.01563666485751 0 0 0
307 2 11.074500000000002 10.656442593567498 17.01563666485751 0 0 0
308 2 12.304999999999998 11.366872099805333 17.01563666485751 0 0 0
326 2 12.305 12.787731112280996 17.01563666485751 0 0 0
327 2 13.5355 13.498160618518835 17.01563666485751 0 0 0
328 2 13.5355 10.6564425935675 17.01563666485751 0 0 0
329 2 14.765999999999998 11.366872099805333 17.01563666485751 0 0 0
343 2 14.765999999999998 12.787731112280996 17.01563666485751 0 0 0
344 2 15.996500000000003 13.498160618518835 17.01563666485751 0 0 0
345 2 15.996499999999997 10.6564425935675 17.01563666485751 0 0 0
214 2 0.0 15.629449137232333 17.01563666485751 0 0 0
230 2 0.0 17.050308149708 17.01563666485751 0 0 0
232 2 1.2305000000000001 14.919019630994494 17.01563666485751 0 0 0
233 2 2.4610000000000003 15.629449137232328 17.01563666485751 0 0 0
253 2 2.4610000000000003 17.050308149708 17.01563666485751 0 0 0
255 2 3.6915000000000004 14.919019630994494 17.01563666485751 0 0 0
256 2 4.922000000000001 15.629449137232333 17.01563666485751 0 0 0
277 2 4.922000000000001 17.050308149708 17.01563666485751 0 0 0
279 2 6.152499999999999 14.919019630994494 17.01563666485751 0 0 0
280 2 7.382999999999999 15.629449137232333 17.01563666485751 0 0 0
301 2 7.383000000000001 17.050308149708 17.01563666485751 0 0 0
303 2 8.6135 14.919019630994494 17.01563666485751 0 0 0
304 2 9.844000000000001 15.629449137232328 17.01563666485751 0 0 0
322 2 9.844000000000001 17.050308149708 17.01563666485751 0 0 0
324 2 11.074500000000002 14.919019630994494 17.01563666485751 0 0 0
339 2 12.304999999999998 17.050308149708 17.01563666485751 0 0 0
180 2 15.996500000000003 14.9190196309945 17.01563666485751 0 0 0
183 2 14.766000000000002 17.050308149708 17.01563666485751 0 0 0
325 2 12.305 15.629449137232333 17.01563666485751 0 0 0
341 2 13.5355 14.919019630994494 17.01563666485751 0 0 0
342 2 14.766000000000002 15.629449137232333 17.01563666485751 0 0 0
229 2 0.0 19.89202617465933 17.01563666485751 0 0 0
231 2 1.2305000000000001 17.76073765594583 17.01563666485751 0 0 0
251 2 1.2305000000000001 19.181596668421495 17.01563666485751 0 0 0
252 2 2.4610000000000003 19.89202617465933 17.01563666485751 0 0 0
254 2 3.6914999999999996 17.76073765594583 17.01563666485751 0 0 0
275 2 3.6914999999999996 19.181596668421495 17.01563666485751 0 0 0
276 2 4.922000000000001 19.89202617465933 17.01563666485751 0 0 0
278 2 6.1525 17.76073765594583 17.01563666485751 0 0 0
299 2 6.1525 19.181596668421495 17.01563666485751 0 0 0
300 2 7.382999999999999 19.89202617465933 17.01563666485751 0 0 0
302 2 8.613499999999998 17.76073765594583 17.01563666485751 0 0 0
320 2 8.6135 19.181596668421495 17.01563666485751 0 0 0
321 2 9.844000000000001 19.892026174659335 17.01563666485751 0 0 0
323 2 11.074500000000002 17.760737655945835 17.01563666485751 0 0 0
337 2 11.074500000000002 19.181596668421495 17.01563666485751 0 0 0
149 2 15.996500000000003 19.181596668421495 17.01563666485751 0 0 0
182 2 15.996500000000003 17.76073765594583 17.01563666485751 0 0 0
187 2 14.766000000000002 19.89202617465933 17.01563666485751 0 0 0
188 2 13.5355 19.181596668421495 17.01563666485751 0 0 0
338 2 12.305000000000005 19.892026174659335 17.01563666485751 0 0 0
340 2 13.5355 17.760737655945835 17.01563666485751 0 0 0
274 2 3.6914999999999996 22.023314693372832 17.01563666485751 0 0 0
295 2 3.6915000000000004 23.4441737058485 17.01563666485751 0 0 0
248 2 0.0 24.154603212086325 17.01563666485751 0 0 0
249 2 0.0 21.312885187135 17.01563666485751 0 0 0
250 2 1.2304999999999993 22.023314693372832 17.01563666485751 0 0 0
271 2 1.2304999999999993 23.4441737058485 17.01563666485751 0 0 0
272 2 2.4610000000000003 24.154603212086325 17.01563666485751 0 0 0
273 2 2.4610000000000003 21.312885187134995 17.01563666485751 0 0 0
316 2 6.1525 23.4441737058485 17.01563666485751 0 0 0
297 2 4.922000000000001 21.312885187134995 17.01563666485751 0 0 0
318 2 7.382999999999999 21.312885187135 17.01563666485751 0 0 0
2129 1 16.04658490099857 17.40647557394303 11.298866375131453 0 0 0
1366 1 3.7561524167938134 0.3607884947747636 14.339849769218926 1 0 1
361 1 1.1501180641152833 12.720963655686413 8.689345919690306 1 1 0
2984 1 16.391833343553575 17.40960777574675 14.229237492036447 0 1 1
1339 1 5.624660069311461 0.6158321163014252 6.071918229971239 1 1 0
4576 1 8.980415303876551 24.13707590304556 7.4109048987959865 -1 0 1
3000 1 6.471687432974356 24.268213937681868 7.240467437299537 0 0 1
4355 1 16.306374503907573 11.986448853937906 4.723637653317146 0 0 0
516 1 10.4563083881209 0.3710995488402234 11.896065626291493 1 0 1
1846 1 15.74712598590123 10.081431652431574 14.487509827882644 0 1 1
1879 1 0.7905780414377309 20.079414679900374 3.667132523406579 1 0 1
4318 1 15.956312291328665 22.078037106925258 14.150825053775353 0 1 0
3367 1 15.439361575632393 14.438274086638435 2.2052001997331274 1 1 1
549 2 0.0 1.420859012475665 20.027840885762583 0 0 0
550 2 0.0 0.0 20.027840885762583 0 0 0
554 2 1.2305000000000001 2.1312885187135 20.027840885762583 0 0 0
555 2 2.4610000000000003 1.420859012475665 20.027840885762583 0 0 0
556 2 2.4610000000000003 0.0 20.027840885762583 0 0 0
564 2 3.6914999999999996 2.1312885187135 20.027840885762583 0 0 0
710 2 0.0 2.8417180249513345 23.040045106668547 0 0 0
711 2 0.0 0.0 23.040045106668547 0 0 0
712 2 1.2305000000000001 0.7104295062378347 23.040045106668547 0 0 0
716 2 1.2305000000000001 2.1312885187135 23.040045106668547 0 0 0
717 2 2.4610000000000003 2.8417180249513345 23.040045106668547 0 0 0
718 2 2.4610000000000003 0.0 23.040045106668547 0 0 0
719 2 3.6915000000000004 0.7104295062378347 23.040045106668547 0 0 0
727 2 3.6914999999999996 2.1312885187135 23.040045106668547 0 0 0
565 2 4.922000000000001 1.420859012475665 20.027840885762583 0 0 0
566 2 4.922000000000001 0.0 20.027840885762583 0 0 0
578 2 6.1525 2.131288518713499 20.027840885762583 0 0 0
579 2 7.382999999999999 1.420859012475666 20.027840885762583 0 0 0
580 2 7.382999999999999 0.0 20.027840885762583 0 0 0
728 2 4.922000000000001 2.841718024951333 23.040045106668547 0 0 0
729 2 4.922000000000001 0.0 23.040045106668547 0 0 0
730 2 6.1525 0.7104295062378341 23.040045106668547 0 0 0
742 2 6.1525 2.131288518713499 23.040045106668547 0 0 0
743 2 7.382999999999999 2.8417180249513345 23.040045106668547 0 0 0
744 2 7.382999999999999 0.0 23.040045106668547 0 0 0
596 2 8.613499999999998 2.1312885187135002 20.027840885762583 0 0 0
597 2 9.844000000000001 1.420859012475666 20.027840885762583 0 0 0
598 2 9.844000000000001 0.0 20.027840885762583 0 0 0
618 2 11.074500000000002 2.1312885187135002 20.027840885762583 0 0 0
745 2 8.613499999999998 0.7104295062378341 23.040045106668547 0 0 0
761 2 8.613499999999998 2.1312885187135002 23.040045106668547 0 0 0
762 2 9.844000000000001 2.841718024951333 23.040045106668547 0 0 0
763 2 9.844000000000001 0.0 23.040045106668547 0 0 0
764 2 11.074500000000002 0.7104295062378333 23.040045106668547 0 0 0
784 2 11.074500000000002 2.1312885187135002 23.040045106668547 0 0 0
619 2 12.305 1.420859012475665 20.027840885762583 0 0 0
620 2 12.305 0.0 20.027840885762583 0 0 0
641 2 13.5355 2.1312885187134984 20.027840885762583 0 0 0
642 2 14.765999999999998 1.420859012475665 20.027840885762583 0 0 0
643 2 14.765999999999998 0.0 20.027840885762583 0 0 0
664 2 15.996500000000003 2.1312885187135002 20.027840885762583 0 0 0
785 2 12.305 2.841718024951333 23.040045106668547 0 0 0
786 2 12.305 0.0 23.040045106668547 0 0 0
787 2 13.5355 0.7104295062378352 23.040045106668547 0 0 0
808 2 13.5355 2.1312885187134984 23.040045106668547 0 0 0
809 2 14.765999999999998 2.841718024951335 23.040045106668547 0 0 0
810 2 14.765999999999998 0.0 23.040045106668547 0 0 0
811 2 15.996500000000003 0.7104295062378352 23.040045106668547 0 0 0
832 2 15.996500000000003 2.1312885187135002 23.040045106668547 0 0 0
551 2 0.0 5.683436049902664 20.027840885762583 0 0 0
552 2 0.0 4.262577037427 20.027840885762583 0 0 0
553 2 1.2305000000000001 3.5521475311891644 20.027840885762583 0 0 0
560 2 1.2305000000000001 6.393865556140498 20.027840885762583 0 0 0
561 2 2.4610000000000003 5.683436049902664 20.027840885762583 0 0 0
562 2 2.4610000000000003 4.262577037427 20.027840885762583 0 0 0
563 2 3.6914999999999996 3.5521475311891644 20.027840885762583 0 0 0
574 2 3.6914999999999996 6.393865556140498 20.027840885762583 0 0 0
714 2 0.0 4.262577037427 23.040045106668547 0 0 0
715 2 1.2305000000000001 4.973006543664834 23.040045106668547 0 0 0
723 2 1.2305000000000001 6.393865556140498 23.040045106668547 0 0 0
725 2 2.4610000000000003 4.262577037427 23.040045106668547 0 0 0
726 2 3.6914999999999996 4.973006543664834 23.040045106668547 0 0 0
738 2 3.6914999999999996 6.393865556140498 23.040045106668547 0 0 0
575 2 4.922000000000001 5.683436049902664 20.027840885762583 0 0 0
576 2 4.922000000000001 4.262577037426998 20.027840885762583 0 0 0
577 2 6.1525 3.5521475311891644 20.027840885762583 0 0 0
592 2 6.1525 6.393865556140498 20.027840885762583 0 0 0
593 2 7.382999999999999 5.683436049902664 20.027840885762583 0 0 0
594 2 7.382999999999999 4.262577037427 20.027840885762583 0 0 0
740 2 4.922000000000001 4.262577037426998 23.040045106668547 0 0 0
741 2 6.1525 4.973006543664834 23.040045106668547 0 0 0
757 2 6.1525 6.393865556140498 23.040045106668547 0 0 0
759 2 7.382999999999999 4.262577037427 23.040045106668547 0 0 0
595 2 8.613499999999998 3.5521475311891657 20.027840885762583 0 0 0
614 2 8.6135 6.393865556140498 20.027840885762583 0 0 0
615 2 9.844000000000001 5.683436049902664 20.027840885762583 0 0 0
616 2 9.844000000000001 4.2625770374270004 20.027840885762583 0 0 0
617 2 11.074500000000002 3.5521475311891644 20.027840885762583 0 0 0
637 2 11.074500000000002 6.393865556140498 20.027840885762583 0 0 0
760 2 8.6135 4.973006543664834 23.040045106668547 0 0 0
780 2 8.6135 6.393865556140498 23.040045106668547 0 0 0
782 2 9.844000000000001 4.2625770374270004 23.040045106668547 0 0 0
783 2 11.074500000000002 4.973006543664834 23.040045106668547 0 0 0
804 2 11.074500000000002 6.393865556140498 23.040045106668547 0 0 0
638 2 12.305 5.683436049902664 20.027840885762583 0 0 0
639 2 12.305 4.262577037426998 20.027840885762583 0 0 0
640 2 13.5355 3.5521475311891644 20.027840885762583 0 0 0
660 2 13.5355 6.393865556140498 20.027840885762583 0 0 0
661 2 14.765999999999998 5.683436049902664 20.027840885762583 0 0 0
662 2 14.766000000000002 4.262577037426998 20.027840885762583 0 0 0
663 2 15.996499999999997 3.5521475311891644 20.027840885762583 0 0 0
681 2 15.996500000000003 6.393865556140498 20.027840885762583 0 0 0
806 2 12.305 4.262577037426998 23.040045106668547 0 0 0
807 2 13.5355 4.973006543664834 23.040045106668547 0 0 0
828 2 13.5355 6.393865556140498 23.040045106668547 0 0 0
830 2 14.766000000000002 4.262577037426998 23.040045106668547 0 0 0
831 2 15.996499999999997 4.973006543664834 23.040045106668547 0 0 0
849 2 15.996500000000003 6.393865556140498 23.040045106668547 0 0 0
557 2 0.0 9.946013087329664 20.027840885762583 0 0 0
558 2 0.0 8.525154074854 20.027840885762583 0 0 0
559 2 1.2305000000000001 7.814724568616164 20.027840885762583 0 0 0
571 2 2.4610000000000003 9.946013087329664 20.027840885762583 0 0 0
572 2 2.4610000000000003 8.525154074854 20.027840885762583 0 0 0
573 2 3.6914999999999996 7.814724568616164 20.027840885762583 0 0 0
713 2 0.0 7.104295062378334 23.040045106668547 0 0 0
721 2 0.0 8.525154074854 23.040045106668547 0 0 0
722 2 1.2305000000000001 9.235583581091834 23.040045106668547 0 0 0
724 2 2.4610000000000003 7.104295062378334 23.040045106668547 0 0 0
736 2 2.4610000000000003 8.525154074854 23.040045106668547 0 0 0