LAMMPS data file via write_data, version 29 Oct 2020, timestep = 100681

4466 atoms
1 atom types

0.0 49.22 xlo xhi
0.0 49.019635930410494 ylo yhi
0.3743149504903016 59.68768504950975 zlo zhi

Masses

1 18.015

Atoms # atomic

2260 1 0.9012444699070112 3.38646993415835 1.227596775676146 1 0 0
1274 1 6.846749743601824 1.1879319014227476 3.7199474426003665 0 1 0
2123 1 9.151583954458733 2.8921878703526605 1.2851251440448617 0 1 1
564 1 24.32638869488792 6.792315813057032 13.056138364285813 0 0 0
1057 1 14.519414108337834 3.0046319601747733 1.8787751754168542 0 0 1
2527 1 23.68171135258897 9.911948250275426 6.942609771929054 0 0 0
3237 1 18.544641222297933 3.478919609602167 2.5399936326644266 0 0 1
297 1 21.793746593771832 20.739529383723806 18.238449650292267 0 0 0
278 1 5.30517172754046 3.632585979750515 2.709282220360254 0 0 0
2308 1 6.410942141560729 6.266660185213858 2.1982423014920505 0 0 0
233 1 9.047930274481075 5.600374693482954 2.0156677975171644 0 0 0
682 1 0.4449511932015949 19.23728545881588 19.835644309897187 0 0 0
174 1 16.96968995101894 5.416572540741797 1.0923834227943354 0 0 0
1943 1 20.783943958901844 4.7809614713293795 3.301430742356671 0 1 1
856 1 12.23885813481814 8.995514663669175 0.6975280636997601 0 0 1
261 1 0.5211855135053329 6.167243578137995 4.543057109067567 0 0 0
2444 1 22.432304236473307 16.024413574920015 0.7980512634878025 0 0 0
3198 1 18.22006295534132 17.72873218425327 0.5489801875150664 0 0 1
269 1 12.974387646802937 7.40749689392363 2.8286227759037232 0 0 0
1695 1 13.083903026482371 24.41675270124075 19.905892656109312 0 0 0
48 1 21.030764606201544 7.571392328413561 2.738427904812454 0 0 0
1086 1 23.78306447809376 7.793024862975476 3.1825906971586955 0 1 0
1289 1 12.165395810966572 20.53386224466358 18.363992050890136 0 0 0
166 1 6.466340219904553 11.569979146301053 2.3424437083094194 0 0 0
740 1 8.819054359895958 12.474838504955365 1.74670352625192 0 0 1
2537 1 10.364818637807938 10.142771256895822 2.684412761101326 1 0 0
338 1 16.316962246401662 10.071997184899715 2.8146699915253954 0 0 0
257 1 21.41754853063896 12.29351621019102 3.701026736640815 0 0 0
131 1 0.4062455242163931 15.193316777190201 3.104372010409224 0 0 0
505 1 3.579197650964143 11.875995002432223 19.743447616575082 0 0 0
1312 1 1.7343775196643982 12.969608591582102 1.5024745077468629 0 1 0
1450 1 21.57427626137435 24.415943203504067 9.669235810325798 0 0 0
994 1 4.037020698510949 13.266584895811993 3.17828395539993 0 0 1
1215 1 24.301668571215515 22.995851476866903 12.845113833359164 0 0 0
336 1 9.217578374618945 14.588486064832068 3.47035825026714 0 0 0
835 1 10.61500926286431 15.506517544417651 1.1231535994573942 0 0 1
24 1 12.926935266016937 13.539290640212341 2.0410662571243385 0 0 0
811 1 16.01674854639792 13.579246310797993 2.2652129754459764 0 0 1
71 1 21.337458089331435 15.43090270307307 3.0273944738108782 0 0 0
3527 1 3.1051374205070235 15.909928451649925 4.218086126289634 1 0 0
1183 1 0.8861105147679088 17.889357028679285 1.8044470772509027 0 0 0
4161 1 3.881065447804453 18.2135569263032 2.93115496760956 1 0 1
2053 1 11.668233237630705 17.77264549421127 2.633174452632987 0 0 1
25 1 15.381568641946494 16.377825184837587 2.034367870640823 0 0 0
3432 1 2.4301728116385664 9.293869422935497 0.5330231284617752 1 0 0
145 1 18.776898580229037 16.194358420675016 2.945183956337568 0 0 0
276 1 0.34433324962481804 15.330425816352637 10.072800814735805 0 0 0
266 1 6.078384793955394 20.47800245820511 1.9193457498460607 0 0 0
1306 1 8.938119879772255 21.048055057852793 1.0645282651237105 0 0 0
139 1 11.586403274313007 19.930914299106735 0.7493831935331154 0 0 0
1987 1 8.451352169352825 23.533777255071485 2.4404801853364186 0 0 1
14 1 13.453721124593033 21.009746330746886 2.341683817790993 0 0 0
1303 1 15.942002113188456 19.251414211669655 1.1138660133320535 0 0 0
3628 1 18.331821928364114 0.5864421955398572 11.787460543135738 0 1 0
3235 1 0.9411925900379902 22.337950524411873 2.0778395631498734 1 0 1
915 1 20.226182292743744 11.221640890784375 1.2763574759296332 0 0 1
1072 1 0.3827913230720505 3.2797344178987156 13.039757655074235 0 1 0
568 1 10.209182502926097 23.41681416529236 14.504441776525882 0 0 0
290 1 0.18850185760489746 11.806868577621383 5.7388387155959215 0 0 0
1337 1 13.324450841434736 23.651296508264533 3.683279922293507 0 0 0
2528 1 20.32205767294599 22.96441698621463 2.6757970835788036 0 0 0
3465 1 0.9305554672358787 8.86965452559096 16.151191821066874 1 1 0
2582 1 0.8578107645097215 2.4649856020449645 3.962688177676868 1 0 0
1237 1 7.185627607698527 0.40446168623022694 6.452060035301772 0 1 0
4119 1 6.305924328960203 3.37037513943285 6.061706995001631 1 1 1
3562 1 9.267046029204295 3.7869890982679357 5.786661440421234 1 1 0
45 1 12.311873960289201 3.4293057788629326 3.8149906528865123 0 0 0
164 1 16.228958559083217 2.5984961509255116 3.835150944525711 0 0 0
1145 1 20.157369003473114 0.8929787355085208 2.717428599269924 0 1 0
1973 1 19.375307298371606 1.15239153618386 7.607903412283755 0 1 1
37 1 20.160381687569895 22.067227767963548 16.347221057491225 0 0 0
50 1 3.6326290613955425 3.7821403367910524 6.930445412662181 0 0 0
3306 1 2.6463944680814273 4.6022236009955835 4.145570953642194 1 0 1
216 1 6.746585335022109 5.932231999882725 6.9438268293456336 0 0 0
2332 1 10.853557166653346 5.922188665101103 3.900099103298554 1 0 0
17 1 10.017165589710244 5.278127529536215 8.224486860996873 0 0 0
235 1 13.584601525653303 3.407077377724523 6.404424733019981 0 0 0
156 1 16.278995975927128 4.149542210020019 6.209592111778996 0 0 0
3322 1 22.42078903091007 3.6290527950425746 5.222216033992051 0 0 1
129 1 0.12760938295574967 8.203807689135663 11.558157516209652 0 0 0
2402 1 1.3572726401470223 8.804962878026975 5.974877081394606 1 0 0
155 1 6.696487111404736 7.760942868174932 4.578564676435627 0 0 0
220 1 9.407208828385608 8.38118692174995 4.5148920449494785 0 0 0
54 1 14.644268123030992 7.945181497753415 5.19876340223561 0 0 0
167 1 16.950702883157437 6.547368361271604 3.631291304436665 0 0 0
58 1 18.893989169458546 8.765217700182824 3.75435315079519 0 0 0
986 1 2.8886758065415976 8.84617116549009 3.5027966536788706 0 0 1
31 1 5.596583181598057 10.351726296821983 4.715927674472723 0 0 0
99 1 7.513904230862547 11.539221112420739 6.365981290585575 0 0 0
294 1 9.985572419566898 12.846916036076898 5.544608587907715 0 0 0
65 1 11.838835731895712 11.737661403624804 3.957181616945386 0 0 0
959 1 14.450405946979734 10.828252769463415 5.150423446632242 0 0 1
2558 1 19.58596394775747 9.139958277438435 6.621510161785276 0 0 0
222 1 18.725517440889007 11.867299080161642 4.405827155514126 0 0 0
2526 1 23.410648637616564 10.205454482011614 4.281793958990135 0 0 0
3408 1 20.944863309020853 11.617944407841295 6.762369558590043 0 1 0
2280 1 3.0778664931530724 11.61115150562166 4.886065664972381 1 0 0
2253 1 4.039667544330056 13.549379181350877 7.229547149693213 1 0 0
995 1 6.218335583717519 15.61293698275944 3.6730359237856463 0 0 1
10 1 6.401821520868078 14.394762731536511 6.227863246800998 0 0 0
147 1 13.68587941592687 16.022108408466217 6.465826082880389 0 0 0
82 1 17.580107535767226 14.283903835657888 4.524082769545841 0 0 0
255 1 23.687859746555052 14.277649214820467 7.777713298950014 0 0 0
188 1 1.8819194850732268 15.978098094961057 6.954531446961817 0 0 0
2212 1 6.983833042577211 18.471905565091866 3.849490579663159 1 0 0
1452 1 9.558784830555002 17.47013958917381 4.5052776100376475 0 0 0
1048 1 13.848039407424443 17.52015228483266 4.300361678553434 0 0 1
898 1 16.058009780869266 14.850267527508812 6.749577195093105 0 0 1
3729 1 18.7010045513204 18.882539346763366 3.966428376249106 0 0 0
1206 1 23.119476702705413 18.314201935657298 6.43142708631231 0 0 0
785 1 23.550383096560164 14.005789423448052 4.846431485897953 0 0 1
1335 1 1.3684452811016987 20.103014981106057 3.8224507901428515 0 0 0
103 1 5.8288504010293805 19.39023901905723 6.214765215294319 0 0 0
1238 1 3.670156640784217 20.635784778588626 5.219827461934204 0 0 0
303 1 9.14919745780463 22.24804769652478 5.276021902879632 0 0 0
1099 1 10.22914640427508 19.897568195944906 6.24656475101457 0 0 0
363 1 12.970516165230693 20.128422611479614 5.0005103467462275 0 0 0
1371 1 16.15510327105805 22.206592991020425 2.2962773693617606 0 0 0
1309 1 17.386408770920102 19.75297326560129 6.123899766111011 0 0 0
824 1 18.42570148931959 21.031940161019484 2.1220619449142775 0 0 1
3009 1 21.49147263261442 18.121929671430024 3.9871705140663756 0 0 1
74 1 6.15882009895562 22.729446343243044 3.799039493406445 0 0 0
424 1 23.92222130045075 20.7461189053211 16.392267229010407 0 0 0
1809 1 9.079476560446121 23.535729724777173 18.959947110640655 0 0 0
2489 1 10.059280460800705 1.532902233537379 3.7670732128073126 0 0 0
1290 1 6.3417115572345155 23.850483824682588 18.718895610244928 0 0 0
3555 1 22.730079124310883 21.905275783760743 3.198868672238536 0 0 0
1277 1 23.406198161848998 22.53911675659332 5.713566348186316 0 0 0
61 1 1.812920293664094 2.2061625076919977 8.524750618742134 0 0 0
1131 1 5.689064967591917 1.8568295186627286 8.85980327519324 0 1 0
258 1 7.9254411214552976 1.0078678449197822 10.518556018935742 0 0 0
63 1 12.93699264215264 0.9637423798421333 7.318704567921887 0 0 0
724 1 10.188128217650892 2.343913645847696 9.695691826031469 0 0 0
901 1 17.621179110227715 1.8331001373326896 9.485851848310126 0 0 1
3643 1 20.867835974215183 3.572171475046264 7.531318994634021 0 1 0
296 1 8.563550570699402 7.6504992783721 8.704784042823249 0 0 0
112 1 8.542674555261158 4.580145518275225 11.105414470833002 0 0 0
1029 1 13.058210579603568 5.113849304339111 8.529844927817189 0 0 1
116 1 14.188203571521633 4.29654970423282 11.181112044936048 0 0 0
331 1 16.237573720901988 4.321183654356327 9.48135435219301 0 0 0
175 1 18.696560950549664 5.4283959310325525 5.529089902582876 0 0 0
2362 1 22.24319170525323 4.053858084472441 9.852271998831208 0 0 0
1467 1 4.077728189789805 6.68729802340998 7.875700370770276 0 1 0
179 1 3.5093366396696553 5.4188487205597955 10.781979612197473 0 0 0
70 1 5.6723317344324204 7.837480123897657 9.916082922456903 0 0 0
1460 1 9.644043106552083 9.4476742621848 7.1390159794955155 0 1 0
2333 1 12.190666748471177 7.568413980521293 6.434376708058296 0 0 0
309 1 15.273914466616501 6.7194617608010825 7.872919839739882 0 0 0
154 1 19.539716118985954 6.702046847886966 7.904297947183524 0 0 0
3678 1 21.83981388552326 6.68819231140895 9.366457625064811 0 1 0
2545 1 23.77491529863188 7.472664385627706 7.523087683912237 0 0 0
224 1 1.1914997175041995 14.812725167599805 16.757083567385283 0 0 0
2187 1 3.84601441002345 9.398597381820649 7.096150647064511 0 0 1
335 1 5.835579028699272 11.33102890321828 8.77380827177019 0 0 0
102 1 12.427294313216198 10.643675685247599 7.1753806584345154 0 0 0
319 1 12.590972335469916 12.661007617511597 8.927647235744592 0 0 0
150 1 17.16941707609324 10.546409804566146 6.6219567456793 0 0 0
2699 1 22.997482020968924 11.917837159773647 8.59745148309325 0 0 0
2804 1 2.5916723453492394 11.370454966474199 9.02913473829934 1 0 0
190 1 7.722975572518647 12.344222103648871 10.307357584307788 0 0 0
86 1 8.683833321972028 15.901056110025419 6.777130425017416 0 0 0
146 1 11.389136337832095 14.552111428273408 7.222525844907474 0 0 0
1005 1 15.308303394055532 13.45292236172445 9.044219370868086 0 0 1
2342 1 17.203619942705835 11.804295003893829 8.975321842380872 0 0 0
3140 1 19.822201467439474 13.113406168265884 8.891577540231173 0 0 1
16 1 17.375476454974265 11.921930331927918 0.6735421353904197 0 0 0
246 1 3.963280214931388 17.635144188728187 7.922317745515687 0 0 0
95 1 8.970665271950443 16.821933982453004 9.342072719689117 0 0 0
284 1 13.58705045646034 17.86418363701943 8.67886436985133 0 0 0
306 1 17.50335551233846 16.893635842667365 7.374469694926714 0 0 0
288 1 19.645530485641732 15.87320810103115 8.777128004907079 0 0 0
1416 1 22.36700295153539 16.570811783206423 8.733694528919473 0 1 0
2516 1 2.0933411180616908 19.355574915783386 8.68400002055789 1 0 0
1288 1 2.406878759714524 21.944487538959194 7.225085275863721 0 0 0
1326 1 7.62872209407305 20.6499206068092 7.579686857227714 0 0 0
105 1 7.794375671907341 19.355066086200097 9.955326116218856 0 0 0
347 1 11.94681904721493 20.250821557801185 8.257624434736934 0 0 0
322 1 16.83193323369897 22.361142655858817 5.164813731122241 0 0 0
8 1 16.606518018630442 18.79753948031835 9.515556680716411 0 0 0
382 1 19.41225090685797 21.33093437776148 7.240615979507671 0 0 0
2249 1 22.097869571987154 20.70213140999118 7.407801080567399 0 0 0
3585 1 3.8607084647523333 24.137439009423144 7.731212167561658 1 0 0
1355 1 6.265909997663319 23.073338083039086 6.732794500747757 0 0 0
1340 1 12.113211240523928 23.05343062760077 8.402571511551205 0 0 0
1243 1 14.3095371575226 22.6345789876811 6.234887043753982 0 0 0
1173 1 18.51325674001822 24.15005076309193 6.735764166300724 0 0 0
1158 1 17.515132056510947 20.3125740692228 19.75790988109947 0 0 0
3716 1 2.393010365681509 2.733876129845587 11.278764524910185 1 1 0
281 1 7.923223662308914 0.9926022685442122 13.597215503371325 0 0 0
2584 1 0.14309309806378445 10.853426576473394 0.5284839571806947 1 0 0
1440 1 12.553989401753931 2.043482827411956 11.443243751267522 0 1 0
1404 1 15.508112272298613 1.3401288450076057 12.532255124705111 0 1 0
625 1 14.86475453811095 1.0557768152727716 9.445606021848084 0 0 0
1137 1 20.277114241797168 1.730143540402863 13.286299199201567 0 1 0
1291 1 22.696420931131687 0.7967635519912626 12.243653759226497 0 1 0
2448 1 23.428550788689158 12.883127184058075 16.282580152278214 0 0 0
307 1 6.134164450576079 4.48106843330803 9.964672866354048 0 0 0
2433 1 5.807766147456042 5.339688288967555 12.907312113534902 1 0 0
47 1 9.39845687566613 7.212366846361474 11.223761542767697 0 0 0
2435 1 13.205994192404585 5.808574727826275 13.221539151721371 0 0 0
1105 1 21.15352759673833 4.168102223676947 12.232552078065504 0 1 0
2244 1 18.753311207167727 5.905682460092415 12.242507473098334 0 0 0
1178 1 23.24968887237023 4.236959779965906 14.051707954993415 0 1 0
321 1 2.7970337308898316 7.932692605164255 11.944491385017505 0 0 0
136 1 5.191332440396876 0.14326638138274747 13.832362721905403 0 0 0
343 1 6.948088708234971 7.974194267942031 12.493884539787587 0 0 0
260 1 12.396930178018982 7.289182764350023 10.891978487875647 0 0 0
361 1 14.117862384774087 8.991675523973873 8.97861799494059 0 0 0
40 1 17.65169535761772 7.035932612331787 9.846786857467523 0 0 0
2544 1 16.722130876625634 9.590489939534171 10.687922726093127 0 0 0
2511 1 22.37940551318441 8.210934556954639 11.56121593115846 0 0 0
988 1 4.303857647703552 9.840113088207183 11.109270038795026 0 0 1
2213 1 6.164208262259443 11.41870880772551 12.57354672465371 1 0 0
205 1 11.181255127770099 9.455624521125172 12.491684155795026 0 0 0
1026 1 10.427042047822127 11.412627137885769 10.753262816758284 0 0 1
3086 1 14.230486571801032 9.47865282408575 12.169744251269153 0 0 1
2337 1 17.989256486276478 10.420554763974778 12.992002569000755 0 0 0
2640 1 23.506035475712082 10.395908019389198 10.937666718457972 0 0 0
135 1 2.830674008785909 13.947119770231975 10.369459862744009 0 0 0
2458 1 4.098025676442808 13.195436009589992 12.887606736469726 1 0 0
191 1 7.307800786194366 15.038350627591106 10.79097451561804 0 0 0
2235 1 7.552147344200229 14.727653557806866 13.583552284522147 1 0 0
298 1 11.513286235383507 13.690830701934102 12.180107742353185 0 0 0
170 1 15.463988664981393 15.259947753701773 12.791571011504294 0 0 0
214 1 18.343177877604795 14.872534910551556 13.200247415355326 0 0 0
2305 1 19.234736759426458 12.640060577963085 11.794018277139138 1 0 0
2423 1 23.704186417773577 14.463374641496056 13.415708187846874 0 0 0
1453 1 22.18487392764476 12.412824812624063 12.359185641127812 0 1 0
149 1 4.795675167730087 15.893797118799345 9.801737668968423 0 0 0
1506 1 10.117427258379982 13.852856438182815 14.633851961110993 0 0 0
317 1 11.515874873460707 15.711837561009194 9.928828831372279 0 0 0
159 1 13.55977426273013 16.966088543764396 11.310509635096262 0 0 0
1194 1 19.53667949028802 16.82790816519278 11.500818051150059 0 0 0
210 1 21.4339824887537 16.22334546928996 13.532863326539125 0 0 0
1394 1 2.142830662048517 19.933911700701163 11.334272603482562 0 0 0
2371 1 2.2272996570624324 17.859800078925062 13.414460779834029 1 0 0
2338 1 4.679090011309317 17.51867685481238 11.968801989258933 1 0 0
1084 1 6.406072526836221 19.676337857092935 12.413985710121448 0 0 0
593 1 10.474235305048857 19.999290450162775 10.800418013843988 0 0 0
1216 1 12.06613209273684 19.03676692744462 12.771711089150884 0 0 0
42 1 15.010517939918236 20.84655718951701 8.578639426849463 0 0 0
366 1 18.165498743278032 21.0478566065134 9.889088750978205 0 0 0
2269 1 19.629856668944925 19.609854219569268 12.008287228538206 0 0 0
3490 1 24.339380705591214 5.865648844576261 5.09396211406325 0 1 0
4258 1 22.540096576445816 4.402060520652361 0.7425012985442038 0 1 1
1110 1 2.255974739411788 24.143139604373207 15.639600013495699 0 0 0
118 1 2.9661896227842424 22.434560710526572 12.471320959979957 0 0 0
1431 1 5.460151032910975 22.214036013487004 13.317514657954419 0 0 0
119 1 11.091258418083653 22.743208690029107 10.98540304596452 0 0 0
289 1 14.494505480914674 22.417079165660663 11.041595800012503 0 0 0
3700 1 17.236505339519205 23.024870271998097 11.357399156353882 0 0 0
1175 1 21.413761119787157 21.407992146535356 10.249875808614847 0 0 0
1659 1 2.5623922044779097 1.213650005656421 16.82649742494742 0 1 0
199 1 5.387759318425105 0.7368339184257393 16.591613365564616 0 0 0
218 1 7.111909077165853 2.8000009873102285 16.488887842374638 0 0 0
1455 1 11.099698776755472 0.5533841001472138 17.349628364653388 0 1 0
596 1 18.354721860717728 1.1531042556899453 15.752548180587311 0 0 0
385 1 21.373463292786898 0.4117015544701728 16.035422862261914 0 0 0
1284 1 1.4071896425520736 3.5637004544120456 15.667384488442343 0 1 0
315 1 3.784785277982615 5.1275843075186955 15.014295316562709 0 0 0
171 1 8.03117666477032 3.7541043271414174 13.827329651190611 0 0 0
3 1 11.877245137388403 2.471614602504765 14.137354854416389 0 0 0
1233 1 10.604979403505347 5.075929102350514 14.288757074311969 0 1 0
427 1 13.76750509949765 3.6265980731366065 16.126393234818174 0 0 0
3685 1 16.170023463094775 2.832401702746514 14.845198177515893 0 1 0
92 1 16.82466646612865 5.799271247069684 14.20403586921603 0 0 0
3436 1 22.32381322289953 5.294280299733331 16.35314212685961 0 1 0
3456 1 24.108640518419442 20.861357157606612 10.83624166005859 0 0 0
575 1 3.2289117961087928 7.845558560065396 14.706996724174969 0 0 0
84 1 10.243034169723728 9.270129810422715 15.271391408608382 0 0 0
198 1 10.027833186309863 6.88352925036983 16.72056230883783 0 0 0
230 1 14.778561501605713 7.8304844393184965 14.40444964293012 0 0 0
1447 1 14.922431726209053 9.482054960913176 16.794551678667403 0 1 0
2957 1 20.66805313124383 7.583701069058014 15.843393733348547 0 0 0
491 1 20.12885552166841 8.261290738790407 13.180643443435306 0 0 0
2725 1 22.449812677000917 9.988999717104667 16.357898100459266 0 0 0
3513 1 0.8245225385149005 23.340699938524192 17.799117636448056 1 0 0
2403 1 5.174956448430256 9.47125622635309 16.437073225754272 1 0 0
355 1 7.485363457266201 9.854910740161344 14.704617421059105 0 0 0
115 1 12.130224629812083 10.44734145219789 16.840895698418674 0 0 0
2201 1 13.05136207525878 12.91010019869563 15.350914692399032 1 0 0
270 1 15.854568981448871 11.065118269609446 14.406839167112444 0 0 0
11 1 18.37561364158026 11.361213990758722 16.183486881249685 0 0 0
3321 1 20.887029042573086 11.016119320139003 14.50597674150131 0 0 1
3199 1 17.722835052141036 22.289048692441842 17.700487280224912 0 0 1
1459 1 9.526073462779348 21.04883746496923 18.13712428853969 0 0 0
2834 1 2.57881171592526 12.901864707088208 15.135859326871964 1 0 0
665 1 6.764166884565436 12.8300535418963 15.558115096023535 0 0 0
211 1 14.244921347240446 15.340366649115536 15.263745194422134 0 0 0
157 1 9.508180357512938 12.16948762996086 16.465849773568593 0 0 0
2483 1 14.189567472947283 12.584347927533107 12.537648925736422 0 0 0
1122 1 14.461790911713795 0.1432251605112393 1.2220861814980841 0 1 0
423 1 2.706521525115467 17.003517853524535 17.335839217430337 0 0 0
293 1 4.954071179304084 15.646094777211982 14.005511639690088 0 0 0
2887 1 5.711043444624045 16.517244264049484 16.931836444647317 1 0 0
81 1 8.214835280305106 17.206591037405605 15.45178228299314 0 0 0
181 1 18.001094910863944 15.512049667682048 15.924504946186403 0 0 0
1162 1 1.0393503155360175 18.898630455797402 15.727059513792634 0 0 0
163 1 8.83538548566406 19.212118845001815 13.737039902313544 0 0 0
344 1 12.661138130196075 17.692159348893135 15.201846056076928 0 0 0
320 1 14.645518854318945 20.242346786035217 12.916113151723984 0 0 0
357 1 16.59715862562364 17.999079361963695 12.25778095150109 0 0 0
1785 1 17.50810508529678 17.9657127723731 15.005311509948466 0 0 0
120 1 19.669351199742323 19.719048853299498 14.792124268174055 0 0 0
2299 1 23.318459224989876 17.41231809984892 11.683858820107007 0 0 0
196 1 21.985383122687978 18.370278941907415 15.38295198753206 0 0 0
285 1 1.572259983753201 21.606059545251398 14.682211766040586 0 0 0
362 1 5.590462390092971 21.840645766519472 16.190728440512977 0 0 0
369 1 8.391370207652821 21.24120764462102 15.611245603025575 0 0 0
530 1 8.329761008913161 19.215723367076723 19.592856356130287 0 0 0
1276 1 12.960027257805223 23.7903661481452 13.170033681368727 0 0 0
3796 1 14.033738240007787 23.210748865610014 15.448522237768051 0 0 0
247 1 18.598031512509074 22.08290716488645 13.386368800032365 0 0 0
3824 1 16.687442780731505 23.4420677055888 15.17403422728756 0 0 0
2610 1 24.530287683710313 6.722465129064797 17.827509000873512 0 0 0
2439 1 22.75745138089487 17.831493775566276 19.94584372023558 0 0 0
2755 1 2.0555962240376657 2.3329714114751807 19.48383434433685 1 0 0
641 1 8.711338474110098 1.9652180881808547 18.397610555551775 0 0 0
1414 1 13.729797540693427 1.2905084007968155 17.7579615171363 0 1 0
934 1 22.28559191619747 19.01965434009675 1.552129788547973 0 0 1
22 1 24.24393414099885 1.9887520531322365 19.262833199947035 0 0 0
2978 1 21.899182509038003 2.6218100355389073 17.95079544270171 0 0 1
280 1 5.7035452461977485 5.000194819173056 16.937158577172326 0 0 0
192 1 10.269149657532113 1.2221603734700992 7.09691847838321 0 0 0
1011 1 3.67085654506362 3.062504856624844 0.6941536362114223 0 0 1
640 1 11.869819561046839 5.89790216711652 18.41821407659175 0 0 0
497 1 14.728237580054364 5.513549575899565 18.064406091067646 0 0 0
3396 1 18.00698058246651 3.4069504205606047 17.70878835277598 0 1 0
12 1 18.279711207712268 6.049632780611753 16.420630463162745 0 0 0
2358 1 20.29825498098298 4.0023564719279 19.525961321880022 0 0 0
2612 1 5.929989227257075 8.159907985141363 18.899555424613435 1 0 0
227 1 7.923167205205244 6.306932021098563 18.199958719392864 0 0 0
546 1 16.604966791409655 7.6885090169174655 18.467830134706197 0 0 0
212 1 24.120558706210517 23.49476025831146 15.742190132029108 0 0 0
2284 1 20.525581965051234 24.35615120013053 13.514760574897634 0 0 0
2595 1 4.337242178713301 11.92507030996259 17.15947890481858 1 0 0
365 1 2.667268381486313 0.12986647319828065 12.419711628514257 0 0 0
691 1 12.054389186476842 10.508586660237455 19.719934346860473 0 0 0
252 1 19.19061419365417 9.175499331068862 17.72206054099079 0 0 0
2891 1 21.71191005377793 10.256315295367184 19.0603789213536 0 0 0
470 1 15.993696483403307 3.4945331231484063 19.646549829705766 0 0 0
660 1 4.345929183845194 3.9602383746570577 19.408817797228025 0 0 0
1096 1 6.27448043336781 14.23780657787015 18.2166747427473 0 1 0
3521 1 14.352452418172513 5.8988162727628755 0.9940941117798667 0 1 0
1 1 15.658820994950812 15.581186287094877 17.43404355436604 0 0 0
601 1 18.22603538157057 12.665348553274995 18.864516342100867 0 0 0
206 1 16.072481581089036 13.883141811750923 19.64820204688612 0 0 0
133 1 19.804226179369913 15.003131410731939 17.966074502072264 0 0 0
2240 1 21.91814952531018 13.118281085327652 19.143485767160005 0 0 0
2438 1 0.3313962413738071 11.119166785201326 14.864361819266282 1 0 0
277 1 24.56529826373212 0.8622857815301184 2.536724769855147 0 0 0
1375 1 16.23033857477091 19.423654076295772 17.238363656917947 0 0 0
1361 1 10.696878299473592 15.925999728963193 16.539469592650217 0 0 0
310 1 9.417814098619601 14.230047766477508 18.89690289890989 0 0 0
43 1 11.657578137017083 17.614328996038598 18.597157538996328 0 0 0
209 1 14.634795046477338 17.97265411319801 18.798618987461335 0 0 0
2184 1 2.7417035531587257 24.355980672081575 1.360522770323446 0 0 1
305 1 13.61480300402362 20.372627472754694 15.987230657104494 0 0 0
32 1 22.436260604739985 16.658569638845062 17.582474539086732 0 0 0
173 1 1.6738384257673131 20.624036973275192 17.856476470002413 0 0 0
2530 1 22.23449699523377 1.1668892893525482 4.293185163162834 0 0 0
57 1 5.875686877212128 18.520471162362956 18.688762119575973 0 0 0
122 1 4.277474009631554 20.858225271573207 18.514130034597162 0 0 0
997 1 19.99404020537582 8.661250595035595 0.3841807835712103 0 0 1
2285 1 8.916471878777264 4.276658218658568 19.717961084493233 0 0 0
268 1 24.120238728402008 19.696770871927797 13.42721575852398 0 0 0
3698 1 10.034954429978365 24.107050476709226 6.965233391448723 1 0 0
89 1 2.06835181702395 16.89451490626427 19.94088458299918 0 0 0
1386 1 1.487407344064599 14.04678019037071 20.12746133990962 0 0 0
88 1 19.981204815284936 19.14398774729744 19.84523397336289 0 0 0
182 1 4.639967407780423 22.40708810003984 0.3899268289595095 0 0 0
3208 1 6.196731626975062 14.466563045879452 1.0393963596952247 1 0 1
558 1 2.5904726285498874 2.40947303589885 23.588165287592815 0 0 0
1083 1 2.5268910691485638 0.5634072877359042 21.460656910689227 0 1 0
508 1 7.0133304079627505 1.4486995561248595 22.066357249472016 0 0 0
1721 1 11.508289604743329 4.393971546557343 21.094074212965435 0 1 0
2844 1 1.112270217678424 5.789189681764856 35.04475893721303 1 0 0
73 1 23.230893551541516 17.618316085399943 28.36977941341874 0 0 0
1378 1 19.012035279517686 2.8534649871579685 21.511262582167202 0 1 0
2918 1 0.20210365131839284 14.149351419822402 22.725231599552597 1 0 0
160 1 2.4884610808690666 5.466225248277107 20.702663145385486 0 0 0
690 1 6.51700242753833 3.737710856639016 21.06356820134842 0 0 0
1269 1 6.041195289363387 4.928564471643235 23.51117781433899 0 1 0
2502 1 15.732697131559219 5.244858320779475 21.99795167225529 0 0 0
3818 1 0.7657682717797091 20.70282327175802 32.82814002112297 1 0 0
1115 1 18.276740517310767 5.02923621887473 23.35526507115566 0 1 0
507 1 20.896971888268002 5.998734494848489 23.23878051994311 0 0 0
2722 1 22.33103254578662 3.5750626294861703 24.072533789876374 0 0 0
2788 1 5.48846584434652 8.702314312724958 23.163119136753547 1 0 0
681 1 3.9577293056654566 7.800672888731857 20.958302707664878 0 0 0
2743 1 7.971001747078378 7.030178914677519 23.09843877753819 1 0 0
100 1 8.914275271549345 7.7023207688422 20.557036919616937 0 0 0
560 1 11.706552441625023 7.786929696254959 20.56318685174627 0 0 0
569 1 12.666935648107552 7.545490707064163 23.469247937745507 0 0 0
4060 1 21.115755992248253 6.572193657122602 20.632449799620606 0 1 0
2313 1 0.8622053489997757 18.218122377547335 31.575895318701473 1 0 0
536 1 1.2753168611733643 10.361684717626948 23.445763275533047 0 0 0
339 1 2.1310924457428446 9.908091249754992 20.90429224061001 0 0 0
67 1 6.381547216313953 11.324270896882812 22.57285176588929 0 0 0
561 1 16.510729695289115 7.928531879064577 21.105029439703035 0 0 0
402 1 15.595374176234621 10.560389781286638 22.178352511658836 0 0 0
1513 1 19.53442131901334 0.1043307408137224 35.84111619001977 0 1 0
28 1 17.90222420327422 11.23281686893167 23.294695209653415 0 0 0
549 1 19.43769596155845 11.45204830247619 21.11369113001447 0 0 0
3741 1 21.690986490464464 12.69283112508721 22.037718788042774 0 0 0
622 1 22.75015595818763 10.562899997054858 23.480594307239294 0 0 0
1285 1 20.423755608581242 1.5282368152858263 23.96904827311718 0 1 0
29 1 4.462636878014239 13.27102425832755 22.05439987543028 0 0 0
223 1 9.51927605965639 13.191202127863745 22.556188553968912 0 0 0
1257 1 0.8604521061653407 16.324102482147744 24.923002274536152 0 0 0
2686 1 12.429960113371598 13.22903261462175 22.97013972471071 0 0 0
279 1 13.454273727413302 16.00378018696657 22.70511115600145 0 0 0
3956 1 20.64919558330777 14.634980781546973 23.988608314593915 0 0 0
272 1 4.865613331821189 17.97711390419671 23.56163707727255 0 0 0
441 1 14.08276558375262 12.306856375164529 20.809150558624086 0 0 0
148 1 7.977774514057398 15.505277282074175 22.103447111592278 0 0 0
695 1 9.853897855511287 17.266493701142824 20.997554360819645 0 0 0
15 1 15.289983888585095 17.6368998521549 21.333302208207723 0 0 0
231 1 17.280541654219746 15.493927444489893 21.650906554956414 0 0 0
940 1 21.60488995019651 16.7621429417631 22.62369579708465 0 0 1
2660 1 0.7005919436536059 20.698200002363393 22.062810973355102 1 0 0
126 1 6.551522872719748 20.35843430865605 21.675056352375314 0 0 0
3850 1 24.00418392998412 0.7688028468192424 29.031394927712924 0 1 0
377 1 10.624924930731302 19.10379288526497 22.94986639877011 0 0 0
251 1 11.762669586715278 21.666636535701358 22.27257953418064 0 0 0
2306 1 15.793888219753455 19.71800515872582 23.306312330669744 0 0 0
2885 1 16.086091421385944 21.778703457776587 21.638684205837887 0 0 0
1690 1 6.66932683227995 24.17195860545806 31.958285311306785 0 0 0
3412 1 2.472797216228253 22.820303485210676 21.96328705534364 1 0 0
618 1 9.901789000433592 23.603496462099713 21.651432342681996 0 0 0
528 1 15.324953671770825 14.895119303520438 38.74260924847084 0 0 0
3019 1 0.9908715536076541 21.95412645321431 36.9313105878474 1 0 0
588 1 17.882026237903002 24.014560289733804 22.569321993094576 0 0 0
1632 1 11.343714324293078 24.506277330289187 35.10329968465227 0 0 0
2132 1 22.99640837215863 19.4732749271506 38.0909103428916 0 0 0
2073 1 21.955810479751804 0.4480459375064818 30.83188150497113 0 1 0
1621 1 4.185605022104666 0.7939098746835056 25.023514338563796 0 1 0
716 1 7.206904213656132 1.0215880236942418 24.781505565624293 0 0 0