LAMMPS data file via write_data, version 29 Oct 2020, timestep = 50000

6368 atoms
2 atom types

0.0 49.22 xlo xhi
0.0 49.019635930410494 ylo yhi
0.12598930807124376 59.93601069192911 zlo zhi

Masses

1 18.015
2 12.01

Atoms # atomic

4695 1 13.177197946803108 11.946902052278356 13.265297564470428 0 0 1
493 1 19.259347273473523 2.779476021834701 13.7482594035274 -1 1 0
3214 1 18.424740725893866 23.80529379113973 13.601447407478041 1 2 1
272 1 15.31759443552115 15.411079029227995 0.902816010385208 1 0 0
3195 1 6.42944805419697 7.571917742122734 7.4119720330384595 1 0 0
3280 1 15.838089441982376 8.25290134874536 7.188579130930097 1 0 1
113 1 21.514782110597373 20.030953192243548 19.799349744790117 0 1 0
233 1 1.5149662144084717 13.995822022760102 7.128281467939824 1 0 0
2988 1 8.409609793449127 17.792887199461212 10.658968773581218 0 0 1
4503 1 12.803884209375067 21.96190283477276 0.7350410971701006 1 -1 1
4803 1 22.944767829648278 18.03921582519578 4.58907023419152 1 0 0
151 1 19.772993695601542 10.001681329229246 5.191976258535797 0 0 0
1681 1 12.660986321972658 7.450075058785896 5.849999049987707 1 0 0
4738 1 23.505284236763988 21.03676440235826 8.904859424390486 -2 0 1
5293 1 5.408935969981758 19.923396953097065 0.23429946715386568 1 0 1
6056 1 3.073221492615417 10.249902930618896 5.897019910832398 1 0 1
4662 1 23.61081189718878 6.892886365017337 8.94667629753824 1 2 1
368 1 6.265641784801273 19.58009155689235 6.482695151790824 0 0 0
1830 1 3.2957852311546247 6.322938527705522 2.4830386091879846 1 0 0
5171 1 21.549883783385752 9.57172512712269 0.8082448993841673 0 0 0
3327 1 22.092185664998198 2.4570981116906263 6.951265570799613 -1 0 0
287 1 24.099800376166254 1.331123717199824 14.328435246524895 0 1 0
5092 1 2.889926269009589 8.385374502661085 18.364398998014366 1 0 0
4443 1 11.574784004523396 4.951014110629578 0.35153528878987483 2 0 1
6177 1 14.879116975862884 4.155172617441141 1.658000284269893 0 0 1
1747 1 5.700905092877342 4.123395725035524 10.022767503631602 0 1 0
4908 1 14.498715309541424 2.5880025202329957 8.096817856619062 -1 0 0
1720 1 18.797694635307984 15.749809054006086 8.379693755714555 -1 1 0
6160 1 9.655787081956406 8.646974205535104 11.785519541837433 0 1 1
1640 1 15.53023391656493 15.02352705145964 11.189104191508537 -1 1 1
5134 1 9.6100777298983 20.131281306205047 11.53979972868199 1 0 0
2887 1 15.638553354264264 14.49478373683396 5.136920265237902 -1 2 1
1473 1 24.257014276895724 3.800087446107008 2.3976966590435835 0 1 1
3091 1 10.896829944950813 16.237050595962913 8.418483028444228 1 1 1
4520 1 8.790107884878282 2.4610043420375853 14.963735415600468 1 0 1
6361 1 20.33712605214676 22.887978409973655 6.493363802658914 0 0 0
1866 1 22.923754655694786 7.3347455942439534 12.180905917181445 1 -1 0
1947 1 23.220230083354352 8.131566036080732 3.6652068817357053 -1 1 0
112 1 9.528582495415597 13.419142238598514 7.772359530096776 0 -1 0
3256 1 16.049304127965843 24.26798237154647 5.958781043134418 1 -1 0
4870 1 0.4369530174258202 9.583113871976865 17.584345445779302 0 1 0
3661 1 18.88006253430038 13.119909311058308 5.105548972553541 0 0 1
3467 1 16.94447193476279 8.018586408204472 1.1836561259756808 1 2 0
1286 1 24.42392123689872 14.699191003186497 4.625063238890184 0 1 1
1792 1 16.991229600131852 23.537844404902167 16.731401480184903 0 -1 0
2845 1 6.059728012846106 8.032471110041437 19.079056037989268 1 1 1
220 1 8.77921782952161 1.3219519642826034 2.4022823170181558 1 1 0
6073 1 21.22621291507894 21.554199586046856 15.33222967299676 1 1 1
2902 1 1.4772404993713562 15.319183689423056 1.9579479400000854 0 1 1
1272 1 18.300643656731403 20.13275605896143 7.200702418383319 0 0 0
4841 1 3.5918921290177668 13.898478267024462 5.089722908275764 1 1 0
4650 1 12.46336607398059 14.754094052038289 1.0179140671213127 1 0 1
3203 1 0.23183773865656437 7.113282219860428 15.982077896919234 0 0 0
1910 1 9.807875185314014 4.3064683303943205 16.603944096024527 -1 0 0
2110 1 20.273180133919652 0.2818246231737877 3.4692293686831603 0 0 1
4824 1 20.40528615203793 17.98346427540538 6.419563956344344 1 1 0
64 1 10.18489959250809 20.3233130297841 4.162732110090757 0 0 0
4476 1 14.622278791060262 22.040934417282724 5.039194635880791 1 0 1
1609 1 7.11639737767279 3.7372313309687293 1.9605482131336702 0 0 1
1986 1 3.8266014563965784 0.8453765220102109 2.993287830306998 0 0 0
4517 1 11.674477709767174 24.283616909249407 7.697956260495059 1 1 1
183 1 17.57282599839923 0.17634872207317018 16.566236794215484 1 1 0
454 1 12.24419114842629 0.9788323381283329 17.846000391943715 0 1 0
3416 1 4.2717230373983766 21.40652333512085 6.055935370603034 1 -1 0
3199 1 16.645283212855592 2.167117414627467 14.382104748569486 0 0 0
398 1 19.57978025211708 2.9924500074742166 3.9270011885986387 0 0 0
1440 1 8.559582362101574 5.1644188821366335 3.811309619202965 0 -1 1
3354 1 14.574502771678121 18.08818247212256 5.486558133258085 1 0 0
3526 1 13.904736899327078 15.062902969287595 19.88847057213944 1 0 0
4599 1 24.364441107568158 16.00235352954289 16.872393948360468 0 0 1
292 1 21.396999974465103 2.056198251431621 0.4126212043168732 0 1 0
1742 1 14.31639059626653 10.053884823670174 5.54148902708991 0 0 0
3312 1 18.48658819695663 9.240589345656883 8.766993135537062 0 -1 0
60 1 8.354124108473133 17.762598841727065 6.109563547933984 0 1 0
1385 1 4.465334003790091 22.434258299190013 8.539707089457659 -1 0 1
3074 1 10.25508155666683 0.805676215600746 10.37224371517797 0 1 1
5118 1 4.476131824134882 18.20855876395055 7.96079631524489 0 1 0
1851 1 19.258354334074745 0.0948224010846559 10.609436423891431 -1 0 0
1983 1 12.036115255521567 5.788765409122552 3.7032929317264953 0 1 0
3187 1 11.280722885519063 9.808490177314695 13.979963623498708 -1 0 1
3092 1 24.043299213751084 21.411731984011993 5.7837204279701 -1 1 1
196 1 17.779443874692273 24.14418392392633 7.92652970557345 1 0 0
2172 1 22.931823883644512 18.30825013467002 16.369446640353765 -1 1 0
4556 1 3.9996669392204502 7.865024774915029 7.398388869234474 1 1 1
3615 1 2.7556992364444124 17.56402693232668 3.7270951558597534 1 1 0
6110 1 21.478190014857624 4.019971701223744 15.828692610277269 0 0 0
4653 1 5.548211859180751 3.521207005574402 6.804119379105244 0 1 1
3204 1 7.567594375894189 11.95635851052783 11.642045931502361 0 1 0
6221 1 16.53745009430831 2.133019184123829 6.270047864391282 1 -1 1
4643 1 18.03244928287766 12.32814839426467 14.713420572090984 0 0 1
5062 1 12.361966518610922 7.687246403598674 9.875860671561206 -1 1 0
3120 1 8.9975922348912 8.891778217189579 5.083701152738993 1 1 1
3323 1 18.27936489887955 20.818267659724036 2.0660190827228515 0 -1 0
4424 1 12.34884207925977 15.049225828195032 5.085579691250568 -1 -1 1
1502 1 18.240846049544427 7.227006484209487 3.898562150752272 0 3 1
3305 1 22.76886081093829 3.961539978623762 13.552566652791043 0 -1 0
5167 1 15.241887632928977 18.511588806667156 2.5965835291994055 0 0 0
3601 1 6.4768471194621515 23.555514394146783 6.336772120630618 1 2 0
1503 1 5.666617391726221 12.132794553186354 6.400639235531772 0 0 0
5282 1 8.034323403147923 13.21248336682925 5.253602572540167 0 0 0
3738 1 19.26188853798648 11.976563684880288 17.01288152781386 1 0 1
5277 1 11.876789715197383 10.990551958489968 8.849166358457603 1 0 1
251 1 12.355656947650607 12.286292619707016 6.372029696877214 0 1 0
4647 1 6.910183889046354 4.99673443231113 13.452550239294563 0 0 0
3619 1 15.872428684039498 4.842472353006479 14.295954110785939 0 0 0
6147 1 2.162780823205934 11.610807715801283 8.188021968405401 1 1 1
2038 1 9.329495998898024 24.021547777171214 5.625902423540353 -1 0 0
3662 1 0.4847409312744673 20.2307807176962 4.781214004327848 1 0 1
2113 1 18.934231650370744 11.733804556995809 7.757003503822273 1 1 0
1505 1 7.337320519585277 11.845185712040678 14.57885805052196 -2 -2 1
1630 1 8.01822630348756 16.43853295411966 8.323873435411395 0 1 0
333 1 11.048653786025646 21.460287919181976 8.20626218124042 0 -1 0
3527 1 8.671492137742602 21.424014824618627 7.085091865605557 0 -2 0
4882 1 22.21542443770481 18.400708516664896 13.684363975777654 1 1 0
343 1 17.76226804351848 13.78173339838404 10.19849189134311 0 1 0
3113 1 9.931754282955717 11.39047743207123 5.1069004338104875 1 0 1
232 1 16.17427043246053 16.6876062630858 9.241681885776194 -1 0 0
6227 1 8.581891909593256 14.623517616877708 0.5441980691163046 1 1 1
5194 1 21.73725285559923 13.230064416516637 0.6932418247990897 -1 0 0
5214 1 6.726846930693625 22.707807625238868 3.3006120996450923 0 1 0
2995 1 5.929876576843288 18.846503427085597 13.46725580934377 0 0 1
415 1 24.32374431683901 21.870757583183313 15.60010407122045 -1 -1 0
4466 1 13.011268455250928 20.559412717893004 3.5405724074253104 1 1 1
4496 1 15.583704153713757 18.1475205154572 13.45836906856142 0 -1 1
2136 1 16.348141036558133 22.626342341186792 2.6745846049984046 0 2 1
1479 1 7.74420158577351 6.058635925260664 15.980180924352949 0 0 1
301 1 2.9439400804773634 16.4846167024297 19.639339242328173 1 0 0
6295 1 24.03316541338492 11.834538716674423 5.597897061723725 0 0 0
2033 1 3.9810835503162445 15.057166827851113 17.392013305582854 0 0 0
3109 1 1.7472313558335963 22.242075898978438 13.982095031696145 0 1 1
450 1 4.749901727652439 21.952617294116386 19.56873413996191 0 -1 0
3368 1 13.721954573012576 15.0251039102195 7.569579430988901 0 1 0
5121 1 5.575098076567543 2.643068029288174 14.916778781017722 0 1 0
1379 1 19.96316746079493 9.114000081598162 17.196929855630206 0 0 1
6008 1 11.121766939224287 22.57725507255564 10.789598368497066 -1 0 1
1977 1 11.363653097154051 16.51026631580823 11.535112771943751 0 1 0
4983 1 0.12047289817257933 1.9913826487901396 3.6003567226482582 1 0 1
1677 1 20.335030220027356 22.549392182058224 2.0487256835170875 1 -1 0
2898 1 6.364441919878409 9.805788445049949 5.5044790549767555 1 1 1
1422 1 20.595227117421857 8.239224026209882 14.258865700059136 0 0 1
3153 1 11.275690825738444 11.79504238431072 2.542137344589768 1 1 0
5299 1 21.24869306194501 20.588217518324555 4.393360455030845 0 -1 1
4429 1 16.38660643004006 15.937614395371655 18.574021918574722 0 -1 1
6132 1 23.70984009308507 8.039853747936917 18.87924074117666 -1 0 1
5089 1 3.618149180469744 13.149830925431315 15.42510077591349 1 0 0
150 1 7.371431152204306 1.6772633374078276 9.369758181595548 1 1 0
3537 1 22.464526249871668 21.53991930835445 0.4946432005695998 -1 0 0
6046 1 17.40791319913123 4.68319485347025 3.0323003622707763 0 1 0
3666 1 10.741630898030051 11.533604720668157 16.60577723892075 1 0 0
3265 1 14.203412884910142 22.7185292074251 11.21956507447914 1 -1 0
6135 1 14.30013822083557 6.660079115537382 11.813266292262185 0 0 1
3507 1 13.170399969392985 0.023879159087293544 8.617640869097746 1 0 0
3263 1 14.944044265329929 12.655893911692928 18.987303864773228 0 1 0
3046 1 9.30703810228278 17.894964133417346 2.8313898221977123 0 0 1
1974 1 12.31792465401282 14.68413709320406 13.979613774564884 0 1 0
1588 1 4.2713575235485886 12.026343734546922 10.356011414876322 -1 -1 1
1331 1 1.9686349860990042 9.711471407190423 10.760979733428787 0 0 1
494 1 10.348209598921736 11.69485200632433 10.650918448503903 0 1 1
1665 1 16.36073232150293 8.18836698646348 19.290033531352957 0 1 0
3407 1 8.338990676013829 16.731278927202172 13.603972862576205 1 1 0
486 1 18.409968192129924 9.772085672842952 13.391601528556732 0 -1 1
2983 1 2.0158764030580616 9.20552729110563 14.020424873256928 1 0 1
1673 1 14.72343550541568 3.9525353922436874 11.677344738921878 -1 1 0
3436 1 16.730656796828978 7.772919939570108 12.437024247198753 1 1 0
6131 1 13.251893818391393 13.781313211358555 16.555614690889282 0 0 1
1596 1 10.135839674652594 7.462843401404315 2.8069343295084055 1 0 0
4998 1 14.916741134786482 10.289946871436092 8.805907699390154 -1 2 0
1702 1 14.452315055534212 20.262842102792867 18.163229912965843 0 0 1
5045 1 2.3980697643097755 6.8809773393105935 11.257755783584193 1 1 0
4477 1 8.409073563370322 21.395610515542355 15.637279199898504 -1 0 1
213 1 2.629436714711983 12.969518533767374 12.428124130833751 1 0 0
5152 1 0.3450776234608948 3.5565086577741862 18.85062349307033 0 1 0
1565 1 0.22031945766739788 8.785571150919635 7.855809121917915 1 0 0
5108 1 19.270643218873694 3.984476674983428 7.179136552713937 -1 1 0
2117 1 16.379312234103637 11.850746613589918 5.1561365806412285 0 0 0
3466 1 21.212443888073 3.560500011614525 9.624450363580124 -1 0 0
4612 1 2.205357333547201 21.942138016795997 18.327008415201636 1 0 1
4587 1 11.913234690113178 1.6038979087451428 1.7429623904130997 0 -1 0
4535 1 4.817384113087931 2.4716623651269565 0.850153520736811 0 1 1
181 1 1.131076190335142 22.035528086653947 6.72662583884138 2 2 0
3622 1 0.05093277184529586 22.769433528719986 16.025122066112132 1 0 0
1344 1 4.910130997251191 19.170286424656133 19.961079103494626 -1 -1 1
3471 1 5.262373603725766 9.68093789164309 11.276299689358437 1 -2 0
1365 1 5.002573215127414 22.78999855712224 12.259717509725283 1 0 0
4834 1 16.077904747113593 20.96984737428084 12.469643580378774 1 0 0
1332 1 16.923929825057886 16.32597450435414 3.2352006696269617 2 0 1
1857 1 2.064548089488303 15.832574767752819 8.928863850095249 1 0 0
167 1 17.015114396819488 14.78447393184256 13.468805510334544 1 0 0
1816 1 12.494310983343686 18.42783861218261 13.836890220941298 -1 1 0
3285 1 22.835782762712306 13.931283434168316 7.4062092107776065 1 0 0
4500 1 3.389467946434926 18.31249070128885 1.3996808896613704 1 -1 1
5216 1 13.920175123139016 5.7091083809108 15.739092618871542 0 -1 0
3657 1 4.446406913707991 9.195209893427013 3.6958624809791387 1 1 1
1898 1 12.145169046410123 3.335513720849723 15.651507027500566 1 0 0
4725 1 12.45292167646982 3.937409206560783 6.664129210512024 1 1 1
5040 1 7.472654564981632 21.363262509194698 12.420998377904807 0 1 0
3646 1 13.525770730164735 20.43477059309754 9.150139983725136 1 1 1
4920 1 15.250521851998966 20.16934745834283 7.093359257317264 1 1 0
3314 1 8.328712083115434 14.88557647675399 19.70870768509469 1 -1 0
1811 1 13.981386231513433 12.160864664268434 1.5833764433697144 -1 1 0
4892 1 22.700821397123452 23.87410630803582 14.077512622714686 1 0 0
5155 1 3.546377577546917 19.83192165717438 14.754512236415396 0 0 0
1715 1 7.8529944253212545 5.462764780494686 6.459909963132124 0 0 0
1837 1 2.9670548702420585 15.750258263421335 11.674165542578919 0 1 0
1312 1 12.507016509453399 2.554157213073011 10.540782720170643 1 0 1
3298 1 0.9461146764868577 2.8903767006921623 15.867992211003374 1 0 1
5007 1 20.861318228703688 6.916563767030685 2.9088907481703363 -1 0 0
1363 1 8.403974725538813 2.8917606542360956 12.069242809724265 -1 1 1
1964 1 22.208858703891966 9.977568846933801 6.109639611697799 0 1 0
1937 1 1.3246775621193725 11.487068727228616 15.340552884743229 1 0 0
1840 1 23.75500926543348 4.386713233335064 10.63782927962917 -1 0 0
3350 1 6.216735553856999 19.82384481219121 3.705513246818112 1 -2 0
283 1 18.830548667317895 21.30591137939294 13.957536843601352 -1 0 0
1328 1 17.968105273767055 17.64791572552308 0.7957560439756364 1 -1 1
1982 1 13.374315782005157 13.020742192424825 10.364506991724916 0 0 0
3226 1 13.29760988742331 16.54957715386021 15.97585949998541 1 -1 0
3625 1 2.7912036992180367 0.6433669297278334 9.977863344720985 0 1 1
6144 1 16.72354285819451 3.724233170710476 9.712614367307529 0 0 1
2086 1 19.102146253588796 6.52781042128693 12.209104403633152 0 1 1
1583 1 19.60531166005208 23.032726985909683 10.726179779820889 0 -1 1
4985 1 9.815452335483364 15.921737236195902 4.702504279435151 1 0 0
1474 1 12.627024595798469 22.234602968411764 16.77937367464895 1 0 1
72 1 22.717228246551944 10.693909779567207 10.466657106533996 0 0 0
2950 1 3.99864630830281 5.385624688998272 5.431748661847065 2 0 1
2071 1 2.6653554676648055 3.375493499004249 3.2371129999047334 0 1 1
3088 1 14.323578170193954 5.924191124227796 7.874209792144439 0 1 1
1428 1 21.57445809575277 4.290158634006005 2.485249587719317 0 0 1
5117 1 5.462604143157654 12.146995964388413 1.3598388875987313 0 1 0
5162 1 2.2577997130563014 0.5779276234261174 17.39167050792883 2 1 0
4469 1 18.517970543526953 15.850644802660465 5.761922243353713 0 2 1
6263 1 17.129356612479924 1.352088173818961 0.7753757937520028 0 1 1
52 1 17.203333060398187 4.526932694181519 19.352959137592922 -1 0 0
1335 1 2.697915772553207 12.724130237407891 2.286061529803914 0 0 1
6242 1 10.037325548358258 6.676132104964965 13.80959129074468 0 0 1
261 1 10.346905263823862 0.36035445383782155 13.291644132299169 1 0 0
3489 1 4.05387011280046 23.189670594741546 15.130819197394175 0 0 0
2826 1 1.1124163384029464 18.59397709171911 17.937307634595477 0 0 1
3055 1 23.865059340667962 4.8172919790790125 6.548293671986254 -1 2 1
4475 1 10.05628094798537 2.9487311613191114 4.965816049913371 0 0 1
4682 1 8.88007759167158 6.838939891805204 10.021392892913425 2 1 1
5261 1 23.057854487385285 18.28714295786384 9.897364370489228 0 0 1
1460 1 11.442013378486678 13.121995304377116 18.739397762439992 1 -1 1
3121 1 22.65154912248593 16.71853948960947 7.3798943721820605 0 0 1
4767 1 3.176681087982416 4.268544535929696 15.445187586460166 0 0 0
105 1 12.661970249891398 7.12259863125787 13.874500426961522 1 -1 0
3023 1 21.02286675285505 3.3785197538003633 18.456981175478177 0 1 1
3075 1 4.468300399414293 16.6345389414726 5.938206360027621 1 0 1
4858 1 14.103651323467965 5.783961899400249 18.46962278343969 0 0 0
1255 1 15.326941467352297 21.657518989276234 15.343697465347075 -1 -1 1
378 1 6.755998893580954 13.30893682204846 8.999141431397273 2 0 0
2103 1 3.5272004747421652 7.229188483748575 15.490564631203009 1 0 1
3538 1 11.88284509158125 16.74063464416898 18.670431984344358 1 1 0
1880 1 19.45038258901664 18.917291228358803 12.854128842216204 1 0 0
433 1 0.3124729952959263 5.439507016747181 0.9878673814752367 0 1 0
3228 1 15.367165951714306 11.745383748937995 15.656538094172324 1 -1 0
5070 1 9.952419856863253 15.310753663463931 17.772030421737448 0 0 0
385 1 21.37344905348167 14.1494783217884 4.520309759499144 0 1 1
4652 1 13.359959758589985 8.0733740559781 19.661498302929353 -1 -1 1
3016 1 21.663763681996773 13.835883462512996 17.3228709477195 1 1 1
71 1 16.368470914338168 22.651479265347103 19.43481824898085 0 -1 0
6199 1 3.2557195615639576 5.477944107764436 9.051122671469273 1 -1 1
2085 1 16.897079204059665 1.0077436049299437 3.6459195164146547 0 1 0
6105 1 20.802047382013797 18.951116919824493 2.172623429020666 0 -1 1
6353 1 5.171277762608324 15.601763703151082 9.479593875373858 0 1 1
3292 1 9.76882180893906 19.098028410702785 14.32419362937519 1 1 0
3442 1 13.962736356349678 18.43136658497742 10.909243028217835 0 0 0
5190 1 22.19428535009729 15.468785556833804 14.24909618022677 1 1 0
1997 1 10.004395628499266 13.309059324282808 14.52920893854366 1 0 0
1624 1 9.797922753252385 7.984227032674056 16.581751335714856 0 0 1
2049 1 20.682859611775495 7.622670278348387 19.100389324550438 -1 -1 0
6231 1 18.36662728604864 16.92936463756018 14.493889846228235 1 0 1
5067 1 11.516770523030772 17.390235480946767 0.8460606486131682 0 0 0
4615 1 4.789318098652394 7.176209931169928 12.90142628067054 1 0 1
1647 1 6.358529307919225 6.907520489608386 10.118736164067831 1 0 0
4578 1 12.369897705577806 21.401372994214313 13.589063431665734 1 0 1
6297 1 12.304294725775236 9.351280733390368 3.18888465004376 2 1 1
1391 1 20.00516652838047 11.480568541865278 11.411931635336302 -1 -1 0
3254 1 20.464811104998667 1.521065672355676 16.057377760185652 0 1 0
3362 1 2.5831466290708396 4.111070257396516 12.800100291003453 0 1 0
1578 1 13.484153230386879 6.684516973260597 1.5150287686284463 0 1 0
2871 1 6.9718951220662335 22.427306698571545 9.560564221384324 1 0 0
2107 1 18.4996102150989 18.723129316703133 10.203744785185625 0 0 1
6166 1 22.80246089424864 14.936436548247041 11.462954452542773 1 0 0
4904 1 13.463792066631122 3.0031425364731628 3.8690324322535585 0 -1 1
4716 1 18.853347217747473 13.955820231681125 2.1814144542833853 0 -1 1
6205 1 3.7479020164975685 19.472622582477836 17.422866491622923 1 0 1
5112 1 6.455559506542877 16.978065718151456 2.8349443721563166 0 2 0
4442 1 16.904018171850684 5.1744627475199 5.889663862915278 1 1 1
293 1 18.73600394277565 2.417394208368501 10.925291454395229 0 1 0
270 1 2.5009770279958814 19.888672310856606 8.603463627213918 1 0 0
1847 1 2.632410679339564 5.480258093740676 18.882707379807762 -1 1 0
305 1 22.249917664694987 15.878924598515729 2.5860608451191918 0 0 0
4579 1 6.3489171700003135 22.85046600502625 17.361632579151813 1 0 1
139 1 19.6324171819049 20.22348426150892 17.337166236625432 0 0 0
5034 1 8.153588997573063 10.454176821027062 17.016775693871622 0 1 0
451 1 0.028552179617337296 17.30489190128812 4.520588174334475 -1 0 1
1666 1 10.544323563423722 4.874341623686367 11.57198563552402 0 1 0
109 1 10.247189571955596 22.894910486772666 14.380196662199989 0 0 0
4562 1 7.183848334085771 0.6016504721777739 16.46722315932176 0 -1 1
2918 1 2.9588352776902975 21.18420467562197 11.226939206505795 1 1 1
5255 1 16.16808919509047 12.97074109250237 8.02834686019493 -1 1 0
1885 1 13.283979624887415 2.0907625056763424 13.611099647944647 0 0 0
6283 1 4.572163678805387 3.5552802323482795 18.261448297655903 0 0 1
6 1 9.91473224095281 7.321224237841949 7.252315743284013 0 0 0
4832 1 15.2119678195575 9.85492263335828 2.727410138291455 1 1 0
5010 1 18.734099143185563 7.628993239376877 6.544283325364993 1 1 0
2931 1 6.315363128235728 5.257793985634966 18.362231134679877 0 0 1
3578 1 23.714375223780323 20.491836862407588 12.942187913398865 1 0 0
1525 1 22.51299940080484 24.06370454163446 8.309364946610227 0 -1 1
3248 1 1.0341858033599924 2.0356201749566543 7.884241292164332 1 0 0
4717 1 21.065159693076385 15.888770315332296 19.047181993371527 0 0 1
5135 1 1.0136036372703747 6.8676838429013385 3.9749308167371935 1 2 0
2039 1 20.583354469234862 6.3042260305257605 8.675171620506472 -1 0 0
3343 1 4.521314961007107 1.3234644807966882 5.668326180072142 2 1 0
3146 1 7.441043150957154 9.288993860468322 13.286852414791177 1 1 1
3414 1 23.04252556812765 17.716010641769948 20.036336556456526 -1 1 1
2991 1 22.72451296425303 10.28014034784724 15.919511661727846 -1 1 1
5 1 6.024978654442985 15.847033849477324 12.312542125947193 0 -1 1
1390 1 6.123456194919883 8.396045932823137 16.26079757259434 0 0 1
1545 1 22.68356759270097 23.219754343649452 4.0928917172096915 0 -2 1
1703 1 6.067257182826856 22.83814716165434 0.5404746965668829 0 1 0
3688 1 16.96953144454165 19.951959991725207 16.293810488781226 0 -1 0
3618 1 20.351611444538086 20.60479833993498 9.071348640079306 1 -1 0
358 1 1.513198446919136 4.564900829200924 6.939320220660239 0 0 0
6291 1 6.909566650818679 14.065937793699112 2.66263762797517 2 1 1
2891 1 24.567833429488772 1.1795977701061124 11.53237522583742 0 1 1
3101 1 17.02632710230948 10.55798105892575 18.12899593787556 0 1 1
534 1 0.011325983927722704 0.5763838011695421 5.786727677459162 0 2 1
1581 1 21.061561015579787 0.9045516517103703 19.91780012747732 0 0 1
1488 1 7.752890603781716 15.035836248322079 15.616213657550338 1 0 1
3337 1 20.619014025104107 8.54083907418348 10.599679086387706 2 -1 1
2056 1 2.9142653826531704 22.96697154936286 3.5531578835274065 0 0 0
4905 1 3.8160052595722216 15.820789999770106 14.685100237627084 1 -1 0
3689 1 21.622110411138273 11.279593278194405 2.9763378771289917 1 0 1
549 1 15.928227951790644 17.607029801587142 16.353519938364006 0 0 0
1935 1 20.411713156636242 17.616702488251338 17.00576703656994 1 0 0
1671 1 20.433304446160854 16.16707950612038 10.708453929132947 -1 0 0
356 1 12.060605828202778 19.672365360409923 19.1998674286254 0 -1 0
244 1 1.9334056917642577 18.412285145408628 12.415050810635904 0 2 0
3498 1 17.161757585144944 21.600088673544608 9.747810250330215 1 0 0
4910 1 18.7606458914714 5.4321079014275915 14.886543085136761 -1 1 0
5151 1 19.737255505595087 14.230312051814979 12.764789883696343 -1 1 0
1432 1 22.314973770795472 22.76844741749565 11.521295145210203 -1 0 1
6116 1 9.410817399102086 22.664792105558778 2.810420145728301 1 0 1
6274 1 23.863930220836302 5.4089885813439915 17.156186162253643 0 0 1
1951 1 19.779912255825074 23.428363053105045 17.289751881638797 0 -2 0
5052 1 1.9335740666925143 20.55980560275043 2.523687966194247 2 0 0
1296 1 1.302920315471791 11.06260340299398 0.45380508370700395 1 1 1
5074 1 10.673797629748687 6.875227722132133 18.99994743011304 1 1 0
2088 1 23.056551470216263 10.006176670998283 13.2822038712085 -1 0 0
3267 1 6.593583208022349 16.17884200142014 17.6043844774503 -1 1 0
5048 1 9.697428374170784 21.036541442475198 17.966957349732485 0 0 0
1512 1 10.640582687316355 23.957809128403248 17.776964790438207 2 0 1
3139 1 18.681277940207462 0.05562181552087571 7.376008968453043 0 1 0
4863 1 11.862632842540867 3.8714237380107543 19.13738628886353 0 1 0
3295 1 4.439600800805651 1.9879624544876924 12.30911223427162 1 0 0
1637 1 7.641187699410486 1.2983578888175533 5.914141790489008 -1 1 0
3499 1 14.375829285046313 24.078376352465163 8.698008889576386 1 0 0
390 1 3.2292626661677666 1.096529062375961 20.043611811495023 0 0 0
3123 1 8.130021143726504 10.059101931944266 19.7859743123424 0 2 1
3531 1 2.093098561927055 24.04056750701066 11.190850779032315 1 -1 0
3160 1 16.82579148898261 12.855936300412072 0.9169883858397321 1 0 0
3190 1 11.111716143053084 9.957661266859898 20.016905906148803 -1 1 0
1324 1 22.057480715195492 6.7400213186465825 0.16698382051680483 0 0 1
1452 1 5.437722002648943 9.35796139775145 0.39302984097061255 1 0 1
2996 1 0.7271759005042374 13.278887283946487 24.243042131335148 -1 1 0
3140 1 2.766179740415838 11.802031838161005 23.299963112699874 0 1 0
544 1 7.57177527721491 17.534597119195247 21.344359555052367 0 -1 0
5260 1 15.709877366817533 7.044146324517374 23.495370759911232 0 0 0
1888 1 19.74869558790385 24.393627684922357 36.81463205699983 0 0 -1
4740 1 4.953044262930674 21.13837786532506 23.970380796980844 1 0 1
5999 1 23.606345778659126 21.232765130147193 36.75908854933061 0 0 0
2031 1 4.043711065208026 18.57000607753644 24.196575468015116 0 1 0
1821 1 5.874112339363434 23.46448993754723 37.60482230491587 0 0 -1
1366 1 14.372667216402013 19.25743013560706 24.151513359916105 -1 1 1
2939 1 20.562193086730918 1.5050727280255598 22.598086566951416 0 1 1
182 1 18.159917173693223 10.072360093249868 20.589722817797437 1 0 0
1788 1 21.942727950396485 13.537024507003023 37.289167095802355 0 -1 -1
245 1 6.9629498343309555 7.442518841396265 23.232889985213014 1 1 1
4791 1 10.974079735435406 7.788187260792426 23.381631283104333 0 -1 1
2867 1 3.6887209171462767 19.29141786831271 39.31667428384891 1 1 0
1370 1 0.9529752664067771 13.981667644581911 37.032331244270054 1 0 0
3230 1 11.494869121757267 23.759436313937556 37.4349981358432 0 0 -1
3189 1 15.237375012684739 4.741907105131672 21.406038424161817 0 1 0
294 1 19.53258651323057 21.639622099066703 22.639954418971147 -1 0 0
4567 1 1.3383389898924167 16.845273219461887 21.59884132902545 1 1 1
4713 1 1.6353779640145252 5.609967286001452 36.33771885664743 0 0 -1
3401 1 12.007054205422126 19.312499213846657 37.92926933551698 1 0 -1
1300 1 4.480382176340794 6.267966880425731 36.011999701232526 0 0 0
134 1 13.877994296284413 23.891848198096618 20.56542201542201 0 0 1
4837 1 19.594587530805672 7.772654513212995 21.832575028246076 1 0 1
5133 1 5.351571547793111 11.585256874078974 24.66181979461872 0 0 0
3185 1 13.60616492070791 8.330336393144258 22.49693850971404 1 1 0
1689 1 12.979875702648993 5.268736179183861 23.405940796935877 0 1 1
1319 1 4.034138748061571 0.2815368671329085 23.793673372702553 -1 0 1
3192 1 15.749233484662216 4.07027740406837 37.44115949719554 0 1 -1
5109 1 15.29470944540242 14.603220034693466 23.09752210604969 1 0 0
3145 1 10.869067374800311 23.487114167505084 20.94126481427154 1 -1 1
535 1 17.500722618889693 24.13872523721755 38.782118036101664 0 1 0
1884 1 18.045366654979862 12.853374779445673 39.505359861363004 0 1 -1
3042 1 1.4897365455405462 11.153745448678514 38.83968524640572 0 0 0
3557 1 8.372441963014946 14.354312121450404 24.58163423982151 1 0 1
1911 1 21.083380768152182 12.695346700480371 24.054982513587102 0 1 0
4533 1 2.0628883110532157 8.947895778098495 23.75080061296852 1 -1 1
1967 1 17.029825575443283 9.68598267284813 22.920300446958038 0 1 0
2011 1 16.430580177112912 21.768466222562207 39.00988837598531 1 0 -1
3215 1 2.2491858614681264 15.726288560451865 24.227849438084775 0 0 1
1419 1 20.513589881969153 23.160912024820718 20.222044807172296 0 -1 1
61 1 10.257134168952598 10.406658758519258 22.670264424902317 2 0 0
5240 1 9.247814401236855 15.59664627023999 22.6123300942435 0 -1 1
4759 1 23.09897277461116 22.203901489814534 20.809867381540567 -1 0 0
3415 1 7.290570271839414 20.139694093068606 22.964125210024402 1 1 0
4710 1 7.293466666490243 20.307118852055797 39.39667205865503 -1 1 0
4658 1 11.106777192277983 9.382802964948409 38.61124777969749 0 1 0
2074 1 17.488936478820513 14.658115009528567 35.794606531612075 1 1 -1
4891 1 22.19427734840121 5.926683593203893 24.18527244960418 1 0 0
371 1 24.551330579049907 4.944809684182186 22.3967656740935 0 1 0
2878 1 4.835857665755522 16.470107371315443 39.22245479836086 0 1 0
18 1 17.907718728925992 0.5349112379523604 22.682929116671247 0 1 1
1627 1 14.585523468143855 1.2265217928303722 39.00668233633441 0 -1 0
5141 1 15.065764102304511 11.43723553116359 23.55789365257896 0 1 0
4995 1 22.56612319160949 8.08815041375058 22.106689389650153 1 0 0
5016 1 23.21977383197845 16.007765546587898 22.35615610411273 -1 0 0
5343 1 2.232030589509799 7.548204508667714 21.23768554196255 2 0 1
6146 1 8.080560087449669 11.784917008259713 23.606233117064022 2 1 1
1836 1 3.3976608241672785 9.302454937731543 38.46777108508874 0 1 -1
4806 1 22.666442584055776 20.030390153432997 23.962220171902125 1 -1 0
6157 1 21.99156099438109 22.94804277067694 23.357874156923888 0 0 1
169 1 5.058232567979281 12.95871358345149 36.59764167651022 0 0 -1
1912 1 0.1683431307657425 22.441342940099826 23.406094789126808 0 2 0
6301 1 5.556524034091632 1.6097097083082608 37.201250240333536 0 1 0
2869 1 5.348777903821031 15.422357895278543 24.541167021050953 -1 -1 1
4463 1 12.63864608283426 21.459253090849213 36.44473485315848 1 0 0