LAMMPS data file via write_data, version 29 Sep 2021, timestep = 100000

4065 atoms
2 atom types

0 49.22 xlo xhi
0 49.019635930410494 ylo yhi
1.9262135713342161 25.914618674950397 zlo zhi

Masses

1 18.015
2 12.01

Atoms # atomic

83 2 0 2.8417180249513345 3.3711615887963746 0 0 0
85 2 0 0 3.3711615887963746 0 0 0
87 2 1.2305000000000001 0.7104295062378347 3.3711615887963746 0 0 0
94 2 1.2305000000000001 2.1312885187135 3.3711615887963746 0 0 0
96 2 2.4610000000000003 2.8417180249513345 3.3711615887963746 0 0 0
98 2 2.4610000000000003 0 3.3711615887963746 0 0 0
100 2 3.6915000000000004 0.7104295062378347 3.3711615887963746 0 0 0
115 2 3.6914999999999996 2.1312885187135 3.3711615887963746 0 0 0
117 2 4.922000000000001 2.841718024951333 3.3711615887963746 0 0 0
119 2 4.922000000000001 0 3.3711615887963746 0 0 0
90 2 0 4.262577037427 3.3711615887963746 0 0 0
111 2 2.4610000000000003 4.262577037427 3.3711615887963746 0 0 0
140 2 4.922000000000001 4.262577037426998 3.3711615887963746 0 0 0
92 2 1.2305000000000001 4.973006543664834 3.3711615887963746 0 0 0
107 2 1.2305000000000001 6.393865556140498 3.3711615887963746 0 0 0
113 2 3.6914999999999996 4.973006543664834 3.3711615887963746 0 0 0
136 2 3.6914999999999996 6.393865556140498 3.3711615887963746 0 0 0
88 2 0 7.104295062378334 3.3711615887963746 0 0 0
103 2 0 8.525154074854 3.3711615887963746 0 0 0
105 2 1.2305000000000001 9.235583581091834 3.3711615887963746 0 0 0
109 2 2.4610000000000003 7.104295062378334 3.3711615887963746 0 0 0
132 2 2.4610000000000003 8.525154074854 3.3711615887963746 0 0 0
134 2 3.6915000000000004 9.235583581091834 3.3711615887963746 0 0 0
138 2 4.922000000000001 7.104295062378334 3.3711615887963746 0 0 0
169 2 4.922000000000001 8.525154074854 3.3711615887963746 0 0 0
84 2 0 1.420859012475665 6.2610576237209195 0 0 0
86 2 0 0 6.2610576237209195 0 0 0
95 2 1.2305000000000001 2.1312885187135 6.2610576237209195 0 0 0
97 2 2.4610000000000003 1.420859012475665 6.2610576237209195 0 0 0
99 2 2.4610000000000003 0 6.2610576237209195 0 0 0
412 2 0 2.8417180249513345 9.150953658644774 0 0 0
413 2 0 0 9.150953658644774 0 0 0
414 2 1.2305000000000001 0.7104295062378347 9.150953658644774 0 0 0
418 2 1.2305000000000001 2.1312885187135 9.150953658644774 0 0 0
419 2 2.4610000000000003 2.8417180249513345 9.150953658644774 0 0 0
420 2 2.4610000000000003 0 9.150953658644774 0 0 0
116 2 3.6914999999999996 2.1312885187135 6.2610576237209195 0 0 0
118 2 4.922000000000001 1.420859012475665 6.2610576237209195 0 0 0
120 2 4.922000000000001 0 6.2610576237209195 0 0 0
421 2 3.6915000000000004 0.7104295062378347 9.150953658644774 0 0 0
429 2 3.6914999999999996 2.1312885187135 9.150953658644774 0 0 0
430 2 4.922000000000001 2.841718024951333 9.150953658644774 0 0 0
431 2 4.922000000000001 0 9.150953658644774 0 0 0
91 2 0 4.262577037427 6.2610576237209195 0 0 0
93 2 1.2305000000000001 3.5521475311891644 6.2610576237209195 0 0 0
112 2 2.4610000000000003 4.262577037427 6.2610576237209195 0 0 0
416 2 0 4.262577037427 9.150953658644774 0 0 0
427 2 2.4610000000000003 4.262577037427 9.150953658644774 0 0 0
114 2 3.6914999999999996 3.5521475311891644 6.2610576237209195 0 0 0
141 2 4.922000000000001 4.262577037426998 6.2610576237209195 0 0 0
442 2 4.922000000000001 4.262577037426998 9.150953658644774 0 0 0
89 2 0 5.683436049902664 6.2610576237209195 0 0 0
108 2 1.2305000000000001 6.393865556140498 6.2610576237209195 0 0 0
110 2 2.4610000000000003 5.683436049902664 6.2610576237209195 0 0 0
417 2 1.2305000000000001 4.973006543664834 9.150953658644774 0 0 0
425 2 1.2305000000000001 6.393865556140498 9.150953658644774 0 0 0
137 2 3.6914999999999996 6.393865556140498 6.2610576237209195 0 0 0
139 2 4.922000000000001 5.683436049902664 6.2610576237209195 0 0 0
428 2 3.6914999999999996 4.973006543664834 9.150953658644774 0 0 0
440 2 3.6914999999999996 6.393865556140498 9.150953658644774 0 0 0
104 2 0 8.525154074854 6.2610576237209195 0 0 0
106 2 1.2305000000000001 7.814724568616164 6.2610576237209195 0 0 0
133 2 2.4610000000000003 8.525154074854 6.2610576237209195 0 0 0
415 2 0 7.104295062378334 9.150953658644774 0 0 0
423 2 0 8.525154074854 9.150953658644774 0 0 0
424 2 1.2305000000000001 9.235583581091834 9.150953658644774 0 0 0
426 2 2.4610000000000003 7.104295062378334 9.150953658644774 0 0 0
438 2 2.4610000000000003 8.525154074854 9.150953658644774 0 0 0
135 2 3.6914999999999996 7.814724568616164 6.2610576237209195 0 0 0
170 2 4.922000000000001 8.525154074854 6.2610576237209195 0 0 0
439 2 3.6915000000000004 9.235583581091834 9.150953658644774 0 0 0
441 2 4.922000000000001 7.104295062378334 9.150953658644774 0 0 0
457 2 4.922000000000001 8.525154074854 9.150953658644774 0 0 0
1015 1 2.2709981486904023 7.142057567909835 12.08128845808293 0 0 0
1051 1 3.796867197216834 1.8286417358745608 11.969043965988417 0 -1 0
859 1 0.9440126223179668 2.3606286234119 12.224037625028808 -1 1 0
1934 1 5.7836523452735475 3.796253155030202 11.643106958441578 0 1 -1
1070 1 5.166248700987719 6.4649280696287095 11.673988821803233 -1 1 0
1913 1 0.7348005747599613 4.960527106285392 11.203581722521122 1 1 0
1802 1 4.273573976050713 9.76946078402402 12.049619034365636 1 0 0
807 1 0.8830481069498373 2.162668613178186 15.46293554210272 1 0 0
3935 1 0.013488159335411838 5.09215911896972 18.829395279423345 0 -1 0
2029 1 3.4203028154303827 1.2841736105138548 14.5740262043255 0 2 0
825 1 5.457812443442252 4.854748460701329 14.271687969571504 1 0 0
1871 1 5.676620361120192 1.3073153509110642 24.43940678865811 0 1 0
1808 1 3.0473688517649054 6.000405886559246 14.502343253979987 1 1 0
3849 1 2.437094682407972 0.9257778493070231 24.834561527070612 1 1 -1
1030 1 4.352832174880617 7.736323857104311 16.257491771035482 0 0 -1
1034 1 0.8046342141752778 4.84462193182986 15.838134977545097 1 -1 -1
2871 1 3.1345152616903524 9.42499746559942 18.10467126504824 1 0 0
3143 1 4.222355009398076 2.9682714760356848 18.12184464912195 1 1 1
1986 1 2.0098285419330946 1.3102202955242563 18.00533398298141 1 0 -1
3975 1 3.0598537192243596 5.383482800762695 17.858734715043816 1 2 -1
1875 1 0.28927763103446147 4.112910100475733 21.325342222770406 1 0 -1
3996 1 3.3540987720669926 4.954176226344175 24.910497620367945 0 1 0
1797 1 1.2490826096871717 8.463193056729084 22.340719634382683 0 1 0
3864 1 2.923783561991064 6.951970324902534 20.291610832710067 2 1 0
2935 1 2.822744464720563 4.7585724150716135 22.085471433549902 1 0 0
2899 1 5.9320386475868965 3.9498282764922887 24.759622827401753 1 0 -1
1019 1 3.153480793585301 7.7020038271753615 24.804503496635714 0 1 1
820 1 1.2044163897401023 3.339282024995211 24.751029214695233 0 1 -1
1093 1 0.5701398565043123 1.6099016921883418 20.841349647260014 0 2 1
1012 1 5.644087099740259 0.6554059557486266 21.79772970918735 0 0 0
4018 1 4.909261870910337 3.214705954449623 20.76703629691493 1 0 -1
69 1 5.758744338336463 2.4574092654276884 15.752859479609647 1 0 0
3041 1 2.825759663989838 0.5501549841441108 21.94899238847867 0 2 -1
3091 1 0.4662498316764724 9.773512328553407 17.457472401227 1 1 1
2981 1 5.697835119850285 7.650114074935858 20.701015383278854 0 0 0
2949 1 0.21882825384148394 8.89216450624264 25.002231344464096 0 2 0
101 2 0 11.366872099805333 3.3711615887963746 0 0 0
124 2 0 12.787731112280996 3.3711615887963746 0 0 0
126 2 1.2305000000000001 13.49816061851883 3.3711615887963746 0 0 0
128 2 1.2305000000000001 10.656442593567498 3.3711615887963746 0 0 0
130 2 2.4610000000000003 11.366872099805333 3.3711615887963746 0 0 0
161 2 2.4610000000000003 12.787731112280996 3.3711615887963746 0 0 0
163 2 3.6915000000000004 13.49816061851883 3.3711615887963746 0 0 0
165 2 3.6914999999999996 10.6564425935675 3.3711615887963746 0 0 0
167 2 4.922000000000001 11.366872099805333 3.3711615887963746 0 0 0
206 2 4.922000000000001 12.787731112280996 3.3711615887963746 0 0 0
208 2 6.152499999999999 13.49816061851883 3.3711615887963746 0 0 0
122 2 0 15.629449137232333 3.3711615887963746 0 0 0
153 2 0 17.050308149708 3.3711615887963746 0 0 0
157 2 1.2305000000000001 14.919019630994494 3.3711615887963746 0 0 0
159 2 2.4610000000000003 15.629449137232328 3.3711615887963746 0 0 0
198 2 2.4610000000000003 17.050308149708 3.3711615887963746 0 0 0
202 2 3.6915000000000004 14.919019630994494 3.3711615887963746 0 0 0
204 2 4.922000000000001 15.629449137232333 3.3711615887963746 0 0 0
245 2 4.922000000000001 17.050308149708 3.3711615887963746 0 0 0
249 2 6.152499999999999 14.919019630994494 3.3711615887963746 0 0 0
155 2 1.2305000000000001 17.76073765594583 3.3711615887963746 0 0 0
194 2 1.2305000000000001 19.181596668421495 3.3711615887963746 0 0 0
200 2 3.6914999999999996 17.76073765594583 3.3711615887963746 0 0 0
241 2 3.6914999999999996 19.181596668421495 3.3711615887963746 0 0 0
102 2 0 9.946013087329664 6.2610576237209195 0 0 0
131 2 2.4610000000000003 9.946013087329664 6.2610576237209195 0 0 0
168 2 4.922000000000001 9.946013087329664 6.2610576237209195 0 0 0
125 2 0 12.787731112280996 6.2610576237209195 0 0 0
127 2 1.2305000000000001 12.077301606043163 6.2610576237209195 0 0 0
129 2 1.2305000000000001 10.656442593567498 6.2610576237209195 0 0 0
162 2 2.4610000000000003 12.787731112280996 6.2610576237209195 0 0 0
422 2 0 11.366872099805333 9.150953658644774 0 0 0
434 2 0 12.787731112280996 9.150953658644774 0 0 0
435 2 1.2305000000000001 13.49816061851883 9.150953658644774 0 0 0
436 2 1.2305000000000001 10.656442593567498 9.150953658644774 0 0 0
437 2 2.4610000000000003 11.366872099805333 9.150953658644774 0 0 0
453 2 2.4610000000000003 12.787731112280996 9.150953658644774 0 0 0
164 2 3.6914999999999996 12.077301606043163 6.2610576237209195 0 0 0
166 2 3.6914999999999996 10.6564425935675 6.2610576237209195 0 0 0
207 2 4.922000000000001 12.787731112280996 6.2610576237209195 0 0 0
454 2 3.6915000000000004 13.49816061851883 9.150953658644774 0 0 0
455 2 3.6914999999999996 10.6564425935675 9.150953658644774 0 0 0
456 2 4.922000000000001 11.366872099805333 9.150953658644774 0 0 0
476 2 4.922000000000001 12.787731112280996 9.150953658644774 0 0 0
477 2 6.152499999999999 13.49816061851883 9.150953658644774 0 0 0
123 2 0 14.208590124756663 6.2610576237209195 0 0 0
160 2 2.4610000000000003 14.208590124756663 6.2610576237209195 0 0 0
205 2 4.922000000000001 14.208590124756663 6.2610576237209195 0 0 0
154 2 0 17.050308149708 6.2610576237209195 0 0 0
156 2 1.2305000000000001 16.339878643470165 6.2610576237209195 0 0 0
158 2 1.2305000000000001 14.919019630994494 6.2610576237209195 0 0 0
199 2 2.4610000000000003 17.050308149708 6.2610576237209195 0 0 0
433 2 0 15.629449137232333 9.150953658644774 0 0 0
449 2 0 17.050308149708 9.150953658644774 0 0 0
451 2 1.2305000000000001 14.919019630994494 9.150953658644774 0 0 0
452 2 2.4610000000000003 15.629449137232328 9.150953658644774 0 0 0
472 2 2.4610000000000003 17.050308149708 9.150953658644774 0 0 0
201 2 3.6915000000000004 16.339878643470165 6.2610576237209195 0 0 0
203 2 3.6915000000000004 14.919019630994494 6.2610576237209195 0 0 0
246 2 4.922000000000001 17.050308149708 6.2610576237209195 0 0 0
250 2 6.152499999999999 14.919019630994494 6.2610576237209195 0 0 0
474 2 3.6915000000000004 14.919019630994494 9.150953658644774 0 0 0
475 2 4.922000000000001 15.629449137232333 9.150953658644774 0 0 0
496 2 4.922000000000001 17.050308149708 9.150953658644774 0 0 0
498 2 6.152499999999999 14.919019630994494 9.150953658644774 0 0 0
152 2 0 18.471167162183658 6.2610576237209195 0 0 0
195 2 1.2305000000000001 19.181596668421495 6.2610576237209195 0 0 0
197 2 2.4610000000000003 18.471167162183658 6.2610576237209195 0 0 0
450 2 1.2305000000000001 17.76073765594583 9.150953658644774 0 0 0
470 2 1.2305000000000001 19.181596668421495 9.150953658644774 0 0 0
242 2 3.6914999999999996 19.181596668421495 6.2610576237209195 0 0 0
244 2 4.922000000000001 18.471167162183658 6.2610576237209195 0 0 0
473 2 3.6914999999999996 17.76073765594583 9.150953658644774 0 0 0
494 2 3.6914999999999996 19.181596668421495 9.150953658644774 0 0 0
2942 1 0.7421215435748316 14.31494371540766 11.805139597966233 1 0 0
997 1 4.816762796983094 14.609988867690127 12.114459367684999 0 0 0
3873 1 3.3015009654167256 12.433933013587039 11.218112452053518 1 -1 0
3045 1 0.9749867546444064 17.008652981980354 12.064244768292417 1 0 0
2040 1 3.8320674880755945 17.500665524311653 11.89681418034799 0 -1 -1
3003 1 0.9282038567526132 9.820373913127787 11.719207550610498 0 0 0
4022 1 6.06122319464583 19.268071604446178 11.372224656025839 1 0 -1
4056 1 0.0417000980668868 12.750354808103884 24.702127326512798 0 1 -1
839 1 1.5308839811562485 16.70221691215463 24.566464441371608 1 -1 0
4012 1 3.1692774345185084 15.542600825089457 16.07732320409872 1 0 0
865 1 1.1004125213995115 12.731303968595755 14.126663015197826 1 0 0
3050 1 4.524690982149215 18.202383902041085 14.426067591336592 1 0 0
3900 1 0.6445209591647625 17.17387087080855 14.882384602070204 1 1 0
932 1 5.65914410111881 14.960664328231218 17.299415335575148 0 0 1
3071 1 3.4727679225057453 14.881709275713646 24.88539558151541 0 1 -1
2041 1 2.6808929841430333 18.406327520841067 16.845404033989134 1 0 0
31 1 3.9330437356294374 13.252383638130746 14.369301762350858 1 -1 0
17 1 4.430855173703323 13.321954490585759 22.131747892058193 0 1 -1
50 1 2.5800938947058745 14.728039638368285 18.756000144816166 0 0 0
1069 1 3.498219460370772 12.103203400384693 19.762933043387832 0 0 -1
2869 1 5.900095274611031 12.413033405669609 18.253547010329793 1 0 0
2852 1 4.5244252621329295 18.271922870374198 18.83515838697965 1 0 0
3806 1 1.0941150621005713 17.75871345857802 21.976035632850028 1 0 -1
2939 1 5.319949314920013 15.852336542630052 20.0847044823315 0 -1 -1
3834 1 1.3187110783663023 11.364523767907974 22.324486865700404 1 0 0
795 1 3.476118737220775 18.852840023295013 21.424706824362588 0 0 0
3880 1 3.08377062310658 12.03253204968234 24.52093421572529 0 0 0
846 1 0.4265199928192604 15.913503309568206 19.94577996992308 0 0 0
3840 1 2.0569123702236523 19.562176657573872 24.89462010075861 -1 0 0
4059 1 4.291186885235654 10.021396060463152 22.127063949493937 0 0 0
964 1 0.9124574448278858 10.0222280891417 14.561705344488598 0 0 0
3987 1 0.44523461358480476 12.422442171378286 18.602084383820706 1 0 1
1056 1 3.919106282721297 9.89314662658584 14.636198329120669 2 1 0
1062 1 5.109859503505778 10.153777485157487 24.866985012016567 1 0 0
151 2 0 19.89202617465933 3.3711615887963746 0 0 0
196 2 2.4610000000000003 19.89202617465933 3.3711615887963746 0 0 0
243 2 4.922000000000001 19.89202617465933 3.3711615887963746 0 0 0
188 2 0 24.154603212086325 3.3711615887963746 0 0 0
190 2 0 21.312885187135 3.3711615887963746 0 0 0
192 2 1.2304999999999993 22.023314693372832 3.3711615887963746 0 0 0
233 2 1.2304999999999993 23.4441737058485 3.3711615887963746 0 0 0
235 2 2.4610000000000003 24.154603212086325 3.3711615887963746 0 0 0
237 2 2.4610000000000003 21.312885187134995 3.3711615887963746 0 0 0
239 2 3.6914999999999996 22.023314693372832 3.3711615887963746 0 0 0
280 2 3.6915000000000004 23.4441737058485 3.3711615887963746 0 0 0
282 2 4.922000000000001 24.154603212086325 3.3711615887963746 0 0 0
284 2 4.922000000000001 21.312885187134995 3.3711615887963746 0 0 0
286 2 6.152499999999999 22.023314693372832 3.3711615887963746 0 0 0
1130 2 0 25.575462224561992 3.3711615887963746 0 0 0
1132 2 1.2305000000000001 26.285891730799833 3.3711615887963746 0 0 0
1140 2 1.230500000000001 27.706750743275496 3.3711615887963746 0 0 0
1144 2 2.4610000000000003 25.575462224561992 3.3711615887963746 0 0 0
1146 2 3.691499999999999 26.285891730799833 3.3711615887963746 0 0 0
1162 2 3.6914999999999996 27.706750743275496 3.3711615887963746 0 0 0
1166 2 4.922000000000001 25.575462224561992 3.3711615887963746 0 0 0
1192 2 6.152499999999999 27.706750743275496 3.3711615887963746 0 0 0
1128 2 0 28.417180249513333 3.3711615887963746 0 0 0
1142 2 2.4610000000000003 28.417180249513326 3.3711615887963746 0 0 0
1164 2 4.922000000000001 28.417180249513336 3.3711615887963746 0 0 0
193 2 1.2305000000000001 20.60245568089716 6.2610576237209195 0 0 0
448 2 0 19.89202617465933 9.150953658644774 0 0 0
471 2 2.4610000000000003 19.89202617465933 9.150953658644774 0 0 0
240 2 3.6915000000000004 20.60245568089716 6.2610576237209195 0 0 0
495 2 4.922000000000001 19.89202617465933 9.150953658644774 0 0 0
189 2 0 22.733744199610655 6.2610576237209195 0 0 0
191 2 0 21.312885187135 6.2610576237209195 0 0 0
234 2 1.2304999999999993 23.4441737058485 6.2610576237209195 0 0 0
236 2 2.4610000000000003 22.733744199610655 6.2610576237209195 0 0 0
238 2 2.4610000000000003 21.312885187134995 6.2610576237209195 0 0 0
467 2 0 24.154603212086325 9.150953658644774 0 0 0
468 2 0 21.312885187135 9.150953658644774 0 0 0
469 2 1.2304999999999993 22.023314693372832 9.150953658644774 0 0 0
490 2 1.2304999999999993 23.4441737058485 9.150953658644774 0 0 0
491 2 2.4610000000000003 24.154603212086325 9.150953658644774 0 0 0
492 2 2.4610000000000003 21.312885187134995 9.150953658644774 0 0 0
281 2 3.6915000000000004 23.4441737058485 6.2610576237209195 0 0 0
283 2 4.922000000000001 22.733744199610655 6.2610576237209195 0 0 0
285 2 4.922000000000001 21.312885187134995 6.2610576237209195 0 0 0
493 2 3.6914999999999996 22.023314693372832 9.150953658644774 0 0 0
514 2 3.6915000000000004 23.4441737058485 9.150953658644774 0 0 0
515 2 4.922000000000001 24.154603212086325 9.150953658644774 0 0 0
516 2 4.922000000000001 21.312885187134995 9.150953658644774 0 0 0
517 2 6.152499999999999 22.023314693372832 9.150953658644774 0 0 0
1129 2 0 26.99632123703766 6.2610576237209195 0 0 0
1131 2 0 25.575462224561992 6.2610576237209195 0 0 0
1133 2 1.2305000000000001 24.865032718324155 6.2610576237209195 0 0 0
1141 2 1.230500000000001 27.706750743275496 6.2610576237209195 0 0 0
1143 2 2.4610000000000003 26.99632123703766 6.2610576237209195 0 0 0
1145 2 2.4610000000000003 25.575462224561992 6.2610576237209195 0 0 0
1444 2 0 25.575462224561992 9.150953658644774 0 0 0
1445 2 1.2305000000000001 26.285891730799833 9.150953658644774 0 0 0
1449 2 1.230500000000001 27.706750743275496 9.150953658644774 0 0 0
1451 2 2.4610000000000003 25.575462224561992 9.150953658644774 0 0 0
1147 2 3.6914999999999996 24.865032718324166 6.2610576237209195 0 0 0
1163 2 3.6914999999999996 27.706750743275496 6.2610576237209195 0 0 0
1165 2 4.922000000000001 26.99632123703766 6.2610576237209195 0 0 0
1167 2 4.922000000000001 25.575462224561992 6.2610576237209195 0 0 0
1169 2 6.152499999999999 24.865032718324155 6.2610576237209195 0 0 0
1193 2 6.152499999999999 27.706750743275496 6.2610576237209195 0 0 0
1452 2 3.691499999999999 26.285891730799833 9.150953658644774 0 0 0
1460 2 3.6914999999999996 27.706750743275496 9.150953658644774 0 0 0
1462 2 4.922000000000001 25.575462224561992 9.150953658644774 0 0 0
1475 2 6.152499999999999 27.706750743275496 9.150953658644774 0 0 0
1139 2 1.2304999999999993 29.127609755751163 6.2610576237209195 0 0 0
1443 2 0 28.417180249513333 9.150953658644774 0 0 0
1450 2 2.4610000000000003 28.417180249513326 9.150953658644774 0 0 0
1161 2 3.691499999999999 29.127609755751152 6.2610576237209195 0 0 0
1191 2 6.152499999999998 29.127609755751152 6.2610576237209195 0 0 0
1461 2 4.922000000000001 28.417180249513336 9.150953658644774 0 0 0
3843 1 5.109145837997277 28.513269553361265 11.855120401272824 0 0 0
1918 1 3.9661854861430252 20.955164648825818 11.484099526696559 0 0 0
1023 1 4.306869190512953 23.726211142323038 11.6700650271778 0 0 -1
4040 1 1.7136560839450807 25.339139308893937 11.63114490875259 0 0 -2
1985 1 2.4350528074173248 28.176246367926122 11.73782466526638 0 0 0
1006 1 0.5660054000675112 21.45058624660347 11.818565180516197 1 1 0
4023 1 2.641597354507007 20.38276742866446 13.908896872922313 1 -1 1
4009 1 1.9020811892563831 24.93719102226934 14.401925864954084 0 1 0
1852 1 3.7342088087711205 22.723725861651356 15.186179218907105 1 0 0
2064 1 5.8067826153893645 21.5375941155845 20.07841695856285 0 1 0
3027 1 5.551213241826827 29.180748788503642 17.78148256571064 1 0 1
2028 1 2.283836620772745 24.72497818023707 24.882539803932964 1 0 1
3887 1 2.9509633476760104 27.041838581944216 15.898652608869693 1 0 -1
2004 1 1.2934405870432284 29.20062984696378 15.501324899608953 0 -1 0
908 1 4.829441963971727 28.271585533511384 14.51707194847535 0 0 0
1823 1 0.3176088258178577 23.930519533028832 21.85479929825949 0 1 0
3979 1 1.9980539565635302 21.006733638521084 20.313276040201487 0 -1 1
2083 1 2.6018075168225803 21.308125614338145 17.36593635303769 1 1 0
3980 1 1.3554149562190503 26.96633496484231 21.055142413452074 0 -1 -1
2902 1 4.606549192324071 28.226846802700443 21.92617090705791 0 0 -1
3018 1 2.2179590324938214 26.25739722700737 18.4742917400128 0 0 0
3888 1 4.69958348262921 25.035682665012995 19.184901230395806 0 -2 0
791 1 3.8430464799770676 22.98995856855143 23.290948855468162 1 0 0
3813 1 4.79750219746555 28.762077505637592 24.7426276334675 -1 1 0
1851 1 3.08117294332336 23.491508871632472 20.845609131941142 1 0 0
3054 1 4.309441288524036 20.277953078001644 23.53406800920427 0 0 0
4 1 5.659034465781393 22.859823406393918 17.635266269570977 0 -1 1
2019 1 4.715889384183494 26.013620176321 24.750200812985277 0 0 0
1040 1 2.067723080488209 27.664724950292317 23.806324773345725 0 0 -1
2087 1 5.635195691769858 25.352800759847966 21.934496514741483 1 -1 1
869 1 5.710575844320574 19.93604385197243 16.87338511048727 0 -1 0
917 1 2.8138028066129706 29.047643045880726 19.414932801779003 1 -1 -1
3069 1 0.46404980065148915 24.042388758821204 18.82408946476272 0 0 0
4032 1 0.21793724381616641 22.122348509397582 16.55167121550845 1 0 1
2102 1 0.32754687588856185 29.405365067041004 24.86066546169591 1 -1 0
1136 2 0 29.83803926198899 3.3711615887963746 0 0 0
1138 2 1.2304999999999993 30.54846876822683 3.3711615887963746 0 0 0
1158 2 2.4610000000000003 29.83803926198899 3.3711615887963746 0 0 0
1160 2 3.6915000000000004 30.54846876822683 3.3711615887963746 0 0 0
1188 2 4.922000000000001 29.83803926198899 3.3711615887963746 0 0 0
1134 2 0 32.67975728694033 3.3711615887963746 0 0 0
1150 2 0 34.100616299416 3.3711615887963746 0 0 0
1154 2 1.2304999999999993 31.969327780702493 3.3711615887963746 0 0 0
1156 2 2.4610000000000003 32.67975728694034 3.3711615887963746 0 0 0
1180 2 2.4609999999999985 34.100616299416 3.3711615887963746 0 0 0
1184 2 3.6914999999999996 31.969327780702493 3.3711615887963746 0 0 0
1186 2 4.9220000000000015 32.67975728694034 3.3711615887963746 0 0 0
1218 2 4.922000000000001 34.100616299416 3.3711615887963746 0 0 0
1152 2 1.230500000000001 34.81104580565383 3.3711615887963746 0 0 0
1182 2 3.691500000000002 34.81104580565383 3.3711615887963746 0 0 0
1148 2 0 36.94233432436734 3.3711615887963746 0 0 0
1172 2 0 38.36319333684299 3.3711615887963746 0 0 0
1176 2 1.2304999999999993 36.231904818129486 3.3711615887963746 0 0 0
1178 2 2.461000000000002 36.94233432436734 3.3711615887963746 0 0 0
1210 2 2.4610000000000003 38.36319333684299 3.3711615887963746 0 0 0
1214 2 3.6914999999999996 36.231904818129486 3.3711615887963746 0 0 0
1216 2 4.922000000000001 36.942334324367316 3.3711615887963746 0 0 0
1255 2 4.922000000000001 38.36319333684299 3.3711615887963746 0 0 0
1174 2 1.230500000000001 39.07362284308084 3.3711615887963746 0 0 0
1212 2 3.691500000000002 39.07362284308082 3.3711615887963746 0 0 0
1135 2 0 31.258898274464656 6.2610576237209195 0 0 0
1137 2 0 29.83803926198899 6.2610576237209195 0 0 0
1157 2 2.4609999999999985 31.258898274464656 6.2610576237209195 0 0 0
1159 2 2.4610000000000003 29.83803926198899 6.2610576237209195 0 0 0
1447 2 0 29.83803926198899 9.150953658644774 0 0 0
1448 2 1.2304999999999993 30.54846876822683 9.150953658644774 0 0 0
1458 2 2.4610000000000003 29.83803926198899 9.150953658644774 0 0 0
1187 2 4.921999999999998 31.258898274464656 6.2610576237209195 0 0 0
1189 2 4.922000000000001 29.83803926198899 6.2610576237209195 0 0 0
1459 2 3.6915000000000004 30.54846876822683 9.150953658644774 0 0 0
1473 2 4.922000000000001 29.83803926198899 9.150953658644774 0 0 0
1151 2 0 34.100616299416 6.2610576237209195 0 0 0
1153 2 1.2304999999999993 33.39018679317816 6.2610576237209195 0 0 0
1155 2 1.2304999999999993 31.969327780702493 6.2610576237209195 0 0 0
1181 2 2.4609999999999985 34.100616299416 6.2610576237209195 0 0 0
1446 2 0 32.67975728694033 9.150953658644774 0 0 0
1454 2 0 34.100616299416 9.150953658644774 0 0 0
1456 2 1.2304999999999993 31.969327780702493 9.150953658644774 0 0 0
1457 2 2.4610000000000003 32.67975728694034 9.150953658644774 0 0 0
1469 2 2.4609999999999985 34.100616299416 9.150953658644774 0 0 0
1183 2 3.691499999999998 33.39018679317816 6.2610576237209195 0 0 0
1185 2 3.6914999999999996 31.969327780702493 6.2610576237209195 0 0 0
1219 2 4.922000000000001 34.100616299416 6.2610576237209195 0 0 0
1221 2 6.152499999999999 33.39018679317816 6.2610576237209195 0 0 0
1471 2 3.6914999999999996 31.969327780702493 9.150953658644774 0 0 0
1472 2 4.9220000000000015 32.67975728694034 9.150953658644774 0 0 0
1488 2 4.922000000000001 34.100616299416 9.150953658644774 0 0 0
1455 2 1.230500000000001 34.81104580565383 9.150953658644774 0 0 0
1470 2 3.691500000000002 34.81104580565383 9.150953658644774 0 0 0
1149 2 0 35.52147531189165 6.2610576237209195 0 0 0
1173 2 0 38.36319333684299 6.2610576237209195 0 0 0
1175 2 1.2304999999999993 37.65276383060515 6.2610576237209195 0 0 0
1177 2 1.2304999999999993 36.231904818129486 6.2610576237209195 0 0 0
1179 2 2.4609999999999985 35.52147531189166 6.2610576237209195 0 0 0
1211 2 2.4610000000000003 38.36319333684299 6.2610576237209195 0 0 0
1453 2 0 36.94233432436734 9.150953658644774 0 0 0
1465 2 0 38.36319333684299 9.150953658644774 0 0 0
1467 2 1.2304999999999993 36.231904818129486 9.150953658644774 0 0 0
1468 2 2.461000000000002 36.94233432436734 9.150953658644774 0 0 0
1484 2 2.4610000000000003 38.36319333684299 9.150953658644774 0 0 0
1213 2 3.6914999999999996 37.65276383060515 6.2610576237209195 0 0 0
1215 2 3.6914999999999996 36.231904818129486 6.2610576237209195 0 0 0
1217 2 4.922000000000001 35.52147531189166 6.2610576237209195 0 0 0
1256 2 4.922000000000001 38.36319333684299 6.2610576237209195 0 0 0
1258 2 6.152499999999998 37.65276383060515 6.2610576237209195 0 0 0
1486 2 3.6914999999999996 36.231904818129486 9.150953658644774 0 0 0
1487 2 4.922000000000001 36.942334324367316 9.150953658644774 0 0 0
1506 2 4.922000000000001 38.36319333684299 9.150953658644774 0 0 0
1466 2 1.230500000000001 39.07362284308084 9.150953658644774 0 0 0
1485 2 3.691500000000002 39.07362284308082 9.150953658644774 0 0 0
2881 1 1.2169947081597343 32.297467566317586 11.662992836783092 1 0 0
2909 1 5.569657430439631 31.488508153347627 12.33399572409136 0 0 1
980 1 3.8005107597580965 33.73560494842979 12.046254977681775 0 -1 0
2991 1 5.585840356256656 35.94390235509405 11.635830904988111 1 0 1
4029 1 0.36047473980869055 29.68977472041387 12.49915478499048 1 1 1
3133 1 1.9265322381530128 38.720188191837 11.963677246316356 1 1 0
3876 1 5.098227780651701 38.580164950982756 11.940452806076802 0 -1 0
3928 1 1.488231446578097 30.89090927217574 17.855056422972122 -1 0 0
2831 1 3.929425387433278 32.356410538009946 16.448091374504607 1 -1 0
3010 1 3.514562517880846 34.59681296680027 14.713925051953593 0 -1 -1
2034 1 2.08542291519741 36.5682659216115 15.935100426679186 2 0 -1
3852 1 5.81700738422473 30.877996243315714 15.178296630262114 -1 -1 -1
1948 1 3.742765154463638 35.41556937068057 23.13438547187282 0 0 -1
3865 1 2.0287997575318912 34.76909996940382 19.596021752051456 1 -1 0
1101 1 4.6875331969996 34.02745043117689 18.972990275596906 0 1 -1
3926 1 2.19973117901823 33.9620021473344 25.05539204021932 1 0 0
2842 1 1.1000953668067401 32.20761987741764 14.735216482203965 1 0 0
3808 1 0.20597515303506342 32.46576731970143 19.938587747980815 1 0 1
2047 1 4.991989103883878 32.925466429674444 21.750587265328193 0 0 -1
1057 1 3.025105383981698 30.81208278817971 25.144143686718277 1 0 -1
1908 1 1.09138743177595 36.85483866640316 24.808777525017486 1 0 -1
956 1 3.6774283745119734 37.18241896570556 17.776923370172995 -1 -1 0
1960 1 5.056712266282961 39.040340565361376 24.42223377089125 0 -2 0
1053 1 1.3132462044508253 36.49874606077542 21.73639135942514 0 0 0
65 1 5.653673731032487 36.39759251677647 24.821976020481806 1 0 -1
3908 1 3.2532686824057704 30.917224923248256 22.053353125400484 1 0 1
3812 1 5.3314962918552595 32.878781897604505 25.012887362828994 0 0 0
879 1 0.5192975090083881 30.80932302124819 21.990975133581525 1 0 1
4025 1 0.11718359013988297 35.6710013458784 17.64442457658408 0 -1 1
796 1 5.541237375515154 36.29055489511266 21.017849068064972 0 0 0
1810 1 0.6757040610279604 38.686817228028175 14.595369993216709 -1 0 0
3886 1 3.765994320688024 39.08406281748826 14.42162288591615 0 0 0
905 1 0.13410679618254306 32.76119197660101 24.149082115678418 0 0 0
1170 2 0 41.20491136179432 3.3711615887963746 0 0 0
1206 2 1.230500000000001 40.494481855556494 3.3711615887963746 0 0 0
1208 2 2.4610000000000003 41.20491136179432 3.3711615887963746 0 0 0
1251 2 3.6914999999999996 40.494481855556494 3.3711615887963746 0 0 0
1253 2 4.922000000000003 41.20491136179432 3.3711615887963746 0 0 0
1296 2 6.152499999999998 40.494481855556494 3.3711615887963746 0 0 0
1202 2 0 42.62577037427 3.3711615887963746 0 0 0
1204 2 1.2304999999999993 43.33619988050783 3.3711615887963746 0 0 0
1247 2 2.4610000000000003 42.62577037427 3.3711615887963746 0 0 0
1249 2 3.691500000000002 43.33619988050783 3.3711615887963746 0 0 0
1292 2 4.922000000000001 42.62577037426999 3.3711615887963746 0 0 0
1200 2 0 45.46748839922133 3.3711615887963746 0 0 0
1243 2 1.2304999999999993 44.757058892983494 3.3711615887963746 0 0 0
1245 2 2.4610000000000003 45.46748839922133 3.3711615887963746 0 0 0
1288 2 3.6914999999999996 44.757058892983494 3.3711615887963746 0 0 0
1290 2 4.922000000000001 45.46748839922133 3.3711615887963746 0 0 0
1239 2 0 46.888347411697 3.3711615887963746 0 0 0
1241 2 1.230500000000001 47.59877691793481 3.3711615887963746 0 0 0
1284 2 2.4609999999999985 46.888347411697 3.3711615887963746 0 0 0