LAMMPS data file via write_data, version 29 Sep 2021, timestep = 8000000

4065 atoms
2 atom types

0 49.22 xlo xhi
0 49.019635930410494 ylo yhi
0.9996516894109853 26.841180556870377 zlo zhi

Masses

1 18.015
2 12.01

Atoms # atomic

83 2 0 2.8417180249513345 2.55622311397856 0 0 0
85 2 0 0 2.55622311397856 0 0 0
87 2 1.2305000000000001 0.7104295062378347 2.55622311397856 0 0 0
94 2 1.2305000000000001 2.1312885187135 2.55622311397856 0 0 0
96 2 2.4610000000000003 2.8417180249513345 2.55622311397856 0 0 0
98 2 2.4610000000000003 0 2.55622311397856 0 0 0
100 2 3.6915000000000004 0.7104295062378347 2.55622311397856 0 0 0
115 2 3.6914999999999996 2.1312885187135 2.55622311397856 0 0 0
117 2 4.922000000000001 2.841718024951333 2.55622311397856 0 0 0
119 2 4.922000000000001 0 2.55622311397856 0 0 0
90 2 0 4.262577037427 2.55622311397856 0 0 0
111 2 2.4610000000000003 4.262577037427 2.55622311397856 0 0 0
140 2 4.922000000000001 4.262577037426998 2.55622311397856 0 0 0
92 2 1.2305000000000001 4.973006543664834 2.55622311397856 0 0 0
107 2 1.2305000000000001 6.393865556140498 2.55622311397856 0 0 0
113 2 3.6914999999999996 4.973006543664834 2.55622311397856 0 0 0
136 2 3.6914999999999996 6.393865556140498 2.55622311397856 0 0 0
88 2 0 7.104295062378334 2.55622311397856 0 0 0
103 2 0 8.525154074854 2.55622311397856 0 0 0
105 2 1.2305000000000001 9.235583581091834 2.55622311397856 0 0 0
109 2 2.4610000000000003 7.104295062378334 2.55622311397856 0 0 0
132 2 2.4610000000000003 8.525154074854 2.55622311397856 0 0 0
134 2 3.6915000000000004 9.235583581091834 2.55622311397856 0 0 0
138 2 4.922000000000001 7.104295062378334 2.55622311397856 0 0 0
169 2 4.922000000000001 8.525154074854 2.55622311397856 0 0 0
84 2 0 1.420859012475665 5.669365963112999 0 0 0
86 2 0 0 5.669365963112999 0 0 0
95 2 1.2305000000000001 2.1312885187135 5.669365963112999 0 0 0
97 2 2.4610000000000003 1.420859012475665 5.669365963112999 0 0 0
99 2 2.4610000000000003 0 5.669365963112999 0 0 0
412 2 0 2.8417180249513345 8.782508812250358 0 0 0
413 2 0 0 8.782508812250358 0 0 0
414 2 1.2305000000000001 0.7104295062378347 8.782508812250358 0 0 0
418 2 1.2305000000000001 2.1312885187135 8.782508812250358 0 0 0
419 2 2.4610000000000003 2.8417180249513345 8.782508812250358 0 0 0
420 2 2.4610000000000003 0 8.782508812250358 0 0 0
116 2 3.6914999999999996 2.1312885187135 5.669365963112999 0 0 0
118 2 4.922000000000001 1.420859012475665 5.669365963112999 0 0 0
120 2 4.922000000000001 0 5.669365963112999 0 0 0
421 2 3.6915000000000004 0.7104295062378347 8.782508812250358 0 0 0
429 2 3.6914999999999996 2.1312885187135 8.782508812250358 0 0 0
430 2 4.922000000000001 2.841718024951333 8.782508812250358 0 0 0
431 2 4.922000000000001 0 8.782508812250358 0 0 0
91 2 0 4.262577037427 5.669365963112999 0 0 0
93 2 1.2305000000000001 3.5521475311891644 5.669365963112999 0 0 0
112 2 2.4610000000000003 4.262577037427 5.669365963112999 0 0 0
416 2 0 4.262577037427 8.782508812250358 0 0 0
427 2 2.4610000000000003 4.262577037427 8.782508812250358 0 0 0
114 2 3.6914999999999996 3.5521475311891644 5.669365963112999 0 0 0
141 2 4.922000000000001 4.262577037426998 5.669365963112999 0 0 0
442 2 4.922000000000001 4.262577037426998 8.782508812250358 0 0 0
89 2 0 5.683436049902664 5.669365963112999 0 0 0
108 2 1.2305000000000001 6.393865556140498 5.669365963112999 0 0 0
110 2 2.4610000000000003 5.683436049902664 5.669365963112999 0 0 0
417 2 1.2305000000000001 4.973006543664834 8.782508812250358 0 0 0
425 2 1.2305000000000001 6.393865556140498 8.782508812250358 0 0 0
137 2 3.6914999999999996 6.393865556140498 5.669365963112999 0 0 0
139 2 4.922000000000001 5.683436049902664 5.669365963112999 0 0 0
428 2 3.6914999999999996 4.973006543664834 8.782508812250358 0 0 0
440 2 3.6914999999999996 6.393865556140498 8.782508812250358 0 0 0
104 2 0 8.525154074854 5.669365963112999 0 0 0
106 2 1.2305000000000001 7.814724568616164 5.669365963112999 0 0 0
133 2 2.4610000000000003 8.525154074854 5.669365963112999 0 0 0
415 2 0 7.104295062378334 8.782508812250358 0 0 0
423 2 0 8.525154074854 8.782508812250358 0 0 0
424 2 1.2305000000000001 9.235583581091834 8.782508812250358 0 0 0
426 2 2.4610000000000003 7.104295062378334 8.782508812250358 0 0 0
438 2 2.4610000000000003 8.525154074854 8.782508812250358 0 0 0
135 2 3.6914999999999996 7.814724568616164 5.669365963112999 0 0 0
170 2 4.922000000000001 8.525154074854 5.669365963112999 0 0 0
439 2 3.6915000000000004 9.235583581091834 8.782508812250358 0 0 0
441 2 4.922000000000001 7.104295062378334 8.782508812250358 0 0 0
457 2 4.922000000000001 8.525154074854 8.782508812250358 0 0 0
1830 1 2.395066235534896 3.954450155376769 11.795453883337506 -1 3 0
2965 1 3.014258886335643 1.2701609383406103 11.395245670976315 -1 -1 0
2026 1 4.710371532198492 5.442682239963685 11.54983106324695 0 1 0
1011 1 1.3915887671343454 9.07775978165913 11.19017884106894 -1 -1 0
902 1 3.6851068166727163 7.894082036729257 12.083760797991552 0 -3 -1
3813 1 6.014178592793872 9.300326921423574 11.219339184245824 2 0 0
69 1 2.7093408759239885 1.259767468220084 15.412881678530974 -2 0 0
3147 1 2.208096531939367 3.7480253868845606 14.527569273929108 5 -1 -1
4000 1 4.50461183470629 7.945604073868584 22.708537777633733 1 1 0
1919 1 4.368218074164413 5.223842848742881 15.20565853141106 -3 1 1
3936 1 1.6786461550403378 8.758468250559316 15.497729885478037 0 -3 -1
939 1 4.295269817100442 8.014588010473355 14.618144842527082 2 0 0
2821 1 1.4829001846161622 9.020934516884505 18.13940134197607 2 2 -1
2971 1 2.3574986641692965 6.631967439694505 25.782285735834094 0 -2 -1
1036 1 2.6846479564068075 1.024816588624884 18.04926951160222 0 -1 -1
903 1 4.78422781515425 2.6374776076888287 18.980725172789228 0 4 -1
2915 1 4.8929991389595875 2.427000959827139 21.619515222769063 0 2 0
3960 1 4.6925564596944245 7.805658127415993 25.454847154271334 -2 -1 -1
2901 1 4.2656896509934485 5.13332207009548 18.146149196797364 -1 2 -1
1858 1 2.1689349303911385 6.636289082231461 21.717754538988274 -2 1 -1
3003 1 1.8500728139862266 6.408629638490667 19.02712587694501 0 1 0
4039 1 2.483050282472568 3.938246941204302 22.482660558242348 1 1 0
1969 1 5.185308983310648 2.525653593847931 25.968559446187953 -1 -2 0
2080 1 2.8553807804190994 4.024835164192066 25.359350074142856 -1 -1 0
3845 1 0.6049637280418907 1.9589212857703278 21.778696271546085 -2 -2 0
986 1 0.5609824157586165 2.5823022346385747 26.016172629278213 -1 2 0
4012 1 0.36714375049079856 2.085351364974973 19.062633677352455 3 0 0
3987 1 5.043987887270924 0.05383678618542831 22.80565974949025 0 1 1
101 2 0 11.366872099805333 2.55622311397856 0 0 0
124 2 0 12.787731112280996 2.55622311397856 0 0 0
126 2 1.2305000000000001 13.49816061851883 2.55622311397856 0 0 0
128 2 1.2305000000000001 10.656442593567498 2.55622311397856 0 0 0
130 2 2.4610000000000003 11.366872099805333 2.55622311397856 0 0 0
161 2 2.4610000000000003 12.787731112280996 2.55622311397856 0 0 0
163 2 3.6915000000000004 13.49816061851883 2.55622311397856 0 0 0
165 2 3.6914999999999996 10.6564425935675 2.55622311397856 0 0 0
167 2 4.922000000000001 11.366872099805333 2.55622311397856 0 0 0
206 2 4.922000000000001 12.787731112280996 2.55622311397856 0 0 0
208 2 6.152499999999999 13.49816061851883 2.55622311397856 0 0 0
122 2 0 15.629449137232333 2.55622311397856 0 0 0
153 2 0 17.050308149708 2.55622311397856 0 0 0
157 2 1.2305000000000001 14.919019630994494 2.55622311397856 0 0 0
159 2 2.4610000000000003 15.629449137232328 2.55622311397856 0 0 0
198 2 2.4610000000000003 17.050308149708 2.55622311397856 0 0 0
202 2 3.6915000000000004 14.919019630994494 2.55622311397856 0 0 0
204 2 4.922000000000001 15.629449137232333 2.55622311397856 0 0 0
245 2 4.922000000000001 17.050308149708 2.55622311397856 0 0 0
249 2 6.152499999999999 14.919019630994494 2.55622311397856 0 0 0
155 2 1.2305000000000001 17.76073765594583 2.55622311397856 0 0 0
194 2 1.2305000000000001 19.181596668421495 2.55622311397856 0 0 0
200 2 3.6914999999999996 17.76073765594583 2.55622311397856 0 0 0
241 2 3.6914999999999996 19.181596668421495 2.55622311397856 0 0 0
102 2 0 9.946013087329664 5.669365963112999 0 0 0
131 2 2.4610000000000003 9.946013087329664 5.669365963112999 0 0 0
168 2 4.922000000000001 9.946013087329664 5.669365963112999 0 0 0
125 2 0 12.787731112280996 5.669365963112999 0 0 0
127 2 1.2305000000000001 12.077301606043163 5.669365963112999 0 0 0
129 2 1.2305000000000001 10.656442593567498 5.669365963112999 0 0 0
162 2 2.4610000000000003 12.787731112280996 5.669365963112999 0 0 0
422 2 0 11.366872099805333 8.782508812250358 0 0 0
434 2 0 12.787731112280996 8.782508812250358 0 0 0
435 2 1.2305000000000001 13.49816061851883 8.782508812250358 0 0 0
436 2 1.2305000000000001 10.656442593567498 8.782508812250358 0 0 0
437 2 2.4610000000000003 11.366872099805333 8.782508812250358 0 0 0
453 2 2.4610000000000003 12.787731112280996 8.782508812250358 0 0 0
164 2 3.6914999999999996 12.077301606043163 5.669365963112999 0 0 0
166 2 3.6914999999999996 10.6564425935675 5.669365963112999 0 0 0
207 2 4.922000000000001 12.787731112280996 5.669365963112999 0 0 0
454 2 3.6915000000000004 13.49816061851883 8.782508812250358 0 0 0
455 2 3.6914999999999996 10.6564425935675 8.782508812250358 0 0 0
456 2 4.922000000000001 11.366872099805333 8.782508812250358 0 0 0
476 2 4.922000000000001 12.787731112280996 8.782508812250358 0 0 0
477 2 6.152499999999999 13.49816061851883 8.782508812250358 0 0 0
123 2 0 14.208590124756663 5.669365963112999 0 0 0
160 2 2.4610000000000003 14.208590124756663 5.669365963112999 0 0 0
205 2 4.922000000000001 14.208590124756663 5.669365963112999 0 0 0
154 2 0 17.050308149708 5.669365963112999 0 0 0
156 2 1.2305000000000001 16.339878643470165 5.669365963112999 0 0 0
158 2 1.2305000000000001 14.919019630994494 5.669365963112999 0 0 0
199 2 2.4610000000000003 17.050308149708 5.669365963112999 0 0 0
433 2 0 15.629449137232333 8.782508812250358 0 0 0
449 2 0 17.050308149708 8.782508812250358 0 0 0
451 2 1.2305000000000001 14.919019630994494 8.782508812250358 0 0 0
452 2 2.4610000000000003 15.629449137232328 8.782508812250358 0 0 0
472 2 2.4610000000000003 17.050308149708 8.782508812250358 0 0 0
201 2 3.6915000000000004 16.339878643470165 5.669365963112999 0 0 0
203 2 3.6915000000000004 14.919019630994494 5.669365963112999 0 0 0
246 2 4.922000000000001 17.050308149708 5.669365963112999 0 0 0
250 2 6.152499999999999 14.919019630994494 5.669365963112999 0 0 0
474 2 3.6915000000000004 14.919019630994494 8.782508812250358 0 0 0
475 2 4.922000000000001 15.629449137232333 8.782508812250358 0 0 0
496 2 4.922000000000001 17.050308149708 8.782508812250358 0 0 0
498 2 6.152499999999999 14.919019630994494 8.782508812250358 0 0 0
152 2 0 18.471167162183658 5.669365963112999 0 0 0
195 2 1.2305000000000001 19.181596668421495 5.669365963112999 0 0 0
197 2 2.4610000000000003 18.471167162183658 5.669365963112999 0 0 0
450 2 1.2305000000000001 17.76073765594583 8.782508812250358 0 0 0
470 2 1.2305000000000001 19.181596668421495 8.782508812250358 0 0 0
242 2 3.6914999999999996 19.181596668421495 5.669365963112999 0 0 0
244 2 4.922000000000001 18.471167162183658 5.669365963112999 0 0 0
473 2 3.6914999999999996 17.76073765594583 8.782508812250358 0 0 0
494 2 3.6914999999999996 19.181596668421495 8.782508812250358 0 0 0
2882 1 3.6723316509457105 13.353004557743906 11.133913718319441 0 1 0
906 1 1.5707427721129297 11.760842927475773 11.785681420262318 -2 -1 0
2083 1 3.4320481700902303 16.09557774873364 11.697629170925023 3 1 0
835 1 0.9485474793183901 17.444246322170887 11.109351375970222 -2 -1 -1
2041 1 5.575431129605214 17.6135801557407 11.718112956716823 4 -1 0
900 1 3.7380489175768217 12.8175892824003 15.06602093430746 -1 0 1
3083 1 1.3962928543448487 11.575828024243044 14.481126914909392 2 -2 0
3977 1 4.091833276722564 12.826302692422816 17.700606859647586 2 0 1
797 1 0.7701559024774619 16.676222204393767 15.260824634175803 4 0 0
25 1 1.3202865182219603 16.47522573881697 18.037308601477772 0 1 -1
927 1 0.8722857263006837 19.30472068996422 22.61411671771934 2 -4 0
1809 1 3.5559495193703734 15.547463504557415 14.35500583839095 -1 0 -1
2824 1 0.4090644543895428 19.207421921273593 14.229542485690672 -1 -1 -1
994 1 5.5614002752669345 16.918884509483252 15.091067834666758 -1 0 0
1903 1 3.942179186102718 10.228090517520394 18.87372472217534 -1 -1 -2
3030 1 1.6506096963099393 13.813627424270171 18.826850887540544 -1 -1 -2
1979 1 1.1870083035952765 14.031891561688868 21.42465452105701 -1 2 0
3996 1 4.153018823882491 10.429666747820445 21.62222720756105 -1 0 0
1831 1 1.7197979035552768 11.63818471692624 22.401535462688997 -1 0 1
910 1 3.410117996803734 15.383368863291068 22.385406268692538 -1 1 0
1097 1 3.2696775350626286 18.6983182397569 25.761801082100135 -1 3 0
3106 1 5.840149230015435 16.902358100315233 17.927480655217014 0 0 1
1978 1 3.1948376349145287 18.037288928347323 21.92326034462001 1 0 0
794 1 3.4784456504006473 17.980675148697575 18.945050996115757 0 0 0
818 1 1.860430689760763 11.690962902922742 25.31312854533138 5 2 0
1933 1 1.7645838221896057 14.28740848255706 25.73338336404593 2 -2 -1
3129 1 4.225908742325133 10.277706981074227 25.920996918166747 3 2 0
970 1 3.768735381127503 16.05943361331845 24.94830991309858 0 0 -1
3969 1 5.638561935652879 19.394045638110494 22.274865013169993 3 0 0
861 1 5.880920561768177 14.457855088755068 21.593713099839206 -2 1 0
1800 1 6.068944014294355 11.8809869010222 14.493400523853982 5 -2 -1
1936 1 5.453633239136779 19.606365628860942 14.412897335346345 4 1 0
151 2 0 19.89202617465933 2.55622311397856 0 0 0
196 2 2.4610000000000003 19.89202617465933 2.55622311397856 0 0 0
243 2 4.922000000000001 19.89202617465933 2.55622311397856 0 0 0
188 2 0 24.154603212086325 2.55622311397856 0 0 0
190 2 0 21.312885187135 2.55622311397856 0 0 0
192 2 1.2304999999999993 22.023314693372832 2.55622311397856 0 0 0
233 2 1.2304999999999993 23.4441737058485 2.55622311397856 0 0 0
235 2 2.4610000000000003 24.154603212086325 2.55622311397856 0 0 0
237 2 2.4610000000000003 21.312885187134995 2.55622311397856 0 0 0
239 2 3.6914999999999996 22.023314693372832 2.55622311397856 0 0 0
280 2 3.6915000000000004 23.4441737058485 2.55622311397856 0 0 0
282 2 4.922000000000001 24.154603212086325 2.55622311397856 0 0 0
284 2 4.922000000000001 21.312885187134995 2.55622311397856 0 0 0
286 2 6.152499999999999 22.023314693372832 2.55622311397856 0 0 0
1130 2 0 25.575462224561992 2.55622311397856 0 0 0
1132 2 1.2305000000000001 26.285891730799833 2.55622311397856 0 0 0
1140 2 1.230500000000001 27.706750743275496 2.55622311397856 0 0 0
1144 2 2.4610000000000003 25.575462224561992 2.55622311397856 0 0 0
1146 2 3.691499999999999 26.285891730799833 2.55622311397856 0 0 0
1162 2 3.6914999999999996 27.706750743275496 2.55622311397856 0 0 0
1166 2 4.922000000000001 25.575462224561992 2.55622311397856 0 0 0
1192 2 6.152499999999999 27.706750743275496 2.55622311397856 0 0 0
1128 2 0 28.417180249513333 2.55622311397856 0 0 0
1142 2 2.4610000000000003 28.417180249513326 2.55622311397856 0 0 0
1164 2 4.922000000000001 28.417180249513336 2.55622311397856 0 0 0
193 2 1.2305000000000001 20.60245568089716 5.669365963112999 0 0 0
448 2 0 19.89202617465933 8.782508812250358 0 0 0
471 2 2.4610000000000003 19.89202617465933 8.782508812250358 0 0 0
240 2 3.6915000000000004 20.60245568089716 5.669365963112999 0 0 0
495 2 4.922000000000001 19.89202617465933 8.782508812250358 0 0 0
189 2 0 22.733744199610655 5.669365963112999 0 0 0
191 2 0 21.312885187135 5.669365963112999 0 0 0
234 2 1.2304999999999993 23.4441737058485 5.669365963112999 0 0 0
236 2 2.4610000000000003 22.733744199610655 5.669365963112999 0 0 0
238 2 2.4610000000000003 21.312885187134995 5.669365963112999 0 0 0
467 2 0 24.154603212086325 8.782508812250358 0 0 0
468 2 0 21.312885187135 8.782508812250358 0 0 0
469 2 1.2304999999999993 22.023314693372832 8.782508812250358 0 0 0
490 2 1.2304999999999993 23.4441737058485 8.782508812250358 0 0 0
491 2 2.4610000000000003 24.154603212086325 8.782508812250358 0 0 0
492 2 2.4610000000000003 21.312885187134995 8.782508812250358 0 0 0
281 2 3.6915000000000004 23.4441737058485 5.669365963112999 0 0 0
283 2 4.922000000000001 22.733744199610655 5.669365963112999 0 0 0
285 2 4.922000000000001 21.312885187134995 5.669365963112999 0 0 0
493 2 3.6914999999999996 22.023314693372832 8.782508812250358 0 0 0
514 2 3.6915000000000004 23.4441737058485 8.782508812250358 0 0 0
515 2 4.922000000000001 24.154603212086325 8.782508812250358 0 0 0
516 2 4.922000000000001 21.312885187134995 8.782508812250358 0 0 0
517 2 6.152499999999999 22.023314693372832 8.782508812250358 0 0 0
1129 2 0 26.99632123703766 5.669365963112999 0 0 0
1131 2 0 25.575462224561992 5.669365963112999 0 0 0
1133 2 1.2305000000000001 24.865032718324155 5.669365963112999 0 0 0
1141 2 1.230500000000001 27.706750743275496 5.669365963112999 0 0 0
1143 2 2.4610000000000003 26.99632123703766 5.669365963112999 0 0 0
1145 2 2.4610000000000003 25.575462224561992 5.669365963112999 0 0 0
1444 2 0 25.575462224561992 8.782508812250358 0 0 0
1445 2 1.2305000000000001 26.285891730799833 8.782508812250358 0 0 0
1449 2 1.230500000000001 27.706750743275496 8.782508812250358 0 0 0
1451 2 2.4610000000000003 25.575462224561992 8.782508812250358 0 0 0
1147 2 3.6914999999999996 24.865032718324166 5.669365963112999 0 0 0
1163 2 3.6914999999999996 27.706750743275496 5.669365963112999 0 0 0
1165 2 4.922000000000001 26.99632123703766 5.669365963112999 0 0 0
1167 2 4.922000000000001 25.575462224561992 5.669365963112999 0 0 0
1169 2 6.152499999999999 24.865032718324155 5.669365963112999 0 0 0
1193 2 6.152499999999999 27.706750743275496 5.669365963112999 0 0 0
1452 2 3.691499999999999 26.285891730799833 8.782508812250358 0 0 0
1460 2 3.6914999999999996 27.706750743275496 8.782508812250358 0 0 0
1462 2 4.922000000000001 25.575462224561992 8.782508812250358 0 0 0
1475 2 6.152499999999999 27.706750743275496 8.782508812250358 0 0 0
1139 2 1.2304999999999993 29.127609755751163 5.669365963112999 0 0 0
1443 2 0 28.417180249513333 8.782508812250358 0 0 0
1450 2 2.4610000000000003 28.417180249513326 8.782508812250358 0 0 0
1161 2 3.691499999999999 29.127609755751152 5.669365963112999 0 0 0
1191 2 6.152499999999998 29.127609755751152 5.669365963112999 0 0 0
1461 2 4.922000000000001 28.417180249513336 8.782508812250358 0 0 0
2841 1 2.7750301240353488 21.753520192257746 11.354734658155554 2 2 0
2066 1 5.072223407986721 20.462934160908556 11.781478660850983 -1 2 0
3922 1 2.6244876572627507 24.679708184816175 11.185817290265241 -2 1 0
907 1 4.765359567212613 28.59724223973853 11.740446031704066 0 -1 0
2023 1 4.648421664159082 25.813310708416363 12.221739541931582 3 -3 1
1021 1 0.45344039322014973 20.255746113926328 11.415339983199566 -1 -1 1
884 1 0.06464201012212811 25.841458940851112 11.487531915377328 3 0 0
2053 1 1.395585789415748 23.952667264670925 16.912662390349546 1 2 0
4042 1 2.909980254903355 20.550005539891306 15.202803210776086 0 0 -1
4050 1 3.9690629836274858 24.489645742617423 17.750104574256795 1 3 0
2962 1 2.9237393619693446 20.572191706056543 18.120368683126234 -2 1 1
966 1 4.97202283018912 24.898525036759224 14.775949328466865 -1 -3 0
2952 1 0.23553557662474156 27.93422853173765 25.386588507136924 2 0 1
4018 1 4.281847442221702 29.25405611797167 14.276436424158085 2 -1 -1
2040 1 5.908738499399348 27.23022672251331 15.670333706210888 -2 1 -1
1002 1 4.655679987432708 27.13920222705741 18.356129907708247 2 2 -1
2889 1 0.8992763009287038 19.766343501636147 25.403282382739192 -1 0 -1
2948 1 4.644436516945397 28.223842944509997 25.444316497955917 -3 1 0
2955 1 1.5294965486885583 21.28701380193508 21.06505104476492 -1 2 0
1848 1 4.288949988516088 21.70216606575601 21.275600427772535 2 0 1
3078 1 5.161433492811996 22.11395427280245 18.77275063883309 0 -1 0
3888 1 0.40238780872303614 22.067338633146395 18.619577392364974 1 -1 0
1983 1 1.950406709093485 27.53601652711425 19.247701210115608 0 -2 -2
2836 1 1.8455895925592103 28.038000447983162 21.932523783588397 1 -1 -1
1869 1 2.8583791358345545 24.052528729407786 26.102684757611378 1 4 0
1846 1 0.7057754925953638 22.6834053588432 25.54838577234913 0 2 0
3957 1 2.3153006971185377 25.53287158375099 22.956429560939352 -1 1 -1
982 1 0.23434431930713334 23.562534206907497 22.8439441612063 0 -4 -1
4053 1 5.458732962129074 20.233400482577217 24.903277536071563 0 1 0
1918 1 4.654148130651587 24.037851672464075 22.800113367484467 0 1 0
2927 1 5.37864771580536 22.81793070041633 25.795256541732307 2 2 0
1037 1 2.5629938943138 26.513542142048227 25.421136784259367 5 1 -1
1860 1 2.462630103246001 23.124921346466117 14.0514588295649 0 0 0
2957 1 4.714647559194853 28.74800059342433 22.880449977592324 1 1 -1
3933 1 0.06367895890962672 24.304778255965765 13.977882579723799 2 0 -1
1136 2 0 29.83803926198899 2.55622311397856 0 0 0
1138 2 1.2304999999999993 30.54846876822683 2.55622311397856 0 0 0
1158 2 2.4610000000000003 29.83803926198899 2.55622311397856 0 0 0
1160 2 3.6915000000000004 30.54846876822683 2.55622311397856 0 0 0
1188 2 4.922000000000001 29.83803926198899 2.55622311397856 0 0 0
1134 2 0 32.67975728694033 2.55622311397856 0 0 0
1150 2 0 34.100616299416 2.55622311397856 0 0 0
1154 2 1.2304999999999993 31.969327780702493 2.55622311397856 0 0 0
1156 2 2.4610000000000003 32.67975728694034 2.55622311397856 0 0 0
1180 2 2.4609999999999985 34.100616299416 2.55622311397856 0 0 0
1184 2 3.6914999999999996 31.969327780702493 2.55622311397856 0 0 0
1186 2 4.9220000000000015 32.67975728694034 2.55622311397856 0 0 0
1218 2 4.922000000000001 34.100616299416 2.55622311397856 0 0 0
1152 2 1.230500000000001 34.81104580565383 2.55622311397856 0 0 0
1182 2 3.691500000000002 34.81104580565383 2.55622311397856 0 0 0
1148 2 0 36.94233432436734 2.55622311397856 0 0 0
1172 2 0 38.36319333684299 2.55622311397856 0 0 0
1176 2 1.2304999999999993 36.231904818129486 2.55622311397856 0 0 0
1178 2 2.461000000000002 36.94233432436734 2.55622311397856 0 0 0
1210 2 2.4610000000000003 38.36319333684299 2.55622311397856 0 0 0
1214 2 3.6914999999999996 36.231904818129486 2.55622311397856 0 0 0
1216 2 4.922000000000001 36.942334324367316 2.55622311397856 0 0 0
1255 2 4.922000000000001 38.36319333684299 2.55622311397856 0 0 0
1174 2 1.230500000000001 39.07362284308084 2.55622311397856 0 0 0
1212 2 3.691500000000002 39.07362284308082 2.55622311397856 0 0 0
1135 2 0 31.258898274464656 5.669365963112999 0 0 0
1137 2 0 29.83803926198899 5.669365963112999 0 0 0
1157 2 2.4609999999999985 31.258898274464656 5.669365963112999 0 0 0
1159 2 2.4610000000000003 29.83803926198899 5.669365963112999 0 0 0
1447 2 0 29.83803926198899 8.782508812250358 0 0 0
1448 2 1.2304999999999993 30.54846876822683 8.782508812250358 0 0 0
1458 2 2.4610000000000003 29.83803926198899 8.782508812250358 0 0 0
1187 2 4.921999999999998 31.258898274464656 5.669365963112999 0 0 0
1189 2 4.922000000000001 29.83803926198899 5.669365963112999 0 0 0
1459 2 3.6915000000000004 30.54846876822683 8.782508812250358 0 0 0
1473 2 4.922000000000001 29.83803926198899 8.782508812250358 0 0 0
1151 2 0 34.100616299416 5.669365963112999 0 0 0
1153 2 1.2304999999999993 33.39018679317816 5.669365963112999 0 0 0
1155 2 1.2304999999999993 31.969327780702493 5.669365963112999 0 0 0
1181 2 2.4609999999999985 34.100616299416 5.669365963112999 0 0 0
1446 2 0 32.67975728694033 8.782508812250358 0 0 0
1454 2 0 34.100616299416 8.782508812250358 0 0 0
1456 2 1.2304999999999993 31.969327780702493 8.782508812250358 0 0 0
1457 2 2.4610000000000003 32.67975728694034 8.782508812250358 0 0 0
1469 2 2.4609999999999985 34.100616299416 8.782508812250358 0 0 0
1183 2 3.691499999999998 33.39018679317816 5.669365963112999 0 0 0
1185 2 3.6914999999999996 31.969327780702493 5.669365963112999 0 0 0
1219 2 4.922000000000001 34.100616299416 5.669365963112999 0 0 0
1221 2 6.152499999999999 33.39018679317816 5.669365963112999 0 0 0
1471 2 3.6914999999999996 31.969327780702493 8.782508812250358 0 0 0
1472 2 4.9220000000000015 32.67975728694034 8.782508812250358 0 0 0
1488 2 4.922000000000001 34.100616299416 8.782508812250358 0 0 0
1455 2 1.230500000000001 34.81104580565383 8.782508812250358 0 0 0
1470 2 3.691500000000002 34.81104580565383 8.782508812250358 0 0 0
1149 2 0 35.52147531189165 5.669365963112999 0 0 0
1173 2 0 38.36319333684299 5.669365963112999 0 0 0
1175 2 1.2304999999999993 37.65276383060515 5.669365963112999 0 0 0
1177 2 1.2304999999999993 36.231904818129486 5.669365963112999 0 0 0
1179 2 2.4609999999999985 35.52147531189166 5.669365963112999 0 0 0
1211 2 2.4610000000000003 38.36319333684299 5.669365963112999 0 0 0
1453 2 0 36.94233432436734 8.782508812250358 0 0 0
1465 2 0 38.36319333684299 8.782508812250358 0 0 0
1467 2 1.2304999999999993 36.231904818129486 8.782508812250358 0 0 0
1468 2 2.461000000000002 36.94233432436734 8.782508812250358 0 0 0
1484 2 2.4610000000000003 38.36319333684299 8.782508812250358 0 0 0
1213 2 3.6914999999999996 37.65276383060515 5.669365963112999 0 0 0
1215 2 3.6914999999999996 36.231904818129486 5.669365963112999 0 0 0
1217 2 4.922000000000001 35.52147531189166 5.669365963112999 0 0 0
1256 2 4.922000000000001 38.36319333684299 5.669365963112999 0 0 0
1258 2 6.152499999999998 37.65276383060515 5.669365963112999 0 0 0
1486 2 3.6914999999999996 36.231904818129486 8.782508812250358 0 0 0
1487 2 4.922000000000001 36.942334324367316 8.782508812250358 0 0 0
1506 2 4.922000000000001 38.36319333684299 8.782508812250358 0 0 0
1466 2 1.230500000000001 39.07362284308084 8.782508812250358 0 0 0
1485 2 3.691500000000002 39.07362284308082 8.782508812250358 0 0 0
2829 1 2.304347364014503 32.861869143374264 11.753198490792185 3 0 1
915 1 4.7087804183819815 34.313768854517164 11.265778243511848 0 1 0
3979 1 3.946405863778183 36.770112738558865 11.612605452592229 -1 0 1
3798 1 1.3801975006164473 37.93915716945147 11.626111164156335 0 -2 0
4060 1 2.2675777717522188 29.926995857857293 11.345164622767225 0 -1 -1
867 1 1.9121775556994538 30.36446030894905 15.485172674721321 -2 2 1
2991 1 1.7701979935894072 32.910568298465996 14.368835697394612 3 1 1
3089 1 3.8738854142193295 34.2839831453197 15.485990363162582 -3 0 -1
1004 1 2.3395003871835574 30.085031930899756 18.20211447788094 -2 0 0
2100 1 1.4771750882682486 38.30239142339109 15.150764954337644 0 -3 0
35 1 3.7573424901829986 36.690867458670475 14.364989173958254 1 -3 1
3986 1 1.5123555045026797 37.934652342669814 17.876932597296676 -1 0 0
53 1 1.2469893739045703 34.934293215620734 25.95226708033086 3 1 -1
2845 1 4.3780821898906686 31.59883389042089 19.327268812555598 1 1 0
1834 1 4.660146957123935 31.56412388530516 21.968447678697718 -1 -1 0
2982 1 4.316705701284475 34.20542897448562 18.177028034599875 3 3 0
2868 1 1.7340221680389911 35.08738396726089 18.880227438868456 -1 -3 0
1048 1 1.710206205391824 35.24999262255729 21.829936565581658 2 -2 -1
800 1 2.1938640555284543 32.58841472410954 22.735440049076278 -2 0 0
3056 1 4.429057163837379 30.933921918913008 25.81910771598719 0 -1 -1
3989 1 2.0261493930888554 32.332951829048085 25.564454093752943 0 0 0
2021 1 3.5794594700301317 36.50879043295569 25.574936476558722 2 2 -1
1958 1 3.8355839880034837 36.66429147802023 22.668201569127724 -1 0 0
2879 1 5.868679540972564 38.333656887457956 18.27595043051137 0 0 -1
4035 1 6.032542791866822 35.414032450031534 26.109428911880673 3 2 0
67 1 5.931359352249654 38.10943677830727 15.43812470096151 1 -1 1
3148 1 3.734930030012064 39.19557586609544 26.183862837102485 1 1 -1
790 1 0.04849493190579324 31.54088217727225 19.009751165078573 -1 -1 0
27 1 0.009305251866621234 30.620430505977534 26.243624568893672 -1 1 0
1170 2 0 41.20491136179432 2.55622311397856 0 0 0
1206 2 1.230500000000001 40.494481855556494 2.55622311397856 0 0 0
1208 2 2.4610000000000003 41.20491136179432 2.55622311397856 0 0 0
1251 2 3.6914999999999996 40.494481855556494 2.55622311397856 0 0 0
1253 2 4.922000000000003 41.20491136179432 2.55622311397856 0 0 0
1296 2 6.152499999999998 40.494481855556494 2.55622311397856 0 0 0
1202 2 0 42.62577037427 2.55622311397856 0 0 0
1204 2 1.2304999999999993 43.33619988050783 2.55622311397856 0 0 0
1247 2 2.4610000000000003 42.62577037427 2.55622311397856 0 0 0
1249 2 3.691500000000002 43.33619988050783 2.55622311397856 0 0 0
1292 2 4.922000000000001 42.62577037426999 2.55622311397856 0 0 0
1200 2 0 45.46748839922133 2.55622311397856 0 0 0
1243 2 1.2304999999999993 44.757058892983494 2.55622311397856 0 0 0
1245 2 2.4610000000000003 45.46748839922133 2.55622311397856 0 0 0
1288 2 3.6914999999999996 44.757058892983494 2.55622311397856 0 0 0
1290 2 4.922000000000001 45.46748839922133 2.55622311397856 0 0 0
1239 2 0 46.888347411697 2.55622311397856 0 0 0
1241 2 1.230500000000001 47.59877691793481 2.55622311397856 0 0 0
1284 2 2.4609999999999985 46.888347411697 2.55622311397856 0 0 0
1286 2 3.6914999999999996 47.598776917934835 2.55622311397856 0 0 0
1329 2 4.922000000000001 46.888347411697 2.55622311397856 0 0 0
1171 2 0 39.78405234931866 5.669365963112999 0 0 0
1205 2 1.230500000000001 41.91534086803216 5.669365963112999 0 0 0
1207 2 1.230500000000001 40.494481855556494 5.669365963112999 0 0 0
1209 2 2.4610000000000003 39.78405234931866 5.669365963112999 0 0 0
1464 2 0 41.20491136179432 8.782508812250358 0 0 0
1482 2 1.230500000000001 40.494481855556494 8.782508812250358 0 0 0
1483 2 2.4610000000000003 41.20491136179432 8.782508812250358 0 0 0
1250 2 3.6914999999999996 41.91534086803216 5.669365963112999 0 0 0
1252 2 3.6914999999999996 40.494481855556494 5.669365963112999 0 0 0
1254 2 4.922000000000001 39.78405234931866 5.669365963112999 0 0 0
1295 2 6.152499999999998 41.91534086803216 5.669365963112999 0 0 0
1297 2 6.152499999999998 40.494481855556494 5.669365963112999 0 0 0
1504 2 3.6914999999999996 40.494481855556494 8.782508812250358 0 0 0
1505 2 4.922000000000003 41.20491136179432 8.782508812250358 0 0 0
1526 2 6.152499999999998 40.494481855556494 8.782508812250358 0 0 0
1201 2 0 44.04662938674566 5.669365963112999 0 0 0
1203 2 0 42.62577037427 5.669365963112999 0 0 0