
# Create simulation box and atoms

read_data data.ML_graphite_1atm_240K
Reading data file ...
  orthogonal box = (0.0000000 0.0000000 2.0829560) to (49.220000 49.019636 25.757876)
  8 by 5 by 2 MPI processor grid
  reading atoms ...
  4065 atoms
  reading velocities ...
  4065 velocities
  read_data CPU = 0.012 seconds
group water type 1
1305 atoms in group water
group graphite type 2
2760 atoms in group graphite

# Define potential

pair_style sw
pair_coeff * * MLC_e.sw mW C


# Fix graphite atoms in place

fix 5 graphite setforce 0.0 0.0 0.0
velocity graphite set 0.0 0.0 0.0


# Equilibration of molecular water

# Add velocity/set timestep

velocity	    water create ${TEMP} ${SEED} rot yes dist gaussian
velocity	    water create 240 ${SEED} rot yes dist gaussian
velocity	    water create 240 24077 rot yes dist gaussian
timestep	    5.0

# Define output

compute			1 water msd
compute			3 water temp
thermo	    	50
thermo_style	custom step temp press vol etotal ke pe c_1[4] c_3

# Neighbor lists

neigh_modify    delay 0 every 1 check yes

# Set fixes

fix             1 water momentum 10 linear 1 1 1 rescale
fix             2 water nve
fix             3 water temp/csvr ${TEMP} ${TEMP} 500.0 ${SEED}
fix             3 water temp/csvr 240 ${TEMP} 500.0 ${SEED}
fix             3 water temp/csvr 240 240 500.0 ${SEED}
fix             3 water temp/csvr 240 240 500.0 24077
fix             4 water press/berendsen z ${PRES} ${PRES} 1000.0 modulus 20000
fix             4 water press/berendsen z 1 ${PRES} 1000.0 modulus 20000
fix             4 water press/berendsen z 1 1 1000.0 modulus 20000

# Run 0.5 ns equilibration

dump		    1 all atom 2000 ${DIR}/eq.${NAME}-${TEMP}.dump
dump		    1 all atom 2000 run_14/eq.${NAME}-${TEMP}.dump
dump		    1 all atom 2000 run_14/eq.het_freeze_14-${TEMP}.dump
dump		    1 all atom 2000 run_14/eq.het_freeze_14-240.dump

reset_timestep  0

run	            100000
Neighbor list info ...
  update every 1 steps, delay 0 steps, check yes
  max neighbors/atom: 2000, page size: 100000
  master list distance cutoff = 6.6747184
  ghost atom cutoff = 6.6747184
  binsize = 3.3373592, bins = 15 15 8
  1 neighbor lists, perpetual/occasional/extra = 1 0 0
  (1) pair sw, perpetual
      attributes: full, newton on
      pair build: full/bin/atomonly
      stencil: full/bin/3d
      bin: standard
Per MPI rank memory allocation (min/avg/max) = 4.467 | 4.471 | 4.473 Mbytes
Step Temp Press Volume TotEng KinEng PotEng c_1[4] c_3 
       0    77.007874   -452.08497    57121.581   -12745.801    932.87431   -13678.675            0          240 
      50    76.937911    -573.5059    57183.855   -12752.795    932.02678   -13684.822   0.52773933    239.78196 
     100    78.164871    -161.7017    57218.543    -12743.56    946.89019   -13690.451   0.87321121    243.60586 
     150    78.154934   -415.33626    57200.929   -12757.203    946.76982   -13703.973    1.1094457    243.57489 
     200    77.169466   -527.77066     57199.35   -12793.257    934.83184   -13728.089    1.4024769    240.50361 
     250    73.663341   -922.59097    57129.581   -12772.895    892.35859   -13665.254    1.6476562    229.57655 
     300    75.954413   -882.64956    57088.475   -12769.416    920.11268   -13689.529     1.869956    236.71682 
     350    77.469441   -549.96502    57038.982   -12779.111    938.46574   -13717.576    2.0954866     241.4385 
     400    74.906421   -294.74401    57066.796   -12777.468    907.41729   -13684.886    2.4145744    233.45069 
     450    75.273156   -356.89475    57088.508   -12784.789    911.85992   -13696.648    2.7014061    234.59364 
     500    71.617391    -380.9625    57128.953   -12805.272    867.57394   -13672.846    2.8806636    223.20021 
     550    75.224123   -428.50862    57169.846   -12795.106    911.26593   -13706.372    3.0451074    234.44083 
     600    74.647777   -447.08843    57222.032    -12784.88    904.28407   -13689.164    3.3175851    232.64461 
     650    77.594434   -386.30822    57331.684   -12766.175    939.97991   -13706.154    3.5628895    241.82805 
     700    76.999748   -49.715383    57405.031   -12741.812    932.77588   -13674.588    3.7968581    239.97468 
     750    76.873694   -409.27728    57450.852   -12760.967    931.24886   -13692.216    3.9803555    239.58182 
     800    73.771169   -281.65364    57501.296   -12775.347    893.66483   -13669.012    4.3262746     229.9126 
     850    76.304579   -697.18257    57525.909   -12765.785    924.35459   -13690.139    4.5233588    237.80814 
     900    76.863574   -485.67955    57540.891   -12768.429    931.12627   -13699.555    4.8038328    239.55028 
     950    75.014217   -370.57328    57561.108   -12786.547    908.72313    -13695.27    5.0289298    233.78664 
    1000    75.655783   -317.85709     57587.15   -12761.287    916.49507   -13677.782    5.2472704    235.78612 
    1050    76.826232   -198.11655    57648.566     -12714.2     930.6739   -13644.874    5.3613608     239.4339 
    1100    76.724137   -983.31563     57628.07   -12706.901    929.43712   -13636.338    5.5386432    239.11572 
    1150    77.187022   -676.97815    57609.236   -12665.457    935.04451   -13600.502    5.8294611    240.55833 
    1200    78.901884    -647.6159    57567.026   -12680.544    955.81837   -13636.362    6.0878274     245.9028 
    1250    79.051184   -645.04622     57556.62   -12706.168    957.62699   -13663.795    6.3408129    246.36811 
    1300     79.95119   -385.75996    57564.488   -12700.421    968.52968   -13668.951    6.4101826    249.17303 
    1350    76.870033    -796.0354    57553.078    -12751.06     931.2045   -13682.265    6.4286218    239.57041 
    1400    75.345798   -523.97443    57501.808   -12761.024     912.7399   -13673.764    6.5289362    234.82003 
    1450    75.436902   -961.55394    57484.258   -12782.638    913.84354   -13696.481     6.807725    235.10397 
    1500    73.571333   -472.20508    57507.668   -12796.918    891.24402   -13688.162    6.9851075     229.2898 
    1550    77.583021   -600.15454    57486.246   -12791.393    939.84165   -13731.234     7.114181    241.79248 
    1600    73.435379   -554.96377    57458.721   -12797.411    889.59707   -13687.008    7.3112857    228.86609 
    1650    75.546878    -577.3699    57441.826   -12795.433    915.17578   -13710.609    7.4438706    235.44671 
    1700    76.579269   -295.51234    57409.285   -12798.944    927.68219   -13726.626      7.56454    238.66422 
    1750    71.479388   -346.46871    57379.435   -12815.583    865.90217   -13681.485    7.8234306    222.77012 
    1800    75.905128   -728.57148     57381.79   -12819.278    919.51564   -13738.793    7.9350024    236.56322 
    1850    76.527333   -266.21066    57438.059   -12802.046    927.05303   -13729.099    8.0938985    238.50236 
    1900    74.730971   -780.76455    57446.522   -12791.359    905.29189   -13696.651    8.3632335    232.90389 
    1950    76.050708   -514.67293    57394.262   -12779.075    921.27919   -13700.354    8.6457846    237.01693 
    2000    78.516315   -461.08154    57377.217   -12768.345    951.14758   -13719.493    9.0134571    244.70115 
    2050    79.103377   -639.87998    57448.822   -12733.408    958.25926   -13691.668    9.2811578    246.53077 
    2100    78.186325   -468.45535    57441.236    -12737.29    947.15008    -13684.44    9.5273385    243.67272 
    2150    75.704048   -724.97564    57431.614   -12767.664    917.07975   -13684.744    9.7438129    235.93654 
    2200    76.786373   -161.85521    57468.798   -12763.784    930.19105   -13693.975    9.8914205    239.30968 
    2250     76.92231    -392.2826      57521.8   -12733.737    931.83779   -13665.575    10.156161    239.73333 
    2300     76.31032   -308.04495    57576.317   -12711.853    924.42413   -13636.277    10.320931    237.82603 
    2350    76.906085   -640.45698    57589.116   -12755.502    931.64125   -13687.143    10.527759    239.68277 
    2400    76.703159   -505.30869    57641.398   -12759.516      929.183   -13688.699    10.656361    239.05034 
    2450    77.025073   -546.87432    57636.245   -12743.179    933.08266   -13676.261    10.833506     240.0536 
    2500    78.672617   -818.15315    57669.772   -12709.243    953.04103   -13662.284    11.094931    245.18828 
    2550    77.904177    -491.9001    57679.551    -12713.59    943.73214   -13657.322    11.420469    242.79339 
    2600    76.119296   -178.60362    57703.707    -12711.24    922.11007   -13633.351    11.711699    237.23069 
    2650    78.657634    -601.0907    57688.256   -12720.867    952.85953   -13673.727    11.992981    245.14158 
    2700    76.536725    -678.8965    57661.239   -12726.879    927.16681   -13654.046    12.208225    238.53163 
    2750    77.761283   -723.16307    57674.438   -12713.954    942.00112   -13655.955    12.514417    242.34805 
    2800    78.399418   -942.54991    57667.602   -12753.738     949.7315    -13703.47     12.91407    244.33684 
    2850    78.767925    -745.6456    57595.573   -12751.137    954.19559   -13705.333    13.322001    245.48531 
    2900    76.656652   -1217.3675    57498.146    -12732.65    928.61961    -13661.27    13.707773    238.90539 
    2950    76.731902   -721.14632    57502.963   -12743.274    929.53119   -13672.806    13.988348    239.13992 
    3000    76.580194    -776.3429    57418.646   -12737.983     927.6934   -13665.677    14.169553    238.66711 
    3050    75.675238   -523.44332    57380.315   -12731.593    916.73074   -13648.324    14.297872    235.84675 
    3100    77.025533   -647.18545    57260.013   -12752.633    933.08823   -13685.721    14.616818    240.05503 
    3150    77.474897   -472.15767    57195.955   -12754.616    938.53183   -13693.147    14.821083    241.45551 
    3200     76.49228   -789.46177    57164.685   -12750.447     926.6284   -13677.076    15.198552    238.39312 
    3250    77.321489   -135.05555    57188.165   -12721.696    936.67344   -13658.369    15.334341     240.9774 
    3300     79.30825   -510.39637    57161.075   -12745.367    960.74109   -13706.108    15.579273    247.16927 
    3350    76.579321   -294.51683    57205.785   -12778.549    927.68282   -13706.232    15.785335    238.66439 
    3400    76.482558   -873.07697    57241.043   -12775.357    926.51063   -13701.868    16.133863    238.36282 
    3450    75.227449   -577.84981    57249.896   -12766.693    911.30623       -13678    16.274203    234.45119 
    3500    77.273177   -372.98189    57251.987   -12754.381     936.0882   -13690.469    16.575513    240.82683 
    3550    79.238287   -481.81995    57239.222   -12738.004    959.89356   -13697.898    16.769863    246.95123 
    3600    75.557733   -669.02384    57194.052   -12804.921    915.30729   -13720.228    16.823174    235.48054 
    3650    76.394598   -647.56589    57168.709   -12788.343    925.44508   -13713.788    16.827915    238.08869 
    3700     75.95777   -647.72481    57225.627   -12783.916    920.15334    -13704.07    16.951577    236.72728 
    3750    77.674579   -681.60826    57223.049   -12764.255    940.95078   -13705.206     17.03266    242.07783 
    3800    75.605973   -724.65429    57223.695   -12785.599    915.89167    -13701.49    17.341327    235.63089 
    3850    74.378431   -624.02052    57238.388   -12817.835    901.02121   -13718.856    17.502541    231.80517 
    3900    73.951657   -141.88568    57252.348   -12805.627    895.85126   -13701.478    17.674953     230.4751 
    3950     74.27123   -405.94416     57262.26   -12814.049    899.72258   -13713.772    18.019962    231.47107 
    4000    76.764557   -623.01095    57305.082   -12817.973    929.92676     -13747.9    18.255935    239.24169 
    4050    75.278416   -818.25616    57354.624   -12822.152    911.92364   -13734.076    18.588911    234.61003 
    4100    75.774928   -803.08251    57383.033   -12821.768    917.93839   -13739.707    18.719643    236.15744 
    4150    75.718951   -829.29608    57313.881   -12790.306    917.26028   -13707.566    18.908965    235.98299 
    4200    78.814971    -730.6557    57306.619   -12778.711    954.76551   -13733.477    19.236965    245.63194 
    4250    74.767301   -410.29067    57345.497   -12760.349    905.73198   -13666.081    19.620562    233.01711 
    4300    74.926165    -607.9521    57320.651   -12761.445    907.65647   -13669.102    19.756716    233.51222 
    4350    79.421841   -601.04976    57332.205   -12760.917    962.11714   -13723.034    19.617014    247.52328 
    4400    76.937234   -259.54678    57309.184   -12744.636    932.01858   -13676.655    19.466047    239.77985 
    4450    75.315171    -551.9978    57279.767   -12773.749    912.36889   -13686.118    19.537829    234.72458 
    4500    75.178531   -619.40407    57286.056   -12788.826    910.71363    -13699.54    19.415838    234.29874 
    4550    77.451424   -783.68762    57282.779   -12796.993    938.24748   -13735.241    19.198576    241.38235 
    4600    76.644265   -494.31282    57284.973   -12786.346    928.46955   -13714.815    19.442476    238.86679 
    4650    75.981087   -624.08995    57315.506    -12778.54     920.4358   -13698.975     19.78569    236.79995 
    4700    78.990905   -536.55077     57354.24   -12746.959    956.89677   -13703.856    19.822979    246.18024 
    4750    76.512261   -747.50779    57360.024   -12734.622    926.87045   -13661.492    20.206342    238.45539 
    4800     75.78214   -687.39944    57373.191   -12746.987    918.02575   -13665.013    20.660382    236.17992 
    4850    76.490199     -243.085    57355.112   -12733.731     926.6032   -13660.334     20.95951    238.38663 
    4900    78.598807   -556.54469    57422.758   -12740.218     952.1469   -13692.365    21.349305    244.95825 
    4950    78.425993   -512.80079    57432.363   -12752.372    950.05342   -13702.426    21.819281    244.41966 
    5000    76.469289   -350.83546    57504.223   -12740.557    926.34988   -13666.907     22.07711    238.32146 
    5050    76.642957   -729.60239    57499.233   -12771.517     928.4537   -13699.971    22.283288    238.86271 
    5100    75.387254   -518.57419    57438.628    -12803.19     913.2421   -13716.432    22.475736    234.94923 
    5150    77.139695   -634.97098    57427.912    -12779.89     934.4712   -13714.361     22.62023    240.41083 
    5200    77.873651    -722.9741    57356.833   -12750.295    943.36234   -13693.657    22.910129    242.69825 
    5250    78.884006    -383.9844    57353.117   -12723.375     955.6018   -13678.977    23.187255    245.84709 
    5300    76.635963   -551.90217    57311.227   -12754.155    928.36898   -13682.524    23.720501    238.84091 
    5350    78.913948   -609.16921    57280.482   -12765.778    955.96451   -13721.742    23.754432     245.9404 
    5400    77.097221   -416.53001    57319.099   -12735.055    933.95667   -13669.012    23.807614    240.27846 
    5450    79.106172   -713.58983    57338.985   -12743.294    958.29312   -13701.587    23.903195    246.53948 
    5500    78.899534   -372.43876    57367.731   -12740.028    955.78991   -13695.818    24.183413    245.89548 
    5550    76.449266    -539.4289    57378.541   -12764.739    926.10733   -13690.847    24.414855    238.25906 
    5600    78.345137   -533.42564    57397.046    -12751.43    949.07393   -13700.504    24.853745    244.16767 
    5650    75.836973   -688.63641    57355.776   -12755.739    918.69001   -13674.429    25.167514    236.35081 
    5700    79.312312   -865.76725    57286.134   -12779.675    960.79031   -13740.465    25.132104    247.18193 
    5750    75.056018   -563.61762    57233.911   -12774.676     909.2295   -13683.906    25.387721    233.91691 
    5800    77.101834   -495.16227    57240.768   -12759.837    934.01254   -13693.849    25.655079    240.29283 
    5850    75.361118   -547.85401    57273.099   -12761.255    912.92549    -13674.18    25.851049    234.86778 
    5900    78.048717   -220.93616    57331.471   -12766.644     945.4831   -13712.127    26.053113    243.24385 
    5950    75.649628   -508.48024    57360.036   -12778.682     916.4205   -13695.103    26.237635    235.76694 
    6000    77.730582   -142.40787    57356.158   -12787.035     941.6292   -13728.664    26.286447    242.25237 
    6050    77.722398   -459.09871    57381.402    -12769.85    941.53007    -13711.38    26.298784    242.22686 
    6100    76.414382   -404.15488    57415.171   -12782.644    925.68474   -13708.329     26.45012    238.15034 
    6150    76.205449   -503.98285    57405.691   -12783.113    923.15373   -13706.267    26.712345    237.49919 
    6200    78.780149   -519.25345    57398.607   -12765.261    954.34368   -13719.605    27.084255    245.52341 
    6250    77.323791    -468.9863    57358.914    -12763.68    936.70133   -13700.382     27.52441    240.98457 
    6300    80.516212   -260.87267    57384.325   -12759.233    975.37436   -13734.607    27.465949    250.93396 
    6350    77.633514   -665.81323    57373.654   -12760.427    940.45333   -13700.881    27.363037    241.94985 
    6400     77.31999   -713.65444    57359.106   -12751.983    936.65529   -13688.638    27.410581    240.97273 
    6450    77.472168   -399.23601    57374.346   -12776.186    938.49878   -13714.685    27.623314      241.447 
    6500    76.644515   -431.40304    57355.356   -12749.603    928.47257   -13678.075    27.655345    238.86757 
    6550    76.722577   -635.24966    57369.673   -12760.546    929.41822   -13689.964    27.905124    239.11085 
    6600    76.144558   -253.63239    57417.792   -12802.371    922.41609   -13724.787    28.094798    237.30942 
    6650    77.177511   -681.93516    57445.123   -12758.902     934.9293   -13693.831    28.305405    240.52869 
    6700    76.894048   -936.96026    57430.889   -12727.269    931.49542   -13658.765    28.752044    239.64525 
    6750    81.734156   -596.10124    57422.405   -12718.716    990.12855   -13708.844    28.827709    254.72976 
    6800    77.248106   -393.11735    57430.141   -12711.221    935.78449   -13647.005    28.882907     240.7487 
    6850    79.677285   -542.94124    57453.154   -12715.207    965.21159   -13680.418     29.22785    248.31939 
    6900    79.063968   -489.98519    57453.114   -12714.995    957.78186   -13672.777     29.36812    246.40795 
    6950    76.351146    -778.1395    57489.269   -12718.518     924.9187   -13643.436    29.529267    237.95327 
    7000    77.952958   -317.26966    57499.304   -12699.191    944.32307   -13643.514    29.609724    242.94542 
    7050    78.425052   -308.62344    57476.405   -12704.507    950.04202   -13654.549    29.623796    244.41673 
    7100    78.204005   -644.64968    57466.735   -12695.579    947.36426   -13642.943    29.693342    243.72782 
    7150    77.692267   -545.95332    57459.645   -12699.999    941.16505   -13641.164    29.859732    242.13295 
    7200    77.538731   -125.95042    57408.588   -12732.199    939.30512   -13671.504    30.061748    241.65445 
    7250    78.636342   -451.97328    57462.205   -12754.332     952.6016   -13706.933    30.297508    245.07523 
    7300    80.207731   -414.35095    57480.846   -12752.098    971.63741   -13723.736    30.390008    249.97256 
    7350     78.31615    -781.9194    57491.676   -12749.918    948.72279   -13698.641    30.603702    244.07733 
    7400    77.478019   -693.51018        57470   -12775.107    938.56965   -13713.677    30.732402    241.46524 
    7450    75.590214   -387.64786    57472.609   -12751.125    915.70076   -13666.826     30.70459    235.58177 
    7500    75.353939   -637.81642    57531.851   -12729.702    912.83853   -13642.541    30.675753    234.84541 
    7550    75.950474   -235.06424    57572.127   -12736.492    920.06496   -13656.557    31.120726    236.70454 
    7600    78.735726   -791.47508    57607.045   -12724.188    953.80553   -13677.994    31.409294    245.38496 
    7650    77.029372   -383.99982    57569.076   -12748.097    933.13474   -13681.232    31.861017      240.067 
    7700    78.801349   -912.67087    57569.635    -12749.14     954.6005   -13703.741    32.069017    245.58948 
    7750    77.761055   -894.13401    57523.745   -12761.104    941.99836   -13703.103    32.539339    242.34734 
    7800    77.578178   -476.37968    57513.895   -12744.374    939.78298   -13684.157     32.77397    241.77739 
    7850    76.646788   -316.42128    57579.767   -12746.263    928.50011   -13674.763    33.227579    238.87465 
    7900    76.082355   -881.37538    57649.787   -12762.852    921.66256   -13684.515    33.521643    237.11556 
    7950    76.928309   -647.90015     57633.83   -12770.742    931.91046   -13702.652     33.56305    239.75203 
    8000    75.944561     -584.633    57691.135    -12759.67    919.99333   -13679.663    33.558226    236.68612 
    8050    75.775157   -726.69653    57645.359   -12764.806    917.94116   -13682.747    33.544842    236.15816 
    8100    74.798309   -645.07978    57604.095   -12752.087    906.10762   -13658.195    33.656318    233.11375 
    8150    77.998627   -545.46458    57628.965   -12732.997     944.8763   -13677.873    33.681547    243.08774 
    8200    76.098907   -621.35884    57604.786   -12741.681    921.86307   -13663.544    34.047196    237.16714 
    8250    78.050945   -488.26253    57636.475   -12767.377    945.51009   -13712.887    34.001826     243.2508 
    8300    76.395504   -557.02562    57655.336     -12751.1    925.45605   -13676.556    33.984576    238.09151 
    8350    75.861561    19.110623    57654.706   -12712.889    918.98786   -13631.877    34.048606    236.42744 
    8400    76.603972   -386.07566    57691.596   -12747.381    927.98144   -13675.362    34.306086    238.74121 
    8450    76.779352   -622.52673    57703.138   -12749.743    930.10599   -13679.849    34.442072     239.2878 
    8500    76.278193   -1211.0027    57616.002   -12773.745    924.03495   -13697.779    34.454153     237.7259 
    8550    74.637822   -598.56594    57563.428   -12772.396    904.16347   -13676.559    34.644516    232.61358 
    8600    73.964708   -731.06647    57548.699   -12748.746    896.00937   -13644.756    34.932698    230.51578 
    8650    76.000006   -860.61865    57534.659     -12743.5    920.66498   -13664.165    35.373775    236.85891 
    8700    77.029516   -1020.9584    57540.849   -12719.431    933.13649   -13652.568    35.674786    240.06745 
    8750    79.288655   -679.88683    57578.123   -12736.669    960.50372   -13697.173    35.619979     247.1082 
    8800    77.990946   -196.12309    57617.055    -12715.44    944.78325   -13660.223    36.147463    243.06381 
    8850    79.554379   -648.54293    57630.284   -12694.443     963.7227   -13658.166    36.315366    247.93635 
    8900     80.05685   -508.88652    57650.686   -12677.562    969.80964   -13647.371    36.655102    249.50233 
    8950    79.285417    -533.3478    57632.359   -12675.287    960.46449   -13635.752    37.063145    247.09811 
    9000    77.299289   -516.79131     57686.15    -12692.77    936.40452   -13629.174    37.029019    240.90821 
    9050    78.698479   -482.08462    57700.328   -12667.259    953.35432   -13620.613    36.996237    245.26888 
    9100    79.436149    -514.7663    57667.008   -12659.515    962.29047   -13621.806    37.162897    247.56788 
    9150     79.28289   -828.18361    57629.014   -12664.339    960.43389   -13624.773    37.083758    247.09024 
    9200    78.731697   -719.16673    57598.141   -12703.359    953.75672   -13657.116    37.259187     245.3724 
    9250    74.868613   -586.87316    57532.728     -12733.5    906.95927    -13640.46    37.582429    233.33285 
    9300    76.477736   -633.04613     57515.28   -12735.167    926.45221    -13661.62    37.639813    238.34779 
    9350    77.979661   -527.61654    57546.822   -12722.356    944.64655   -13667.002    37.849874    243.02864 
    9400    76.451403   -359.91637    57596.595   -12702.083    926.13322   -13628.216    38.298559    238.26572 
    9450    76.629449   -317.80037    57630.584   -12709.879    928.29007    -13638.17    38.368599    238.82061 
    9500    75.854382   -197.28644    57638.239   -12691.201    918.90089   -13610.102    38.528964    236.40507 
    9550    78.360195   -376.82101    57671.284   -12724.588    949.25635   -13673.845    38.555133     244.2146 
    9600    75.217177   -418.19377    57691.621   -12721.396    911.18179   -13632.577    38.687099    234.41918 
    9650     75.68279    -603.1274    57687.103   -12735.308    916.82223    -13652.13    38.872078    235.87029 
    9700    75.628113   -350.80906    57644.426   -12772.701    916.15988    -13688.86    38.829826    235.69989 
    9750    74.151225   -957.10917    57660.053   -12765.679    898.26883   -13663.948    38.953937    231.09707 
    9800    74.998059    -492.3033    57637.401    -12732.59    908.52738   -13641.118    38.973388    233.73628 
    9850    75.984419   -866.82826      57648.4   -12738.364    920.47617    -13658.84    39.360294    236.81034 
    9900    77.341104   -237.99419    57649.698   -12705.484    936.91107   -13642.395    39.513467    241.03853 
    9950     78.26552   -654.47109    57596.479   -12678.036    948.10945   -13626.145    40.080951    243.91953 
   10000    77.443431   -531.37064    57675.409   -12715.014    938.15065   -13653.165    40.691303    241.35744 
   10050     77.60415   -527.72761    57636.327   -12678.619    940.09761   -13618.716       40.736    241.85833 
   10100    81.189531   -638.55947    57556.428   -12686.883    983.53096   -13670.414    41.044285     253.0324 
   10150    76.402178   -544.52474    57553.325   -12705.703    925.53691    -13631.24    41.146318    238.11231 
   10200     77.85796   -308.86967    57528.099   -12695.458    943.17227   -13638.631    41.397934    242.64935 
   10250    78.899699   -565.12351    57523.311   -12680.427     955.7919   -13636.219      41.7476    245.89599 
   10300    77.037901   -9.9791629    57554.669   -12693.393    933.23806   -13626.631    41.939576    240.09358 
   10350    77.338191   -353.64533     57576.39   -12714.699    936.87578   -13651.575    42.164516    241.02946 
   10400    75.298594   -448.28013    57571.815   -12745.526    912.16808   -13657.694    42.247841    234.67292 
   10450    77.251867   -628.60203    57573.905   -12725.495    935.83005   -13661.325     42.39385    240.76042 
   10500    78.588531    -559.2783    57502.058    -12680.48    952.02241   -13632.502    42.578026    244.92622 
   10550    79.801518   -395.87598    57450.125   -12712.308    966.71655   -13679.024    42.520931    248.70657 
   10600    75.119084    -188.4066    57451.169   -12739.888    909.99348   -13649.882    42.514889    234.11346 
   10650     75.90691   -541.61748    57404.842   -12771.165    919.53722   -13690.703    42.836018    236.56878 
   10700    77.197531   -121.14491    57392.933   -12745.827    935.17182   -13680.999    43.278968    240.59108 
   10750    75.343205   -414.21906    57391.369   -12761.556     912.7085   -13674.265    43.416491    234.81195 
   10800    78.402654   -587.59351    57416.918   -12756.166    949.77069   -13705.936    43.759654    244.34692 
   10850    77.852775   -439.51882    57455.607   -12772.458    943.10945   -13715.568    43.810566    242.63319 
   10900    78.539638   -641.44564    57488.188   -12751.407    951.43012   -13702.837    44.079009    244.77384 
   10950    77.280538   -715.52462    57453.967   -12781.658    936.17737   -13717.836    44.316407    240.84977 
   11000    76.801168   -561.83084    57408.118   -12749.897    930.37028   -13680.267    44.517858    239.35579 
   11050    75.179341   -859.17272    57385.477   -12747.953    910.72345   -13658.676    44.868056    234.30126 
   11100    77.318688   -936.18807    57267.165   -12746.797    936.63951   -13683.437     45.40856    240.96867 
   11150    77.114208   -717.15602    57226.703   -12752.902    934.16244   -13687.065    45.758108     240.3314 
   11200    78.339091   -1108.4978    57212.107   -12755.701     949.0007   -13704.702    45.930767    244.14882 
   11250    75.359633   -472.40541    57218.586   -12780.354     912.9075   -13693.262    46.071842    234.86315 
   11300    78.245415    -1042.907    57245.521   -12803.743    947.86589   -13751.609    46.261264    243.85687 
   11350    75.728389   -557.37988    57195.828   -12804.833    917.37462   -13722.208    46.501202     236.0124 
   11400    74.931072     -381.385    57140.643   -12780.313    907.71591   -13688.029    46.466031    233.52751 
   11450    76.644782   -324.40124    57108.751   -12756.794    928.47581    -13685.27    46.594807     238.8684 
   11500    78.688185   -406.58275      57133.7   -12741.475    953.22962   -13694.704    47.243352     245.2368 
   11550    76.721767   -90.470729     57190.96   -12729.356    929.40841   -13658.765    47.432489    239.10833 
   11600    76.775275   -723.91828    57209.268   -12736.451     930.0566   -13666.507    47.347294    239.27509 
   11650    77.809117    -436.2863    57175.184    -12726.07    942.58058    -13668.65    47.655977    242.49713 
   11700    76.967743   -836.31902    57159.879   -12712.492    932.38816    -13644.88    48.036613    239.87493 
   11750    77.403145   -45.181453     57154.06   -12723.637    937.66264   -13661.299    48.101803    241.23189 
   11800    77.882127   -449.57079    57192.555   -12710.627    943.46503   -13654.092    48.529822    242.72467 
   11850    78.083283   -469.32514    57224.134   -12713.751    945.90183   -13659.653    48.688784    243.35158 
   11900    76.286746   -693.02006    57205.423   -12738.589    924.13856   -13662.727    49.127238    237.75256 
   11950    79.242899   -527.53039    57200.537   -12688.154    959.94943   -13648.103     49.30134     246.9656 
   12000    80.365056   -412.03628    57220.757   -12705.534    973.54326   -13679.077     49.78439    250.46287 
   12050     78.28794   -402.43005    57291.517   -12712.384    948.38104   -13660.765    49.781671    243.98941 
   12100    77.323095    -661.2687    57322.518   -12727.843    936.69291   -13664.536     49.93236    240.98241 
   12150    77.041496   -244.30989    57337.949   -12707.076    933.28161   -13640.357    50.134117    240.10478 
   12200    75.351632   -796.40222    57323.205    -12709.44    912.81058   -13622.251     50.26299    234.83822 
   12250    78.969344    -505.5594    57320.136   -12698.084    956.63559    -13654.72    50.338933    246.11305 
   12300    78.208373   -630.33401    57325.258   -12717.606    947.41717   -13665.024    50.468987    243.74143 
   12350    78.400534   -345.44639    57364.465   -12720.229    949.74502   -13669.974    50.434349    244.34032 
   12400    78.522472    -174.8744    57427.312   -12692.172    951.22218   -13643.394    50.611329    244.72034 
   12450    79.390959   -760.97666    57445.592   -12680.415    961.74303   -13642.158    51.023891    247.42704 
   12500      80.2158   -359.20936    57455.659   -12651.675    971.73517    -13623.41    51.644816    249.99771 
   12550    79.255043   -560.55154    57445.879   -12679.311    960.09654   -13639.408    52.206148    247.00345 
   12600     75.97841   -469.16095    57517.215    -12695.98    920.40338   -13616.383    52.525348    236.79161 
   12650     77.78916   -474.29093    57557.133   -12684.584    942.33882   -13626.923    53.011263    242.43493 
   12700    78.765256   -561.89757    57503.775   -12680.503    954.16327   -13634.666    53.252921      245.477 
   12750     78.02954   -775.40739    57533.174   -12684.822    945.25078   -13630.073    53.860232    243.18409 
   12800    80.480771   -370.07582     57502.22   -12677.805    974.94503    -13652.75    54.134054    250.82351 
   12850    79.202864   -991.83377      57497.8   -12714.917    959.46445   -13674.381    54.088731    246.84083 
   12900    75.924994   -468.74166    57514.111   -12719.464    919.75629    -13639.22    54.389919    236.62513 
   12950    75.850914   -535.61159    57498.733   -12712.846    918.85889   -13631.705    54.705748    236.39426 
   13000    77.503595   -187.61297     57462.81   -12728.115    938.87948   -13666.994    54.767004    241.54495 
   13050    78.208804   -659.99833    57480.276   -12749.246     947.4224   -13696.669    55.033164    243.74278 
   13100    76.976543    -307.7722    57535.531   -12765.172    932.49477   -13697.667    55.017327    239.90236 
   13150    73.129005   -468.13678    57583.849   -12807.005    885.88565   -13692.891     55.45785    227.91126 
   13200    74.840729   -439.79699    57604.467   -12790.987    906.62149   -13697.609    55.690886    233.24595 
   13250    77.393723   -870.44714    57595.677   -12747.692    937.54849   -13685.241    56.082409    241.20252 
   13300    77.805841   -736.02499    57544.881   -12751.733     942.5409   -13694.274    56.359541    242.48692 
   13350     74.76825   -700.44144    57484.877    -12772.32    905.74348   -13678.063    56.378045    233.02007 
   13400    74.503858   -708.07162    57493.903   -12765.409    902.54063    -13667.95    56.628594    232.19607 
   13450    76.612002   -604.65635    57501.391   -12755.946    928.07871   -13684.025     56.97871    238.76624 
   13500      76.6376   -588.98065     57444.45   -12729.015    928.38881   -13657.404    57.338703    238.84602 
   13550    77.981053   -726.73554    57430.724   -12710.868    944.66341   -13655.532    57.555513    243.03297 
   13600    77.814864   -744.59558    57502.134   -12708.254     942.6502   -13650.904     58.14279    242.51504 
   13650     78.23379   -417.28335    57526.326   -12713.569    947.72507   -13661.294    58.578562    243.82065 
   13700    78.791045   -415.63952    57538.824   -12708.552    954.47566   -13663.027    59.071541    245.55737 
   13750    78.983679   -424.57957    57596.247   -12703.467    956.80924   -13660.277    59.387487    246.15772 
   13800    77.413131   -383.94898    57576.505   -12732.142     937.7836   -13669.926    59.292637    241.26301 
   13850    74.929146   -506.02004    57556.617   -12766.814    907.69258   -13674.507    59.384527    233.52151 
   13900    76.789382   -249.71221    57563.055   -12784.527     930.2275   -13714.754    59.996391    239.31906 
   13950    77.142123   -621.93032    57570.531    -12804.93    934.50061    -13739.43    59.977408     240.4184 
   14000    77.372528   -575.60716    57604.329   -12792.386    937.29174   -13729.677     60.66698    241.13647 
   14050    74.176664   -565.42803    57638.591   -12803.881    898.57701   -13702.458    61.179246    231.17635 
   14100    71.479392   -719.77367    57601.751    -12786.28    865.90222   -13652.182    61.466841    222.77013 
   14150    77.656885   -227.88729    57613.611   -12766.382    940.73644   -13707.119    61.950634    242.02268 
   14200    74.008204   -901.10544    57613.931   -12795.598    896.53628   -13692.135    62.488659    230.65134 
   14250    73.278012    -499.2112    57609.245    -12813.72    887.69071   -13701.411    62.663313    228.37564 
   14300    75.641807   -733.06603    57557.979   -12814.621    916.32577   -13730.947    62.749244    235.74257 
   14350    78.028213   -197.64138    57504.313   -12769.504    945.23471   -13714.738    62.924698    243.17995 
   14400    78.329193   -269.19543    57579.347   -12761.882    948.88079   -13710.762    62.852276    244.11798 
   14450    75.797589   -468.23395    57566.587   -12759.385    918.21291   -13677.598    62.716911    236.22807 
   14500    77.519469   -483.88992    57608.345   -12717.888    939.07179    -13656.96    62.693977    241.59442 
   14550    80.831919   -69.678156     57644.04   -12698.317    979.19885   -13677.516    63.202176    251.91788 
   14600     79.79802   -185.79897    57725.661   -12682.748    966.67418   -13649.422    63.562575    248.69567 
   14650    78.877157   -571.79276    57769.652   -12705.545    955.51883   -13661.064    63.643868    245.82574 
   14700    78.352355   -694.38308    57754.505    -12682.05    949.16137   -13631.211    63.956345    244.19016 
   14750    80.755845   -694.45304    57790.637   -12665.163    978.27728   -13643.441    64.342682    251.68079 
   14800    82.659572   -618.12375    57789.293   -12679.938    1001.3391   -13681.277    64.664294    257.61388 
   14850    79.868473   -336.07237    57836.954   -12679.256    967.52765   -13646.783    64.689919    248.91524 
   14900    82.089299   -724.38435    57843.926   -12684.886    994.43076   -13679.317    64.645346    255.83659 
   14950    79.558325   -422.23487    57860.453   -12733.299     963.7705   -13697.069    64.846297    247.94864 
   15000    78.653857   -166.60316    57862.478   -12717.254    952.81377   -13670.067    65.339004    245.12981 
   15050    78.945028   -489.23316    57937.191   -12729.798    956.34101   -13686.139    65.789302    246.03726 
   15100    77.722063   -308.70187    57957.693   -12741.586      941.526   -13683.112    66.011373    242.22582 
   15150    78.452896   -706.56051    57951.083   -12730.749    950.37933   -13681.128    66.245443     244.5035 
   15200    79.920718   -412.29241    57945.486   -12718.053    968.16053   -13686.214    66.770777    249.07806 
   15250    79.541629   -831.80943     57940.98   -12720.271    963.56825   -13683.839    67.316067    247.89661 
   15300    80.440859   -328.07386     57942.14   -12699.795    974.46153   -13674.257    67.509396    250.69912 
   15350     82.51405   -388.46212    57929.775   -12707.075     999.5762   -13706.651    67.510651    257.16035 
   15400    78.803693    -632.4685    57896.767    -12717.74    954.62888   -13672.369    67.487283    245.59678 
   15450    76.742558   -616.60591    57820.416   -12724.467    929.66027   -13654.127    67.650953    239.17313 
   15500    77.503359   -801.12676    57759.995   -12696.487    938.87663   -13635.364    67.620991    241.54421 
   15550      81.1249   -754.99862    57737.972   -12683.648    982.74802   -13666.396    67.917472    252.83098 
   15600    81.110841   -689.17705    57755.969   -12687.806    982.57771   -13670.384    68.413461    252.78716 
   15650    80.466269   -653.77837    57823.873   -12668.616    974.76935   -13643.385    68.348173    250.77831 
   15700    81.719461   -627.50874    57846.246   -12719.284    989.95054   -13709.235    68.842705    254.68396 
   15750    80.386533   -399.10232    57856.585   -12700.897    973.80343   -13674.701    69.114649    250.52981 
   15800     79.13375   -414.94295    57870.369   -12697.824     958.6272   -13656.451    69.212735    246.62543 
   15850    78.254833    -164.2319    57883.514   -12697.879    947.97999   -13645.859    69.274044    243.88623 
   15900    79.088983   -446.05745    57943.959   -12723.129    958.08489   -13681.213    69.332276    246.48591 
   15950    77.759612   -390.35502    58050.656   -12736.482    941.98087   -13678.463    69.282458    242.34284 
   16000     80.00281   -416.92084    58042.809   -12746.602      969.155   -13715.757    69.351574    249.33391 
   16050    78.211093   -562.91164    58041.065   -12738.972    947.45012   -13686.422     69.68518    243.74991 
   16100    78.935163   -761.48908    58077.301   -12721.711    956.22151   -13677.933    69.635914    246.00652 
   16150    78.885504   -617.60895    58094.007   -12712.715    955.61995   -13668.335    69.943987    245.85176 
   16200    77.094427   -679.09057    58054.187   -12704.378    933.92281   -13638.301    70.357878    240.26975 
   16250    79.315532   -816.52395    58015.248   -12706.058    960.82931   -13666.887    70.239166    247.19196 
   16300    82.099668   -1032.8239    57976.914   -12729.023    994.55637   -13723.579    70.412398     255.8689 
   16350    76.930452   -576.94337    57943.152   -12732.374    931.93642    -13664.31    70.860494    239.75871 
   16400    76.770256   -917.04672    57921.259   -12758.591     929.9958   -13688.586    71.255378    239.25945 
   16450    79.646206   -426.24539    57876.387   -12764.879     964.8351   -13729.714    71.169543    248.22253 
   16500    77.630586   -703.89099    57840.541   -12756.889    940.41785   -13697.307    71.302032    241.94072 
   16550    77.274523   -398.73532     57877.51   -12788.148     936.1045   -13724.252    71.259138    240.83103 
   16600    76.490848   -669.91525    57876.595   -12802.001    926.61106   -13728.612    71.265962    238.38866 
   16650    75.879937    -261.8726    57939.797   -12777.338    919.21047   -13696.549    71.277816    236.48471 
   16700    77.533907   -666.00713    57936.427   -12740.046    939.24668   -13679.292    71.503684    241.63942 
   16750    78.717987   -559.74399    57955.579   -12738.542    953.59064   -13692.133    71.526386    245.32968 
   16800    79.116047   -681.39512    57870.865    -12752.57    958.41275   -13710.983    71.247414    246.57026 
   16850     76.67941   -736.26333    57815.619   -12752.653     928.8953   -13681.548    70.755825    238.97632 
   16900    78.091876   -722.31626    57757.112   -12757.569    946.00593   -13703.575    70.565346    243.37836 
   16950     75.63319   -928.23802     57729.02   -12766.756    916.22137   -13682.977    70.697899    235.71571 
   17000    76.439332   -501.15001    57757.702   -12742.259    925.98699   -13668.246    70.639778     238.2281 
   17050    79.825463   -691.77639    57765.342   -12732.615    967.00663   -13699.621    70.447637     248.7812 
   17100    77.661927   -806.97529    57838.549   -12742.295    940.79752   -13683.093    70.854433     242.0384 
   17150    76.257618   -789.65517     57816.39   -12750.724    923.78571    -13674.51    71.166239    237.66178 
   17200    73.868796   -661.56889    57816.541   -12757.976    894.84748   -13652.824    71.260552    230.21686 
   17250     76.03988   -699.62319    57840.802   -12720.949    921.14802   -13642.097     71.43016    236.98318 
   17300     79.26657   -495.00104    57886.747   -12730.317    960.23618   -13690.553     71.43218    247.03937 
   17350     75.81029   -307.49237    57936.337   -12755.237    918.36676   -13673.604    71.429382    236.26765 
   17400    75.607619   -1034.6083    57922.812   -12749.363    915.91161   -13665.275    71.489533    235.63602 
   17450    79.280736   -743.85335    57851.731   -12728.536    960.40779   -13688.944    71.783167    247.08352 
   17500     76.75866    -534.0329    57797.569   -12739.834    929.85533   -13669.689    71.882467    239.22331 
   17550    78.963112   -282.89746    57806.137   -12737.778    956.56009   -13694.338    72.082624    246.09362 
   17600    77.964388   -431.39477    57814.369   -12748.287    944.46153   -13692.749    72.428775    242.98104 
   17650    76.634764   -383.25447    57842.559   -12758.491    928.35445   -13686.846    72.449789    238.83718 
   17700    76.522956    -458.1508    57810.418   -12754.374    927.00001   -13681.374    72.519314    238.48872 
   17750    77.071237   -692.37284    57815.915   -12773.623     933.6419   -13707.265    72.886916    240.19748 
   17800    73.995374   -792.93493    57788.578   -12770.837    896.38086   -13667.218     73.03424    230.61135 
   17850    76.187235   -871.99902     57772.04   -12811.683    922.93308   -13734.616    73.367056    237.44242 
   17900    74.564214   -516.09736    57733.201   -12841.171    903.27179   -13744.443    73.530996    232.38418 
   17950    76.715639   -247.60254    57738.463   -12807.995    929.33418   -13737.329    73.653538    239.08923 
   18000    77.985913   -607.72642    57801.293   -12808.863     944.7223   -13753.586    73.685917    243.04812 
   18050    73.336099   -478.49041     57868.62   -12812.194    888.39438   -13700.588    73.661669    228.55668 
   18100    75.331627   -655.95941    57875.922   -12807.442    912.56823    -13720.01    74.023579    234.77587 
   18150     78.32559   -549.77871    57897.457   -12785.832    948.83715   -13734.669    74.032753    244.10675 
   18200     79.97981    -634.4664    57937.414     -12749.8    968.87638   -13718.677    74.317873    249.26223 
   18250    76.224312   -617.90168    57930.846   -12779.365    923.38223   -13702.747    74.542045    237.55798 
   18300    76.831546   -513.83244    57913.216   -12786.858    930.73827   -13717.596    74.786612    239.45046 
   18350    74.128415   -856.06652    57895.669   -12783.553    897.99251   -13681.545    74.805406    231.02598 
   18400     78.34814   -692.92598    57914.692    -12776.55    949.11031    -13725.66    75.161299    244.17702 
   18450    76.337105   -788.37123    57917.146   -12764.447    924.74861   -13689.196     75.31909    237.90951 
   18500    76.227256   -664.82153    57869.019   -12766.281     923.4179   -13689.698    75.449093    237.56715 
   18550    78.097226    -461.6365     57871.45   -12766.515    946.07074   -13712.585    75.760204    243.39504 
   18600    76.157935   -416.45131    57897.637   -12789.901    922.57814    -13712.48    75.954831    237.35111 
   18650     75.80028   -495.41765     57952.32   -12802.585    918.24551   -13720.831    75.590128    236.23646 
   18700    75.456612   -554.42484    57966.018   -12800.636     914.0823   -13714.718    75.256211    235.16539 
   18750    73.704136   -413.15703    57996.629   -12803.384    892.85279   -13696.237     75.49221    229.70369 
   18800    74.946235   -479.86679    58032.687   -12822.333    907.89959   -13730.232    75.271814    233.57477 
   18850    74.875357   -759.00169    58010.355   -12857.284    907.04097   -13764.325    75.336734    233.35387 
   18900    74.790255   -285.68489    58068.936    -12854.06    906.01004    -13760.07    75.456166    233.08865 
   18950    74.266182   -608.89375    58076.127   -12812.005    899.66142   -13711.667    75.763119    231.45534 
   19000    77.361974   -372.03586    58077.829   -12771.505    937.16389   -13708.669    75.531491    241.10358 
   19050    78.101664    -383.4526     58060.18   -12753.863     946.1245   -13699.988     76.08931    243.40887 
   19100    77.903627   -420.13278    58108.462   -12763.414    943.72548    -13707.14    76.172563    242.79167 
   19150    75.663706   -550.02717    58117.594   -12808.085    916.59104   -13724.676    75.978145    235.81081 
   19200    77.977981   -1030.8498    58084.166    -12800.51    944.62621   -13745.137    76.026768     243.0234 
   19250    76.414196   -637.11621    58021.398   -12800.271    925.68249   -13725.954    75.924023    238.14976 
   19300    75.771917    -624.1868    58040.076   -12811.909    917.90191   -13729.811    76.262209    236.14806 
   19350    75.204775   -609.34837    58095.757   -12828.089    911.03155   -13739.121     76.50832    234.38053 
   19400    74.634941    -822.7827    58084.636   -12864.728    904.12857   -13768.857    76.475811     232.6046 
   19450     73.72882   -642.54245    58071.299   -12844.416    893.15182   -13737.568    76.494914    229.78062 
   19500    74.111983   -888.13868    58018.778   -12819.267    897.79345   -13717.061    76.495795    230.97477 
   19550    76.926341   -382.09702    58026.018   -12804.511    931.88662   -13736.398    76.401117     239.7459 
   19600    78.679614   -962.23404    57976.981   -12769.124     953.1258    -13722.25    76.135261    245.21009 
   19650    77.054124   -700.76081    57951.952   -12765.037    933.43459   -13698.472    76.534718    240.14414 
   19700    76.606744   -734.08154    57938.328   -12788.587    928.01502   -13716.602    77.160364    238.74985 
   19750    75.642914    -666.1329    57965.679   -12784.558    916.33917   -13700.898    77.626759    235.74601 
   19800    77.662115     -994.451    57979.303   -12762.215    940.79979   -13703.014    77.938937    242.03898 
   19850    78.935202    -770.7634    57985.691   -12745.481    956.22199   -13701.703    78.241439    246.00664 
   19900    79.649996   -599.74574    57926.404   -12729.884    964.88101   -13694.765    78.280334    248.23434 
   19950    79.587636   -722.15632    57955.265   -12729.107    964.12558   -13693.232    78.537233    248.03999 
   20000    76.943129    -733.4719    57918.672    -12757.18    932.08999    -13689.27    78.794493    239.79822 
   20050    77.407901   -660.86874    57894.283   -12788.507    937.72024   -13726.228    78.828459    241.24671 
   20100    77.633407   -675.43941    57960.715   -12785.319    940.45203   -13725.771     79.23001    241.94951 
   20150    75.896574   -794.25222    57964.544    -12798.19    919.41201   -13717.602    79.489743    236.53656 
   20200    75.794915   -933.13127    57932.301   -12808.453    918.18052   -13726.634    79.511633    236.21974 
   20250    76.444632   -618.24132    57864.769   -12807.413     926.0512   -13733.464    79.814395    238.24462 
   20300    73.772722   -597.36811    57899.381   -12810.809    893.68364   -13704.493    79.802737    229.91744 
   20350    77.211097   -733.58142    57872.685   -12789.915    935.33616   -13725.251    79.984691    240.63336 
   20400    75.558744   -338.16453    57901.846   -12793.155    915.31953   -13708.475    80.114495    235.48369 
   20450    76.328113    -578.1617    57951.783   -12804.244    924.63968   -13728.884    80.528952    237.88148 
   20500    74.977785   -731.16558    57969.579   -12826.766    908.28179   -13735.048    80.445386     233.6731 
   20550    74.416423    -657.2928    57957.439   -12843.607    901.48144   -13745.088    80.580431    231.92358 
   20600    73.679741   -229.54471    57916.384    -12855.74    892.55727   -13748.297    80.934931    229.62766 
   20650    73.680909   -1137.2383    57892.538   -12844.519    892.57142    -13737.09    81.080831     229.6313 
   20700    77.061211   -208.25832    57872.247    -12806.24    933.52044   -13739.761    81.449996    240.16623 
   20750    76.556097   -449.39918    57982.804   -12809.927    927.40148   -13737.328    81.470884    238.59201 
   20800    73.823617   -271.47412    58012.108   -12822.254    894.30019   -13716.554     81.69289    230.07606 
   20850    79.109829   -843.32025     57971.11   -12775.707    958.33742   -13734.044    81.827822    246.55088 
   20900    77.394206   -888.15851    57915.511   -12756.463    937.55434   -13694.018    81.906005    241.20403 
   20950     77.02559   -639.77656    57920.064   -12774.938    933.08893   -13708.027    82.167959    240.05521 
   21000    75.123834   -862.66999     57969.16   -12778.292    910.05103   -13688.343    82.310367    234.12827 
   21050    74.181199   -999.78293    58020.867   -12765.357    898.63194   -13663.988      82.5236    231.19049 
   21100    76.914718   -586.94593    57999.005   -12753.222    931.74582   -13684.968     83.08182    239.70967 
   21150     80.83552   -458.10859    58103.972   -12732.164    979.24246   -13711.406    83.422508     251.9291 
   21200    78.777359   -343.22383    58139.223   -12728.528    954.30987   -13682.838    83.650236    245.51471 
   21250     78.60456   -722.18275    58120.717   -12726.424    952.21659   -13678.641    83.645941    244.97618 
   21300    78.975785   -645.58625    58105.414   -12728.774    956.71361   -13685.488    83.955571    246.13312 
   21350    82.749575    -537.5668    58091.491   -12709.806    1002.4293   -13712.235    84.023401    257.89438 
   21400     80.71979   -382.55594    58054.528   -12750.023     977.8405   -13727.863    83.812032    251.56842 
   21450    79.653226   -677.99054    58020.845   -12739.487    964.92014   -13704.408    83.880704    248.24441 
   21500    78.877007   -811.49533    57974.073   -12756.047    955.51701   -13711.564    84.412995    245.82527 
   21550    77.268968   -846.91029     57928.24   -12745.615    936.03721   -13681.652    84.318061    240.81372 
   21600    76.837428   -596.43984    57899.664   -12731.276    930.80953   -13662.085    84.534122    239.46879 
   21650    78.006565   -971.20246    57900.017   -12750.653    944.97246   -13695.625    84.948448    243.11248 
   21700    77.654815    -603.2618    57836.459   -12760.164    940.71136   -13700.875    85.269132    242.01623 
   21750     77.20978   -1172.2514    57818.058   -12790.168    935.32021   -13725.488    85.829495    240.62925 
   21800    77.810351   -492.32899    57831.315   -12742.363    942.59553   -13684.959       85.795    242.50097 
   21850    78.383031   -884.36136    57805.638    -12736.23    949.53298   -13685.763    86.016583    244.28576 
   21900    76.717765   -849.71782    57781.973   -12753.158    929.35992   -13682.518    86.216364    239.09586 
   21950    78.732408    -456.0236    57708.496   -12742.269    953.76534   -13696.034    86.517111    245.37462 
   22000    77.469227   -743.28853    57642.466   -12730.183    938.46315   -13668.646    86.331209    241.43784 
   22050     77.79413   -622.72341    57622.848   -12751.994    942.39902   -13694.393    86.476314    242.45042 
   22100    77.422721    -434.5081    57655.091   -12782.202    937.89978   -13720.102    86.665533     241.2929 
   22150    75.594647   -452.91763    57718.628   -12779.838    915.75446   -13695.592    87.264097    235.59559 
   22200    76.740315   -207.24572     57676.54   -12777.868     929.6331   -13707.501    87.962036    239.16613 
   22250     79.15962   -937.37957    57732.814   -12765.114    958.94059   -13724.055    88.469536    246.70605 
   22300    77.482422   -332.61237    57741.008    -12774.64      938.623   -13713.263    88.784077    241.47896 
   22350    76.210987   -651.10096    57649.878    -12794.23    923.22081   -13717.451     89.53612    237.51645 
   22400    76.329927   -611.35298    57632.807   -12813.606    924.66166   -13738.267    89.605233    237.88714 
   22450    76.796886   -748.94921    57595.671   -12779.899     930.3184   -13710.217    89.133608    239.34244 
   22500     76.61607   -902.01643    57575.088   -12756.232      928.128    -13684.36    89.194174    238.77892 
   22550    77.703109   -732.83969    57559.715   -12770.601     941.2964   -13711.897    89.236979    242.16674 
   22600    78.967181   -757.23896    57513.775   -12762.209    956.60938   -13718.818    88.846993    246.10631 
   22650    76.022428   -743.92169    57518.083   -12795.034    920.93661   -13715.971    88.685323    236.92879 
   22700    76.617362   -509.68429    57512.656   -12761.842    928.14364   -13689.986    88.495947    238.78294 
   22750    79.247571   -979.82417    57457.916   -12787.217    960.00603   -13747.223    88.412912    246.98016 
   22800    75.515293   -714.84693    57480.187   -12797.159    914.79317   -13711.952     88.43871    235.34827 
   22850    74.765708   -227.20088    57538.078   -12809.495    905.71269   -13715.208    89.243716    233.01215 
   22900    74.081983   -420.67436    57605.715   -12830.361    897.43003   -13727.791    89.440787    230.88127 
   22950    77.086752   -725.08356    57696.498   -12813.057    933.82984   -13746.887    89.680812    240.24583 
   23000    76.462731   -740.94256    57662.151   -12799.418    926.27044   -13725.689    89.897994    238.30103 
   23050    76.207933   -732.88632    57678.171   -12796.261    923.18382   -13719.444    89.669023    237.50693 
   23100     78.87063   -561.58209    57709.295   -12790.269    955.43976   -13745.709    90.261851     245.8054 
   23150    74.288354   -374.63695      57725.8   -12817.675    899.93001   -13717.605    90.539495    231.52444 
   23200    76.476778    -662.5442    57728.357   -12777.188    926.44061   -13703.629    91.015115    238.34481 
   23250    74.208013   -601.32713    57720.431   -12790.192    898.95676   -13689.148     90.99489    231.27405 
   23300    76.816281   -175.42983    57691.569   -12795.536    930.55336    -13726.09    90.841705    239.40289 
   23350    75.821013    -490.9483    57722.462   -12801.877    918.49666   -13720.373    90.885835    236.30107 
   23400    74.985554   -552.03027    57700.405   -12816.829    908.37591   -13725.205    90.858301    233.69731 
   23450    75.604017   -872.23226    57661.072    -12788.85    915.86797   -13704.718    90.811919    235.62479 
   23500    77.270647   -683.94872    57616.899   -12783.441    936.05754   -13719.498     90.72686    240.81895 
   23550    75.478668   -899.73747    57615.146   -12793.835    914.34949   -13708.185    90.783745    235.23413 
   23600    76.702981   -394.12372     57600.91   -12786.995    929.18084   -13716.176    90.798083    239.04978 
   23650    73.535071   -900.14959    57608.214   -12787.102    890.80473   -13677.907    90.904884    229.17679 
   23700    77.967798   -440.87659    57595.548   -12784.757    944.50284    -13729.26    91.555544    242.99167 
   23750    77.475659   -691.10381    57505.787   -12774.043    938.54106   -13712.584    91.867393    241.45788 
   23800    77.586271   -459.11418     57478.39   -12797.023    939.88102   -13736.904    92.132065    241.80261 
   23850    78.140662   -555.53987    57479.457   -12783.234    946.59692    -13729.83    92.554798    243.53041 
   23900    79.499902   -524.36738    57470.861   -12788.612    963.06277   -13751.675    92.368594    247.76657 
   23950    77.128444   -191.26096    57439.435   -12805.128     934.3349   -13739.463    92.412138    240.37576 
   24000    75.021916   -123.86299    57503.341   -12800.951    908.81639   -13709.767    92.634948    233.81063 
   24050    75.880774   -455.81608    57520.246   -12797.492    919.22061   -13716.713     92.72175    236.48732 
   24100    77.560792   -636.04406    57505.296    -12775.05    939.57237   -13714.623    93.005922     241.7232 
   24150    78.853819   -316.30089    57505.724   -12731.753    955.23612   -13686.989    93.429481    245.75301 
   24200    74.678991   -824.39987    57491.058   -12755.834     904.6622   -13660.496    93.690707    232.74189 
   24250    79.333562   -489.39541     57500.71   -12755.027    961.04772   -13716.075    94.109261    247.24815 
   24300    83.258249   -261.73076    57548.981   -12738.014    1008.5914   -13746.605    94.450006     259.4797 
   24350     78.24761   -801.95133    57600.937    -12739.86    947.89249   -13687.752    94.466947    243.86372 
   24400    80.022155   -656.18034     57609.66   -12737.346    969.38935   -13706.736    94.376613     249.3942 
   24450    78.717216   -962.64555    57613.062   -12738.485    953.58131   -13692.066    94.847034    245.32728 
   24500    76.164862   -353.47483    57603.483   -12746.148    922.66205    -13668.81    94.792578     237.3727 
   24550    76.973503   -510.94517    57588.827   -12770.764    932.45795   -13703.222    94.737516    239.89288 
   24600     76.28763   -354.54012    57582.923   -12766.402    924.14927   -13690.551    94.830103    237.75531 
   24650     76.72213   -440.65241    57624.221   -12763.198    929.41281   -13692.611    94.883957    239.10946 
   24700    75.208397   -738.81904     57640.36   -12790.038    911.07543   -13701.114    94.988325    234.39182 
   24750    75.468865   -476.61441    57585.728   -12791.033    914.23074   -13705.264    95.130258    235.20358 
   24800    75.400947   -672.46748    57547.479   -12783.689    913.40798   -13697.097    95.170591    234.99191 
   24850    75.128744   -535.93841    57525.967   -12817.135    910.11051   -13727.245    95.922103    234.14357 
   24900    74.935288   -768.29641     57510.19   -12831.394    907.76699   -13739.161    96.130168    233.54065 
   24950    73.696962   -202.34089    57535.924   -12814.692    892.76589   -13707.458    96.555911    229.68133 
   25000    76.905653   -742.79667    57588.034    -12796.48      931.636   -13728.116    96.371543    239.68142 
   25050    76.455069   -511.61881     57587.93   -12779.525    926.17762   -13705.703    96.729275    238.27715 
   25100    76.754106   -240.28732    57602.132   -12797.719    929.80017   -13727.519    96.853146    239.20912 
   25150     76.06925   -388.81553    57560.096   -12803.256    921.50381    -13724.76     96.62634    237.07472 
   25200    76.818657   -761.21807    57547.358   -12806.384    930.58213   -13736.966    96.173432    239.41029 
   25250    74.443258   -215.44037    57537.058   -12801.222    901.80652   -13703.028    96.145549    232.00721 
   25300    75.405721   -1143.8692    57574.628   -12795.924    913.46581    -13709.39    95.852621    235.00679 
   25350    76.818395   -622.53622    57553.783    -12775.49    930.57896   -13706.069    95.934695    239.40948 
   25400    76.794949   -606.01045    57518.268   -12751.334    930.29493   -13681.629    96.098331     239.3364 
   25450    77.377959   -674.56394    57532.475   -12772.176    937.35752   -13709.534    96.114309    241.15339 
   25500    77.329386   -1045.6909    57555.395   -12745.174    936.76912   -13681.943    96.696931    241.00201 
   25550    78.389064   -871.32391    57545.946   -12719.245    949.60607   -13668.851    96.750791    244.30457 
   25600    78.366261   -605.34355    57578.601     -12733.8    949.32983    -13683.13    97.015222     244.2335 
   25650    77.267779   -575.74016     57611.03   -12757.714    936.02281   -13693.737    96.688555    240.81001 
   25700    77.347248   -440.95547    57693.812   -12766.058    936.98549   -13703.043     96.51776    241.05768 
   25750    74.810954   -751.65572    57713.394    -12789.76     906.2608    -13696.02    96.533055    233.15316 
   25800    73.082701   -797.34727    57729.057    -12801.76    885.32473   -13687.085    96.610475    227.76695 
   25850    77.619982   -1011.8349    57681.088   -12801.131    940.28939   -13741.421    96.591381    241.90767 
   25900    75.803743   -395.68543    57653.845   -12809.983    918.28746   -13728.271    96.650187    236.24725 
   25950    75.139834   -920.95027    57611.372   -12845.681    910.24485   -13755.926     96.58333    234.17813 
   26000    75.587215   -723.19924    57625.047   -12853.921    915.66444   -13769.585    96.879586    235.57243 
   26050    75.067479   -248.03967    57618.477   -12836.002    909.36834   -13745.371    97.095596    233.95263 
   26100    77.178599   -1247.8873    57622.602   -12810.562    934.94247   -13745.504    97.321652    240.53207 
   26150    76.832654   -240.79569    57538.336   -12801.067     930.7517   -13731.819    97.306774    239.45392 
   26200    77.693687   -696.40949    57539.696   -12795.572    941.18226   -13736.754    97.513656    242.13738 
   26250    79.687561   -250.63718    57565.503   -12779.644    965.33607    -13744.98    98.319625    248.35142 
   26300    75.783575   -705.11791    57553.581   -12809.203    918.04315   -13727.246    98.585426    236.18439 
   26350     79.73635   -496.43467    57590.102   -12788.248    965.92711   -13754.175    98.456741    248.50347 
   26400    74.478817   -226.35784    57612.528   -12776.477    902.23729   -13678.715     98.41936    232.11803 
   26450    77.155261    13.524645    57674.726   -12749.033    934.65976   -13683.693    98.928403    240.45934 
   26500     75.77249   -550.50606    57680.641   -12735.075    917.90886   -13652.984    99.408613    236.14985 
   26550    76.288273   -550.84795    57686.855   -12726.693    924.15706    -13650.85    99.417128    237.75732 
   26600    79.605624   -555.49448    57689.192   -12699.236    964.34349   -13663.579    99.407976    248.09606 
   26650    78.369391   -348.64715    57731.239   -12707.411    949.36774   -13656.779      99.5645    244.24325 
   26700    79.540834   -468.48698    57726.437   -12678.983    963.55862   -13642.541     99.79515    247.89413 
   26750    79.499543   -946.89599    57676.408   -12680.827    963.05843   -13643.886     99.71303    247.76545 
   26800    79.579201   -734.00001     57654.14   -12704.208     964.0234   -13668.231    100.12885    248.01371 
   26850    73.782774   -611.42951    57616.532   -12747.088    893.80541   -13640.893    100.49867    229.94877 
   26900     74.44488    -643.0552    57582.702   -12754.464    901.82617    -13656.29    100.33505    232.01226 
   26950    79.256543   -475.00548    57570.629   -12694.541    960.11472   -13654.656     100.2105    247.00812 
   27000    80.556979   -464.40078     57592.47   -12686.335    975.86821   -13662.203    100.16292    251.06101 
   27050      80.7613   -442.97496    57592.308   -12689.239    978.34336   -13667.582    100.27424    251.69779 
   27100    76.533177   -797.77085    57563.223   -12706.627    927.12382    -13633.75     100.7745    238.52057 
   27150    77.476375   -481.92648    57570.868   -12748.105    938.54974   -13686.654    100.65379    241.46011 
   27200    78.815614   -423.27089    57612.185    -12744.71     954.7733   -13699.483     100.7444    245.63394 
   27250    77.276153   -621.93961    57615.376    -12777.63    936.12425   -13713.754    100.41161    240.83611 
   27300    75.012099   -649.98384    57624.076   -12796.673    908.69747    -13705.37    100.78049    233.78004 
   27350    73.667003   -453.05841     57670.58   -12800.804    892.40296   -13693.207    100.39033    229.58796 
   27400    78.744775   -1016.5588    57644.737   -12779.653    953.91516   -13733.568     100.8737    245.41317 
   27450    75.882712   -570.99892    57664.883   -12760.423    919.24408   -13679.668    100.80214    236.49336 
   27500    78.022339   -658.69495    57696.012   -12747.002    945.16355   -13692.166    100.98229    243.16164 
   27550    77.625627   -558.77945    57658.343   -12744.772    940.35778    -13685.13    101.11369    241.92527 
   27600    79.722616   -389.34824    57625.813   -12713.925    965.76073   -13679.685    101.23914    248.46067 
   27650    77.276921   -348.30173    57688.513   -12743.233    936.13355   -13679.367    101.27022     240.8385 
   27700    77.214059   -553.25787    57688.378   -12740.486    935.37204   -13675.858    101.59236    240.64259 
   27750    75.997462   -629.49406    57728.522   -12759.361    920.63417   -13679.995    101.69367    236.85099 
   27800    79.347362   -491.64074    57737.933   -12734.387     961.2149   -13695.602    101.62536    247.29116 
   27850    78.040287   -791.61339    57764.301   -12728.024    945.38097   -13673.405     101.5602    243.21758 
   27900    76.155322   -754.38815    57766.758   -12767.633    922.54649   -13690.179    101.90534    237.34297 
   27950    76.965004   -640.19917      57741.6   -12741.999    932.35498   -13674.354    102.16352    239.86639 
   28000    78.246426   -385.05327    57717.444   -12745.481    947.87815    -13693.36    101.83127    243.86003 
   28050    75.092143   -751.00566    57738.008   -12744.872    909.66712   -13654.539    102.38489     234.0295 
   28100    79.150194   -783.82594    57706.447   -12738.469     958.8264   -13697.296    103.42073    246.67668 
   28150    77.835134   -687.57199    57737.586   -12740.597    942.89575   -13683.492     103.5548    242.57821 
   28200    77.036701   -278.99592    57680.679   -12748.963    933.22352   -13682.187    103.42648    240.08984 
   28250    75.686025   -983.78346    57709.846   -12761.737    916.86141   -13678.598    103.91227    235.88037 
   28300    76.090023   -781.62701    57645.075   -12775.664    921.75546    -13697.42    103.98144    237.13946 
   28350    78.129513   -760.43802     57624.61    -12775.11    946.46186   -13721.572     104.1159    243.49566 
   28400    75.764748   -176.51779    57656.696   -12795.229    917.81506   -13713.044    103.96062    236.12572 
   28450    78.498919   -792.61088    57617.445   -12772.675    950.93684   -13723.612    103.70653    244.64694 
   28500    80.780699   -579.95528    57578.598   -12758.763    978.57837   -13737.341     104.1305    251.75825 
   28550    75.754436    -491.1168    57620.751    -12765.81    917.69015     -13683.5    104.58094    236.09358 
   28600    76.679231   -497.79296    57664.457   -12783.911    928.89312   -13712.804    104.77703    238.97576 
   28650    76.340829   -900.46365    57648.161   -12738.661    924.79372   -13663.455     105.1442    237.92111 
   28700    76.946149   -853.73084    57627.564   -12737.995    932.12658   -13670.122    104.92262    239.80763 
   28750    75.545486   -482.86699    57591.757   -12766.275    915.15892   -13681.434    104.71643    235.44237 
   28800    75.584283    -737.7442    57561.542   -12747.893    915.62892   -13663.522    104.67857    235.56329 
   28850    77.229858   -719.54186    57532.668   -12742.972    935.56343   -13678.535    104.48379    240.69183 
   28900    78.758939   -919.08728    57503.816    -12733.39    954.08674   -13687.476    104.48809    245.45731 
   28950    78.565841   -793.51025    57521.597   -12731.783    951.74755   -13683.531    105.08404     244.8555 
   29000    77.720859   -642.89436    57481.067   -12732.771    941.51142   -13674.282    105.39399    242.22206 
   29050    76.639887   -1057.5923    57445.973   -12729.868    928.41651   -13658.284     105.7288    238.85314 
   29100    77.088929   -710.98257    57367.785    -12755.73    933.85622   -13689.587    105.59552    240.25261 
   29150    77.682282    -935.0117    57333.488   -12741.857     941.0441   -13682.901    105.29151    242.10184 
   29200    77.743486   -570.30265    57219.962   -12746.601    941.78553   -13688.386     105.6626    242.29258 
   29250    81.100371   -767.05213     57210.23   -12765.664    982.45087   -13748.115    106.30384    252.75453 
   29300    75.473761    -243.5958     57186.31   -12752.945    914.29005   -13667.235    106.10398    235.21884 
   29350    78.464366   -456.71743    57215.214   -12737.817    950.51828   -13688.336    105.95888    244.53925 
   29400    79.410857   -377.82836    57235.733   -12769.108    961.98407   -13731.092     105.7841    247.48905 
   29450    75.494832   -414.31405    57214.526   -12796.993     914.5453   -13711.538    106.21969    235.28451 
   29500    73.787681   -532.13449    57290.672   -12796.129    893.86485   -13689.994    106.38956    229.96406 
   29550    74.438933   -320.48406     57358.19   -12837.199    901.75413   -13738.953    106.89971    231.99373 
   29600    75.605296   -558.12074    57385.813   -12790.944    915.88347   -13706.828     107.0598    235.62878 
   29650    73.663338   -512.32083    57356.088   -12796.894    892.35857   -13689.253    107.57339    229.57654 
   29700    75.749867   -486.81375    57329.157   -12798.144     917.6348   -13715.779    107.69559    236.07934 
   29750     74.79701   -567.43218    57324.671    -12789.14    906.09188   -13695.231      107.679     233.1097 
   29800    76.009975   -545.61672      57304.5   -12787.354    920.78576    -13708.14    107.97455    236.88998 
   29850    77.747223   -425.40348    57342.675   -12787.297     941.8308   -13729.128    108.42194    242.30423 
   29900     75.17273   -504.82468    57406.659   -12782.904    910.64335   -13693.547    108.95759    234.28065 
   29950    76.255737   -846.94589    57445.753   -12814.114    923.76291   -13737.877    109.45219    237.65592 
   30000    73.551566   -554.86148    57386.084   -12813.744    891.00456   -13704.748    109.35693    229.22819 
   30050    75.090367   -493.73155    57367.699   -12770.967    909.64561   -13680.612    109.79226    234.02397 
   30100     76.61256   -611.49076    57307.999   -12777.484    928.08547    -13705.57    109.87108    238.76798 
   30150     74.57731   -541.44608    57313.764    -12769.69    903.43043   -13673.121    110.06854    232.42499 
   30200    77.776968   -801.56303    57337.454   -12773.594    942.19112   -13715.785     110.3389    242.39693 
   30250    73.756942   -545.83359    57292.409   -12797.742    893.49248   -13691.234    110.37255    229.86826 
   30300    75.412542   -597.59921    57306.118   -12779.254    913.54844   -13692.803    110.03438    235.02805 
   30350    74.690363   -568.20055    57314.943   -12791.743    904.79995   -13696.543    110.43537    232.77733 
   30400    73.880204   -563.55679    57337.752   -12758.131    894.98568   -13653.117    110.20339    230.25241 
   30450    76.167273   -537.24452    57332.763   -12758.922    922.69126   -13681.614    109.85629    237.38021 
   30500    77.444214   -634.15886    57348.882    -12777.22    938.16014    -13715.38    109.77287    241.35988 
   30550    75.053761   -857.16646    57355.589     -12783.2    909.20216   -13692.402    109.34417    233.90988 
   30600    78.007355   -615.69621    57354.458   -12761.995    944.98204   -13706.977    109.43645    243.11495 
   30650      78.6441   -250.59797    57327.047    -12771.76    952.69557   -13724.456    109.46496     245.0994 
   30700    75.264718   -399.60352    57339.745    -12782.12     911.7577   -13693.878     109.4244    234.56734 
   30750    75.491258   -608.95994    57397.627   -12780.333    914.50201   -13694.835    110.12171    235.27337 
   30800    75.487042   -690.14083    57392.602   -12801.637    914.45093   -13716.088    110.21591    235.26023 
   30850     76.70685   -848.75388    57350.192   -12798.603    929.22771   -13727.831      110.372    239.06184 
   30900    77.267653   -763.56535    57342.637   -12792.327    936.02128   -13728.348    110.30806    240.80962 
   30950    75.354838   -289.95777    57388.498   -12783.438    912.84942   -13696.287    110.47227    234.84821 
   31000    77.382871   -766.74895    57382.074   -12768.475    937.41703   -13705.892    110.67802     241.1687 
   31050    76.683731   -693.14686    57378.622   -12761.482    928.94764    -13690.43    110.65271    238.98979 
   31100    79.516633    -628.4591    57395.671   -12729.312    963.26545   -13692.578    110.84783    247.81871 
   31150    78.620728   -830.84499    57420.387   -12737.091    952.41245   -13689.504    111.41255    245.02656 
   31200    73.288911   -717.27412    57455.122    -12777.24    887.82275   -13665.062     111.8165    228.40961 
   31250    77.437786   -675.74368    57485.111   -12760.987    938.08228   -13699.069    112.26675    241.33985 
   31300    76.198534   -805.85655    57539.263    -12771.65    923.06995    -13694.72    112.69955    237.47764 
   31350    77.683689    -967.1441    57546.088   -12770.191    941.06114   -13711.252    112.90278    242.10622 
   31400    76.600209   -1157.8603    57548.245    -12772.94    927.93586   -13700.876    113.01413    238.72949 
   31450    77.813631   -520.69698    57543.192   -12756.968    942.63526   -13699.604    113.59324    242.51119 
   31500    78.303388   -602.87003    57587.127   -12734.664    948.56819   -13683.232    114.08219    244.03755 
   31550    78.350342   -678.14647     57587.37   -12749.367    949.13699   -13698.504    114.08802    244.18389 
   31600    76.678412   -633.99868    57526.815   -12747.002    928.88321   -13675.885    114.16176    238.97321 
   31650    78.290794   -1032.2542    57509.391   -12751.972    948.41563   -13700.387    114.67125     243.9983 
   31700     78.40189    -502.8312     57498.33   -12729.611    949.76144   -13679.372    114.66649    244.34454 
   31750    76.380869   -814.85652    57528.717   -12745.457    925.27877   -13670.736    115.14927     238.0459 
   31800     76.16641   -859.90489    57518.536   -12776.637    922.68081   -13699.317    115.59748    237.37752 
   31850     74.45749   -631.15835    57497.233    -12744.51    901.97894   -13646.489    115.42029    232.05157 
   31900    77.331199   -546.67129    57554.449   -12765.974    936.79108   -13702.765    115.17576    241.00766 
   31950    77.346522   -883.94128    57518.733   -12744.462     936.9767   -13681.438    114.87571    241.05542 
   32000     76.64281   -819.94466    57428.507    -12756.99    928.45193   -13685.442    114.73791    238.86226 
   32050    77.073884   -812.80922    57397.364   -12754.906    933.67396    -13688.58    114.42323    240.20573 
   32100    77.934194   -525.28737    57432.826   -12732.628    944.09576   -13676.723     113.9764    242.88693 
   32150    75.826658   -814.90003    57459.137   -12725.804    918.56505   -13644.369    114.11691    236.31867 
   32200    79.066712   -581.01163    57434.701   -12732.202     957.8151   -13690.018    113.83472     246.4165 
   32250    77.684289    -293.9541    57478.587   -12740.853    941.06841   -13681.921    113.92166    242.10809 
   32300    76.540895   -485.06617    57518.468   -12717.796    927.21732   -13645.013    114.72984    238.54463 
   32350    76.580061   -716.91233    57557.688   -12732.825    927.69178   -13660.517    114.51869    238.66669 
   32400     75.82183   -143.52056    57563.399   -12726.158    918.50656   -13644.664    114.24432    236.30362 
   32450    75.328151   -801.42746    57581.483   -12730.859    912.52613   -13643.385    114.38462    234.76503 
   32500    75.628629   -617.72333    57591.133    -12740.63    916.16612   -13656.797    114.62265    235.70149 
   32550    76.326329   -735.17786    57586.664   -12710.627    924.61807   -13635.245    114.64992    237.87592 
   32600      77.5792   -637.51418    57612.108   -12698.299    939.79536   -13638.094    114.68465    241.78057 
   32650    79.682108   -1170.1408    57618.005   -12693.815    965.27001   -13659.085    115.47257    248.33442 
   32700    79.613261   -794.08662     57633.27     -12689.8      964.436   -13654.236    115.44107    248.11986 
   32750    78.334854   -631.21968    57614.073   -12705.902    948.94937   -13654.852    115.49267    244.13562 
   32800    76.599295   -204.12474    57622.871   -12729.059    927.92478   -13656.984     116.2424    238.72664 
   32850    78.051339   -353.66686    57636.143   -12729.686    945.51486   -13675.201    116.24928    243.25203 
   32900    77.886211   -831.79309    57612.309   -12733.169     943.5145   -13676.684    116.42411    242.73739 
   32950    73.754835   -566.82216    57543.798   -12761.518    893.46696   -13654.985    116.50963    229.86169 
   33000    76.885657   -720.74459      57511.7   -12743.566    931.39378    -13674.96    116.55177     239.6191 
   33050    77.638498   -569.77094    57470.659   -12741.583     940.5137   -13682.097    117.04083    241.96538 
   33100    79.379075   -435.28043    57488.398   -12742.471    961.59907    -13704.07    116.97229       247.39 
   33150    75.339872   -385.89327    57479.849   -12787.312    912.66812    -13699.98    117.34712    234.80156 
   33200    75.784453   -715.08095     57510.51   -12745.696    918.05378    -13663.75    117.77725    236.18713 
   33250    78.102497   -552.92416    57537.317   -12749.292    946.13459   -13695.426    117.94122    243.41146 
   33300    76.257897   -832.65892    57567.145   -12746.353    923.78908   -13670.142    118.24147    237.66265 
   33350    77.192184   -456.18763    57467.953   -12757.021    935.10705   -13692.128    118.32414    240.57442 
   33400     78.30304   -517.76878    57465.139   -12772.463    948.56397   -13721.027    118.45832    244.03647 
   33450    75.999498   -485.36924    57449.044   -12814.244    920.65883   -13734.903    118.90815    236.85733 
   33500    78.024538   -751.48525    57400.387   -12798.978    945.19019   -13744.168    118.95611     243.1685 
   33550    77.971031   -365.41059    57413.557   -12763.846    944.54201   -13708.388    118.91643    243.00174 
   33600    75.265282   -408.98762    57398.927   -12768.129    911.76453   -13679.894    119.16393     234.5691 
   33650    76.484484   -293.20222    57418.217   -12752.996    926.53396    -13679.53    119.26649    238.36882 
   33700    77.815375   -571.83141    57452.468   -12753.383    942.65638    -13696.04     119.0446    242.51663 
   33750    79.470028   -527.87882    57473.563   -12732.552    962.70087   -13695.253    119.02226    247.67346 
   33800    75.765021   -863.75698    57466.807   -12736.291    917.81838    -13654.11    119.41037    236.12657 
   33850    77.011119   -507.11472    57480.072   -12717.058    932.91363   -13649.971    119.60509    240.01011 
   33900     78.30036   -208.36532    57541.449   -12745.495    948.53151   -13694.026    119.73437    244.02812 
   33950    77.225877   -625.16407    57522.581   -12786.305    935.51521    -13721.82    119.97082    240.67942 
[...]
   92050    75.286188   -208.79405     57439.83   -12786.963    912.01778   -13698.981    302.87642    234.63425 
   92100    75.226387   -542.21255    57418.948    -12794.67    911.29336   -13705.963    303.31762    234.44788 
   92150    74.727687   -688.20495    57400.893   -12782.881     905.2521   -13688.133    303.19401    232.89365 
   92200    73.313526   -157.67157    57432.733   -12788.137    888.12094   -13676.258    303.01352    228.48633 
   92250    76.500467   -713.71641     57498.02   -12768.952    926.72758   -13695.679    303.73295    238.41863 
   92300    73.559504   -627.92092    57514.839   -12760.668    891.10072   -13651.769    303.93168    229.25293 
   92350     78.87409    -618.6241    57550.607   -12740.747    955.48168   -13696.229    305.17459    245.81618 
   92400    75.272681   -687.17197    57518.213   -12763.202    911.85416   -13675.056    305.18543    234.59216 
   92450    72.960901   -692.98607    57466.049   -12783.691    883.84923    -13667.54    304.81585    227.38735 
   92500    74.411046   -675.27233    57493.801   -12774.405    901.41631   -13675.821     305.6508    231.90682 
   92550    77.113981   -632.48281     57508.04    -12747.26    934.15969   -13681.419    305.90716    240.33069 
   92600    77.688689   -901.94573    57486.538   -12712.159    941.12172   -13653.281    306.42103     242.1218 
   92650     78.81043   -652.08437    57467.174   -12728.234     954.7105   -13682.944    306.32474    245.61778 
   92700    77.609432   -447.66454    57455.827   -12709.743    940.16159   -13649.904    307.63329    241.87479 
   92750    79.548601   -575.45624    57446.174   -12712.869    963.65271   -13676.522    308.23015    247.91834 
   92800    73.808235   -844.09212    57433.852   -12738.754    894.11384   -13632.868    308.11294    230.02812 
   92850    78.524009   -852.45937    57359.064   -12734.625    951.24079   -13685.866    307.87904    244.72513 
   92900    77.770115   -423.76834    57333.453   -12735.458    942.10811   -13677.566    307.38513    242.37557 
   92950    76.069772   -470.75043    57392.381   -12712.916    921.51013   -13634.426    307.44452    237.07634 
   93000    77.947059   -563.71351     57423.26   -12725.549    944.25161   -13669.801    308.98022    242.92703 
   93050    78.249708   -252.49033    57466.309   -12720.083    947.91791   -13668.001    309.75259    243.87026 
   93100    78.970383   -228.53454    57524.116    -12711.34    956.64817   -13667.988    309.58328    246.11629 
   93150    78.693123   -429.39126    57550.083   -12738.339    953.28944   -13691.629    309.98112    245.25219 
   93200    78.466402    -123.0368    57623.272    -12770.47    950.54294   -13721.013    310.18986     244.5456 
   93250    75.232368   -670.37359    57669.268   -12773.378    911.36582   -13684.744    310.27539    234.46652 
   93300    74.930429   -347.97797    57651.653    -12762.13    907.70812   -13669.838    310.36616    233.52551 
   93350    76.244171   -461.55417    57627.547   -12724.584    923.62281   -13648.207    310.98294    237.61987 
   93400    77.445283   -696.52817    57624.101   -12702.707    938.17309    -13640.88    310.90949    241.36321 
   93450    79.774379   -523.85047    57609.936   -12683.183    966.38778   -13649.571    311.26558    248.62199 
   93500    79.339703   -639.49751    57655.055   -12682.324    961.12211   -13643.446    312.52733    247.26729 
   93550    77.772569    -435.8376    57697.287   -12698.334    942.13784   -13640.472    313.01429    242.38322 
   93600    75.333857   -611.40915    57707.159   -12742.262    912.59525   -13654.857     312.8719    234.78282 
   93650    76.519983   -729.71564    57691.121   -12756.413      926.964   -13683.377    312.92648    238.47946 
   93700    77.740301   -597.49246     57714.12   -12726.756    941.74694   -13668.503    313.65553    242.28265 
   93750    75.368265   -656.08269    57701.877   -12738.501    913.01207   -13651.513     314.0976    234.89005 
   93800    77.517142   -760.60396    57679.933   -12720.933    939.04359   -13659.977    314.50818    241.58717 
   93850    77.587311   -637.86164    57655.987   -12740.614    939.89361   -13680.508      314.846    241.80585 
   93900    77.363129    -334.8113    57693.415   -12718.904    937.17788   -13656.082    315.96699    241.10718 
   93950    77.545571   -971.91478    57699.681   -12764.165    939.38798   -13703.553    316.10375    241.67577 
   94000    76.925139    -600.4209    57694.124   -12744.539    931.87207   -13676.411    315.75549    239.74215 
   94050    78.094598   -479.46621    57680.755   -12737.544     946.0389   -13683.583    315.43094    243.38684 
   94100    79.440892   -713.70908    57687.281   -12738.879    962.34792   -13701.227    316.00471    247.58266 
   94150    79.020455   -239.69004    57717.902   -12725.943    957.25475   -13683.198    315.87071    246.27234 
   94200    80.040627   -584.21376    57741.073   -12712.428    969.61313   -13682.041    316.32729    249.45177 
   94250    76.704266   -503.78159    57712.251   -12723.543     929.1964   -13652.739    316.25806    239.05379 
   94300    80.457821   -525.78623    57730.282   -12679.784    974.66701   -13654.451    316.07641    250.75198 
   94350    78.323006   -652.30077    57723.627   -12716.229    948.80584   -13665.035    317.04174     244.0987 
   94400    77.485141   -593.37755    57737.756   -12734.984    938.65593    -13673.64    317.17856    241.48743 
   94450    78.592795   -496.33615    57819.967   -12733.912    952.07406   -13685.986    317.29948    244.93951 
   94500    75.712311   -1062.7923    57752.904   -12752.436    917.17984   -13669.616    317.26576    235.96229 
   94550    78.207605    -661.0321    57722.727   -12736.461    947.40787   -13683.869    317.74979    243.73904 
   94600    79.886679   -622.99489    57728.887   -12743.155    967.74819   -13710.903    318.02907    248.97198 
   94650    78.666478   -586.33716    57723.279   -12702.961    952.96667   -13655.928    317.17557    245.16915 
   94700     79.52829   -439.21583    57758.303   -12679.409    963.40667   -13642.816    317.57482    247.85504 
   94750    79.259144   -783.61887    57746.942   -12655.972    960.14622   -13616.118    318.22919    247.01623 
   94800    78.882346   -550.18106    57711.007   -12679.841     955.5817   -13635.423    319.19436    245.84191 
   94850       78.871   -862.33374    57683.573   -12684.285    955.44425    -13639.73    318.20916    245.80655 
   94900    78.735917   -322.29175    57708.122   -12698.084    953.80785   -13651.892    318.23338    245.38556 
   94950    78.275491   -781.66596    57698.541   -12704.807    948.23024   -13653.037     318.4949    243.95061 
   95000    77.592218    -363.4361    57721.976   -12723.548    939.95307   -13663.501    319.05041    241.82115 
   95050    78.521201    -391.2418    57750.499   -12727.644    951.20677   -13678.851    319.39975    244.71638 
   95100    75.527709   -351.07293    57751.233   -12761.528    914.94358   -13676.471    319.50829    235.38697 
   95150    76.681787    -205.2347    57778.078    -12760.35    928.92409   -13689.274    320.48131    238.98373 
   95200    75.457994   -426.72593    57862.996   -12755.443    914.09904   -13669.542    320.68582     235.1697 
   95250    76.857048   -496.16406     57866.73   -12745.934     931.0472   -13676.981     320.9415    239.52994 
   95300    80.200455   -459.63242    57870.062   -12741.783    971.54928   -13713.333    320.69182    249.94988 
   95350    74.568554   -336.28992      57929.2   -12775.949    903.32437   -13679.273    321.39297     232.3977 
   95400     75.82014   -435.48172    57954.634   -12774.482    918.48609   -13692.968    320.61294    236.29835 
   95450    78.129639   -769.98366    57919.857   -12769.717    946.46339    -13716.18    319.77425    243.49605 
   95500    78.930605    -849.2447    57831.514   -12772.814     956.1663    -13728.98    320.05495    245.99231 
   95550    78.622967   -669.50228    57838.297   -12765.506    952.43957   -13717.945    320.66591    245.03354 
   95600    77.029917   -726.72674    57843.319    -12780.97    933.14134   -13714.111    320.09697     240.0687 
   95650    77.329986   -483.54316    57834.495   -12739.202    936.77638   -13675.978    320.12969    241.00388 
   95700    76.707479   -54.206546    57864.361   -12743.241    929.23532   -13672.476    320.34672     239.0638 
   95750    77.412259   -710.28001    57879.747   -12738.822    937.77304   -13676.595    320.79673    241.26029 
   95800    77.727759   -374.53462    57903.129   -12732.291      941.595   -13673.886    321.17943    242.24357 
   95850    80.783531   -802.09984    57907.181   -12708.217    978.61267    -13686.83     321.6111    251.76708 
   95900    78.482716    -318.0251    57888.915   -12703.244    950.74057   -13653.984    321.12242    244.59644 
   95950    77.659684   -613.36736    57836.378   -12720.193    940.77034   -13660.964    321.36955    242.03141 
   96000    75.867738   -614.84036    57828.842   -12759.871    919.06269   -13678.933    321.72502    236.44669 
   96050    75.554305   -750.58077     57832.97   -12753.595    915.26576   -13668.861    321.79488    235.46986 
   96100     77.55418   -570.52081    57847.168     -12749.1    939.49227   -13688.592    320.94082     241.7026 
   96150    78.499936   -493.38365    57849.801   -12741.642    950.94917   -13692.591      321.335    244.65011 
   96200    78.696271   -538.16343    57863.157   -12718.893    953.32758   -13672.221    321.52156      245.262 
   96250    78.132339   -1137.0095    57853.329   -12731.223     946.4961   -13677.719    321.24129    243.50447 
   96300    78.054935   -616.17097    57840.014   -12747.175    945.55842   -13692.734    321.98353    243.26323 
   96350    78.397385   -1102.2803    57863.911   -12741.285    949.70687   -13690.992    321.67189     244.3305 
   96400    73.487008   -749.09315    57803.557   -12765.543     890.2225   -13655.765    321.89837      229.027 
   96450    76.443578   -946.83142    57763.059   -12744.293    926.03843   -13670.331    321.78162    238.24134 
   96500    78.226964   -496.83454    57751.553   -12755.081    947.64239   -13702.724    321.87707    243.79937 
   96550    75.522013   -656.63488    57823.346   -12757.068    914.87458   -13671.942    322.53328    235.36922 
   96600    76.088611    -884.9157    57865.993   -12775.386    921.73835   -13697.125    322.44288    237.13506 
   96650    76.756637   -1192.2696    57870.411   -12761.333    929.83083   -13691.164    323.02959      239.217 
   96700    80.823592    -571.8084    57853.576   -12719.034    979.09796   -13698.132    322.89892    251.89193 
   96750    76.795843   -1170.0645    57802.768   -12739.179    930.30577   -13669.485    323.11587    239.33919 
   96800    75.657876    -790.9251    57748.342   -12710.319    916.52043   -13626.839    323.29913    235.79265 
   96850    79.632697   -1035.9352    57772.009   -12709.325    964.67145   -13673.997    323.23563    248.18043 
   96900    78.324913   -629.02097    57790.057     -12716.9    948.82894   -13665.729    323.74452    244.10464 
   96950    75.536878   -805.58783    57793.471   -12718.473    915.05465   -13633.527     323.8478    235.41555 
   97000    77.382144   -877.41853    57730.618   -12717.934    937.40823   -13655.342    324.42049    241.16644 
   97050    77.365665   -314.49705    57695.777   -12715.341     937.2086    -13652.55    324.49406    241.11508 
   97100    78.723885    -550.2369    57687.078   -12701.487    953.66209   -13655.149    324.99677    245.34806 
   97150    79.078347   -825.61838    57678.344     -12685.9    957.95605   -13643.856    324.96857    246.45276 
   97200    77.647682   -1165.2035    57711.963   -12685.941    940.62495   -13626.566    325.80956      241.994 
   97250     77.25982   -736.86502    57682.065     -12697.9    935.92639   -13633.826    325.56951    240.78521 
   97300    77.497077   -735.32603    57681.205   -12717.396    938.80052   -13656.196     325.6194    241.52463 
   97350    77.925062   -532.92016    57699.512   -12711.679    943.98513   -13655.664    325.37061    242.85847 
   97400    78.166774   -335.88409    57755.363   -12700.384    946.91325   -13647.298    325.88268    243.61179 
   97450    78.981633   -602.54555    57822.727   -12703.593    956.78446   -13660.378    325.61896    246.15135 
   97500     78.80391   -946.85145    57761.349   -12703.174    954.63152   -13657.805    324.93149    245.59746 
   97550    76.344052   -616.25773    57774.234   -12714.529    924.83276   -13639.362    325.61436    237.93116 
   97600    78.718226   -750.23531    57828.606    -12728.21    953.59354   -13681.804    325.36635    245.33042 
   97650    74.499104   -637.39416    57933.989   -12777.727    902.48304    -13680.21    324.85342    232.18126 
   97700     78.66034   -350.97514    57965.195   -12749.184     952.8923   -13702.076     324.3692    245.15002 
   97750    76.281189   -552.34366    58000.049   -12746.877    924.07124   -13670.948    324.23422    237.73524 
   97800    79.002142   -758.42154    57960.002   -12718.282     957.0329   -13675.315     324.2735    246.21526 
   97850    77.920502   -655.86647    57935.652   -12731.059     943.9299   -13674.989    324.34707    242.84427 
   97900    76.259252   -467.03024    57944.895   -12744.471     923.8055   -13668.276    324.64408    237.66687 
   97950    76.802114   -766.02622    57947.924   -12759.506    930.38173   -13689.887    325.51073    239.35873 
   98000    76.211009   -588.26725    57904.323    -12775.28    923.22108   -13698.501    325.46304    237.51652 
   98050     79.81529   -935.11264    57918.329   -12749.188    966.88339   -13716.071     325.2027    248.74949 
   98100    76.017172   -418.93569    57877.872   -12742.497    920.87294    -13663.37     325.0639    236.91241 
   98150     74.88882   -479.19415    57880.333   -12757.081    907.20407   -13664.286    325.57759    233.39583 
   98200    75.175221   -420.01191    57950.247   -12749.942    910.67353   -13660.616    325.42735    234.28842 
   98250    75.825846   -796.19265    57947.568   -12719.792    918.55521   -13638.347    325.51852    236.31613 
   98300    79.209441   -687.27962    57941.332   -12699.355    959.54412   -13658.899    326.34898    246.86132 
   98350    77.614176   -496.41114    57939.432   -12712.626    940.21906   -13652.845    326.25784    241.88958 
   98400    80.655878   -367.49717    57947.582    -12727.12    977.06628   -13704.186    326.03045    251.36924 
   98450    76.822149   -494.85249     57973.32   -12752.987    930.62444   -13683.611    326.32327    239.42118 
   98500    74.140757   -439.54767    57987.668   -12762.655    898.14203   -13660.797     325.9805    231.06445 
   98550    75.805701   -702.63004    57978.148    -12752.99    918.31117   -13671.301    325.81316    236.25335 
   98600    75.924245   -684.45915    58017.274   -12739.681    919.74722   -13659.428    325.40051     236.6228 
   98650    76.298932   -968.89269     58010.83   -12732.218    924.28618   -13656.504    326.32541    237.79054 
   98700    76.573811   -755.31867    57968.508   -12724.409    927.61607   -13652.025    326.36283    238.64722 
   98750    77.910809   -640.05167    57991.936    -12737.69    943.81248   -13681.502    325.90152    242.81406 
   98800    75.173895   -639.15026    58056.203   -12737.056    910.65747   -13647.713    326.74915    234.28429 
   98850    76.817012   -750.34741    58110.973   -12738.933    930.56221   -13669.495    325.61757    239.40517 
   98900    76.948371   -963.53594     58114.59   -12753.634    932.15349   -13685.788    326.46285    239.81456 
   98950    77.461039    -677.7224    58090.011   -12753.621    938.36396   -13691.985    326.95417    241.41232 
   99000    77.345833   -652.58537    58115.735   -12754.007    936.96835   -13690.975    327.86781    241.05327 
   99050    75.852082   -585.33353      58103.6   -12733.897    918.87303    -13652.77     327.4591     236.3979 
   99100    74.545975   -1254.5395    58081.552   -12759.651    903.05084   -13662.701    327.70753    232.32733 
   99150    75.488068   -520.91827    57995.866   -12763.921    914.46336   -13678.384    328.36002    235.26343 
   99200    75.804291    -590.5888    57975.253   -12775.618    918.29409   -13693.912    328.87476    236.24896 
   99250    76.731051   -593.37991    57954.802   -12773.748    929.52088   -13703.269    328.67099    239.13726 
   99300    76.899959   -260.39538    57941.773   -12776.246    931.56703   -13707.813    329.34192    239.66367 
   99350    74.731337   -637.56479    57946.439   -12803.346    905.29632   -13708.642    329.61307    232.90503 
   99400    78.265709   -104.74642     57923.25   -12790.083    948.11174   -13738.194    328.81829    243.92012 
   99450    74.886331   -604.68119    57905.759   -12785.657    907.17392   -13692.831    328.88491    233.38808 
   99500    77.968052   -903.40782    57921.815   -12769.725    944.50592   -13714.231    328.94822    242.99246 
   99550    73.761347   -801.80298    57873.883   -12780.791    893.54585   -13674.337    329.10119    229.88199 
   99600    76.172242   -472.37064    57897.832   -12770.396    922.75146   -13693.147     329.2299     237.3957 
   99650    77.995506   -682.46041    57938.619   -12743.563     944.8385   -13688.401    329.08783    243.07802 
   99700    76.870535   -556.34011    57943.048   -12723.224    931.21059   -13654.434    329.17701    239.57198 
   99750    78.466415    -920.7673        57903   -12696.904    950.54309   -13647.447    329.32015    244.54564 
   99800    78.175158   -437.95651    57909.318   -12739.733    947.01481   -13686.747    329.42731    243.63792 
   99850     77.22731   -914.37531    57921.507     -12715.4    935.53256   -13650.932    328.78346    240.68389 
   99900    77.525119   -771.45074    57892.302   -12715.169    939.14022    -13654.31    329.23347    241.61203 
   99950    78.653747   -844.45694    57862.972   -12737.018    952.81244   -13689.831    329.56412    245.12947 
  100000    76.828415   -901.23885     57877.94    -12730.19    930.70035    -13660.89    329.53082     239.4407 
Loop time of 97.2985 on 80 procs for 100000 steps with 4065 atoms

Performance: 443.994 ns/day, 0.054 hours/ns, 1027.765 timesteps/s
99.5% CPU use with 80 MPI tasks x no OpenMP threads

MPI task timing breakdown:
Section |  min time  |  avg time  |  max time  |%varavg| %total
---------------------------------------------------------------
Pair    | 59.765     | 62.817     | 67.317     |  21.2 | 64.56
Neigh   | 0.52642    | 1.2424     | 2.2406     |  63.9 |  1.28
Comm    | 18.818     | 24.022     | 27.485     |  43.5 | 24.69
Output  | 0.13479    | 0.13828    | 0.274      |   4.1 |  0.14
Modify  | 7.0059     | 8.0922     | 9.395      |  17.3 |  8.32
Other   |            | 0.9864     |            |       |  1.01

Nlocal:        50.8125 ave          87 max          22 min
Histogram: 37 3 0 0 0 0 2 13 16 9
Nghost:        719.875 ave         751 max         674 min
Histogram: 1 1 9 8 13 10 6 8 15 9
Neighs:         0.00000 ave           0 max           0 min
Histogram: 80 0 0 0 0 0 0 0 0 0
FullNghs:      5622.60 ave       11256 max        1168 min
Histogram: 40 0 0 0 0 0 2 8 19 11

Total # of neighbors = 449808
Ave neighs/atom = 110.65387
Neighbor list builds = 5511
Dangerous builds = 0

write_data		${DIR}/data.eq-${NAME}-${TEMP}
write_data		run_14/data.eq-${NAME}-${TEMP}
write_data		run_14/data.eq-het_freeze_14-${TEMP}
write_data		run_14/data.eq-het_freeze_14-240
System init for write_data ...
undump          1

reset_timestep  0

unfix           2
unfix           3
unfix           4


################################################
#######         Run Simulation         #########
################################################

log				${DIR}/log.run_${NAME}
log				run_14/log.run_${NAME}
log				run_14/log.run_het_freeze_14
