LAMMPS data file via write_data, version 16 Mar 2018, timestep = 8000000

6328 atoms
2 atom types

0.0000000000000000e+00 4.9219999999999999e+01 xlo xhi
0.0000000000000000e+00 4.9019635930410494e+01 ylo yhi
1.9361438832264035e+00 5.8125856116783879e+01 zlo zhi

Masses

1 18.015
2 12.01

Atoms # atomic

4627 1 2.5570880197426065e+00 1.3129212792536216e+00 5.0732803604912036e+00 2 1 1
1911 1 2.8932030478141075e+00 1.4248318589202973e+00 2.4455541460487575e+00 6 0 0
533 1 7.0587193375422752e-01 4.5867661575729075e+00 2.7662554109121600e+00 -3 0 1
1458 1 5.1545020922339972e+00 3.7916160238124175e-01 8.8115335638593280e+00 0 2 0
3244 1 7.2656381827362342e+00 1.7540639534869580e+00 5.2551754254912133e+00 -2 -1 0
4771 1 7.5181928957692019e+00 1.9563602543011178e+00 2.5009697548321030e+00 -2 -2 1
4970 1 7.1724096480724384e+00 4.2752650576328781e+00 6.2070272659754266e+00 2 -2 0
3452 1 9.1798655838203764e+00 1.5514483771099391e+01 2.0478199954943510e+00 6 2 1
2861 1 3.7745664018058306e-01 4.9158132085812385e+00 5.5791456544951927e+00 -2 0 1
445 1 4.8943788786518043e+00 5.6620144643377026e+00 5.3930194110491438e+00 0 1 1
4985 1 7.4509127038179654e+00 4.1715531677560111e+00 8.8319804081841617e+00 3 0 0
1696 1 5.2882130494869743e+00 5.3031550037954327e+00 2.7305100920959493e+00 -1 1 0
1673 1 2.1522831696128426e+00 1.5904515627192271e+01 3.2548416010389136e+00 3 3 0
3637 1 9.3933088307236119e+00 8.0826807089346815e+00 6.2651793057613601e+00 5 -3 0
6144 1 2.0658924639267306e+00 1.6084691040710364e+01 5.8155413123109234e+00 -2 -1 0
2816 1 1.9858939388418451e+00 1.6220774831469296e+01 9.9924375237438117e+00 3 3 1
379 1 2.2201596599862197e+00 9.0272164742123682e+00 5.7415210218044823e+00 -1 2 0
5982 1 2.1169259582688875e+00 8.4756620181024207e+00 2.9366885840626873e+00 1 0 1
2905 1 4.1292795832191134e+00 1.2310905972162256e+01 1.0037809313215076e+01 7 2 1
1949 1 7.3159599591475946e+00 9.3185567032463616e+00 5.1791466066618934e+00 3 -3 0
6259 1 7.2717660278000409e+00 9.3895241372582099e+00 2.3625478447771977e+00 1 0 0
3170 1 7.0184698641919177e+00 1.1463907804642897e+01 6.5414026985509208e+00 0 0 1
3137 1 4.3190573747123233e+00 1.4893261117127913e+01 9.3556514403125774e+00 -2 3 0
4762 1 2.4166005156718429e+00 1.1541374203322055e+01 6.7081122191781644e+00 -1 1 0
4827 1 9.0392006712871353e+00 1.5380634389843971e+01 9.2304726329903062e+00 0 0 1
4928 1 2.0689169410501198e+00 1.0951363145928925e+01 9.4928089916729697e+00 -2 1 0
1920 1 4.6780314311578666e+00 1.2528703568150535e+01 5.5788762486503884e+00 -1 -4 1
1388 1 4.4335732430096222e+00 1.2574282449425521e+01 2.8665516653850314e+00 3 0 1
3713 1 4.4940363423777914e+00 1.5012453361111252e+01 6.5695840262983074e+00 0 4 1
2803 1 9.1338979784614214e+00 1.2750962949161543e+01 1.0029269630075051e+01 -1 2 0
3691 1 6.6730619247681062e+00 1.1527666212562075e+01 9.4263013749314055e+00 1 2 1
5102 1 9.5591872419656223e+00 5.7177928795040742e+00 2.6027129509705182e+00 -1 2 0
3318 1 9.1720634783818422e+00 1.5307667443266517e+01 6.5420191893217119e+00 3 1 0
6277 1 9.0928680655622571e+00 1.2869924819996044e+01 5.5487542651015813e+00 3 0 0
6159 1 9.0731617557521318e+00 1.2811825024087298e+01 2.5857533933352452e+00 4 2 1
6127 1 7.0207588484707601e+00 8.9150875442776645e+00 1.0152943727992348e+01 1 4 1
4880 1 2.2304425833285402e+00 8.2128511506079001e+00 9.8457165091232639e+00 3 2 1
4860 1 2.8655077449926742e+00 1.3349560941138718e+00 1.0120363136515831e+01 2 0 0
1351 1 2.6065860373617307e+00 3.9424510412558442e+00 9.2172667264233574e+00 -3 3 0
4671 1 7.6973375028746167e+00 1.5784720641605972e+00 9.5625040242208907e+00 1 5 1
3458 1 5.0643262056713994e+00 5.1881238123643012e+00 9.6584268143105874e+00 3 1 0
6012 1 2.8150118849490204e+00 3.8192763539742232e+00 6.2966134905672710e+00 4 1 1
6016 1 9.5704473021702228e+00 7.8607255401409528e+00 9.1142145155057896e+00 4 1 0
2827 1 4.7943585503886101e+00 7.8544219479422885e+00 9.1038161751931916e+00 -1 1 0
1970 1 4.7894658738064964e+00 8.2158620815289485e+00 6.3771647376166598e+00 -4 -1 0
5276 1 1.4019078291437656e-01 7.4147937161832802e+00 6.4189956180368739e+00 0 4 1
4823 1 4.9496907537009429e+00 2.6305287516256470e-01 6.0329302905438196e+00 4 -1 1
157 1 9.5595277275094226e+00 5.4625197861574497e+00 5.6134299805981680e+00 3 0 1
1615 1 9.7743264578486109e+00 4.1874312057853397e-01 8.7848879586595672e+00 -1 -6 0
1947 1 9.7885315282151559e+00 6.1677395035109706e-01 6.2002744536865251e+00 3 -1 0
1377 1 9.7028206729998345e+00 5.0801294952569664e+00 9.9818755430088633e+00 -3 4 1
3662 1 4.0789750267563818e-02 1.1998368522023565e+01 3.0535825086262767e+00 -6 2 1
1399 1 6.8241312883010909e+00 1.6327315079242489e+01 5.6432220947730940e+00 3 2 1
5121 1 5.3144042203934927e-01 5.1882994702310725e-02 9.1068959911707719e+00 0 3 0
1497 1 4.8534527757190498e+00 7.9555860888777801e+00 2.1678405998354293e+00 1 6 1
366 1 2.6619814365328063e+00 1.1962786192390296e+00 1.2761883189710412e+01 0 -1 0
1485 1 9.7809479808884028e+00 2.5981598201092404e+00 1.6168226704312666e+01 2 3 1
4502 1 4.8017784285787464e+00 2.4873372297640421e+00 1.3427691931354461e+01 -1 -1 1
3092 1 7.3152160956477816e+00 1.5728907441930355e+00 1.2591098912550734e+01 0 -2 1
6326 1 2.5400710535522748e+00 5.5690444360402962e+00 1.3592817346585601e+01 -1 4 1
4851 1 2.7026413926864012e-02 4.7694672292828546e+00 1.2962825917736051e+01 0 3 0
5963 1 5.1344713492909442e+00 5.0152052067235910e+00 1.2465771085267654e+01 3 -1 1
1465 1 7.1886640321674502e+00 6.5940527017985380e+00 1.3628034337575947e+01 2 -4 1
3243 1 9.4656636120585649e+00 7.9153144726476290e+00 2.0124250903338442e+01 3 3 0
6319 1 9.1008012996550978e+00 1.5574866457921184e+01 2.0080065448779138e+01 1 1 1
5034 1 2.4145872363370762e+00 8.2837156684566153e+00 1.2710043985141397e+01 1 2 0
1790 1 4.4523841864340374e+00 1.0057124386496589e+01 1.3821702855527645e+01 1 1 1
96 1 9.5202803024853964e+00 1.0165547516905571e+01 1.3581232045604649e+01 0 2 1
1625 1 6.9519044286342968e+00 9.1707604967991223e+00 1.2789897655303024e+01 4 -2 1
331 1 1.9833404649962458e+00 1.3530549488794797e+01 1.3615906411815345e+01 1 -6 0
6109 1 4.3784141476127445e+00 1.2520375920225064e+01 1.2819181089181635e+01 -1 1 1
6048 1 6.8047023075611159e+00 1.4120825586308833e+01 1.3605384710893427e+01 3 2 1
4838 1 9.2652892458171845e+00 1.2808300055353909e+01 1.2863326917665329e+01 -3 1 0
1850 1 3.7925183479955810e-01 2.3361971869315719e+00 1.3950751148855135e+01 -1 2 0
6092 1 2.6758146765424993e+00 3.6000333735066921e+00 2.0076946648220414e+01 -2 3 1
6034 1 2.8655976869950885e+00 3.5186074796538156e+00 1.7143540772912566e+01 -2 3 1
254 1 5.2236864245731542e+00 2.5374319026418104e+00 1.6076383345020137e+01 1 1 0
3269 1 7.0342872847619988e+00 3.9666382230801953e+00 1.9867909893597087e+01 -1 3 0
3488 1 7.4596818472941075e+00 3.6486733870461325e+00 1.6993571143585761e+01 1 4 1
431 1 9.1313783015396339e+00 1.5391198899199177e+01 1.7229422147750562e+01 -1 2 0
6168 1 2.6800127269311718e+00 6.0460281655740449e+00 1.6331275668790671e+01 -6 3 0
2813 1 4.9647332794670405e+00 7.3087667336079205e+00 1.7161103837793579e+01 0 3 0
1861 1 4.9765342470566853e+00 7.4208018782395513e+00 2.0089104097736552e+01 1 2 1
381 1 2.0231871914248267e+00 1.6211834812011791e+01 1.2873890329842750e+01 1 2 0
5073 1 9.5853766692264291e+00 7.7863919354045628e+00 1.7226806033338370e+01 1 2 1
246 1 7.2242102066024270e+00 6.3757345399757934e+00 1.6366331388657620e+01 0 2 0
1483 1 9.5668356271342088e+00 5.2776662599818449e+00 1.2617581178559069e+01 3 2 1
3221 1 4.7907545276526031e+00 9.8178299731126639e+00 1.6629752764847971e+01 5 -1 0
505 1 2.5167584768307689e+00 1.1129594905136672e+01 1.7041431498181367e+01 0 0 1
1881 1 2.3720469377856954e+00 1.1364043466494895e+01 1.9762756725826797e+01 1 2 0
132 1 9.3842147368102182e+00 1.0156211020045729e+01 1.6275365060223990e+01 3 2 1
175 1 6.9860708463425230e+00 1.1160580981946618e+01 1.7131677553888508e+01 3 2 0
3257 1 6.7891610920912902e+00 1.1408321547972486e+01 2.0109070634312015e+01 1 -1 1
3124 1 4.6519480393770092e+00 1.4917176560044869e+01 1.7534721028309818e+01 4 -2 1
1842 1 2.4624292795773166e+00 1.3532061059074486e+01 1.6270552518110357e+01 1 4 0
2081 1 4.4631039359522289e+00 1.5064091909855941e+01 2.0425934346637131e+01 0 -3 0
3218 1 6.9806849341864812e+00 1.3926569522444867e+01 1.6366737663847523e+01 -3 0 1
1340 1 2.3379854481548318e-01 2.4549383978233696e+00 1.6727755309785181e+01 4 -1 1
1428 1 4.5455889233761981e-01 7.3294072649297020e+00 1.9989789033026184e+01 2 -2 1
6316 1 4.5535267869830348e-01 9.6584549318060553e+00 1.6168913653736332e+01 5 2 1
6107 1 9.3075182472228697e+00 1.0499293820216717e+01 2.0661034315498284e+01 -1 -2 1
2876 1 1.8021028660219260e-01 7.1636665716953685e+00 1.7327242370398864e+01 -4 -1 1
454 1 1.2798366984039630e-02 1.4675135250595352e+01 1.7313406672646295e+01 3 -1 1
3607 1 9.5721921840510991e+00 2.6515747792053754e+00 1.3520341086218721e+01 0 6 0
182 1 2.5112672278030006e+00 3.0965555964100826e+00 2.4105059641448761e+01 1 -3 1
3601 1 9.2083101739858328e+00 8.0197818980903985e+00 2.4422874066705479e+01 1 2 0
1609 1 9.7271052119937114e+00 2.6129123810652510e+00 2.3257402662471232e+01 -2 0 1
3059 1 5.0515098309852062e+00 2.4430496294959139e+00 2.3277658234300031e+01 4 -2 1
5048 1 7.3488451291235819e+00 3.7759640455506691e+00 2.4157046322728235e+01 0 -2 0
724 2 8.6135000000000002e+00 1.3498160618518835e+01 2.6677870277643052e+01 0 0 0
5964 1 2.0814650576624483e+00 1.3746449052425914e+01 2.1035592791639804e+01 2 1 0
1884 1 2.0390124970544381e+00 6.0216994926656930e+00 2.3833963453599154e+01 1 -1 0
677 2 6.1524999999999990e+00 1.3498160618518829e+01 2.6677870277643052e+01 0 0 0
2918 1 4.5478302665480204e+00 7.4664704070139374e+00 2.4040471161617464e+01 4 1 0
3010 1 7.1114829839883518e+00 6.3343216999861287e+00 2.3778282801798348e+01 1 1 1
80 1 5.9654687158440989e-01 1.9958652618968142e+00 2.0940090059580609e+01 1 0 0
3522 1 2.0582664471485721e+00 1.1263209180674576e+01 2.4341944455043453e+01 1 2 0
2943 1 4.3790894004627621e+00 1.0049252321892400e+01 2.3435809496555116e+01 2 1 1
216 1 9.2298649117734879e+00 1.0620549159962639e+01 2.3490961430301169e+01 0 1 0
2973 1 6.6333202364971973e+00 1.1338118082146934e+01 2.4368276096867863e+01 -2 -1 1
718 2 6.1524999999999990e+00 1.4919019630994494e+01 2.6677870277643052e+01 0 0 0
5228 1 8.1347581750899692e-02 9.9344345097373292e+00 2.0721251759700117e+01 0 1 1
4745 1 1.7565390993366283e+00 1.3685358325159884e+01 2.3477082269374112e+01 1 0 1
1334 1 3.8436178799422782e+00 1.5152393304345226e+01 2.4219872768808926e+01 -1 -2 0
1730 1 3.7364990212571969e-01 1.4935651610980485e+00 2.3495384590880111e+01 0 0 0
4890 1 8.8643195697178605e+00 1.5627877397192156e+01 2.4125325042942148e+01 0 1 0
1710 1 6.5252960506380466e+00 1.4155382367082080e+01 2.4082820098852704e+01 2 1 0
552 2 0.0000000000000000e+00 2.8417180249513345e+00 2.6677870277643052e+01 0 0 0
554 2 0.0000000000000000e+00 0.0000000000000000e+00 2.6677870277643052e+01 0 0 0
556 2 1.2305000000000001e+00 7.1042950623783474e-01 2.6677870277643052e+01 0 0 0
563 2 1.2305000000000001e+00 2.1312885187134998e+00 2.6677870277643052e+01 0 0 0
565 2 2.4610000000000003e+00 2.8417180249513345e+00 2.6677870277643052e+01 0 0 0
567 2 2.4610000000000003e+00 0.0000000000000000e+00 2.6677870277643052e+01 0 0 0
569 2 3.6915000000000004e+00 7.1042950623783474e-01 2.6677870277643052e+01 0 0 0
584 2 3.6914999999999996e+00 2.1312885187134998e+00 2.6677870277643052e+01 0 0 0
586 2 4.9220000000000006e+00 2.8417180249513332e+00 2.6677870277643052e+01 0 0 0
588 2 4.9220000000000006e+00 0.0000000000000000e+00 2.6677870277643052e+01 0 0 0
590 2 6.1524999999999999e+00 7.1042950623783407e-01 2.6677870277643052e+01 0 0 0
613 2 6.1524999999999999e+00 2.1312885187134989e+00 2.6677870277643052e+01 0 0 0
615 2 7.3829999999999991e+00 2.8417180249513345e+00 2.6677870277643052e+01 0 0 0
617 2 7.3829999999999991e+00 0.0000000000000000e+00 2.6677870277643052e+01 0 0 0
619 2 8.6134999999999984e+00 7.1042950623783407e-01 2.6677870277643052e+01 0 0 0
650 2 8.6134999999999984e+00 2.1312885187135002e+00 2.6677870277643052e+01 0 0 0
559 2 0.0000000000000000e+00 4.2625770374269996e+00 2.6677870277643052e+01 0 0 0
561 2 1.2305000000000001e+00 4.9730065436648339e+00 2.6677870277643052e+01 0 0 0
576 2 1.2305000000000001e+00 6.3938655561404980e+00 2.6677870277643052e+01 0 0 0
580 2 2.4610000000000003e+00 4.2625770374269996e+00 2.6677870277643052e+01 0 0 0
582 2 3.6914999999999996e+00 4.9730065436648339e+00 2.6677870277643052e+01 0 0 0
605 2 3.6914999999999996e+00 6.3938655561404980e+00 2.6677870277643052e+01 0 0 0
557 2 0.0000000000000000e+00 7.1042950623783341e+00 2.6677870277643052e+01 0 0 0
578 2 2.4610000000000003e+00 7.1042950623783341e+00 2.6677870277643052e+01 0 0 0
609 2 4.9220000000000006e+00 4.2625770374269978e+00 2.6677870277643052e+01 0 0 0
611 2 6.1524999999999999e+00 4.9730065436648339e+00 2.6677870277643052e+01 0 0 0
642 2 6.1524999999999999e+00 6.3938655561404980e+00 2.6677870277643052e+01 0 0 0
646 2 7.3829999999999991e+00 4.2625770374269996e+00 2.6677870277643052e+01 0 0 0
648 2 8.6135000000000002e+00 4.9730065436648339e+00 2.6677870277643052e+01 0 0 0
687 2 8.6135000000000002e+00 6.3938655561404980e+00 2.6677870277643052e+01 0 0 0
607 2 4.9220000000000006e+00 7.1042950623783341e+00 2.6677870277643052e+01 0 0 0
644 2 7.3830000000000009e+00 7.1042950623783341e+00 2.6677870277643052e+01 0 0 0
572 2 0.0000000000000000e+00 8.5251540748539991e+00 2.6677870277643052e+01 0 0 0
574 2 1.2305000000000001e+00 9.2355835810918343e+00 2.6677870277643052e+01 0 0 0
601 2 2.4610000000000003e+00 8.5251540748539991e+00 2.6677870277643052e+01 0 0 0
603 2 3.6915000000000004e+00 9.2355835810918343e+00 2.6677870277643052e+01 0 0 0
570 2 0.0000000000000000e+00 1.1366872099805333e+01 2.6677870277643052e+01 0 0 0
597 2 1.2305000000000001e+00 1.0656442593567498e+01 2.6677870277643052e+01 0 0 0
599 2 2.4610000000000003e+00 1.1366872099805333e+01 2.6677870277643052e+01 0 0 0
634 2 3.6914999999999996e+00 1.0656442593567499e+01 2.6677870277643052e+01 0 0 0
638 2 4.9220000000000006e+00 8.5251540748539991e+00 2.6677870277643052e+01 0 0 0
640 2 6.1524999999999999e+00 9.2355835810918343e+00 2.6677870277643052e+01 0 0 0
683 2 7.3830000000000009e+00 8.5251540748539991e+00 2.6677870277643052e+01 0 0 0
685 2 8.6134999999999984e+00 9.2355835810918343e+00 2.6677870277643052e+01 0 0 0
636 2 4.9220000000000006e+00 1.1366872099805333e+01 2.6677870277643052e+01 0 0 0
679 2 6.1524999999999999e+00 1.0656442593567499e+01 2.6677870277643052e+01 0 0 0
681 2 7.3829999999999991e+00 1.1366872099805333e+01 2.6677870277643052e+01 0 0 0
726 2 8.6134999999999984e+00 1.0656442593567498e+01 2.6677870277643052e+01 0 0 0
671 2 3.6915000000000004e+00 1.4919019630994494e+01 2.6677870277643052e+01 0 0 0
595 2 1.2305000000000001e+00 1.3498160618518829e+01 2.6677870277643052e+01 0 0 0
632 2 3.6915000000000004e+00 1.3498160618518829e+01 2.6677870277643052e+01 0 0 0
593 2 0.0000000000000000e+00 1.2787731112280996e+01 2.6677870277643052e+01 0 0 0
591 2 0.0000000000000000e+00 1.5629449137232333e+01 2.6677870277643052e+01 0 0 0
626 2 1.2305000000000001e+00 1.4919019630994494e+01 2.6677870277643052e+01 0 0 0
630 2 2.4610000000000003e+00 1.2787731112280996e+01 2.6677870277643052e+01 0 0 0
628 2 2.4610000000000003e+00 1.5629449137232328e+01 2.6677870277643052e+01 0 0 0
765 2 8.6135000000000002e+00 1.4919019630994494e+01 2.6677870277643052e+01 0 0 0
720 2 7.3829999999999991e+00 1.5629449137232333e+01 2.6677870277643052e+01 0 0 0
675 2 4.9220000000000006e+00 1.2787731112280996e+01 2.6677870277643052e+01 0 0 0
722 2 7.3829999999999991e+00 1.2787731112280996e+01 2.6677870277643052e+01 0 0 0
673 2 4.9220000000000006e+00 1.5629449137232333e+01 2.6677870277643052e+01 0 0 0
1969 1 4.5918602354741687e+00 1.0048373951685150e+01 2.0803090173068494e+01 -1 2 0
3501 1 7.2589152050281660e+00 6.5153812023031970e+00 2.1144464710157653e+01 2 -1 0
3367 1 6.9858080065016628e+00 1.4157421243292228e+01 2.1255604090469209e+01 -2 2 0
2949 1 2.7481847409494091e+00 6.2136071103689057e+00 2.1140111003531317e+01 1 -3 1
3546 1 4.9583846552933473e+00 2.3419901987853931e+00 2.0729023189110919e+01 0 1 0
2879 1 9.4082946905126157e+00 2.6875195741587614e+00 2.0741143203484224e+01 3 0 1
553 2 0.0000000000000000e+00 1.4208590124756650e+00 3.0031000000005228e+01 0 0 0
555 2 0.0000000000000000e+00 0.0000000000000000e+00 3.0031000000005228e+01 0 0 0
564 2 1.2305000000000001e+00 2.1312885187134998e+00 3.0031000000005228e+01 0 0 0
566 2 2.4610000000000003e+00 1.4208590124756650e+00 3.0031000000005228e+01 0 0 0
568 2 2.4610000000000003e+00 0.0000000000000000e+00 3.0031000000005228e+01 0 0 0
585 2 3.6914999999999996e+00 2.1312885187134998e+00 3.0031000000005228e+01 0 0 0
562 2 1.2305000000000001e+00 3.5521475311891644e+00 3.0031000000005228e+01 0 0 0
583 2 3.6914999999999996e+00 3.5521475311891644e+00 3.0031000000005228e+01 0 0 0
881 2 0.0000000000000000e+00 2.8417180249513345e+00 3.3384129722369067e+01 0 0 0
882 2 0.0000000000000000e+00 0.0000000000000000e+00 3.3384129722369067e+01 0 0 0
883 2 1.2305000000000001e+00 7.1042950623783474e-01 3.3384129722369067e+01 0 0 0
887 2 1.2305000000000001e+00 2.1312885187134998e+00 3.3384129722369067e+01 0 0 0
888 2 2.4610000000000003e+00 2.8417180249513345e+00 3.3384129722369067e+01 0 0 0
889 2 2.4610000000000003e+00 0.0000000000000000e+00 3.3384129722369067e+01 0 0 0
890 2 3.6915000000000004e+00 7.1042950623783474e-01 3.3384129722369067e+01 0 0 0
898 2 3.6914999999999996e+00 2.1312885187134998e+00 3.3384129722369067e+01 0 0 0
587 2 4.9220000000000006e+00 1.4208590124756650e+00 3.0031000000005228e+01 0 0 0
589 2 4.9220000000000006e+00 0.0000000000000000e+00 3.0031000000005228e+01 0 0 0
614 2 6.1524999999999999e+00 2.1312885187134989e+00 3.0031000000005228e+01 0 0 0
616 2 7.3829999999999991e+00 1.4208590124756659e+00 3.0031000000005228e+01 0 0 0
618 2 7.3829999999999991e+00 0.0000000000000000e+00 3.0031000000005228e+01 0 0 0
651 2 8.6134999999999984e+00 2.1312885187135002e+00 3.0031000000005228e+01 0 0 0
612 2 6.1524999999999999e+00 3.5521475311891644e+00 3.0031000000005228e+01 0 0 0
649 2 8.6134999999999984e+00 3.5521475311891657e+00 3.0031000000005228e+01 0 0 0
899 2 4.9220000000000006e+00 2.8417180249513332e+00 3.3384129722369067e+01 0 0 0
900 2 4.9220000000000006e+00 0.0000000000000000e+00 3.3384129722369067e+01 0 0 0
901 2 6.1524999999999999e+00 7.1042950623783407e-01 3.3384129722369067e+01 0 0 0
913 2 6.1524999999999999e+00 2.1312885187134989e+00 3.3384129722369067e+01 0 0 0
914 2 7.3829999999999991e+00 2.8417180249513345e+00 3.3384129722369067e+01 0 0 0
915 2 7.3829999999999991e+00 0.0000000000000000e+00 3.3384129722369067e+01 0 0 0
916 2 8.6134999999999984e+00 7.1042950623783407e-01 3.3384129722369067e+01 0 0 0
932 2 8.6134999999999984e+00 2.1312885187135002e+00 3.3384129722369067e+01 0 0 0
558 2 0.0000000000000000e+00 5.6834360499026637e+00 3.0031000000005228e+01 0 0 0
560 2 0.0000000000000000e+00 4.2625770374269996e+00 3.0031000000005228e+01 0 0 0
577 2 1.2305000000000001e+00 6.3938655561404980e+00 3.0031000000005228e+01 0 0 0
579 2 2.4610000000000003e+00 5.6834360499026637e+00 3.0031000000005228e+01 0 0 0
581 2 2.4610000000000003e+00 4.2625770374269996e+00 3.0031000000005228e+01 0 0 0
606 2 3.6914999999999996e+00 6.3938655561404980e+00 3.0031000000005228e+01 0 0 0
575 2 1.2305000000000001e+00 7.8147245686161639e+00 3.0031000000005228e+01 0 0 0
604 2 3.6914999999999996e+00 7.8147245686161639e+00 3.0031000000005228e+01 0 0 0
885 2 0.0000000000000000e+00 4.2625770374269996e+00 3.3384129722369067e+01 0 0 0
886 2 1.2305000000000001e+00 4.9730065436648339e+00 3.3384129722369067e+01 0 0 0
894 2 1.2305000000000001e+00 6.3938655561404980e+00 3.3384129722369067e+01 0 0 0
896 2 2.4610000000000003e+00 4.2625770374269996e+00 3.3384129722369067e+01 0 0 0
897 2 3.6914999999999996e+00 4.9730065436648339e+00 3.3384129722369067e+01 0 0 0
909 2 3.6914999999999996e+00 6.3938655561404980e+00 3.3384129722369067e+01 0 0 0
884 2 0.0000000000000000e+00 7.1042950623783341e+00 3.3384129722369067e+01 0 0 0
895 2 2.4610000000000003e+00 7.1042950623783341e+00 3.3384129722369067e+01 0 0 0
608 2 4.9220000000000006e+00 5.6834360499026637e+00 3.0031000000005228e+01 0 0 0
610 2 4.9220000000000006e+00 4.2625770374269978e+00 3.0031000000005228e+01 0 0 0
643 2 6.1524999999999999e+00 6.3938655561404980e+00 3.0031000000005228e+01 0 0 0
645 2 7.3829999999999991e+00 5.6834360499026637e+00 3.0031000000005228e+01 0 0 0
647 2 7.3829999999999991e+00 4.2625770374269996e+00 3.0031000000005228e+01 0 0 0
688 2 8.6135000000000002e+00 6.3938655561404980e+00 3.0031000000005228e+01 0 0 0
641 2 6.1524999999999999e+00 7.8147245686161639e+00 3.0031000000005228e+01 0 0 0
686 2 8.6135000000000002e+00 7.8147245686161639e+00 3.0031000000005228e+01 0 0 0
911 2 4.9220000000000006e+00 4.2625770374269978e+00 3.3384129722369067e+01 0 0 0
912 2 6.1524999999999999e+00 4.9730065436648339e+00 3.3384129722369067e+01 0 0 0
928 2 6.1524999999999999e+00 6.3938655561404980e+00 3.3384129722369067e+01 0 0 0
930 2 7.3829999999999991e+00 4.2625770374269996e+00 3.3384129722369067e+01 0 0 0
931 2 8.6135000000000002e+00 4.9730065436648339e+00 3.3384129722369067e+01 0 0 0
951 2 8.6135000000000002e+00 6.3938655561404980e+00 3.3384129722369067e+01 0 0 0
910 2 4.9220000000000006e+00 7.1042950623783341e+00 3.3384129722369067e+01 0 0 0
929 2 7.3830000000000009e+00 7.1042950623783341e+00 3.3384129722369067e+01 0 0 0
571 2 0.0000000000000000e+00 9.9460130873296642e+00 3.0031000000005228e+01 0 0 0
573 2 0.0000000000000000e+00 8.5251540748539991e+00 3.0031000000005228e+01 0 0 0
600 2 2.4610000000000003e+00 9.9460130873296642e+00 3.0031000000005228e+01 0 0 0
602 2 2.4610000000000003e+00 8.5251540748539991e+00 3.0031000000005228e+01 0 0 0
596 2 1.2305000000000001e+00 1.2077301606043163e+01 3.0031000000005228e+01 0 0 0
598 2 1.2305000000000001e+00 1.0656442593567498e+01 3.0031000000005228e+01 0 0 0
633 2 3.6914999999999996e+00 1.2077301606043163e+01 3.0031000000005228e+01 0 0 0
635 2 3.6914999999999996e+00 1.0656442593567499e+01 3.0031000000005228e+01 0 0 0
892 2 0.0000000000000000e+00 8.5251540748539991e+00 3.3384129722369067e+01 0 0 0
893 2 1.2305000000000001e+00 9.2355835810918343e+00 3.3384129722369067e+01 0 0 0
907 2 2.4610000000000003e+00 8.5251540748539991e+00 3.3384129722369067e+01 0 0 0
908 2 3.6915000000000004e+00 9.2355835810918343e+00 3.3384129722369067e+01 0 0 0
891 2 0.0000000000000000e+00 1.1366872099805333e+01 3.3384129722369067e+01 0 0 0
905 2 1.2305000000000001e+00 1.0656442593567498e+01 3.3384129722369067e+01 0 0 0
906 2 2.4610000000000003e+00 1.1366872099805333e+01 3.3384129722369067e+01 0 0 0
924 2 3.6914999999999996e+00 1.0656442593567499e+01 3.3384129722369067e+01 0 0 0
637 2 4.9220000000000006e+00 9.9460130873296642e+00 3.0031000000005228e+01 0 0 0
639 2 4.9220000000000006e+00 8.5251540748539991e+00 3.0031000000005228e+01 0 0 0
682 2 7.3830000000000009e+00 9.9460130873296642e+00 3.0031000000005228e+01 0 0 0
684 2 7.3830000000000009e+00 8.5251540748539991e+00 3.0031000000005228e+01 0 0 0
678 2 6.1524999999999999e+00 1.2077301606043163e+01 3.0031000000005228e+01 0 0 0
680 2 6.1524999999999999e+00 1.0656442593567499e+01 3.0031000000005228e+01 0 0 0
725 2 8.6135000000000002e+00 1.2077301606043163e+01 3.0031000000005228e+01 0 0 0
727 2 8.6134999999999984e+00 1.0656442593567498e+01 3.0031000000005228e+01 0 0 0
926 2 4.9220000000000006e+00 8.5251540748539991e+00 3.3384129722369067e+01 0 0 0
927 2 6.1524999999999999e+00 9.2355835810918343e+00 3.3384129722369067e+01 0 0 0
949 2 7.3830000000000009e+00 8.5251540748539991e+00 3.3384129722369067e+01 0 0 0
950 2 8.6134999999999984e+00 9.2355835810918343e+00 3.3384129722369067e+01 0 0 0
925 2 4.9220000000000006e+00 1.1366872099805333e+01 3.3384129722369067e+01 0 0 0
947 2 6.1524999999999999e+00 1.0656442593567499e+01 3.3384129722369067e+01 0 0 0
948 2 7.3829999999999991e+00 1.1366872099805333e+01 3.3384129722369067e+01 0 0 0
971 2 8.6134999999999984e+00 1.0656442593567498e+01 3.3384129722369067e+01 0 0 0
594 2 0.0000000000000000e+00 1.2787731112280996e+01 3.0031000000005228e+01 0 0 0
631 2 2.4610000000000003e+00 1.2787731112280996e+01 3.0031000000005228e+01 0 0 0
592 2 0.0000000000000000e+00 1.4208590124756663e+01 3.0031000000005228e+01 0 0 0
627 2 1.2305000000000001e+00 1.4919019630994494e+01 3.0031000000005228e+01 0 0 0
629 2 2.4610000000000003e+00 1.4208590124756663e+01 3.0031000000005228e+01 0 0 0
672 2 3.6915000000000004e+00 1.4919019630994494e+01 3.0031000000005228e+01 0 0 0
903 2 0.0000000000000000e+00 1.2787731112280996e+01 3.3384129722369067e+01 0 0 0
904 2 1.2305000000000001e+00 1.3498160618518829e+01 3.3384129722369067e+01 0 0 0
922 2 2.4610000000000003e+00 1.2787731112280996e+01 3.3384129722369067e+01 0 0 0
923 2 3.6915000000000004e+00 1.3498160618518829e+01 3.3384129722369067e+01 0 0 0
902 2 0.0000000000000000e+00 1.5629449137232333e+01 3.3384129722369067e+01 0 0 0
920 2 1.2305000000000001e+00 1.4919019630994494e+01 3.3384129722369067e+01 0 0 0
921 2 2.4610000000000003e+00 1.5629449137232328e+01 3.3384129722369067e+01 0 0 0
943 2 3.6915000000000004e+00 1.4919019630994494e+01 3.3384129722369067e+01 0 0 0
676 2 4.9220000000000006e+00 1.2787731112280996e+01 3.0031000000005228e+01 0 0 0
723 2 7.3829999999999991e+00 1.2787731112280996e+01 3.0031000000005228e+01 0 0 0
674 2 4.9220000000000006e+00 1.4208590124756663e+01 3.0031000000005228e+01 0 0 0
719 2 6.1524999999999990e+00 1.4919019630994494e+01 3.0031000000005228e+01 0 0 0
721 2 7.3830000000000009e+00 1.4208590124756663e+01 3.0031000000005228e+01 0 0 0
766 2 8.6135000000000002e+00 1.4919019630994494e+01 3.0031000000005228e+01 0 0 0
945 2 4.9220000000000006e+00 1.2787731112280996e+01 3.3384129722369067e+01 0 0 0
946 2 6.1524999999999990e+00 1.3498160618518829e+01 3.3384129722369067e+01 0 0 0
969 2 7.3829999999999991e+00 1.2787731112280996e+01 3.3384129722369067e+01 0 0 0
970 2 8.6135000000000002e+00 1.3498160618518835e+01 3.3384129722369067e+01 0 0 0
944 2 4.9220000000000006e+00 1.5629449137232333e+01 3.3384129722369067e+01 0 0 0
967 2 6.1524999999999990e+00 1.4919019630994494e+01 3.3384129722369067e+01 0 0 0
968 2 7.3829999999999991e+00 1.5629449137232333e+01 3.3384129722369067e+01 0 0 0
991 2 8.6135000000000002e+00 1.4919019630994494e+01 3.3384129722369067e+01 0 0 0
5014 1 3.5441108876053486e+00 1.8370873508156875e+00 3.6498659703803696e+01 0 -2 -1
371 1 1.0694554712459488e+00 2.8223240360889665e+00 3.5733146978830746e+01 3 6 0
5089 1 8.1354164450958866e+00 1.2340458967489283e+01 3.5766390819113525e+01 2 2 -1
1869 1 5.2332427343911476e+00 3.7041995289570804e+00 3.5835660452001449e+01 -1 3 0
3361 1 7.8216164186380848e+00 2.8565027441374831e+00 3.6581931849691486e+01 2 -1 -1
3585 1 9.6958274885943023e+00 4.6653896430435040e+00 3.6149829979041613e+01 -2 0 -1
2007 1 2.3389957029867467e+00 7.4510293051784293e+00 3.5657593000111888e+01 -1 -1 -1
436 1 5.0190574874343667e+00 6.3534499435950735e+00 3.6596063626565481e+01 4 0 -1
1809 1 8.3285187323727019e+00 4.7131760603668998e-01 3.5652574826102111e+01 -2 1 -1
3432 1 3.1658084729325937e+00 1.4171114860976834e+01 3.9275517748905514e+01 0 2 -1
3516 1 1.9065121150897981e+00 1.0343875159636609e+01 3.9240658709663151e+01 -1 3 -1
3456 1 7.8243523009160496e+00 3.1184346004427548e+00 3.9255531673122917e+01 2 0 0
1830 1 9.3515094604227613e+00 7.1994822228426836e+00 3.6706013511500942e+01 -1 3 -1
1528 1 6.2823596238455626e-01 1.5557811276865781e+01 3.5790639452557272e+01 -4 -7 -1
6299 1 3.1871005461231530e+00 1.4371091379319047e+01 3.6515801408053505e+01 -2 1 -1
1516 1 3.5461066888039707e+00 1.1829358397670759e+01 3.5761626227616560e+01 3 4 0
1723 1 1.7533023371642495e+00 9.8499198525697302e+00 3.6378464910557710e+01 2 1 0
3497 1 6.9445949095626327e+00 7.8691135013518503e+00 3.5729377639970309e+01 -2 0 0
1289 1 6.0958910209186907e+00 1.0296975122838955e+01 3.6390190508126793e+01 3 0 0
3462 1 7.7063953075664520e+00 1.4889273974754540e+01 3.6743852448294462e+01 -4 0 -1
4843 1 3.4538250992810188e-01 5.4275282138278316e+00 3.6259189738706880e+01 -2 6 -1
3618 1 3.3960820489508898e+00 2.1632363823868288e+00 3.9184213540254504e+01 5 6 -1
62 1 5.2869562954017297e+00 1.6047923251589850e+01 3.5883792615398406e+01 2 2 -1
3063 1 6.2577267663671163e+00 1.0711082425583603e+01 3.9220131565872194e+01 -1 0 0
1318 1 5.8604942606675003e-01 5.5842448371329558e+00 3.9261830332738796e+01 0 4 -1
4724 1 4.9755942100737443e+00 6.4489444112431400e+00 3.9357427340637855e+01 3 -1 0
5025 1 9.6485818629668163e-01 2.8201087950605048e+00 4.2905144287565648e+01 0 -1 -1
6208 1 3.3563930203567098e+00 1.8185764534789206e+00 4.3724452717840961e+01 3 -1 -1
3277 1 9.1446095266940075e-01 2.8163003995664395e+00 4.0138615416850087e+01 1 0 -1
1847 1 5.2726602060598173e+00 3.5660100749539727e+00 4.3117819158157147e+01 -1 9 -1
1598 1 7.8736424974093655e+00 2.5888893949401424e+00 4.3647835725277119e+01 1 0 0
93 1 5.4275504445699303e+00 3.7006210447464971e+00 4.0453370173258861e+01 0 2 0
3115 1 1.2128253752956637e+00 1.5358899808460373e+01 4.0603310941027928e+01 5 1 0
1631 1 2.7224383132132175e+00 1.4042714169504508e+01 4.6725207315987973e+01 -3 -2 -1
5020 1 2.6657755874549727e+00 6.9841812371124563e+00 4.2879412999660232e+01 0 -3 0
1441 1 4.0784485321747216e-01 5.4084766690908248e+00 4.3510979754360321e+01 -3 0 0
6010 1 2.4003538269569118e+00 7.5803831320350863e+00 4.0277972980207863e+01 -2 1 0
5091 1 5.0198218390361697e+00 6.1481880456296878e+00 4.3946612452665832e+01 6 -2 -1
4804 1 6.9375572560025605e+00 7.7081443156878642e+00 4.3043667823939884e+01 3 3 0
86 1 6.7961882193868801e+00 8.3319779858897540e+00 4.0409829081746011e+01 -6 -2 -1
1276 1 9.4116989824953041e+00 6.7990576883875491e+00 4.3916390489852517e+01 -2 3 0
2972 1 9.7161876432157541e+00 4.4063165192468174e+00 4.0356173830161310e+01 -1 1 0
2144 1 4.0501421612422908e+00 1.1599267020188263e+01 4.2800545845177993e+01 1 -3 -1
1894 1 2.3605684987178317e+00 9.6639442916534595e+00 4.3783799363282554e+01 2 0 -1
5007 1 3.8792036332371387e+00 1.1776606071925794e+01 4.0166909523715844e+01 -3 -1 -1