LAMMPS data file via write_data, version 16 Mar 2018, timestep = 100000

6328 atoms
2 atom types

0.0000000000000000e+00 4.9219999999999999e+01 xlo xhi
0.0000000000000000e+00 4.9019635930410494e+01 ylo yhi
3.6144124045263766e+00 5.6447587595473870e+01 zlo zhi

Masses

1 18.015
2 12.01

Atoms # atomic

3336 1 1.1972829747776190e+00 1.7286852500071346e+00 5.0128395715605718e+00 0 0 0
4883 1 8.9393880998523212e+00 6.2732602390565377e+00 5.3390840699609239e+00 1 0 1
5985 1 7.8702844112741239e+00 1.0379205674962932e+01 7.3675024054608631e+00 1 -1 0
4578 1 7.8281751470151955e+00 3.9581564485572756e+00 6.6321531589892242e+00 0 1 0
5225 1 8.1547399080712557e-01 4.8654354675311655e+00 7.7971989978761762e+00 0 -1 0
4830 1 9.2407261045098679e+00 1.1638927073154045e+01 5.3119022954749653e+00 1 0 0
4729 1 1.0489194682971756e+00 5.9992855963725757e+00 5.0797056142798471e+00 0 1 1
6272 1 8.2033109861358686e-02 5.9129993330036434e+00 1.2398372078680204e+01 1 -1 1
3593 1 5.2827079284896499e+00 3.1659316516210620e+00 4.7997250206359343e+00 0 1 0
3025 1 7.1239931823436971e+00 8.0877131764904799e+00 6.0155253485537816e+00 0 0 1
4796 1 5.4383442847297463e+00 5.6141172917382471e+00 7.2822663276763109e+00 0 0 1
5976 1 3.1108878942593265e+00 9.5027546170867758e+00 4.8559683665964268e+00 1 0 1
6118 1 4.1091490602323564e+00 9.7838026158082254e+00 7.5388795602408756e+00 0 0 0
1425 1 5.6575789014078417e+00 1.2265067607276210e+01 8.1654792792997632e+00 0 1 0
4724 1 5.9986044136868646e+00 9.6609590055130532e+00 4.1113048503696250e+00 1 0 1
465 1 3.6798039185620066e+00 6.6074971158082336e+00 4.7799414749625706e+00 0 0 0
4762 1 1.5876847151017282e+00 1.6326717282714721e+01 9.0227345627556232e+00 1 0 0
3355 1 1.8830208755748894e+00 1.3610506623196848e+01 7.4865637925939899e+00 1 0 0
2894 1 9.1901262451773640e+00 1.2276460215060144e+01 1.0750196069452564e+01 0 0 1
1405 1 6.6512806733518346e+00 1.4242475559310138e+01 6.3273850015733011e+00 0 0 1
3154 1 3.0705392156707969e+00 3.6426095127445821e+00 6.1135316363923407e+00 0 1 1
3464 1 4.4181154642689462e+00 1.3432210256010666e+00 1.1386044476626775e+01 1 1 0
3414 1 2.7592068465528445e+00 2.2332448237384868e+00 8.4814456755673824e+00 1 0 0
4526 1 4.1212218021057350e+00 4.2311011502673797e+00 9.8365588295803459e+00 0 0 1
3486 1 8.4799711270456903e+00 2.0192033511178420e+00 1.0557254663574316e+01 0 0 0
3401 1 8.4614788070740161e+00 4.7572631105134500e+00 9.4612890778899548e+00 1 0 1
1374 1 1.6729518436652739e+00 1.3799547014318668e+01 4.5951212221841047e+00 -1 0 1
343 1 2.5374815618022319e+00 6.3505823996596034e+00 1.0396365088815561e+01 1 0 0
6256 1 9.4394065532374150e+00 1.5268199588807409e+01 1.0348108740762001e+01 0 0 0
446 1 6.4724833955444705e+00 8.3623818105155863e+00 1.1163334105251643e+01 -1 1 1
1719 1 4.9096971605059290e+00 7.5801275550906801e+00 9.0587935183697539e+00 1 0 1
4649 1 9.7404852064356113e+00 2.1635935558214250e+00 5.9144318749536584e+00 0 0 1
1264 1 3.7123223574286928e+00 1.1890781415450535e+01 1.1331807938180201e+01 0 0 1
6020 1 2.3088947728581246e+00 1.1475852463096979e+01 9.3488779344601305e+00 0 -1 0
6245 1 8.7996614277469689e+00 9.6069086969350206e+00 9.9466129834441244e+00 0 0 0
28 1 6.3735867461819744e+00 1.3251986807028219e+01 1.0856825403042354e+01 0 0 1
6063 1 7.3168356631078630e+00 5.7067868489439997e+00 1.2048401700485760e+01 0 1 1
4455 1 9.4494817457063771e+00 1.4105420869027554e+01 6.3746453032229393e+00 -1 0 1
1454 1 5.3773513643433957e-01 8.3896033446214577e+00 5.9808735031130027e+00 0 1 1
3661 1 3.5932922845457604e-01 7.4544415251568008e+00 8.9599869015090903e+00 1 -1 0
3408 1 5.1540421814830468e+00 3.9509953634507750e-01 5.4563434638843269e+00 1 -1 0
6121 1 1.3322672698006881e+00 3.6791107554762639e+00 1.1444801203638438e+01 1 1 1
4474 1 6.2480057511244818e+00 1.5865163571356955e+01 1.0337425737811881e+01 1 0 1
1727 1 4.0570620041135115e+00 1.4942245743471993e+01 3.7194437577009651e+00 1 0 1
3545 1 5.0529263043767418e+00 1.5476422121469788e+01 1.9584184182920964e+01 0 -1 0
3714 1 6.9307513347438237e+00 1.4784968687480887e+01 1.7488750072499116e+01 1 -1 0
4527 1 1.8828729085325173e+00 2.8795146498007158e+00 1.4349829604679723e+01 0 1 1
1850 1 9.4126920400776619e+00 3.9987481977084438e+00 1.7801456583578180e+01 0 0 0
5039 1 9.4733695402482656e+00 1.3655384393006809e+01 1.7658917564834152e+01 1 0 0
2044 1 3.3439937693017461e+00 5.3379244291977654e+00 1.4694217814126491e+01 1 1 1
3420 1 7.2490050723273205e+00 8.5643629302800726e+00 1.5370311249089287e+01 0 0 0
254 1 5.4785345657845692e+00 6.4841335648325868e+00 1.6232195721920625e+01 1 0 0
113 1 3.8675709133410670e+00 9.1615384922181975e-01 1.4109064405306427e+01 1 0 1
3320 1 3.0537655824432736e-01 8.9567176799020487e+00 1.3916092700421734e+01 0 0 0
3264 1 4.7211558090276524e+00 9.7942658439141663e+00 1.3007254438425489e+01 0 0 1
1919 1 6.5264667155897416e-01 1.4616322749990404e+01 1.7287618166073848e+01 1 -1 1
6258 1 1.6347653382736813e+00 1.1466213882956765e+01 1.5567314366381025e+01 0 0 0
3600 1 4.8598585066100231e-01 1.1831483736363214e+01 2.0544562486523350e+01 1 0 0
2845 1 4.2351392550108740e+00 8.3661754346252746e+00 1.7637138590072883e+01 0 0 1
1567 1 9.2637450940312878e+00 1.5811857266644259e+01 1.5015477523428846e+01 1 0 0
3260 1 6.6887078337610149e+00 1.1477084254220799e+01 1.6653288300299376e+01 1 1 1
6026 1 7.7731405408022267e+00 1.0603987180352439e+01 1.3262742123501450e+01 0 -2 1
4824 1 7.1179287892868781e-01 7.9074157205238560e+00 2.0234211965211212e+01 0 0 0
1734 1 8.8567762704773969e+00 1.0720600963033338e+01 2.1040855685120320e+01 1 1 1
4756 1 4.7129196572030141e+00 1.4921435198046048e+01 1.4866754157107820e+01 0 0 1
3625 1 8.4267209450295795e+00 1.2742082712250891e+01 1.4815851053741790e+01 1 0 1
3598 1 6.7185449175591474e+00 1.4413053864175835e+01 1.3460587941587811e+01 1 0 0
1895 1 6.9580426464577352e+00 5.4735763347173831e+00 1.8003868217582578e+01 0 0 0
6210 1 2.5151620593352703e-02 1.1541522617165430e+01 1.7746043369665401e+01 1 0 0
3241 1 3.0510028819412183e+00 3.0324646038872540e+00 1.8362716977045427e+01 0 1 0
2897 1 7.3185230379424793e+00 2.1770547832447615e+00 1.6374555835103173e+01 0 1 1
6280 1 7.5693505070982683e+00 2.8709714844988077e+00 2.0441629172338494e+01 1 0 1
5081 1 5.8708968271957431e+00 2.6914879808150016e+00 1.8366305628094061e+01 1 0 0
1978 1 1.6240792515642690e+00 7.6226515551944969e+00 1.7672839217155612e+01 1 0 0
3110 1 1.4360807531864239e+00 5.0091812775627567e+00 1.7072181649991265e+01 0 -1 0
374 1 3.4909270367396563e+00 1.2982298391495281e+01 2.0146376738708369e+01 0 -1 0
372 1 7.0908512047722994e+00 1.2038846397258858e+01 1.9364827138916660e+01 0 0 1
134 1 5.1311055369648271e+00 9.2411853183672079e+00 2.0206799537017719e+01 2 -1 1
3196 1 2.6949653796250046e+00 1.5684061421373416e+01 1.3162611169056085e+01 1 1 0
4978 1 4.1966807317458903e+00 1.0449244879905816e+01 1.5673946624152048e+01 1 1 0
3226 1 8.1312535914694042e+00 2.8547828372832256e+00 1.3243033153189922e+01 1 0 1
5134 1 9.0062960334213411e+00 8.0333409477187114e+00 1.8048344603463267e+01 1 0 0
6255 1 3.3824582167487067e+00 1.3439389809004421e+01 1.7130783179542615e+01 1 0 1
3214 1 2.0424059601947104e+00 1.2886267800198089e+01 1.3156601583337052e+01 1 0 0
358 1 2.6479770214501150e+00 7.4469771880064561e+00 1.3319933698735190e+01 0 -1 0
1354 1 9.2543147213442918e+00 7.1492496263635514e+00 2.1208538912573616e+01 0 0 1
5138 1 5.2086097252216970e+00 4.1528532776010074e+00 1.2737878085983429e+01 0 0 0
203 1 2.5146046487888034e+00 1.1725357429867056e+00 2.1164704309785051e+01 0 1 0
3454 1 6.3426484518080759e+00 6.7198274954407777e+00 2.0697875376589860e+01 1 1 0
3233 1 9.7328765916556002e+00 6.6500932240406359e+00 1.3004098594753438e+01 1 -1 1
3562 1 9.7736948203998875e+00 3.5482576255496467e-01 1.6825644978269402e+01 0 0 0
9 1 8.1132248877211932e+00 1.1969365411448860e-01 2.1007590174049049e+01 0 1 1
5126 1 3.7701787838586229e+00 2.6211893270726705e-02 1.8534213566187120e+01 1 0 0
2141 1 2.4779884508651508e+00 4.1190914578911277e+00 2.4385631056629716e+01 1 2 0
3160 1 9.2857897923733450e+00 1.5870694613214035e+01 2.1753689191659049e+01 0 0 0
4986 1 9.5906380186399982e+00 7.1535002572303759e+00 2.3923164544971602e+01 0 -1 1
1284 1 5.8357720658832450e+00 4.0609041667636863e+00 2.2217928862896553e+01 0 1 1
4472 1 4.7427716810872633e+00 1.1820682051871868e+01 2.2158414889255027e+01 1 0 1
3636 1 6.7861918117900144e-01 1.8428362779274361e+00 2.4565464724203512e+01 0 0 0
677 2 6.1524999999999990e+00 1.3498160618518829e+01 2.6878172142053224e+01 0 0 0
4821 1 5.3622781447784797e+00 8.1570939708645263e+00 2.3302705703597169e+01 1 1 1
6041 1 8.9869868967404649e+00 1.4199871009183601e+01 2.4707219055137696e+01 1 -1 1
3113 1 6.7610362085902072e+00 6.3595942048340275e+00 2.4188300181282131e+01 1 0 1
4931 1 7.9178221002939413e+00 2.7968674159020979e+00 2.4388893642303344e+01 0 0 1
673 2 4.9220000000000006e+00 1.5629449137232333e+01 2.6878172142053224e+01 0 0 0
722 2 7.3829999999999991e+00 1.2787731112280996e+01 2.6878172142053224e+01 0 0 0
2874 1 5.0068651633713568e+00 2.3431248471169921e+00 2.4397757587351379e+01 1 1 0
1756 1 2.8299719628260034e+00 9.4601630231193674e+00 2.4169034725405410e+01 1 -1 0
1987 1 8.0959955107882814e-02 1.2719835725556729e+01 2.4404775164045855e+01 0 0 0
399 1 2.9762816913960917e+00 4.0651999736590838e+00 2.1317033867892398e+01 0 0 0
3461 1 3.1450870597801948e+00 1.2485987840027365e+01 2.4287955620129193e+01 1 0 1
718 2 6.1524999999999990e+00 1.4919019630994494e+01 2.6878172142053224e+01 0 0 0
4489 1 7.1081216513575187e+00 1.0388805856832585e+01 2.3475739164282214e+01 0 1 0
1342 1 6.6412881718382533e+00 1.3287650845779215e+01 2.4539937368329561e+01 1 0 0
675 2 4.9220000000000006e+00 1.2787731112280996e+01 2.6878172142053224e+01 0 0 0
4604 1 2.7858203797270180e+00 1.5247601544659378e+01 2.1951796606344107e+01 1 0 1
3186 1 4.1729429442857535e+00 1.5356686978295825e+01 2.4442562258725783e+01 1 1 0
187 1 2.9054476376094868e-01 1.4192240807032018e+01 2.1917233991496520e+01 2 1 0
6268 1 1.6260472201928358e+00 6.8929812182773080e+00 2.4222262293453976e+01 2 1 0
552 2 0.0000000000000000e+00 2.8417180249513345e+00 2.6878172142053224e+01 0 0 0
554 2 0.0000000000000000e+00 0.0000000000000000e+00 2.6878172142053224e+01 0 0 0
556 2 1.2305000000000001e+00 7.1042950623783474e-01 2.6878172142053224e+01 0 0 0
563 2 1.2305000000000001e+00 2.1312885187134998e+00 2.6878172142053224e+01 0 0 0
565 2 2.4610000000000003e+00 2.8417180249513345e+00 2.6878172142053224e+01 0 0 0
567 2 2.4610000000000003e+00 0.0000000000000000e+00 2.6878172142053224e+01 0 0 0
569 2 3.6915000000000004e+00 7.1042950623783474e-01 2.6878172142053224e+01 0 0 0
584 2 3.6914999999999996e+00 2.1312885187134998e+00 2.6878172142053224e+01 0 0 0
586 2 4.9220000000000006e+00 2.8417180249513332e+00 2.6878172142053224e+01 0 0 0
588 2 4.9220000000000006e+00 0.0000000000000000e+00 2.6878172142053224e+01 0 0 0
590 2 6.1524999999999999e+00 7.1042950623783407e-01 2.6878172142053224e+01 0 0 0
613 2 6.1524999999999999e+00 2.1312885187134989e+00 2.6878172142053224e+01 0 0 0
615 2 7.3829999999999991e+00 2.8417180249513345e+00 2.6878172142053224e+01 0 0 0
617 2 7.3829999999999991e+00 0.0000000000000000e+00 2.6878172142053224e+01 0 0 0
619 2 8.6134999999999984e+00 7.1042950623783407e-01 2.6878172142053224e+01 0 0 0
650 2 8.6134999999999984e+00 2.1312885187135002e+00 2.6878172142053224e+01 0 0 0
559 2 0.0000000000000000e+00 4.2625770374269996e+00 2.6878172142053224e+01 0 0 0
561 2 1.2305000000000001e+00 4.9730065436648339e+00 2.6878172142053224e+01 0 0 0
576 2 1.2305000000000001e+00 6.3938655561404980e+00 2.6878172142053224e+01 0 0 0
580 2 2.4610000000000003e+00 4.2625770374269996e+00 2.6878172142053224e+01 0 0 0
582 2 3.6914999999999996e+00 4.9730065436648339e+00 2.6878172142053224e+01 0 0 0
605 2 3.6914999999999996e+00 6.3938655561404980e+00 2.6878172142053224e+01 0 0 0
557 2 0.0000000000000000e+00 7.1042950623783341e+00 2.6878172142053224e+01 0 0 0
578 2 2.4610000000000003e+00 7.1042950623783341e+00 2.6878172142053224e+01 0 0 0
609 2 4.9220000000000006e+00 4.2625770374269978e+00 2.6878172142053224e+01 0 0 0
611 2 6.1524999999999999e+00 4.9730065436648339e+00 2.6878172142053224e+01 0 0 0
642 2 6.1524999999999999e+00 6.3938655561404980e+00 2.6878172142053224e+01 0 0 0
646 2 7.3829999999999991e+00 4.2625770374269996e+00 2.6878172142053224e+01 0 0 0
648 2 8.6135000000000002e+00 4.9730065436648339e+00 2.6878172142053224e+01 0 0 0
687 2 8.6135000000000002e+00 6.3938655561404980e+00 2.6878172142053224e+01 0 0 0
607 2 4.9220000000000006e+00 7.1042950623783341e+00 2.6878172142053224e+01 0 0 0
644 2 7.3830000000000009e+00 7.1042950623783341e+00 2.6878172142053224e+01 0 0 0
572 2 0.0000000000000000e+00 8.5251540748539991e+00 2.6878172142053224e+01 0 0 0
574 2 1.2305000000000001e+00 9.2355835810918343e+00 2.6878172142053224e+01 0 0 0
601 2 2.4610000000000003e+00 8.5251540748539991e+00 2.6878172142053224e+01 0 0 0
603 2 3.6915000000000004e+00 9.2355835810918343e+00 2.6878172142053224e+01 0 0 0
570 2 0.0000000000000000e+00 1.1366872099805333e+01 2.6878172142053224e+01 0 0 0
597 2 1.2305000000000001e+00 1.0656442593567498e+01 2.6878172142053224e+01 0 0 0
599 2 2.4610000000000003e+00 1.1366872099805333e+01 2.6878172142053224e+01 0 0 0
634 2 3.6914999999999996e+00 1.0656442593567499e+01 2.6878172142053224e+01 0 0 0
638 2 4.9220000000000006e+00 8.5251540748539991e+00 2.6878172142053224e+01 0 0 0
640 2 6.1524999999999999e+00 9.2355835810918343e+00 2.6878172142053224e+01 0 0 0
683 2 7.3830000000000009e+00 8.5251540748539991e+00 2.6878172142053224e+01 0 0 0
685 2 8.6134999999999984e+00 9.2355835810918343e+00 2.6878172142053224e+01 0 0 0
636 2 4.9220000000000006e+00 1.1366872099805333e+01 2.6878172142053224e+01 0 0 0
679 2 6.1524999999999999e+00 1.0656442593567499e+01 2.6878172142053224e+01 0 0 0
681 2 7.3829999999999991e+00 1.1366872099805333e+01 2.6878172142053224e+01 0 0 0
726 2 8.6134999999999984e+00 1.0656442593567498e+01 2.6878172142053224e+01 0 0 0
630 2 2.4610000000000003e+00 1.2787731112280996e+01 2.6878172142053224e+01 0 0 0
591 2 0.0000000000000000e+00 1.5629449137232333e+01 2.6878172142053224e+01 0 0 0
626 2 1.2305000000000001e+00 1.4919019630994494e+01 2.6878172142053224e+01 0 0 0
632 2 3.6915000000000004e+00 1.3498160618518829e+01 2.6878172142053224e+01 0 0 0
628 2 2.4610000000000003e+00 1.5629449137232328e+01 2.6878172142053224e+01 0 0 0
593 2 0.0000000000000000e+00 1.2787731112280996e+01 2.6878172142053224e+01 0 0 0
671 2 3.6915000000000004e+00 1.4919019630994494e+01 2.6878172142053224e+01 0 0 0
595 2 1.2305000000000001e+00 1.3498160618518829e+01 2.6878172142053224e+01 0 0 0
724 2 8.6135000000000002e+00 1.3498160618518835e+01 2.6878172142053224e+01 0 0 0
720 2 7.3829999999999991e+00 1.5629449137232333e+01 2.6878172142053224e+01 0 0 0
765 2 8.6135000000000002e+00 1.4919019630994494e+01 2.6878172142053224e+01 0 0 0
1893 1 8.6452783023126867e-01 5.7289106050502436e+00 2.1660707728312207e+01 0 0 0
6045 1 6.6295068318509198e+00 1.4024758094532055e+01 2.1548077231886975e+01 0 1 1
239 1 2.5906060496342032e+00 9.4756911001862054e+00 2.1324060080896704e+01 1 -1 0
553 2 0.0000000000000000e+00 1.4208590124756650e+00 3.0031000000000176e+01 0 0 0
555 2 0.0000000000000000e+00 0.0000000000000000e+00 3.0031000000000176e+01 0 0 0
564 2 1.2305000000000001e+00 2.1312885187134998e+00 3.0031000000000176e+01 0 0 0
566 2 2.4610000000000003e+00 1.4208590124756650e+00 3.0031000000000176e+01 0 0 0
568 2 2.4610000000000003e+00 0.0000000000000000e+00 3.0031000000000176e+01 0 0 0
585 2 3.6914999999999996e+00 2.1312885187134998e+00 3.0031000000000176e+01 0 0 0
562 2 1.2305000000000001e+00 3.5521475311891644e+00 3.0031000000000176e+01 0 0 0
583 2 3.6914999999999996e+00 3.5521475311891644e+00 3.0031000000000176e+01 0 0 0
881 2 0.0000000000000000e+00 2.8417180249513345e+00 3.3183827857944920e+01 0 0 0
882 2 0.0000000000000000e+00 0.0000000000000000e+00 3.3183827857944920e+01 0 0 0
883 2 1.2305000000000001e+00 7.1042950623783474e-01 3.3183827857944920e+01 0 0 0
887 2 1.2305000000000001e+00 2.1312885187134998e+00 3.3183827857944920e+01 0 0 0
888 2 2.4610000000000003e+00 2.8417180249513345e+00 3.3183827857944920e+01 0 0 0
889 2 2.4610000000000003e+00 0.0000000000000000e+00 3.3183827857944920e+01 0 0 0
890 2 3.6915000000000004e+00 7.1042950623783474e-01 3.3183827857944920e+01 0 0 0
898 2 3.6914999999999996e+00 2.1312885187134998e+00 3.3183827857944920e+01 0 0 0
587 2 4.9220000000000006e+00 1.4208590124756650e+00 3.0031000000000176e+01 0 0 0
589 2 4.9220000000000006e+00 0.0000000000000000e+00 3.0031000000000176e+01 0 0 0
614 2 6.1524999999999999e+00 2.1312885187134989e+00 3.0031000000000176e+01 0 0 0
616 2 7.3829999999999991e+00 1.4208590124756659e+00 3.0031000000000176e+01 0 0 0
618 2 7.3829999999999991e+00 0.0000000000000000e+00 3.0031000000000176e+01 0 0 0
651 2 8.6134999999999984e+00 2.1312885187135002e+00 3.0031000000000176e+01 0 0 0
612 2 6.1524999999999999e+00 3.5521475311891644e+00 3.0031000000000176e+01 0 0 0
649 2 8.6134999999999984e+00 3.5521475311891657e+00 3.0031000000000176e+01 0 0 0
899 2 4.9220000000000006e+00 2.8417180249513332e+00 3.3183827857944920e+01 0 0 0
900 2 4.9220000000000006e+00 0.0000000000000000e+00 3.3183827857944920e+01 0 0 0
901 2 6.1524999999999999e+00 7.1042950623783407e-01 3.3183827857944920e+01 0 0 0
913 2 6.1524999999999999e+00 2.1312885187134989e+00 3.3183827857944920e+01 0 0 0
914 2 7.3829999999999991e+00 2.8417180249513345e+00 3.3183827857944920e+01 0 0 0
915 2 7.3829999999999991e+00 0.0000000000000000e+00 3.3183827857944920e+01 0 0 0
916 2 8.6134999999999984e+00 7.1042950623783407e-01 3.3183827857944920e+01 0 0 0
932 2 8.6134999999999984e+00 2.1312885187135002e+00 3.3183827857944920e+01 0 0 0
558 2 0.0000000000000000e+00 5.6834360499026637e+00 3.0031000000000176e+01 0 0 0
560 2 0.0000000000000000e+00 4.2625770374269996e+00 3.0031000000000176e+01 0 0 0
577 2 1.2305000000000001e+00 6.3938655561404980e+00 3.0031000000000176e+01 0 0 0
579 2 2.4610000000000003e+00 5.6834360499026637e+00 3.0031000000000176e+01 0 0 0
581 2 2.4610000000000003e+00 4.2625770374269996e+00 3.0031000000000176e+01 0 0 0
606 2 3.6914999999999996e+00 6.3938655561404980e+00 3.0031000000000176e+01 0 0 0
575 2 1.2305000000000001e+00 7.8147245686161639e+00 3.0031000000000176e+01 0 0 0
604 2 3.6914999999999996e+00 7.8147245686161639e+00 3.0031000000000176e+01 0 0 0
885 2 0.0000000000000000e+00 4.2625770374269996e+00 3.3183827857944920e+01 0 0 0
886 2 1.2305000000000001e+00 4.9730065436648339e+00 3.3183827857944920e+01 0 0 0
894 2 1.2305000000000001e+00 6.3938655561404980e+00 3.3183827857944920e+01 0 0 0
896 2 2.4610000000000003e+00 4.2625770374269996e+00 3.3183827857944920e+01 0 0 0
897 2 3.6914999999999996e+00 4.9730065436648339e+00 3.3183827857944920e+01 0 0 0
909 2 3.6914999999999996e+00 6.3938655561404980e+00 3.3183827857944920e+01 0 0 0
884 2 0.0000000000000000e+00 7.1042950623783341e+00 3.3183827857944920e+01 0 0 0
895 2 2.4610000000000003e+00 7.1042950623783341e+00 3.3183827857944920e+01 0 0 0
608 2 4.9220000000000006e+00 5.6834360499026637e+00 3.0031000000000176e+01 0 0 0
610 2 4.9220000000000006e+00 4.2625770374269978e+00 3.0031000000000176e+01 0 0 0
643 2 6.1524999999999999e+00 6.3938655561404980e+00 3.0031000000000176e+01 0 0 0
645 2 7.3829999999999991e+00 5.6834360499026637e+00 3.0031000000000176e+01 0 0 0
647 2 7.3829999999999991e+00 4.2625770374269996e+00 3.0031000000000176e+01 0 0 0
688 2 8.6135000000000002e+00 6.3938655561404980e+00 3.0031000000000176e+01 0 0 0
641 2 6.1524999999999999e+00 7.8147245686161639e+00 3.0031000000000176e+01 0 0 0
686 2 8.6135000000000002e+00 7.8147245686161639e+00 3.0031000000000176e+01 0 0 0
911 2 4.9220000000000006e+00 4.2625770374269978e+00 3.3183827857944920e+01 0 0 0
912 2 6.1524999999999999e+00 4.9730065436648339e+00 3.3183827857944920e+01 0 0 0
928 2 6.1524999999999999e+00 6.3938655561404980e+00 3.3183827857944920e+01 0 0 0
930 2 7.3829999999999991e+00 4.2625770374269996e+00 3.3183827857944920e+01 0 0 0
931 2 8.6135000000000002e+00 4.9730065436648339e+00 3.3183827857944920e+01 0 0 0
951 2 8.6135000000000002e+00 6.3938655561404980e+00 3.3183827857944920e+01 0 0 0
910 2 4.9220000000000006e+00 7.1042950623783341e+00 3.3183827857944920e+01 0 0 0
929 2 7.3830000000000009e+00 7.1042950623783341e+00 3.3183827857944920e+01 0 0 0
571 2 0.0000000000000000e+00 9.9460130873296642e+00 3.0031000000000176e+01 0 0 0
573 2 0.0000000000000000e+00 8.5251540748539991e+00 3.0031000000000176e+01 0 0 0
600 2 2.4610000000000003e+00 9.9460130873296642e+00 3.0031000000000176e+01 0 0 0
602 2 2.4610000000000003e+00 8.5251540748539991e+00 3.0031000000000176e+01 0 0 0
596 2 1.2305000000000001e+00 1.2077301606043163e+01 3.0031000000000176e+01 0 0 0
598 2 1.2305000000000001e+00 1.0656442593567498e+01 3.0031000000000176e+01 0 0 0
633 2 3.6914999999999996e+00 1.2077301606043163e+01 3.0031000000000176e+01 0 0 0
635 2 3.6914999999999996e+00 1.0656442593567499e+01 3.0031000000000176e+01 0 0 0
892 2 0.0000000000000000e+00 8.5251540748539991e+00 3.3183827857944920e+01 0 0 0
893 2 1.2305000000000001e+00 9.2355835810918343e+00 3.3183827857944920e+01 0 0 0
907 2 2.4610000000000003e+00 8.5251540748539991e+00 3.3183827857944920e+01 0 0 0
908 2 3.6915000000000004e+00 9.2355835810918343e+00 3.3183827857944920e+01 0 0 0
891 2 0.0000000000000000e+00 1.1366872099805333e+01 3.3183827857944920e+01 0 0 0
905 2 1.2305000000000001e+00 1.0656442593567498e+01 3.3183827857944920e+01 0 0 0
906 2 2.4610000000000003e+00 1.1366872099805333e+01 3.3183827857944920e+01 0 0 0
924 2 3.6914999999999996e+00 1.0656442593567499e+01 3.3183827857944920e+01 0 0 0
637 2 4.9220000000000006e+00 9.9460130873296642e+00 3.0031000000000176e+01 0 0 0
639 2 4.9220000000000006e+00 8.5251540748539991e+00 3.0031000000000176e+01 0 0 0
682 2 7.3830000000000009e+00 9.9460130873296642e+00 3.0031000000000176e+01 0 0 0
684 2 7.3830000000000009e+00 8.5251540748539991e+00 3.0031000000000176e+01 0 0 0
678 2 6.1524999999999999e+00 1.2077301606043163e+01 3.0031000000000176e+01 0 0 0
680 2 6.1524999999999999e+00 1.0656442593567499e+01 3.0031000000000176e+01 0 0 0
725 2 8.6135000000000002e+00 1.2077301606043163e+01 3.0031000000000176e+01 0 0 0
727 2 8.6134999999999984e+00 1.0656442593567498e+01 3.0031000000000176e+01 0 0 0
926 2 4.9220000000000006e+00 8.5251540748539991e+00 3.3183827857944920e+01 0 0 0
927 2 6.1524999999999999e+00 9.2355835810918343e+00 3.3183827857944920e+01 0 0 0
949 2 7.3830000000000009e+00 8.5251540748539991e+00 3.3183827857944920e+01 0 0 0
950 2 8.6134999999999984e+00 9.2355835810918343e+00 3.3183827857944920e+01 0 0 0
925 2 4.9220000000000006e+00 1.1366872099805333e+01 3.3183827857944920e+01 0 0 0
947 2 6.1524999999999999e+00 1.0656442593567499e+01 3.3183827857944920e+01 0 0 0
948 2 7.3829999999999991e+00 1.1366872099805333e+01 3.3183827857944920e+01 0 0 0
971 2 8.6134999999999984e+00 1.0656442593567498e+01 3.3183827857944920e+01 0 0 0
594 2 0.0000000000000000e+00 1.2787731112280996e+01 3.0031000000000176e+01 0 0 0
631 2 2.4610000000000003e+00 1.2787731112280996e+01 3.0031000000000176e+01 0 0 0
592 2 0.0000000000000000e+00 1.4208590124756663e+01 3.0031000000000176e+01 0 0 0
627 2 1.2305000000000001e+00 1.4919019630994494e+01 3.0031000000000176e+01 0 0 0
629 2 2.4610000000000003e+00 1.4208590124756663e+01 3.0031000000000176e+01 0 0 0
672 2 3.6915000000000004e+00 1.4919019630994494e+01 3.0031000000000176e+01 0 0 0
903 2 0.0000000000000000e+00 1.2787731112280996e+01 3.3183827857944920e+01 0 0 0
904 2 1.2305000000000001e+00 1.3498160618518829e+01 3.3183827857944920e+01 0 0 0
922 2 2.4610000000000003e+00 1.2787731112280996e+01 3.3183827857944920e+01 0 0 0
923 2 3.6915000000000004e+00 1.3498160618518829e+01 3.3183827857944920e+01 0 0 0
902 2 0.0000000000000000e+00 1.5629449137232333e+01 3.3183827857944920e+01 0 0 0
920 2 1.2305000000000001e+00 1.4919019630994494e+01 3.3183827857944920e+01 0 0 0
921 2 2.4610000000000003e+00 1.5629449137232328e+01 3.3183827857944920e+01 0 0 0
943 2 3.6915000000000004e+00 1.4919019630994494e+01 3.3183827857944920e+01 0 0 0
676 2 4.9220000000000006e+00 1.2787731112280996e+01 3.0031000000000176e+01 0 0 0
723 2 7.3829999999999991e+00 1.2787731112280996e+01 3.0031000000000176e+01 0 0 0
674 2 4.9220000000000006e+00 1.4208590124756663e+01 3.0031000000000176e+01 0 0 0
719 2 6.1524999999999990e+00 1.4919019630994494e+01 3.0031000000000176e+01 0 0 0
721 2 7.3830000000000009e+00 1.4208590124756663e+01 3.0031000000000176e+01 0 0 0
766 2 8.6135000000000002e+00 1.4919019630994494e+01 3.0031000000000176e+01 0 0 0
945 2 4.9220000000000006e+00 1.2787731112280996e+01 3.3183827857944920e+01 0 0 0
946 2 6.1524999999999990e+00 1.3498160618518829e+01 3.3183827857944920e+01 0 0 0
969 2 7.3829999999999991e+00 1.2787731112280996e+01 3.3183827857944920e+01 0 0 0
970 2 8.6135000000000002e+00 1.3498160618518835e+01 3.3183827857944920e+01 0 0 0
944 2 4.9220000000000006e+00 1.5629449137232333e+01 3.3183827857944920e+01 0 0 0
967 2 6.1524999999999990e+00 1.4919019630994494e+01 3.3183827857944920e+01 0 0 0
968 2 7.3829999999999991e+00 1.5629449137232333e+01 3.3183827857944920e+01 0 0 0
991 2 8.6135000000000002e+00 1.4919019630994494e+01 3.3183827857944920e+01 0 0 0
6052 1 2.7587010625602817e+00 3.1264056750498646e+00 3.5948403543379776e+01 0 1 -1
1544 1 9.1072956744591735e+00 1.0710152741069448e+01 3.6005706027879619e+01 1 0 0
2865 1 8.1606159692437892e+00 7.9082377793835104e+00 3.5789576960635962e+01 0 0 0
461 1 5.0553250010455359e+00 1.4162336588795752e+00 3.5975085371156233e+01 0 2 0
4765 1 8.8057796070856824e+00 4.9192834994753030e+00 3.5623489531341392e+01 1 0 -1
481 1 8.8855941057588730e+00 5.2466919994028629e+00 3.8730696206751645e+01 0 -1 0
3284 1 4.1989260292025641e+00 6.1842484919133973e+00 3.6219761543817704e+01 1 1 -1
5977 1 2.0277038747217087e+00 9.0359433948745753e+00 3.6188781797470810e+01 -1 1 0
3640 1 8.3797976313387312e-01 8.5733850592291849e-01 3.6006704112737047e+01 0 1 0
1462 1 3.6896964309068068e+00 1.0151150940752705e+01 3.8497341428820413e+01 0 0 0
1497 1 5.9762162420373501e+00 4.2855125969045833e+00 3.5924199371461832e+01 1 0 0
2856 1 5.4471129341662046e+00 8.5756816540197818e+00 3.5759434687930359e+01 0 0 0
3217 1 9.6890534778220605e-01 1.1419175689216486e+01 3.5601841514958672e+01 1 1 0
4728 1 5.3397977553118370e+00 1.3784648509543395e+01 3.5629629084496550e+01 1 1 0
5132 1 2.5718166170170340e+00 1.3640896472522808e+01 3.6024067424345631e+01 1 0 0
6260 1 6.1180738307064342e+00 1.1388752186836296e+01 3.6671107984534672e+01 1 -1 -1
502 1 8.2585960107153138e+00 7.8747367621475366e+00 3.8455076721673606e+01 0 -1 0
4661 1 8.6284163351770360e-02 2.1221065814807760e+00 3.8547058137779125e+01 1 1 -1
4911 1 5.7735630477641013e+00 1.5821012436050060e+01 3.7398940778298936e+01 2 0 -1
118 1 4.1041261321703191e+00 3.1962808021564176e-01 3.8535226104066219e+01 1 1 0
6013 1 3.6712091781428330e-01 7.2095603158652484e+00 3.8034975185061981e+01 0 0 0
1245 1 6.4865448561809691e+00 3.8258503849141556e+00 3.8622831396416345e+01 0 1 0
1824 1 1.9036520724035857e+00 5.0451774357400669e+00 3.8083737382746222e+01 2 1 -1
4548 1 9.0666173951059417e+00 1.9856643309709182e-01 3.8828778926024981e+01 1 0 0
1275 1 2.5827196341762559e+00 1.2731863359492332e+01 3.8711397009168493e+01 0 0 -1
1529 1 8.1345786823870281e+00 5.4338879704228900e+00 4.4964880525309660e+01 0 1 0
4617 1 6.4100213741821781e+00 1.1517828952423610e+00 3.9654492128861072e+01 1 1 0
6275 1 9.0612905262954140e+00 2.1093272045321254e+00 4.5177025517230440e+01 0 1 0
5231 1 3.8930374909401375e+00 5.5171484479674264e+00 4.1981118206960204e+01 0 1 0
1675 1 4.8510547298543436e+00 9.1936977140024858e+00 4.4714292366298984e+01 0 0 -1
4667 1 3.6722952470110781e-01 1.3255664781248829e+01 4.0231614031342573e+01 0 2 0
5174 1 1.2797466442624774e+00 3.8532156518587373e+00 4.0717919385886809e+01 -1 1 -1
4451 1 6.7735691562218747e+00 6.4765915908044578e+00 4.2154655936284342e+01 1 1 0
4955 1 7.1519585347355434e+00 1.4376207297374730e+01 4.7193924352050395e+01 0 -1 0
3300 1 1.1279926019391682e+00 1.2909130597322568e+01 4.2908688064556735e+01 1 0 -1
6089 1 3.0401598045810201e+00 1.0440242333008518e+01 4.2569884918983497e+01 1 1 0
1660 1 1.7528998841146470e+00 8.9010729646157039e+00 4.0214446701630713e+01 1 0 0
6064 1 6.9964553986225457e+00 2.4802461117782983e+00 4.7358062359862764e+01 1 0 0
3713 1 6.5081420979092730e+00 1.4615196448625278e+01 4.1697619715141521e+01 0 1 0
3162 1 4.9722373228399626e+00 1.2164846003456603e+01 4.1092798251634569e+01 0 1 -1
1600 1 6.8156280917429264e+00 9.7319241363903544e+00 4.2494076046217991e+01 1 1 0
3130 1 9.3792556835475551e+00 1.4858266365897707e+01 4.5843078718733189e+01 0 1 0
1317 1 4.7910290733892777e+00 4.3777092876356951e+00 4.6877545634336634e+01 0 0 0
2799 1 2.4122069674684670e+00 1.5492229106256863e+01 4.2017350145933420e+01 0 1 0
3698 1 1.4539681639965338e+00 6.7795173141550844e+00 4.2083778987896743e+01 1 1 0
5980 1 4.0944991848116716e+00 1.4737434741692253e+01 3.9551724020924055e+01 0 1 -1
1868 1 9.1148402289927866e+00 8.1003110296619525e+00 4.5984983625391969e+01 0 0 0
3191 1 9.4887601464828855e+00 1.4886695054345616e+01 4.3197902406650321e+01 1 0 -1
3231 1 7.2407252007083809e+00 1.7998507771006536e+00 4.2292409359841521e+01 0 -1 0
38 1 5.4804349144063043e+00 1.5349927672059149e+01 4.5181982982446037e+01 0 0 -1
5142 1 2.4218287321377860e+00 4.1441270676360649e+00 4.5619373360029265e+01 2 2 0
6022 1 3.1312848209897348e+00 2.9711125372621834e+00 4.3127661261741288e+01 0 1 -1
3653 1 7.6141826724862005e+00 1.4420039137929317e+01 3.9235897897586881e+01 1 1 0
4521 1 6.5454230347044335e+00 8.9686012291135011e+00 4.6900901517257203e+01 1 1 0
1981 1 1.7719050158156608e+00 7.1737263177981454e+00 4.4895587390656836e+01 0 0 -1
2910 1 4.9529192492191978e+00 1.0965899356333233e+00 4.3836332082795735e+01 1 0 0
1560 1 8.5612977706406248e+00 4.3265117801053679e+00 4.2251963822132062e+01 0 0 -1
6003 1 1.1626181242995213e+00 2.0385556338264093e+00 4.6780424385221792e+01 1 1 -1
5254 1 4.9254070422966594e+00 6.4775227012827488e+00 4.4775234087042257e+01 1 -1 -1