LAMMPS data file via write_data, version 16 Mar 2018, timestep = 100000

5021 atoms
2 atom types

0.0000000000000000e+00 4.9219999999999999e+01 xlo xhi
0.0000000000000000e+00 4.9019635930410494e+01 ylo yhi
1.4487941046752582e+00 3.8551205895326703e+01 zlo zhi

Masses

1 18.015
2 12.01

Atoms # atomic

201 2 0.0000000000000000e+00 2.8417180249513345e+00 3.1346174017177182e+00 0 0 0
203 2 0.0000000000000000e+00 0.0000000000000000e+00 3.1346174017177182e+00 0 0 0
205 2 1.2305000000000001e+00 7.1042950623783474e-01 3.1346174017177182e+00 0 0 0
212 2 1.2305000000000001e+00 2.1312885187134998e+00 3.1346174017177182e+00 0 0 0
214 2 2.4610000000000003e+00 2.8417180249513345e+00 3.1346174017177182e+00 0 0 0
216 2 2.4610000000000003e+00 0.0000000000000000e+00 3.1346174017177182e+00 0 0 0
218 2 3.6915000000000004e+00 7.1042950623783474e-01 3.1346174017177182e+00 0 0 0
233 2 3.6914999999999996e+00 2.1312885187134998e+00 3.1346174017177182e+00 0 0 0
235 2 4.9220000000000006e+00 2.8417180249513332e+00 3.1346174017177182e+00 0 0 0
237 2 4.9220000000000006e+00 0.0000000000000000e+00 3.1346174017177182e+00 0 0 0
239 2 6.1524999999999999e+00 7.1042950623783407e-01 3.1346174017177182e+00 0 0 0
262 2 6.1524999999999999e+00 2.1312885187134989e+00 3.1346174017177182e+00 0 0 0
264 2 7.3829999999999991e+00 2.8417180249513345e+00 3.1346174017177182e+00 0 0 0
266 2 7.3829999999999991e+00 0.0000000000000000e+00 3.1346174017177182e+00 0 0 0
268 2 8.6134999999999984e+00 7.1042950623783407e-01 3.1346174017177182e+00 0 0 0
299 2 8.6134999999999984e+00 2.1312885187135002e+00 3.1346174017177182e+00 0 0 0
208 2 0.0000000000000000e+00 4.2625770374269996e+00 3.1346174017177182e+00 0 0 0
210 2 1.2305000000000001e+00 4.9730065436648339e+00 3.1346174017177182e+00 0 0 0
225 2 1.2305000000000001e+00 6.3938655561404980e+00 3.1346174017177182e+00 0 0 0
229 2 2.4610000000000003e+00 4.2625770374269996e+00 3.1346174017177182e+00 0 0 0
231 2 3.6914999999999996e+00 4.9730065436648339e+00 3.1346174017177182e+00 0 0 0
254 2 3.6914999999999996e+00 6.3938655561404980e+00 3.1346174017177182e+00 0 0 0
206 2 0.0000000000000000e+00 7.1042950623783341e+00 3.1346174017177182e+00 0 0 0
227 2 2.4610000000000003e+00 7.1042950623783341e+00 3.1346174017177182e+00 0 0 0
258 2 4.9220000000000006e+00 4.2625770374269978e+00 3.1346174017177182e+00 0 0 0
260 2 6.1524999999999999e+00 4.9730065436648339e+00 3.1346174017177182e+00 0 0 0
291 2 6.1524999999999999e+00 6.3938655561404980e+00 3.1346174017177182e+00 0 0 0
295 2 7.3829999999999991e+00 4.2625770374269996e+00 3.1346174017177182e+00 0 0 0
297 2 8.6135000000000002e+00 4.9730065436648339e+00 3.1346174017177182e+00 0 0 0
336 2 8.6135000000000002e+00 6.3938655561404980e+00 3.1346174017177182e+00 0 0 0
256 2 4.9220000000000006e+00 7.1042950623783341e+00 3.1346174017177182e+00 0 0 0
293 2 7.3830000000000009e+00 7.1042950623783341e+00 3.1346174017177182e+00 0 0 0
221 2 0.0000000000000000e+00 8.5251540748539991e+00 3.1346174017177182e+00 0 0 0
223 2 1.2305000000000001e+00 9.2355835810918343e+00 3.1346174017177182e+00 0 0 0
250 2 2.4610000000000003e+00 8.5251540748539991e+00 3.1346174017177182e+00 0 0 0
252 2 3.6915000000000004e+00 9.2355835810918343e+00 3.1346174017177182e+00 0 0 0
219 2 0.0000000000000000e+00 1.1366872099805333e+01 3.1346174017177182e+00 0 0 0
246 2 1.2305000000000001e+00 1.0656442593567498e+01 3.1346174017177182e+00 0 0 0
248 2 2.4610000000000003e+00 1.1366872099805333e+01 3.1346174017177182e+00 0 0 0
283 2 3.6914999999999996e+00 1.0656442593567499e+01 3.1346174017177182e+00 0 0 0
287 2 4.9220000000000006e+00 8.5251540748539991e+00 3.1346174017177182e+00 0 0 0
289 2 6.1524999999999999e+00 9.2355835810918343e+00 3.1346174017177182e+00 0 0 0
332 2 7.3830000000000009e+00 8.5251540748539991e+00 3.1346174017177182e+00 0 0 0
334 2 8.6134999999999984e+00 9.2355835810918343e+00 3.1346174017177182e+00 0 0 0
285 2 4.9220000000000006e+00 1.1366872099805333e+01 3.1346174017177182e+00 0 0 0
328 2 6.1524999999999999e+00 1.0656442593567499e+01 3.1346174017177182e+00 0 0 0
330 2 7.3829999999999991e+00 1.1366872099805333e+01 3.1346174017177182e+00 0 0 0
375 2 8.6134999999999984e+00 1.0656442593567498e+01 3.1346174017177182e+00 0 0 0
202 2 0.0000000000000000e+00 1.4208590124756650e+00 6.2218025370472176e+00 0 0 0
204 2 0.0000000000000000e+00 0.0000000000000000e+00 6.2218025370472176e+00 0 0 0
213 2 1.2305000000000001e+00 2.1312885187134998e+00 6.2218025370472176e+00 0 0 0
215 2 2.4610000000000003e+00 1.4208590124756650e+00 6.2218025370472176e+00 0 0 0
217 2 2.4610000000000003e+00 0.0000000000000000e+00 6.2218025370472176e+00 0 0 0
234 2 3.6914999999999996e+00 2.1312885187134998e+00 6.2218025370472176e+00 0 0 0
211 2 1.2305000000000001e+00 3.5521475311891644e+00 6.2218025370472176e+00 0 0 0
232 2 3.6914999999999996e+00 3.5521475311891644e+00 6.2218025370472176e+00 0 0 0
530 2 0.0000000000000000e+00 2.8417180249513345e+00 9.3089876723761940e+00 0 0 0
531 2 0.0000000000000000e+00 0.0000000000000000e+00 9.3089876723761940e+00 0 0 0
532 2 1.2305000000000001e+00 7.1042950623783474e-01 9.3089876723761940e+00 0 0 0
536 2 1.2305000000000001e+00 2.1312885187134998e+00 9.3089876723761940e+00 0 0 0
537 2 2.4610000000000003e+00 2.8417180249513345e+00 9.3089876723761940e+00 0 0 0
538 2 2.4610000000000003e+00 0.0000000000000000e+00 9.3089876723761940e+00 0 0 0
539 2 3.6915000000000004e+00 7.1042950623783474e-01 9.3089876723761940e+00 0 0 0
547 2 3.6914999999999996e+00 2.1312885187134998e+00 9.3089876723761940e+00 0 0 0
236 2 4.9220000000000006e+00 1.4208590124756650e+00 6.2218025370472176e+00 0 0 0
238 2 4.9220000000000006e+00 0.0000000000000000e+00 6.2218025370472176e+00 0 0 0
263 2 6.1524999999999999e+00 2.1312885187134989e+00 6.2218025370472176e+00 0 0 0
265 2 7.3829999999999991e+00 1.4208590124756659e+00 6.2218025370472176e+00 0 0 0
267 2 7.3829999999999991e+00 0.0000000000000000e+00 6.2218025370472176e+00 0 0 0
300 2 8.6134999999999984e+00 2.1312885187135002e+00 6.2218025370472176e+00 0 0 0
261 2 6.1524999999999999e+00 3.5521475311891644e+00 6.2218025370472176e+00 0 0 0
298 2 8.6134999999999984e+00 3.5521475311891657e+00 6.2218025370472176e+00 0 0 0
548 2 4.9220000000000006e+00 2.8417180249513332e+00 9.3089876723761940e+00 0 0 0
549 2 4.9220000000000006e+00 0.0000000000000000e+00 9.3089876723761940e+00 0 0 0
550 2 6.1524999999999999e+00 7.1042950623783407e-01 9.3089876723761940e+00 0 0 0
562 2 6.1524999999999999e+00 2.1312885187134989e+00 9.3089876723761940e+00 0 0 0
563 2 7.3829999999999991e+00 2.8417180249513345e+00 9.3089876723761940e+00 0 0 0
564 2 7.3829999999999991e+00 0.0000000000000000e+00 9.3089876723761940e+00 0 0 0
565 2 8.6134999999999984e+00 7.1042950623783407e-01 9.3089876723761940e+00 0 0 0
581 2 8.6134999999999984e+00 2.1312885187135002e+00 9.3089876723761940e+00 0 0 0
207 2 0.0000000000000000e+00 5.6834360499026637e+00 6.2218025370472176e+00 0 0 0
209 2 0.0000000000000000e+00 4.2625770374269996e+00 6.2218025370472176e+00 0 0 0
226 2 1.2305000000000001e+00 6.3938655561404980e+00 6.2218025370472176e+00 0 0 0
228 2 2.4610000000000003e+00 5.6834360499026637e+00 6.2218025370472176e+00 0 0 0
230 2 2.4610000000000003e+00 4.2625770374269996e+00 6.2218025370472176e+00 0 0 0
255 2 3.6914999999999996e+00 6.3938655561404980e+00 6.2218025370472176e+00 0 0 0
224 2 1.2305000000000001e+00 7.8147245686161639e+00 6.2218025370472176e+00 0 0 0
253 2 3.6914999999999996e+00 7.8147245686161639e+00 6.2218025370472176e+00 0 0 0
534 2 0.0000000000000000e+00 4.2625770374269996e+00 9.3089876723761940e+00 0 0 0
535 2 1.2305000000000001e+00 4.9730065436648339e+00 9.3089876723761940e+00 0 0 0
543 2 1.2305000000000001e+00 6.3938655561404980e+00 9.3089876723761940e+00 0 0 0
545 2 2.4610000000000003e+00 4.2625770374269996e+00 9.3089876723761940e+00 0 0 0
546 2 3.6914999999999996e+00 4.9730065436648339e+00 9.3089876723761940e+00 0 0 0
558 2 3.6914999999999996e+00 6.3938655561404980e+00 9.3089876723761940e+00 0 0 0
533 2 0.0000000000000000e+00 7.1042950623783341e+00 9.3089876723761940e+00 0 0 0
544 2 2.4610000000000003e+00 7.1042950623783341e+00 9.3089876723761940e+00 0 0 0
257 2 4.9220000000000006e+00 5.6834360499026637e+00 6.2218025370472176e+00 0 0 0
259 2 4.9220000000000006e+00 4.2625770374269978e+00 6.2218025370472176e+00 0 0 0
292 2 6.1524999999999999e+00 6.3938655561404980e+00 6.2218025370472176e+00 0 0 0
294 2 7.3829999999999991e+00 5.6834360499026637e+00 6.2218025370472176e+00 0 0 0
296 2 7.3829999999999991e+00 4.2625770374269996e+00 6.2218025370472176e+00 0 0 0
337 2 8.6135000000000002e+00 6.3938655561404980e+00 6.2218025370472176e+00 0 0 0
290 2 6.1524999999999999e+00 7.8147245686161639e+00 6.2218025370472176e+00 0 0 0
335 2 8.6135000000000002e+00 7.8147245686161639e+00 6.2218025370472176e+00 0 0 0
560 2 4.9220000000000006e+00 4.2625770374269978e+00 9.3089876723761940e+00 0 0 0
561 2 6.1524999999999999e+00 4.9730065436648339e+00 9.3089876723761940e+00 0 0 0
577 2 6.1524999999999999e+00 6.3938655561404980e+00 9.3089876723761940e+00 0 0 0
579 2 7.3829999999999991e+00 4.2625770374269996e+00 9.3089876723761940e+00 0 0 0
580 2 8.6135000000000002e+00 4.9730065436648339e+00 9.3089876723761940e+00 0 0 0
600 2 8.6135000000000002e+00 6.3938655561404980e+00 9.3089876723761940e+00 0 0 0
559 2 4.9220000000000006e+00 7.1042950623783341e+00 9.3089876723761940e+00 0 0 0
578 2 7.3830000000000009e+00 7.1042950623783341e+00 9.3089876723761940e+00 0 0 0
220 2 0.0000000000000000e+00 9.9460130873296642e+00 6.2218025370472176e+00 0 0 0
222 2 0.0000000000000000e+00 8.5251540748539991e+00 6.2218025370472176e+00 0 0 0
249 2 2.4610000000000003e+00 9.9460130873296642e+00 6.2218025370472176e+00 0 0 0
251 2 2.4610000000000003e+00 8.5251540748539991e+00 6.2218025370472176e+00 0 0 0
245 2 1.2305000000000001e+00 1.2077301606043163e+01 6.2218025370472176e+00 0 0 0
247 2 1.2305000000000001e+00 1.0656442593567498e+01 6.2218025370472176e+00 0 0 0
282 2 3.6914999999999996e+00 1.2077301606043163e+01 6.2218025370472176e+00 0 0 0
284 2 3.6914999999999996e+00 1.0656442593567499e+01 6.2218025370472176e+00 0 0 0
541 2 0.0000000000000000e+00 8.5251540748539991e+00 9.3089876723761940e+00 0 0 0
542 2 1.2305000000000001e+00 9.2355835810918343e+00 9.3089876723761940e+00 0 0 0
556 2 2.4610000000000003e+00 8.5251540748539991e+00 9.3089876723761940e+00 0 0 0
557 2 3.6915000000000004e+00 9.2355835810918343e+00 9.3089876723761940e+00 0 0 0
540 2 0.0000000000000000e+00 1.1366872099805333e+01 9.3089876723761940e+00 0 0 0
554 2 1.2305000000000001e+00 1.0656442593567498e+01 9.3089876723761940e+00 0 0 0
555 2 2.4610000000000003e+00 1.1366872099805333e+01 9.3089876723761940e+00 0 0 0
573 2 3.6914999999999996e+00 1.0656442593567499e+01 9.3089876723761940e+00 0 0 0
286 2 4.9220000000000006e+00 9.9460130873296642e+00 6.2218025370472176e+00 0 0 0
288 2 4.9220000000000006e+00 8.5251540748539991e+00 6.2218025370472176e+00 0 0 0
331 2 7.3830000000000009e+00 9.9460130873296642e+00 6.2218025370472176e+00 0 0 0
333 2 7.3830000000000009e+00 8.5251540748539991e+00 6.2218025370472176e+00 0 0 0
327 2 6.1524999999999999e+00 1.2077301606043163e+01 6.2218025370472176e+00 0 0 0
329 2 6.1524999999999999e+00 1.0656442593567499e+01 6.2218025370472176e+00 0 0 0
374 2 8.6135000000000002e+00 1.2077301606043163e+01 6.2218025370472176e+00 0 0 0
376 2 8.6134999999999984e+00 1.0656442593567498e+01 6.2218025370472176e+00 0 0 0
575 2 4.9220000000000006e+00 8.5251540748539991e+00 9.3089876723761940e+00 0 0 0
576 2 6.1524999999999999e+00 9.2355835810918343e+00 9.3089876723761940e+00 0 0 0
598 2 7.3830000000000009e+00 8.5251540748539991e+00 9.3089876723761940e+00 0 0 0
599 2 8.6134999999999984e+00 9.2355835810918343e+00 9.3089876723761940e+00 0 0 0
574 2 4.9220000000000006e+00 1.1366872099805333e+01 9.3089876723761940e+00 0 0 0
596 2 6.1524999999999999e+00 1.0656442593567499e+01 9.3089876723761940e+00 0 0 0
597 2 7.3829999999999991e+00 1.1366872099805333e+01 9.3089876723761940e+00 0 0 0
620 2 8.6134999999999984e+00 1.0656442593567498e+01 9.3089876723761940e+00 0 0 0
4896 1 4.1070229785370564e+00 3.8555506883616437e+00 1.1875530604697877e+01 -1 0 0
1144 1 8.1946118775185024e+00 1.0053512571537880e+01 1.7008321371827190e+01 1 0 -1
1427 1 3.2856041422863127e+00 5.4877759680610030e+00 1.4372329611169611e+01 1 1 0
66 1 3.3177206851721359e+00 1.0711669430471793e+00 1.1861037112949601e+01 1 1 -1
3802 1 4.6877625671859571e+00 9.8340446791067446e+00 1.8575755857171576e+01 1 1 0
3473 1 6.5617572296389479e+00 4.0945016174660154e+00 1.4748785389460275e+01 0 1 0
1405 1 8.4820441483755289e+00 2.2329445902366358e+00 1.1893718566133384e+01 1 1 0
2277 1 1.0675415802653991e+00 9.7623166734530678e+00 1.9692311973084571e+01 1 1 0
3874 1 7.8588830063738824e+00 7.3719027047108225e+00 1.7595283164103428e+01 0 0 0
4878 1 1.5172458991665760e+00 5.5390512783112005e+00 1.1766695261894984e+01 1 0 -1
931 1 1.2810082060708672e+00 7.3611603578702054e+00 1.5302727398418243e+01 1 1 0
1226 1 1.0176194753208989e-01 2.6377192275380459e+00 1.5020145631365606e+01 1 1 0
974 1 6.8048324950483661e+00 4.4523259562872672e+00 1.1672332178455866e+01 1 1 0
2449 1 8.2410465161024238e+00 6.7709133465330655e+00 1.1899828900425819e+01 0 1 -1
2211 1 7.0896799952288516e+00 7.0038899551932419e+00 1.4645213230502604e+01 0 0 0
3669 1 4.5548449503411543e+00 8.1031901251824046e+00 1.4309878600680008e+01 1 1 -1
1403 1 1.3912826525863977e+00 8.2344628071032844e+00 1.2363081909307482e+01 1 1 0
1371 1 3.8380628296542461e+00 9.2055254414817149e+00 1.1775472380093449e+01 1 1 0
23 1 1.0692037220028792e+00 9.6998883415620405e+00 1.6789916999617873e+01 1 2 1
3460 1 6.7555012875019100e+00 1.0474812944388747e+01 1.4818968599861368e+01 1 1 0
3916 1 7.4148431991350083e+00 9.4607705253838379e+00 1.2194049610984424e+01 1 1 1
3920 1 4.6868954653591093e+00 1.0501988547222127e+00 1.9665793935412175e+01 0 1 1
2265 1 1.9326016332396547e+00 3.7379021128812755e+00 1.6818535280578399e+01 1 0 0
2681 1 4.6810466576481851e+00 4.2610200622627596e+00 1.6987950813421840e+01 0 1 1
1139 1 8.2192928104201126e+00 1.7033317031202693e+00 1.4549744884473135e+01 -1 0 0
3542 1 5.7265524963134764e+00 5.7698516350691573e+00 1.9122113527839627e+01 1 0 0
1346 1 5.9400617710409405e+00 1.8407372250368306e+00 1.7330072176518584e+01 1 1 0
4848 1 3.1040107016246004e+00 1.1892362996008861e+01 1.2602183615209281e+01 1 -1 -1
4923 1 2.1836967428782831e-02 1.1140855341074320e-01 1.6023236612543528e+01 1 0 -1
1041 1 2.1831159854468223e+00 2.4792973800039557e+00 1.9169344141348294e+01 0 2 -1
1261 1 8.6106754403919101e+00 4.5431814186940267e+00 1.6569469225761146e+01 0 -1 -1
3434 1 3.6817049183350306e+00 1.0185561470232575e+01 1.6109143037284888e+01 1 -1 0
3695 1 3.1384927759702226e+00 1.7294498958544052e-01 1.4426867446247000e+01 0 1 1
1224 1 5.6406247018926372e+00 1.1787563826675115e+01 1.1801565257252765e+01 1 1 -1
4903 1 9.0064345305546167e-01 6.1046089487090214e+00 1.7943298898842468e+01 0 1 -1
2437 1 9.3932248625846793e+00 1.2179731000304391e+01 1.8731597036182716e+01 0 1 0
2205 1 8.7300616128002151e+00 2.3072760796676652e+00 1.8243201794568570e+01 1 -1 0
2471 1 8.9250797634971701e-01 2.5466041228152707e+00 1.2447476879904231e+01 1 1 0
3708 1 2.7965710784730216e+00 4.0212817308162538e+00 2.1434624732310660e+01 1 0 -1
979 1 7.5246496697022336e-01 2.4229886007865700e+00 2.3217316903411948e+01 1 2 0
2424 1 8.6857145170058576e+00 9.9245375363633688e+00 2.7805578896460425e+01 0 0 -1
989 1 9.3484986273512352e+00 1.1103368355669552e+01 2.2686935237506798e+01 -1 1 -1
2151 1 4.9881780895930055e+00 2.7847912992633357e+00 2.1937385131526590e+01 0 -1 0
1026 1 2.9849861644916214e+00 6.2625757706822762e+00 2.3752930732482668e+01 1 0 0
2162 1 7.3047982341669995e+00 1.1734621370992460e+01 2.0663490518241037e+01 1 -1 -1
166 1 6.3219431577123419e+00 6.8322060904646724e+00 2.8625104266432608e+01 1 0 0
58 1 5.8250123079142604e+00 5.1022677038125215e+00 2.3619001737581240e+01 0 0 0
2485 1 8.4033139316155854e+00 4.8237360949371224e+00 2.2179461450851797e+01 -1 1 0
4705 1 8.2940322950636727e+00 5.4442244133733131e-01 2.4424860900591987e+01 1 1 0
108 1 2.8873839282489899e+00 1.0219550679206804e+01 2.3202851664709240e+01 0 1 -1
1121 1 6.2172193398248865e-01 1.1057143123317493e+01 2.4616079195036214e+01 1 0 0
2157 1 8.7023328010692946e+00 1.1746657606314976e+01 2.5391909648638425e+01 0 -1 0
4628 1 4.7368922234685416e+00 8.4458079300123750e+00 2.4485833194946050e+01 -1 0 1
2425 1 6.9528920698916474e+00 7.7010776930749518e+00 2.2903412942164724e+01 0 0 -1
3878 1 4.0728736021986084e-01 5.8195669902920741e+00 2.2743054828655239e+01 0 1 0
3479 1 2.1427493524266147e-01 3.4004981444013977e+00 2.5837079108386710e+01 1 0 0
2676 1 1.8483035032244974e+00 1.9136476261845021e+00 2.7446380294130797e+01 0 0 -1
3529 1 5.9220757717038142e+00 1.0266786754954042e+01 2.8350499075311820e+01 1 0 0
990 1 2.0071581005856869e+00 7.5112235768761488e+00 2.8514248526376168e+01 1 2 0
1312 1 6.6729961794460069e+00 3.5398530450486514e+00 2.5929859007858727e+01 0 1 0
3919 1 5.6045958121047086e+00 1.5956141691037020e+00 2.4237904769141803e+01 0 1 0
2653 1 3.3248052137898170e+00 9.1370771702559956e+00 2.0874210226556123e+01 1 0 0
2391 1 2.4236416289333778e+00 5.5503892516444173e+00 2.6321654797321724e+01 1 1 -1
1279 1 4.8307760279221839e+00 4.7391701523664862e+00 2.7557113395044563e+01 1 0 0
2698 1 4.1904297389629352e+00 8.4982474285428822e+00 2.7026496725148561e+01 1 0 1
4714 1 8.6763122229941061e+00 2.6813803697078935e+00 2.7347768683288592e+01 0 0 0
4634 1 8.7951851167148405e+00 5.1381554899802113e+00 2.9224387313054606e+01 1 0 -1
3921 1 1.9887111218442366e+00 1.0594292733198662e+01 2.7297833385255988e+01 1 0 0
1040 1 3.3619236074689662e+00 5.5687745614381878e-01 2.5419911199063307e+01 1 1 0
5012 1 6.7789367605855553e+00 8.8978211698109000e+00 2.0135377073448403e+01 0 0 0
2443 1 7.3966251596964314e+00 5.1635196153759645e-02 2.9274004968356873e+01 2 0 0
1369 1 3.0570242672847789e+00 6.4322362722159285e+00 2.0133306823832655e+01 0 1 -1
3644 1 9.8106769597811727e+00 2.6132915490694484e+00 2.3266360148995108e+01 0 1 0
4890 1 8.9988996324774737e-02 2.3469080878889059e-01 2.8506667037048562e+01 0 0 -1
2677 1 1.8248205998895068e+00 1.9149191453507797e-02 2.3360364085952298e+01 0 0 0
1323 1 7.0363334292702078e+00 3.7551968968571994e+00 2.0052811101206043e+01 1 0 -1
1390 1 7.4915951358928758e+00 8.0982869099468928e+00 3.7746910702556377e+01 1 1 1
3692 1 6.6968799764922462e+00 1.0989156280163364e+01 3.7681173636895323e+01 0 1 0
2389 1 2.7079926755677532e+00 2.6785731168031450e+00 3.0236029510474424e+01 1 0 -1
2304 1 1.4887170756607386e+00 2.7475963789951680e-01 3.7007886872781967e+01 0 -1 0
4800 1 6.5245491828610254e+00 1.9133613593867373e+00 3.1265790037122834e+01 0 1 0
2506 1 5.2907840538858739e+00 1.3185262040939671e-01 3.2866606238771396e+01 1 0 -1
2334 1 5.0731212580306213e+00 4.0343522678402106e+00 3.0225178688160426e+01 0 1 0
2371 1 2.2368073786219709e+00 4.8829752495916665e+00 3.4675105259015758e+01 1 -1 0
4709 1 8.4902233817469082e+00 7.8841938602986907e+00 3.1795274396906358e+01 1 0 0
2494 1 4.4522960152940367e+00 6.3681751504168922e+00 3.1771804173743281e+01 1 1 0
3455 1 9.1515911321067396e+00 2.9219717197747466e+00 3.2426646015358088e+01 0 1 -1
3974 1 2.2599417067931542e+00 7.7953340724792284e+00 3.1268338975320439e+01 2 0 -1
2511 1 2.2495421189869327e+00 1.0523256367526580e+01 3.2114220268611405e+01 0 0 -1
45 1 7.3499254124546383e+00 7.6481281884415031e+00 3.4256650025562898e+01 0 0 -1
2587 1 5.8924150374629383e+00 8.5860770679773779e+00 3.0873938943715395e+01 -1 1 -1
2252 1 4.6529076259822908e+00 1.1525317724412574e+01 3.1047551927344333e+01 1 1 0
1329 1 5.9165536864511701e+00 9.9752839667837883e+00 3.5178411014965064e+01 0 -1 0
3426 1 4.0023004655864787e+00 2.3964736169285841e+00 3.4505008294479730e+01 0 0 0
3509 1 3.7945476401100251e+00 2.3250561912455030e+00 3.7229140282212946e+01 1 0 1
2530 1 6.5622911253933935e-01 5.0944493979723970e-01 3.4248177054864421e+01 1 1 0
1107 1 2.4172459804666087e+00 1.1998748065992702e+01 3.7798424448583262e+01 1 0 -1
1299 1 1.0377631175257671e+00 7.2695685004432606e+00 3.3842394259289563e+01 1 1 0
3765 1 8.3789500850364327e+00 1.3749150908536760e+00 3.5268655941490238e+01 0 1 0
955 1 6.3674563303609020e+00 3.6426932495798909e+00 3.7060123951170382e+01 -1 0 0
2404 1 3.0215028388989511e+00 6.9375324541092329e+00 3.7999910531797127e+01 0 0 0
195 1 3.2328605468943366e+00 8.4503435808186413e+00 3.5384093944496136e+01 1 0 0
1358 1 1.6947716272138951e+00 4.3030028585114275e+00 3.7501074729124269e+01 0 1 0
3507 1 9.1295362846183163e+00 3.3780626178842401e+00 3.7709661896734623e+01 0 0 0
1100 1 5.0276784114361446e+00 6.1459985643202959e+00 3.4438203747371311e+01 1 1 0
1228 1 6.3972453059602090e+00 3.4033364322634907e+00 3.4189459958141896e+01 -1 1 -1
3543 1 5.7515352206037145e+00 6.1201292679676271e+00 3.7628130374372589e+01 0 0 0
2297 1 1.6384351891088706e+00 1.0594098637558947e+01 3.5027505694381034e+01 0 0 0
2272 1 1.2224896456053469e+00 9.3375869532024467e+00 3.7995023087968249e+01 1 0 0
3817 1 6.8296236618581828e-04 1.1792212159553817e+01 3.0992909375149459e+01 0 0 0
2293 1 6.3961549724497040e+00 1.1933324155723962e+01 3.3201973858074126e+01 0 1 -1
59 1 1.1672978505851012e-01 3.4748688070454925e+00 3.3684859203165409e+01 0 0 0
145 1 2.3424293495767570e+00 3.4068248908987941e-01 3.1915924447644322e+01 0 0 0
4802 1 9.4230050614866965e+00 1.0155058735829307e+01 3.0650526184332215e+01 0 1 -1
242 2 0.0000000000000000e+00 1.2787731112280996e+01 3.1346174017177182e+00 0 0 0
244 2 1.2305000000000001e+00 1.3498160618518829e+01 3.1346174017177182e+00 0 0 0
279 2 2.4610000000000003e+00 1.2787731112280996e+01 3.1346174017177182e+00 0 0 0
281 2 3.6915000000000004e+00 1.3498160618518829e+01 3.1346174017177182e+00 0 0 0
240 2 0.0000000000000000e+00 1.5629449137232333e+01 3.1346174017177182e+00 0 0 0
275 2 1.2305000000000001e+00 1.4919019630994494e+01 3.1346174017177182e+00 0 0 0
277 2 2.4610000000000003e+00 1.5629449137232328e+01 3.1346174017177182e+00 0 0 0
320 2 3.6915000000000004e+00 1.4919019630994494e+01 3.1346174017177182e+00 0 0 0
324 2 4.9220000000000006e+00 1.2787731112280996e+01 3.1346174017177182e+00 0 0 0
326 2 6.1524999999999990e+00 1.3498160618518829e+01 3.1346174017177182e+00 0 0 0
371 2 7.3829999999999991e+00 1.2787731112280996e+01 3.1346174017177182e+00 0 0 0
373 2 8.6135000000000002e+00 1.3498160618518835e+01 3.1346174017177182e+00 0 0 0
322 2 4.9220000000000006e+00 1.5629449137232333e+01 3.1346174017177182e+00 0 0 0
367 2 6.1524999999999990e+00 1.4919019630994494e+01 3.1346174017177182e+00 0 0 0
369 2 7.3829999999999991e+00 1.5629449137232333e+01 3.1346174017177182e+00 0 0 0
414 2 8.6135000000000002e+00 1.4919019630994494e+01 3.1346174017177182e+00 0 0 0
271 2 0.0000000000000000e+00 1.7050308149707998e+01 3.1346174017177182e+00 0 0 0
316 2 2.4610000000000003e+00 1.7050308149707998e+01 3.1346174017177182e+00 0 0 0
269 2 0.0000000000000000e+00 1.9892026174659328e+01 3.1346174017177182e+00 0 0 0
273 2 1.2305000000000001e+00 1.7760737655945832e+01 3.1346174017177182e+00 0 0 0
312 2 1.2305000000000001e+00 1.9181596668421495e+01 3.1346174017177182e+00 0 0 0
314 2 2.4610000000000003e+00 1.9892026174659328e+01 3.1346174017177182e+00 0 0 0
318 2 3.6914999999999996e+00 1.7760737655945832e+01 3.1346174017177182e+00 0 0 0
359 2 3.6914999999999996e+00 1.9181596668421495e+01 3.1346174017177182e+00 0 0 0
363 2 4.9220000000000006e+00 1.7050308149707998e+01 3.1346174017177182e+00 0 0 0
410 2 7.3830000000000009e+00 1.7050308149707998e+01 3.1346174017177182e+00 0 0 0
361 2 4.9220000000000006e+00 1.9892026174659328e+01 3.1346174017177182e+00 0 0 0
365 2 6.1524999999999999e+00 1.7760737655945832e+01 3.1346174017177182e+00 0 0 0
406 2 6.1524999999999999e+00 1.9181596668421495e+01 3.1346174017177182e+00 0 0 0
408 2 7.3829999999999991e+00 1.9892026174659328e+01 3.1346174017177182e+00 0 0 0
412 2 8.6134999999999984e+00 1.7760737655945832e+01 3.1346174017177182e+00 0 0 0
448 2 8.6135000000000002e+00 1.9181596668421495e+01 3.1346174017177182e+00 0 0 0
306 2 0.0000000000000000e+00 2.4154603212086325e+01 3.1346174017177182e+00 0 0 0
308 2 0.0000000000000000e+00 2.1312885187134999e+01 3.1346174017177182e+00 0 0 0
310 2 1.2304999999999993e+00 2.2023314693372832e+01 3.1346174017177182e+00 0 0 0
351 2 1.2304999999999993e+00 2.3444173705848499e+01 3.1346174017177182e+00 0 0 0
353 2 2.4610000000000003e+00 2.4154603212086325e+01 3.1346174017177182e+00 0 0 0
355 2 2.4610000000000003e+00 2.1312885187134995e+01 3.1346174017177182e+00 0 0 0
357 2 3.6914999999999996e+00 2.2023314693372832e+01 3.1346174017177182e+00 0 0 0
398 2 3.6915000000000004e+00 2.3444173705848499e+01 3.1346174017177182e+00 0 0 0
400 2 4.9220000000000006e+00 2.4154603212086325e+01 3.1346174017177182e+00 0 0 0
402 2 4.9220000000000006e+00 2.1312885187134995e+01 3.1346174017177182e+00 0 0 0
404 2 6.1524999999999990e+00 2.2023314693372832e+01 3.1346174017177182e+00 0 0 0
440 2 6.1524999999999999e+00 2.3444173705848499e+01 3.1346174017177182e+00 0 0 0
442 2 7.3830000000000009e+00 2.4154603212086336e+01 3.1346174017177182e+00 0 0 0
444 2 7.3829999999999991e+00 2.1312885187134999e+01 3.1346174017177182e+00 0 0 0
446 2 8.6135000000000002e+00 2.2023314693372832e+01 3.1346174017177182e+00 0 0 0
474 2 8.6134999999999984e+00 2.3444173705848499e+01 3.1346174017177182e+00 0 0 0
243 2 0.0000000000000000e+00 1.2787731112280996e+01 6.2218025370472176e+00 0 0 0
280 2 2.4610000000000003e+00 1.2787731112280996e+01 6.2218025370472176e+00 0 0 0
241 2 0.0000000000000000e+00 1.4208590124756663e+01 6.2218025370472176e+00 0 0 0
276 2 1.2305000000000001e+00 1.4919019630994494e+01 6.2218025370472176e+00 0 0 0
278 2 2.4610000000000003e+00 1.4208590124756663e+01 6.2218025370472176e+00 0 0 0
321 2 3.6915000000000004e+00 1.4919019630994494e+01 6.2218025370472176e+00 0 0 0
552 2 0.0000000000000000e+00 1.2787731112280996e+01 9.3089876723761940e+00 0 0 0
553 2 1.2305000000000001e+00 1.3498160618518829e+01 9.3089876723761940e+00 0 0 0
571 2 2.4610000000000003e+00 1.2787731112280996e+01 9.3089876723761940e+00 0 0 0
572 2 3.6915000000000004e+00 1.3498160618518829e+01 9.3089876723761940e+00 0 0 0
551 2 0.0000000000000000e+00 1.5629449137232333e+01 9.3089876723761940e+00 0 0 0
569 2 1.2305000000000001e+00 1.4919019630994494e+01 9.3089876723761940e+00 0 0 0
570 2 2.4610000000000003e+00 1.5629449137232328e+01 9.3089876723761940e+00 0 0 0
592 2 3.6915000000000004e+00 1.4919019630994494e+01 9.3089876723761940e+00 0 0 0
325 2 4.9220000000000006e+00 1.2787731112280996e+01 6.2218025370472176e+00 0 0 0
372 2 7.3829999999999991e+00 1.2787731112280996e+01 6.2218025370472176e+00 0 0 0
323 2 4.9220000000000006e+00 1.4208590124756663e+01 6.2218025370472176e+00 0 0 0
368 2 6.1524999999999990e+00 1.4919019630994494e+01 6.2218025370472176e+00 0 0 0
370 2 7.3830000000000009e+00 1.4208590124756663e+01 6.2218025370472176e+00 0 0 0
415 2 8.6135000000000002e+00 1.4919019630994494e+01 6.2218025370472176e+00 0 0 0
594 2 4.9220000000000006e+00 1.2787731112280996e+01 9.3089876723761940e+00 0 0 0
595 2 6.1524999999999990e+00 1.3498160618518829e+01 9.3089876723761940e+00 0 0 0
618 2 7.3829999999999991e+00 1.2787731112280996e+01 9.3089876723761940e+00 0 0 0
619 2 8.6135000000000002e+00 1.3498160618518835e+01 9.3089876723761940e+00 0 0 0
593 2 4.9220000000000006e+00 1.5629449137232333e+01 9.3089876723761940e+00 0 0 0
616 2 6.1524999999999990e+00 1.4919019630994494e+01 9.3089876723761940e+00 0 0 0
617 2 7.3829999999999991e+00 1.5629449137232333e+01 9.3089876723761940e+00 0 0 0
640 2 8.6135000000000002e+00 1.4919019630994494e+01 9.3089876723761940e+00 0 0 0
272 2 0.0000000000000000e+00 1.7050308149707998e+01 6.2218025370472176e+00 0 0 0
274 2 1.2305000000000001e+00 1.6339878643470165e+01 6.2218025370472176e+00 0 0 0
317 2 2.4610000000000003e+00 1.7050308149707998e+01 6.2218025370472176e+00 0 0 0
319 2 3.6915000000000004e+00 1.6339878643470165e+01 6.2218025370472176e+00 0 0 0
270 2 0.0000000000000000e+00 1.8471167162183658e+01 6.2218025370472176e+00 0 0 0
313 2 1.2305000000000001e+00 1.9181596668421495e+01 6.2218025370472176e+00 0 0 0
315 2 2.4610000000000003e+00 1.8471167162183658e+01 6.2218025370472176e+00 0 0 0
360 2 3.6914999999999996e+00 1.9181596668421495e+01 6.2218025370472176e+00 0 0 0
567 2 0.0000000000000000e+00 1.7050308149707998e+01 9.3089876723761940e+00 0 0 0
590 2 2.4610000000000003e+00 1.7050308149707998e+01 9.3089876723761940e+00 0 0 0
566 2 0.0000000000000000e+00 1.9892026174659328e+01 9.3089876723761940e+00 0 0 0
568 2 1.2305000000000001e+00 1.7760737655945832e+01 9.3089876723761940e+00 0 0 0
588 2 1.2305000000000001e+00 1.9181596668421495e+01 9.3089876723761940e+00 0 0 0
589 2 2.4610000000000003e+00 1.9892026174659328e+01 9.3089876723761940e+00 0 0 0
591 2 3.6914999999999996e+00 1.7760737655945832e+01 9.3089876723761940e+00 0 0 0
612 2 3.6914999999999996e+00 1.9181596668421495e+01 9.3089876723761940e+00 0 0 0
364 2 4.9220000000000006e+00 1.7050308149707998e+01 6.2218025370472176e+00 0 0 0
366 2 6.1524999999999999e+00 1.6339878643470165e+01 6.2218025370472176e+00 0 0 0
411 2 7.3830000000000009e+00 1.7050308149707998e+01 6.2218025370472176e+00 0 0 0
413 2 8.6134999999999984e+00 1.6339878643470165e+01 6.2218025370472176e+00 0 0 0
362 2 4.9220000000000006e+00 1.8471167162183658e+01 6.2218025370472176e+00 0 0 0
407 2 6.1524999999999999e+00 1.9181596668421495e+01 6.2218025370472176e+00 0 0 0
409 2 7.3829999999999991e+00 1.8471167162183658e+01 6.2218025370472176e+00 0 0 0
449 2 8.6135000000000002e+00 1.9181596668421495e+01 6.2218025370472176e+00 0 0 0
614 2 4.9220000000000006e+00 1.7050308149707998e+01 9.3089876723761940e+00 0 0 0
638 2 7.3830000000000009e+00 1.7050308149707998e+01 9.3089876723761940e+00 0 0 0
613 2 4.9220000000000006e+00 1.9892026174659328e+01 9.3089876723761940e+00 0 0 0
615 2 6.1524999999999999e+00 1.7760737655945832e+01 9.3089876723761940e+00 0 0 0
636 2 6.1524999999999999e+00 1.9181596668421495e+01 9.3089876723761940e+00 0 0 0
637 2 7.3829999999999991e+00 1.9892026174659328e+01 9.3089876723761940e+00 0 0 0