LAMMPS data file via write_data, version 16 Mar 2018, timestep = 6000000

6337 atoms
2 atom types

0.0000000000000000e+00 4.9219999999999999e+01 xlo xhi
0.0000000000000000e+00 4.9019635930410494e+01 ylo yhi
1.9044260287927521e+00 5.8157573971204357e+01 zlo zhi

Masses

1 18.015
2 12.01

Atoms # atomic

3040 1 2.6377014233669263e+00 2.0672304122002050e+00 2.8074793034174252e+00 2 0 1
1489 1 7.0188715984011374e+00 1.9250721345239408e+00 2.7869863582492398e+00 2 2 0
379 1 5.5794871192925077e-01 5.8373461155077218e+00 5.3963620565702852e+00 3 2 0
1945 1 1.2147954922020077e+01 9.1305383293396272e+00 5.6052758515853096e+00 2 1 0
1520 1 4.3032257939978608e-01 5.9379414418600884e+00 2.7021264039908566e+00 1 1 0
2164 1 1.2172475290958840e+01 1.8539823772656903e+00 2.9425304269974539e+00 -3 1 1
4822 1 5.0668935678908582e+00 5.6786422556806402e+00 2.6797755766234617e+00 2 4 1
1760 1 7.5023220995519218e+00 9.3148695790345180e+00 5.2312653690701261e+00 3 0 0
6064 1 9.5184738146025527e+00 5.2871633286476687e+00 3.2108103010690208e+00 1 3 1
3192 1 7.3673820717273326e+00 6.7241018744839565e+00 1.9967199582794568e+00 1 0 0
1986 1 3.0095652439875371e+00 9.3634495194170562e+00 2.9186340884212774e+00 2 2 0
3497 1 5.4414237114224786e+00 8.3951071700242395e+00 6.6374379149216498e+00 -2 0 0
284 1 7.3491000770734143e+00 9.3702665835874939e+00 2.6454173181813809e+00 0 2 1
1607 1 3.0061811642349143e+00 9.3338055906316857e+00 5.7712154519882954e+00 -1 -3 0
6032 1 1.2259154008216980e+01 9.0397239827542570e+00 3.0091794498655573e+00 2 0 1
6229 1 2.4733287005887146e+00 2.3480447761609162e+00 5.4955896233219139e+00 3 1 1
4449 1 7.3090124839922472e+00 1.8970636838276556e+00 5.5251298025462194e+00 -2 0 1
1648 1 4.8469165262923992e+00 1.2149607091966028e+00 6.4642637832111527e+00 5 -1 1
30 1 5.2616348457786766e-01 8.2759939661769391e+00 6.4614276845547893e+00 -2 -3 0
3699 1 9.5617603462948200e+00 7.2271776740338511e-01 6.6646545936331485e+00 2 1 1
5268 1 1.1993859101622478e+01 1.5964072618947460e+00 5.9105788732104072e+00 0 -1 1
5304 1 3.0005999721927874e+00 4.9023527904754332e+00 6.5092185714611288e+00 -3 0 1
4897 1 7.5099381812059169e+00 4.3918579270939313e+00 6.6343526689636159e+00 -1 -1 0
360 1 5.2858674735837052e+00 5.7522832667563844e+00 5.4537966471123793e+00 2 3 0
1848 1 9.7032164258651186e+00 8.0098883999667052e+00 6.6083178157269611e+00 1 1 0
450 1 1.0025096626591861e+01 5.4885313714595005e+00 6.1465344609558157e+00 -1 2 0
5001 1 9.8502889329348573e+00 1.0151623995222476e+01 2.1027835607585557e+00 3 1 1
278 1 3.1418714773419048e+00 1.2104961850750655e+01 6.3284404673394929e+00 2 0 0
1283 1 7.5688803077419209e+00 1.1662365456869729e+01 6.3842270435929320e+00 -1 2 1
4848 1 5.7675662178961618e-01 1.0364825138368341e+01 2.0513374248130147e+00 -2 -1 0
3197 1 1.2007861993046467e+01 6.3891473734928050e+00 1.9101801772171527e+00 0 -1 1
6249 1 7.8204850981440283e-02 1.4668991579391559e+00 6.5412552438502347e+00 0 0 1
4631 1 2.6952382209342614e+00 6.9032580243709907e+00 1.9396653463992237e+00 0 -4 1
3307 1 9.5670591933673776e+00 2.7282962389936394e+00 2.0594584123523134e+00 1 0 0
1245 1 2.9385429837964355e-01 4.0669237814364756e+00 1.0327702414362994e+01 -3 0 1
6134 1 2.5493087079424925e+00 2.4273270829263738e-01 1.2813896570429838e+01 2 1 1
5201 1 5.2906301588557891e+00 3.6876526959255038e+00 1.0444691043588998e+01 -2 3 1
51 1 5.9037681830809445e+00 8.4259851396591205e+00 9.3407654141677092e+00 -2 1 0
3172 1 1.0080706908787665e+01 3.2598733761379339e+00 1.0225212596688278e+01 2 1 0
3095 1 8.0861408147305491e-01 8.7649229252548828e+00 9.3226823752994612e+00 2 0 1
1651 1 3.2382520487199526e+00 7.6082204939173605e+00 1.0031836364237806e+01 2 0 0
438 1 2.5102160942401901e+00 3.9858792671707927e-01 1.0050005718600007e+01 -1 1 1
1624 1 1.3682435710261129e+00 1.1915272771077872e+01 1.3446265321331692e+01 -3 2 1
1503 1 7.9501654339255650e+00 6.9892129187243164e+00 1.0555268823252787e+01 2 1 1
3342 1 3.0876493163634335e+00 4.8620993239615506e+00 9.3723434552129863e+00 -1 5 1
490 1 8.0466513520903185e+00 1.0104925928024567e+01 1.3879304787996848e+01 -4 1 1
3281 1 1.2496780337822031e+00 1.1320737536566908e+01 1.0569847073021318e+01 2 0 1
185 1 1.0053323601806664e+01 7.8986830249639937e+00 9.3441509072933400e+00 2 0 0
4936 1 5.9139072068835192e+00 1.0885146763262547e+01 1.0447425948328428e+01 1 0 0
2067 1 4.9268495503999432e+00 1.0248568003203626e+00 9.1897958942503912e+00 3 2 1
6222 1 1.0322742705562158e+01 1.1111390093798914e+01 1.3002100666047053e+01 0 3 1
3412 1 9.7407466201035611e+00 8.1149407596238965e-01 9.5822189877927464e+00 1 2 0
3661 1 1.0030633487154523e+01 1.0649097649793278e+01 1.0451579289430732e+01 0 -2 0
6100 1 5.0420913704493753e-01 4.5335059373732509e+00 1.2888974779073020e+01 2 0 1
354 1 2.4479310575360604e+00 2.9364673004211830e+00 1.3762074771196993e+01 -1 -1 0
4939 1 7.4365262971360107e+00 2.3008701992274205e+00 1.3933455607960584e+01 0 3 0
1306 1 5.1531689716589257e+00 3.7280206700751051e+00 1.3095919441450414e+01 0 -1 0
6113 1 9.8461094631179034e+00 3.3389533683055848e+00 1.3002999752481985e+01 4 -1 1
2930 1 1.0232459569835644e+00 7.1607511082643995e+00 1.3977989172706211e+01 1 -1 1
1925 1 3.3220701343381109e+00 7.9991773614097328e+00 1.2794090306894056e+01 4 -1 1
1850 1 8.1710058973991870e+00 7.5062769033653352e+00 1.3118018489204422e+01 0 3 0
4543 1 5.5387663064424091e+00 6.4640046256651829e+00 1.3426083218337080e+01 2 2 1
5272 1 1.0292338831667356e+01 5.8945661231857862e+00 1.3997617183511705e+01 -1 0 0
5118 1 7.8498678445312517e+00 4.5644757427238956e+00 9.5092023610471550e+00 -1 2 0
5135 1 3.6173253122811233e+00 1.0469940353071856e+01 1.3943674785800098e+01 -3 2 0
5156 1 5.9030167859348035e+00 1.1434556533530124e+01 1.3283247776032679e+01 2 2 0
1390 1 8.0575402961938973e+00 1.1972317422568368e+01 9.1495782596188580e+00 2 1 1
1526 1 1.2904229768947587e-01 1.4718517141335092e+00 9.3760598067203045e+00 1 1 1
48 1 1.2042386175318962e+01 1.6865006580064621e+00 1.3600745455700359e+01 -1 -2 0
3333 1 2.8488032560402101e+00 2.8714158989209677e+00 1.6611406614512312e+01 1 1 0
3537 1 1.0821087173712106e+01 8.9199828404298245e+00 2.0844906382093008e+01 -1 -2 0
1406 1 7.8442210114643647e+00 2.3695094721563175e+00 1.6841408397324088e+01 -1 -3 1
4845 1 5.4351613429740562e+00 3.8095284880910509e+00 1.7166593303787813e+01 1 1 0
387 1 1.0378893663713438e+01 3.2416678679059299e+00 1.7780845042930522e+01 -3 -1 0
2862 1 2.6899617147920827e+00 1.2826781652015865e-01 1.7782314252025905e+01 2 0 1
2861 1 9.1134884454746057e-01 7.2751174750770353e+00 1.6754044396032405e+01 1 -2 1
4593 1 3.5725665970171088e+00 7.9427649415802923e+00 1.7283328562351404e+01 3 -1 1
1954 1 7.6585305594798869e-01 4.4706271435577776e+00 1.7613130410602537e+01 1 -3 0
4744 1 5.6912114620640715e+00 6.5044271346682265e+00 1.6234405258728529e+01 0 -1 0
6314 1 8.0563135360590490e+00 7.6678904833169961e+00 1.7431240541072814e+01 0 1 1
163 1 1.0131138520201315e+01 5.9441573906244241e+00 1.6766606611355066e+01 0 1 1
6173 1 3.0289256280083815e-01 1.7746851919090696e+00 2.1143658496313812e+01 1 0 1
4965 1 5.7050327243596319e+00 9.7614957856322899e+00 2.0979841455767222e+01 4 1 0
6205 1 6.2179286368451656e+00 1.1616892377257855e+01 1.7209448445144169e+01 0 2 1
2125 1 8.4798633813522919e+00 1.0010086061849215e+01 1.6473136187180582e+01 1 -2 1
1239 1 1.0709533797231392e+01 1.1060690196565570e+01 1.7786903804878460e+01 -1 -1 1
1778 1 6.2791789857015667e-01 4.4706723464086924e+00 2.0203183692037417e+01 0 -1 1
525 1 3.5935715392148460e+00 1.0535742541198820e+01 1.6568396148485245e+01 -2 -1 1
3453 1 5.0105151273725257e+00 1.5891871230908605e+00 2.0879480260526464e+01 0 0 0
1723 1 9.6862973740124971e+00 1.1851989448689295e+00 2.1086883549281790e+01 1 2 1
94 1 1.0126543408915236e+01 3.8581853725763482e+00 2.0591096159647947e+01 1 1 1
1677 1 3.4239374068643889e+00 8.5274185285755486e+00 2.0111703892392317e+01 0 1 0
4535 1 3.3340176785985891e+00 5.6719832726062069e+00 2.0937421319223940e+01 0 0 1
1875 1 2.6397017368652365e+00 4.6641066505982803e-01 2.0239323072076417e+01 3 1 0
3475 1 5.3444276126694366e+00 4.0369200223026978e+00 1.9896040854190943e+01 1 1 0
3620 1 7.7665625945036405e+00 5.4796267604401638e+00 2.0687371600806269e+01 1 0 0
4968 1 7.9838630426359511e+00 8.1688552673041546e+00 2.0171168375988110e+01 2 1 1
6097 1 1.2008490782329744e+00 1.0363586266878224e+01 2.0704417313408367e+01 2 -1 1
3323 1 1.0759275600340597e+01 1.1833483329984739e+01 2.0475194143977831e+01 1 0 0
6281 1 1.2149529240900863e+01 1.7584962747558288e+00 1.6242127663998506e+01 4 2 0
4814 1 1.1009347880187617e+00 1.1764322454957997e+01 1.7067463320401842e+01 2 0 0
687 2 8.6134999999999984e+00 9.2355835810918343e+00 2.6791554966518522e+01 0 0 0
2976 1 5.0124696442880285e+00 1.3134783643747108e+00 2.3650041929190532e+01 -1 0 1
1907 1 5.4771754746190480e+00 3.9732676350969149e+00 2.4526315364139894e+01 0 0 1
4502 1 9.6847696270563350e+00 1.0985298398771610e+00 2.3803114669485414e+01 -1 -1 1
4603 1 9.8003624232677762e+00 3.8814795005602472e+00 2.4142751110839956e+01 1 1 1
1591 1 8.2599268834319250e-01 4.7473766115045049e+00 2.4541712723078852e+01 0 2 1
4434 1 3.3740308208851943e+00 5.6528451627524401e+00 2.3750549311985282e+01 0 -1 1
4628 1 7.6317726316062542e+00 5.5992980422576135e+00 2.3533128032485724e+01 0 1 1
4967 1 8.0640357260132607e+00 8.1421967314130423e+00 2.4490677552443827e+01 -1 2 0
1259 1 3.4917734920470811e+00 8.3645747685540268e+00 2.3429055390291069e+01 -2 2 1
3072 1 1.4831321126782859e+00 1.0296756025742196e+01 2.3495523737371443e+01 -2 2 1
3098 1 2.5465524175151897e+00 4.5179751745676178e-01 2.4312206561781107e+01 0 1 0
3114 1 5.9105531283948674e+00 9.7522615585659018e+00 2.3928233883290329e+01 1 1 0
730 2 9.8440000000000012e+00 1.1366872099805333e+01 2.6791554966518522e+01 0 0 0
5200 1 1.0519735532636220e+01 9.1878146940008065e+00 2.3577543533379615e+01 0 -3 0
554 2 0.0000000000000000e+00 2.8417180249513345e+00 2.6791554966518522e+01 0 0 0
556 2 0.0000000000000000e+00 0.0000000000000000e+00 2.6791554966518522e+01 0 0 0
558 2 1.2305000000000001e+00 7.1042950623783474e-01 2.6791554966518522e+01 0 0 0
565 2 1.2305000000000001e+00 2.1312885187134998e+00 2.6791554966518522e+01 0 0 0
567 2 2.4610000000000003e+00 2.8417180249513345e+00 2.6791554966518522e+01 0 0 0
569 2 2.4610000000000003e+00 0.0000000000000000e+00 2.6791554966518522e+01 0 0 0
571 2 3.6915000000000004e+00 7.1042950623783474e-01 2.6791554966518522e+01 0 0 0
586 2 3.6914999999999996e+00 2.1312885187134998e+00 2.6791554966518522e+01 0 0 0
588 2 4.9220000000000006e+00 2.8417180249513332e+00 2.6791554966518522e+01 0 0 0
590 2 4.9220000000000006e+00 0.0000000000000000e+00 2.6791554966518522e+01 0 0 0
592 2 6.1524999999999999e+00 7.1042950623783407e-01 2.6791554966518522e+01 0 0 0
615 2 6.1524999999999999e+00 2.1312885187134989e+00 2.6791554966518522e+01 0 0 0
617 2 7.3829999999999991e+00 2.8417180249513345e+00 2.6791554966518522e+01 0 0 0
619 2 7.3829999999999991e+00 0.0000000000000000e+00 2.6791554966518522e+01 0 0 0
621 2 8.6134999999999984e+00 7.1042950623783407e-01 2.6791554966518522e+01 0 0 0
652 2 8.6134999999999984e+00 2.1312885187135002e+00 2.6791554966518522e+01 0 0 0
654 2 9.8440000000000012e+00 2.8417180249513332e+00 2.6791554966518522e+01 0 0 0
656 2 9.8440000000000012e+00 0.0000000000000000e+00 2.6791554966518522e+01 0 0 0
658 2 1.1074500000000002e+01 7.1042950623783330e-01 2.6791554966518522e+01 0 0 0
697 2 1.1074500000000002e+01 2.1312885187135002e+00 2.6791554966518522e+01 0 0 0
561 2 0.0000000000000000e+00 4.2625770374269996e+00 2.6791554966518522e+01 0 0 0
563 2 1.2305000000000001e+00 4.9730065436648339e+00 2.6791554966518522e+01 0 0 0
578 2 1.2305000000000001e+00 6.3938655561404980e+00 2.6791554966518522e+01 0 0 0
582 2 2.4610000000000003e+00 4.2625770374269996e+00 2.6791554966518522e+01 0 0 0
584 2 3.6914999999999996e+00 4.9730065436648339e+00 2.6791554966518522e+01 0 0 0
607 2 3.6914999999999996e+00 6.3938655561404980e+00 2.6791554966518522e+01 0 0 0
559 2 0.0000000000000000e+00 7.1042950623783341e+00 2.6791554966518522e+01 0 0 0
580 2 2.4610000000000003e+00 7.1042950623783341e+00 2.6791554966518522e+01 0 0 0
611 2 4.9220000000000006e+00 4.2625770374269978e+00 2.6791554966518522e+01 0 0 0
613 2 6.1524999999999999e+00 4.9730065436648339e+00 2.6791554966518522e+01 0 0 0
644 2 6.1524999999999999e+00 6.3938655561404980e+00 2.6791554966518522e+01 0 0 0
648 2 7.3829999999999991e+00 4.2625770374269996e+00 2.6791554966518522e+01 0 0 0
609 2 4.9220000000000006e+00 7.1042950623783341e+00 2.6791554966518522e+01 0 0 0
646 2 7.3830000000000009e+00 7.1042950623783341e+00 2.6791554966518522e+01 0 0 0
650 2 8.6135000000000002e+00 4.9730065436648339e+00 2.6791554966518522e+01 0 0 0
689 2 8.6135000000000002e+00 6.3938655561404980e+00 2.6791554966518522e+01 0 0 0
693 2 9.8440000000000012e+00 4.2625770374270004e+00 2.6791554966518522e+01 0 0 0
695 2 1.1074500000000002e+01 4.9730065436648339e+00 2.6791554966518522e+01 0 0 0
736 2 1.1074500000000002e+01 6.3938655561404980e+00 2.6791554966518522e+01 0 0 0
691 2 9.8440000000000012e+00 7.1042950623783341e+00 2.6791554966518522e+01 0 0 0
574 2 0.0000000000000000e+00 8.5251540748539991e+00 2.6791554966518522e+01 0 0 0
576 2 1.2305000000000001e+00 9.2355835810918343e+00 2.6791554966518522e+01 0 0 0
603 2 2.4610000000000003e+00 8.5251540748539991e+00 2.6791554966518522e+01 0 0 0
605 2 3.6915000000000004e+00 9.2355835810918343e+00 2.6791554966518522e+01 0 0 0
572 2 0.0000000000000000e+00 1.1366872099805333e+01 2.6791554966518522e+01 0 0 0
599 2 1.2305000000000001e+00 1.0656442593567498e+01 2.6791554966518522e+01 0 0 0
601 2 2.4610000000000003e+00 1.1366872099805333e+01 2.6791554966518522e+01 0 0 0
636 2 3.6914999999999996e+00 1.0656442593567499e+01 2.6791554966518522e+01 0 0 0
638 2 4.9220000000000006e+00 1.1366872099805333e+01 2.6791554966518522e+01 0 0 0
681 2 6.1524999999999999e+00 1.0656442593567499e+01 2.6791554966518522e+01 0 0 0
683 2 7.3829999999999991e+00 1.1366872099805333e+01 2.6791554966518522e+01 0 0 0
640 2 4.9220000000000006e+00 8.5251540748539991e+00 2.6791554966518522e+01 0 0 0
642 2 6.1524999999999999e+00 9.2355835810918343e+00 2.6791554966518522e+01 0 0 0
685 2 7.3830000000000009e+00 8.5251540748539991e+00 2.6791554966518522e+01 0 0 0
728 2 8.6134999999999984e+00 1.0656442593567498e+01 2.6791554966518522e+01 0 0 0
777 2 1.2304999999999998e+01 1.1366872099805333e+01 2.6791554966518522e+01 0 0 0
732 2 9.8440000000000012e+00 8.5251540748539956e+00 2.6791554966518522e+01 0 0 0
775 2 1.1074500000000002e+01 1.0656442593567498e+01 2.6791554966518522e+01 0 0 0
734 2 1.1074500000000002e+01 9.2355835810918343e+00 2.6791554966518522e+01 0 0 0
6114 1 2.1533687316905775e-01 1.9064781691727697e+00 2.3965198831548584e+01 0 -1 1
205 1 1.0641531979422888e+01 1.1990345194128601e+01 2.4323525306123990e+01 1 3 0
1947 1 1.2231847697277951e+01 4.9848780367606977e+00 2.3742641739597637e+01 0 3 0
555 2 0.0000000000000000e+00 1.4208590124756650e+00 3.0030999999998595e+01 0 0 0
557 2 0.0000000000000000e+00 0.0000000000000000e+00 3.0030999999998595e+01 0 0 0
566 2 1.2305000000000001e+00 2.1312885187134998e+00 3.0030999999998595e+01 0 0 0
568 2 2.4610000000000003e+00 1.4208590124756650e+00 3.0030999999998595e+01 0 0 0
570 2 2.4610000000000003e+00 0.0000000000000000e+00 3.0030999999998595e+01 0 0 0
587 2 3.6914999999999996e+00 2.1312885187134998e+00 3.0030999999998595e+01 0 0 0
564 2 1.2305000000000001e+00 3.5521475311891644e+00 3.0030999999998595e+01 0 0 0
585 2 3.6914999999999996e+00 3.5521475311891644e+00 3.0030999999998595e+01 0 0 0
883 2 0.0000000000000000e+00 2.8417180249513345e+00 3.3270445033465833e+01 0 0 0
884 2 0.0000000000000000e+00 0.0000000000000000e+00 3.3270445033465833e+01 0 0 0
885 2 1.2305000000000001e+00 7.1042950623783474e-01 3.3270445033465833e+01 0 0 0
889 2 1.2305000000000001e+00 2.1312885187134998e+00 3.3270445033465833e+01 0 0 0
890 2 2.4610000000000003e+00 2.8417180249513345e+00 3.3270445033465833e+01 0 0 0
891 2 2.4610000000000003e+00 0.0000000000000000e+00 3.3270445033465833e+01 0 0 0
892 2 3.6915000000000004e+00 7.1042950623783474e-01 3.3270445033465833e+01 0 0 0
900 2 3.6914999999999996e+00 2.1312885187134998e+00 3.3270445033465833e+01 0 0 0
589 2 4.9220000000000006e+00 1.4208590124756650e+00 3.0030999999998595e+01 0 0 0
591 2 4.9220000000000006e+00 0.0000000000000000e+00 3.0030999999998595e+01 0 0 0
616 2 6.1524999999999999e+00 2.1312885187134989e+00 3.0030999999998595e+01 0 0 0
618 2 7.3829999999999991e+00 1.4208590124756659e+00 3.0030999999998595e+01 0 0 0
620 2 7.3829999999999991e+00 0.0000000000000000e+00 3.0030999999998595e+01 0 0 0
614 2 6.1524999999999999e+00 3.5521475311891644e+00 3.0030999999998595e+01 0 0 0
901 2 4.9220000000000006e+00 2.8417180249513332e+00 3.3270445033465833e+01 0 0 0
902 2 4.9220000000000006e+00 0.0000000000000000e+00 3.3270445033465833e+01 0 0 0
903 2 6.1524999999999999e+00 7.1042950623783407e-01 3.3270445033465833e+01 0 0 0
915 2 6.1524999999999999e+00 2.1312885187134989e+00 3.3270445033465833e+01 0 0 0
916 2 7.3829999999999991e+00 2.8417180249513345e+00 3.3270445033465833e+01 0 0 0
917 2 7.3829999999999991e+00 0.0000000000000000e+00 3.3270445033465833e+01 0 0 0
653 2 8.6134999999999984e+00 2.1312885187135002e+00 3.0030999999998595e+01 0 0 0
655 2 9.8440000000000012e+00 1.4208590124756659e+00 3.0030999999998595e+01 0 0 0
657 2 9.8440000000000012e+00 0.0000000000000000e+00 3.0030999999998595e+01 0 0 0
698 2 1.1074500000000002e+01 2.1312885187135002e+00 3.0030999999998595e+01 0 0 0
651 2 8.6134999999999984e+00 3.5521475311891657e+00 3.0030999999998595e+01 0 0 0
696 2 1.1074500000000002e+01 3.5521475311891644e+00 3.0030999999998595e+01 0 0 0
918 2 8.6134999999999984e+00 7.1042950623783407e-01 3.3270445033465833e+01 0 0 0
934 2 8.6134999999999984e+00 2.1312885187135002e+00 3.3270445033465833e+01 0 0 0
935 2 9.8440000000000012e+00 2.8417180249513332e+00 3.3270445033465833e+01 0 0 0
936 2 9.8440000000000012e+00 0.0000000000000000e+00 3.3270445033465833e+01 0 0 0
937 2 1.1074500000000002e+01 7.1042950623783330e-01 3.3270445033465833e+01 0 0 0
957 2 1.1074500000000002e+01 2.1312885187135002e+00 3.3270445033465833e+01 0 0 0
560 2 0.0000000000000000e+00 5.6834360499026637e+00 3.0030999999998595e+01 0 0 0
562 2 0.0000000000000000e+00 4.2625770374269996e+00 3.0030999999998595e+01 0 0 0
579 2 1.2305000000000001e+00 6.3938655561404980e+00 3.0030999999998595e+01 0 0 0
581 2 2.4610000000000003e+00 5.6834360499026637e+00 3.0030999999998595e+01 0 0 0
583 2 2.4610000000000003e+00 4.2625770374269996e+00 3.0030999999998595e+01 0 0 0
608 2 3.6914999999999996e+00 6.3938655561404980e+00 3.0030999999998595e+01 0 0 0
577 2 1.2305000000000001e+00 7.8147245686161639e+00 3.0030999999998595e+01 0 0 0
606 2 3.6914999999999996e+00 7.8147245686161639e+00 3.0030999999998595e+01 0 0 0
887 2 0.0000000000000000e+00 4.2625770374269996e+00 3.3270445033465833e+01 0 0 0
888 2 1.2305000000000001e+00 4.9730065436648339e+00 3.3270445033465833e+01 0 0 0
896 2 1.2305000000000001e+00 6.3938655561404980e+00 3.3270445033465833e+01 0 0 0
898 2 2.4610000000000003e+00 4.2625770374269996e+00 3.3270445033465833e+01 0 0 0
899 2 3.6914999999999996e+00 4.9730065436648339e+00 3.3270445033465833e+01 0 0 0
911 2 3.6914999999999996e+00 6.3938655561404980e+00 3.3270445033465833e+01 0 0 0
886 2 0.0000000000000000e+00 7.1042950623783341e+00 3.3270445033465833e+01 0 0 0
897 2 2.4610000000000003e+00 7.1042950623783341e+00 3.3270445033465833e+01 0 0 0
610 2 4.9220000000000006e+00 5.6834360499026637e+00 3.0030999999998595e+01 0 0 0
612 2 4.9220000000000006e+00 4.2625770374269978e+00 3.0030999999998595e+01 0 0 0
645 2 6.1524999999999999e+00 6.3938655561404980e+00 3.0030999999998595e+01 0 0 0
647 2 7.3829999999999991e+00 5.6834360499026637e+00 3.0030999999998595e+01 0 0 0
649 2 7.3829999999999991e+00 4.2625770374269996e+00 3.0030999999998595e+01 0 0 0
643 2 6.1524999999999999e+00 7.8147245686161639e+00 3.0030999999998595e+01 0 0 0
913 2 4.9220000000000006e+00 4.2625770374269978e+00 3.3270445033465833e+01 0 0 0
914 2 6.1524999999999999e+00 4.9730065436648339e+00 3.3270445033465833e+01 0 0 0
930 2 6.1524999999999999e+00 6.3938655561404980e+00 3.3270445033465833e+01 0 0 0
932 2 7.3829999999999991e+00 4.2625770374269996e+00 3.3270445033465833e+01 0 0 0
912 2 4.9220000000000006e+00 7.1042950623783341e+00 3.3270445033465833e+01 0 0 0
931 2 7.3830000000000009e+00 7.1042950623783341e+00 3.3270445033465833e+01 0 0 0
690 2 8.6135000000000002e+00 6.3938655561404980e+00 3.0030999999998595e+01 0 0 0
692 2 9.8440000000000012e+00 5.6834360499026637e+00 3.0030999999998595e+01 0 0 0
694 2 9.8440000000000012e+00 4.2625770374270004e+00 3.0030999999998595e+01 0 0 0
737 2 1.1074500000000002e+01 6.3938655561404980e+00 3.0030999999998595e+01 0 0 0
688 2 8.6135000000000002e+00 7.8147245686161639e+00 3.0030999999998595e+01 0 0 0
735 2 1.1074500000000002e+01 7.8147245686161639e+00 3.0030999999998595e+01 0 0 0
933 2 8.6135000000000002e+00 4.9730065436648339e+00 3.3270445033465833e+01 0 0 0
953 2 8.6135000000000002e+00 6.3938655561404980e+00 3.3270445033465833e+01 0 0 0
955 2 9.8440000000000012e+00 4.2625770374270004e+00 3.3270445033465833e+01 0 0 0
956 2 1.1074500000000002e+01 4.9730065436648339e+00 3.3270445033465833e+01 0 0 0
977 2 1.1074500000000002e+01 6.3938655561404980e+00 3.3270445033465833e+01 0 0 0
954 2 9.8440000000000012e+00 7.1042950623783341e+00 3.3270445033465833e+01 0 0 0
573 2 0.0000000000000000e+00 9.9460130873296642e+00 3.0030999999998595e+01 0 0 0
575 2 0.0000000000000000e+00 8.5251540748539991e+00 3.0030999999998595e+01 0 0 0
602 2 2.4610000000000003e+00 9.9460130873296642e+00 3.0030999999998595e+01 0 0 0
604 2 2.4610000000000003e+00 8.5251540748539991e+00 3.0030999999998595e+01 0 0 0
598 2 1.2305000000000001e+00 1.2077301606043163e+01 3.0030999999998595e+01 0 0 0
600 2 1.2305000000000001e+00 1.0656442593567498e+01 3.0030999999998595e+01 0 0 0
635 2 3.6914999999999996e+00 1.2077301606043163e+01 3.0030999999998595e+01 0 0 0
637 2 3.6914999999999996e+00 1.0656442593567499e+01 3.0030999999998595e+01 0 0 0
894 2 0.0000000000000000e+00 8.5251540748539991e+00 3.3270445033465833e+01 0 0 0
895 2 1.2305000000000001e+00 9.2355835810918343e+00 3.3270445033465833e+01 0 0 0
909 2 2.4610000000000003e+00 8.5251540748539991e+00 3.3270445033465833e+01 0 0 0
910 2 3.6915000000000004e+00 9.2355835810918343e+00 3.3270445033465833e+01 0 0 0
893 2 0.0000000000000000e+00 1.1366872099805333e+01 3.3270445033465833e+01 0 0 0
907 2 1.2305000000000001e+00 1.0656442593567498e+01 3.3270445033465833e+01 0 0 0
908 2 2.4610000000000003e+00 1.1366872099805333e+01 3.3270445033465833e+01 0 0 0
926 2 3.6914999999999996e+00 1.0656442593567499e+01 3.3270445033465833e+01 0 0 0
639 2 4.9220000000000006e+00 9.9460130873296642e+00 3.0030999999998595e+01 0 0 0
641 2 4.9220000000000006e+00 8.5251540748539991e+00 3.0030999999998595e+01 0 0 0
684 2 7.3830000000000009e+00 9.9460130873296642e+00 3.0030999999998595e+01 0 0 0
686 2 7.3830000000000009e+00 8.5251540748539991e+00 3.0030999999998595e+01 0 0 0
680 2 6.1524999999999999e+00 1.2077301606043163e+01 3.0030999999998595e+01 0 0 0
682 2 6.1524999999999999e+00 1.0656442593567499e+01 3.0030999999998595e+01 0 0 0
928 2 4.9220000000000006e+00 8.5251540748539991e+00 3.3270445033465833e+01 0 0 0
929 2 6.1524999999999999e+00 9.2355835810918343e+00 3.3270445033465833e+01 0 0 0
951 2 7.3830000000000009e+00 8.5251540748539991e+00 3.3270445033465833e+01 0 0 0
927 2 4.9220000000000006e+00 1.1366872099805333e+01 3.3270445033465833e+01 0 0 0
949 2 6.1524999999999999e+00 1.0656442593567499e+01 3.3270445033465833e+01 0 0 0
950 2 7.3829999999999991e+00 1.1366872099805333e+01 3.3270445033465833e+01 0 0 0
731 2 9.8440000000000012e+00 9.9460130873296642e+00 3.0030999999998595e+01 0 0 0
733 2 9.8440000000000012e+00 8.5251540748539956e+00 3.0030999999998595e+01 0 0 0
727 2 8.6135000000000002e+00 1.2077301606043163e+01 3.0030999999998595e+01 0 0 0
729 2 8.6134999999999984e+00 1.0656442593567498e+01 3.0030999999998595e+01 0 0 0
774 2 1.1074500000000002e+01 1.2077301606043163e+01 3.0030999999998595e+01 0 0 0
776 2 1.1074500000000002e+01 1.0656442593567498e+01 3.0030999999998595e+01 0 0 0
952 2 8.6134999999999984e+00 9.2355835810918343e+00 3.3270445033465833e+01 0 0 0
975 2 9.8440000000000012e+00 8.5251540748539956e+00 3.3270445033465833e+01 0 0 0
976 2 1.1074500000000002e+01 9.2355835810918343e+00 3.3270445033465833e+01 0 0 0
973 2 8.6134999999999984e+00 1.0656442593567498e+01 3.3270445033465833e+01 0 0 0
974 2 9.8440000000000012e+00 1.1366872099805333e+01 3.3270445033465833e+01 0 0 0
997 2 1.1074500000000002e+01 1.0656442593567498e+01 3.3270445033465833e+01 0 0 0
998 2 1.2304999999999998e+01 1.1366872099805333e+01 3.3270445033465833e+01 0 0 0
1305 1 2.9799897010513940e+00 1.4632794989539242e+00 3.6661815438470171e+01 6 -1 0
3450 1 7.7687060430561559e+00 8.6975324292624645e+00 3.6398879509962455e+01 -1 1 -1
3696 1 7.5833901530681702e-01 1.7645410703456674e-01 3.5542543421513585e+01 2 -2 0
2010 1 1.1328107319887213e+00 5.1822542723595522e+00 3.6689094450104676e+01 0 1 -1
154 1 7.7024065661292411e+00 1.3981092399909270e+00 3.6732605907525198e+01 0 -1 -1
6143 1 7.8718256344255018e+00 1.1420062630486649e+01 3.5602749527888463e+01 1 -2 0
1452 1 3.3164542716587575e+00 3.9960757844579242e+00 3.5716819000994633e+01 1 1 0
4942 1 1.1101471686082158e+00 7.8102863732153960e+00 3.5976887696407402e+01 -1 -3 0
6140 1 7.5522250310333430e+00 3.8628214957004814e+00 3.5498675940331140e+01 2 -1 0
5987 1 5.4952183907638927e+00 7.5603309367788922e+00 3.5376334532535793e+01 1 2 0
391 1 5.6661836304605764e+00 5.1754391228069059e+00 3.6557235049668719e+01 0 -2 -1
6321 1 1.2107650379982474e+01 1.3767186786619021e+00 3.6636943179892512e+01 0 1 -1
4734 1 3.2627100142416148e+00 1.1955304824326490e+01 3.5432221167764553e+01 1 2 0
3170 1 9.9648691834140024e+00 7.5722828782273197e+00 3.5774334274034800e+01 1 1 0
4767 1 3.4272926517443989e+00 9.3738748597197787e+00 3.6337454051771459e+01 0 1 0
1702 1 9.8977313212704363e+00 1.4554296839955472e-01 3.5785650170315463e+01 1 1 -1
1628 1 5.2306300973987847e+00 3.6790513140569936e-01 3.5948851746023891e+01 1 2 -1
6129 1 1.2103847628817615e+01 9.0654932197499516e+00 3.6507665148719568e+01 -1 3 0
4484 1 9.8293762768283397e+00 5.0642034298004663e+00 3.6464876604650996e+01 3 1 0
6 1 1.1998235356040180e+01 1.1512511055295006e+01 3.5602549767084028e+01 3 1 0
3049 1 1.2296479493031988e+01 3.9427210391595784e+00 3.5627655838432162e+01 1 -1 0
19 1 2.7600914518373241e+00 1.4805569237499503e+00 3.9604380682137588e+01 -2 2 -1
5319 1 7.1204221242519417e-01 2.9462002702332408e+00 4.0144855350066877e+01 -1 1 0
4561 1 7.2648812608636923e+00 1.5909696075525890e+00 3.9563687228854164e+01 2 1 0
5029 1 5.0675196928481929e+00 3.0529790944662580e+00 4.0344256499033293e+01 -1 0 -1
1952 1 9.8282266691651721e+00 2.5895194880123462e+00 4.0534208147523756e+01 2 -1 -1
3270 1 1.0037585338539552e+01 1.0401369646750110e+01 4.2945290043097501e+01 1 2 -1
1639 1 9.0518325855262738e-01 5.5324851196888254e+00 3.9435044781932532e+01 3 -1 -1
1839 1 3.2442022431089597e+00 6.6067773488720656e+00 4.0468900510672839e+01 3 5 -1
2954 1 1.2049345274791040e+01 1.5174617608585508e+00 3.9473419891911760e+01 0 2 0
3061 1 5.5999485370413504e+00 5.9094044471986233e+00 3.9327159819605683e+01 -2 1 0
3244 1 7.9219557377081919e+00 6.6234625796548006e+00 4.0110262106827165e+01 0 0 0
2166 1 1.0053861250658560e+01 4.9684517609311802e+00 3.9337465915283076e+01 2 1 0
6154 1 5.5955878678454356e+00 1.0499653863134551e+01 4.2936712013745975e+01 1 -1 0
2088 1 3.3410883838945282e+00 9.0870843295604722e+00 3.9476626949953712e+01 0 2 0
1917 1 9.1580122553670895e-01 1.0214535704812100e+01 4.0193058291457788e+01 -1 1 -1
6147 1 7.5841803577424596e+00 9.2791673820500833e+00 3.9320611715182935e+01 0 2 0
1643 1 5.4629675024380271e+00 1.0694489227068756e+01 4.0288130563926927e+01 -1 1 0
5045 1 9.8074299064163046e+00 1.0493225999850472e+01 4.0202602456360495e+01 1 0 -1
4966 1 5.8439229169887086e-01 2.8593182313961991e+00 4.3116502097175854e+01 1 -1 -1
2975 1 5.1506401682034930e+00 2.9495635067361010e+00 4.3277790393560281e+01 2 -1 0
1359 1 1.2135328880991481e+00 1.0259313705709076e+01 4.3128756626990267e+01 1 -1 0
1418 1 9.9639263312803514e+00 2.6353321964925005e+00 4.3247041869082409e+01 1 1 0
3223 1 3.2462176833499945e+00 6.5113801538818414e+00 4.3255404097516745e+01 3 4 -1
3063 1 7.6858817420268437e+00 6.4907468807537034e+00 4.3127103946490081e+01 1 -1 0
4880 1 1.2174471936709327e+01 6.7208179467752061e+00 4.0365296218702269e+01 3 3 -1
1843 1 1.2151040698631155e+01 6.6803899481647564e+00 4.3136269027879095e+01 -4 2 -1
145 1 1.2099647598365170e+01 3.9693010194542988e+00 4.3971562348749515e+01 -3 0 0
2162 1 5.4446733221784749e+00 7.9635885841340324e+00 4.4057343635871817e+01 0 -1 0
1627 1 1.1874399155435466e+01 9.0096562465845693e+00 3.9216895924471359e+01 2 -5 0
3635 1 7.7308860941364257e+00 1.1604033030798252e+01 4.3913105359456594e+01 -2 1 0
5248 1 1.0051225995878749e+01 8.0183649697532999e+00 4.3966204534235487e+01 2 -1 0
4518 1 4.8103919892610749e+00 3.0267887386091885e-01 4.3988981180780101e+01 1 -2 0
1667 1 8.5642255812298229e-01 7.7221635009102476e+00 4.3994271258087778e+01 3 1 -1
6033 1 1.1904491218308234e+01 3.9065052281809978e+00 4.6816916342364848e+01 1 -1 0
4707 1 3.1959935598679792e+00 6.6148085033891793e+00 5.0647565839977517e+01 -4 -1 0
241 1 5.1069987316877787e+00 1.0431423837188445e+01 5.0683652819720933e+01 1 0 -1
3325 1 1.2194932926975840e+01 1.1650774306970044e+01 4.6945689080309023e+01 -2 -2 -1
3122 1 9.9124152438993995e+00 1.0031452593346836e+01 4.8063893348166701e+01 -1 2 0
402 1 9.4763505383894913e+00 2.2483243201701178e-01 4.7041111670176363e+01 0 1 -1
489 1 6.5393192480866658e-01 1.0559482685149881e+01 5.0729405357946177e+01 0 0 0
5290 1 2.8806734598007702e+00 4.2211219187417504e+00 4.6811489353051471e+01 0 1 -1
1873 1 5.3694208936665166e+00 1.0145911869587076e+01 4.7863359870876891e+01 4 -2 0
6169 1 6.7860535201837680e-01 7.7908973738181988e+00 4.6929950649433223e+01 0 2 0