
# Create simulation box and atoms

read_data data.ML_graphite_m1000atm_245K
  orthogonal box = (0 0 2.62195) to (49.22 49.0196 57.4401)
  4 by 4 by 8 MPI processor grid
  reading atoms ...
  6337 atoms
  reading velocities ...
  6337 velocities
group water type 1
3577 atoms in group water
group graphite type 2
2760 atoms in group graphite

# Define potential

pair_style sw
pair_coeff * * MLC_e.sw mW C


# Fix graphite atoms in place

fix 5 graphite setforce 0.0 0.0 0.0
velocity graphite set 0.0 0.0 0.0


# Equilibration of molecular water

# Add velocity/set timestep

velocity	    water create ${TEMP} ${SEED} rot yes dist gaussian
velocity	    water create 248 ${SEED} rot yes dist gaussian
velocity	    water create 248 22042 rot yes dist gaussian
timestep	    5.0

# Define output

compute			1 water msd
compute			3 water temp
thermo	    	50
thermo_style	custom step temp press vol etotal ke pe c_1[4] c_3

# Neighbor lists

neigh_modify    delay 0 every 1 check yes

# Set fixes

fix             1 water momentum 10 linear 1 1 1 rescale
fix             2 water nve
fix             3 water temp/csvr ${TEMP} ${TEMP} 500.0 ${SEED}
fix             3 water temp/csvr 248 ${TEMP} 500.0 ${SEED}
fix             3 water temp/csvr 248 248 500.0 ${SEED}
fix             3 water temp/csvr 248 248 500.0 22042
fix             4 water press/berendsen z ${PRES} ${PRES} 1000.0 modulus 20000
fix             4 water press/berendsen z -1000 ${PRES} 1000.0 modulus 20000
fix             4 water press/berendsen z -1000 -1000 1000.0 modulus 20000

# Run 0.5 ns equilibration

dump		    1 all atom 2000 ${DIR}/eq.${NAME}-${TEMP}.dump
dump		    1 all atom 2000 run_16/eq.${NAME}-${TEMP}.dump
dump		    1 all atom 2000 run_16/eq.het_freeze_16-${TEMP}.dump
dump		    1 all atom 2000 run_16/eq.het_freeze_16-248.dump

reset_timestep  0

run	            100000
Neighbor list info ...
  update every 1 steps, delay 0 steps, check yes
  max neighbors/atom: 2000, page size: 100000
  master list distance cutoff = 6.67472
  ghost atom cutoff = 6.67472
  binsize = 3.33736, bins = 15 15 17
  1 neighbor lists, perpetual/occasional/extra = 1 0 0
  (1) pair sw, perpetual
      attributes: full, newton on
      pair build: full/bin/atomonly
      stencil: full/bin/3d
      bin: standard
Per MPI rank memory allocation (min/avg/max) = 4.068 | 4.178 | 4.492 Mbytes
Step Temp Press Volume TotEng KinEng PotEng c_1[4] c_3 
       0     139.9697   -1056.0851     132262.2   -34085.323    2643.5254   -36728.848            0          248 
      50    140.57406   -1160.2319    132380.07   -34093.599    2654.9397   -36748.538   0.49999186    249.07082 
     100    139.58565   -1107.0389    132439.03   -34123.486    2636.2722   -36759.759    0.7749574    247.31954 
     150    138.07497   -1339.6435    132533.52   -34133.898    2607.7408   -36741.639     1.017662     244.6429 
     200    138.60608   -1110.8057    132556.86   -34113.828    2617.7716   -36731.599    1.2273161    245.58393 
     250    141.14542   -1156.4437    132692.49   -34081.555    2665.7306   -36747.286    1.4533589    250.08316 
     300    142.86714   -1271.0999    132746.16   -34047.674    2698.2477   -36745.922    1.6364125    253.13372 
     350    142.38913   -1155.4768    132809.73    -34043.47    2689.2199    -36732.69    1.7954682    252.28678 
     400    143.37287   -1151.3117    132817.97   -34025.072    2707.7991   -36732.871      1.99402    254.02978 
     450    138.62924   -1130.2485    132846.55   -34047.564     2618.209   -36665.773    2.2059357    245.62496 
     500    142.48056   -1239.0879    132936.79   -34012.352    2690.9466   -36703.298    2.3868696    252.44878 
     550    140.16097   -1232.0443    132951.92   -34010.489    2647.1379   -36657.627    2.5569887     248.3389 
     600    140.45001   -1274.2176    132961.51     -33974.8    2652.5968   -36627.396    2.7269388    248.85102 
     650    142.08605   -1229.1544    133029.11   -33919.378    2683.4957   -36602.874    2.8955023    251.74977 
     700    142.51467   -1199.3674    133088.58   -33946.444    2691.5909   -36638.035    3.0441041    252.50922 
     750    143.63974   -1357.7883    133147.84   -33941.305    2712.8394   -36654.144    3.1776463    254.50263 
     800     141.1048   -1329.0534    133124.59   -33980.018    2664.9634   -36644.982    3.3205495    250.01118 
     850     138.7958   -1087.4528    133235.94   -33970.894    2621.3546   -36592.249    3.4936427    245.92007 
     900    141.67772   -1053.7322    133362.81   -33944.847    2675.7839   -36620.631    3.6926774     251.0263 
     950     139.2885   -1068.8919    133409.14   -33946.491    2630.6601   -36577.151    3.8748672    246.79305 
    1000    139.67186   -1445.8968    133311.38   -34017.616    2637.9004   -36655.516    4.0237557    247.47229 
    1050    138.79496   -1250.2813    133202.62   -34058.016    2621.3389   -36679.355    4.1393589    245.91859 
    1100    140.63154   -1069.9071    133219.94   -34117.432    2656.0253   -36773.457    4.2602199    249.17266 
    1150    138.45266   -1269.0081    133226.69    -34045.57     2614.874   -36660.444    4.4181417    245.31209 
    1200    139.27848   -1185.0481    133271.82    -34031.44    2630.4708   -36661.911    4.5664772    246.77529 
    1250    140.83328   -1206.9139    133271.77   -34050.805    2659.8355    -36710.64    4.6575188    249.53011 
    1300    142.69865   -1171.5746    133215.72   -34027.283    2695.0655   -36722.349     4.793537    252.83518 
    1350    138.53052    -1248.946    133125.45    -34013.08    2616.3446   -36629.425    4.9534019    245.45005 
    1400     140.8876   -1366.4141    133035.02   -33970.445    2660.8613   -36631.306    5.1934505    249.62634 
    1450    139.83699   -1373.1185    132929.59   -34004.612     2641.019   -36645.631    5.3177201    247.76486 
    1500    141.99191   -1269.7414    132941.36   -33977.878    2681.7177   -36659.596    5.4568077    251.58298 
    1550    139.91529   -1190.9066    132877.81   -34028.224    2642.4979   -36670.722    5.5900669     247.9036 
    1600     138.6284   -1266.0966    132813.86   -34010.523    2618.1931   -36628.716    5.7236606    245.62347 
    1650    141.53317   -1239.7271    132769.15   -34029.468    2673.0539   -36702.522    5.7790878    250.77018 
    1700     144.1943    -1146.505    132715.23   -33989.686    2723.3131   -36712.999    5.9001459    255.48521 
    1750    141.43134   -1180.2746     132696.1   -33972.009    2671.1306    -36643.14    6.0716937    250.58976 
    1800    141.61533   -994.41933     132665.9   -33983.345    2674.6055   -36657.951    6.1762333    250.91575 
    1850    137.17262   -1121.5869    132633.59   -34042.959    2590.6988   -36633.658    6.3175307    243.04411 
    1900    142.49759   -1114.5434       132587   -34034.316    2691.2683   -36725.585     6.483812    252.47895 
    1950    139.99112      -1139.9    132550.24   -34061.595      2643.93   -36705.525    6.6245624    248.03795 
    2000    141.10915   -1087.1907    132606.64   -33989.724    2665.0456    -36654.77    6.8265985     250.0189 
    2050    140.37597   -988.22153    132627.58   -34014.776    2651.1985   -36665.975    6.9970251    248.71984 
    2100    142.27408   -985.85936    132620.49   -34021.237     2687.047   -36708.284    7.1387572    252.08293 
    2150    137.34979   -1267.3828    132606.27   -34083.235    2594.0448    -36677.28     7.310936    243.35802 
    2200    140.24162   -1278.0688    132557.48   -34002.417     2648.661   -36651.078    7.4454436    248.48179 
    2250    139.51288    -1082.719    132574.33   -34043.331    2634.8978   -36678.228    7.5901688    247.19061 
    2300    138.07701   -1189.2908    132685.39   -34050.769    2607.7793   -36658.548    7.7621475    244.64651 
    2350     140.3366   -1181.3521    132656.18   -33989.246    2650.4548   -36639.701    7.9609008    248.65007 
    2400    138.49939    -1352.773    132643.43   -34098.789    2615.7566   -36714.545    8.1521326    245.39489 
    2450    136.95835   -1278.8451     132543.4   -34126.525     2586.652   -36713.177    8.3142996    242.66447 
    2500    139.66706   -1249.4744    132538.71   -34097.458    2637.8096   -36735.267    8.4453719    247.46378 
    2550    138.99693   -985.24572    132511.79   -34042.996    2625.1534   -36668.149    8.5461825    246.27645 
    2600     140.6754   -1243.7216    132468.45   -34042.295    2656.8536   -36699.149    8.7248635    249.25037 
    2650    138.39604   -1244.2419    132400.13    -34033.15    2613.8046   -36646.954    8.8563312    245.21177 
    2700    138.20374   -1072.6299    132421.16   -34025.322    2610.1729   -36635.495    9.1121209    244.87106 
    2750    139.77238   -1258.2211    132415.61    -34042.37    2639.7988   -36682.168    9.3329478    247.65039 
    2800    139.87378   -1017.8225    132450.95   -34053.031    2641.7139   -36694.745    9.5740659    247.83005 
    2850    140.34403   -1082.7725    132406.11   -34019.285    2650.5953    -36669.88    9.7573432    248.66325 
    2900    138.56638   -1008.2334     132414.7   -34042.017    2617.0218   -36659.039    9.9566222    245.51358 
    2950    136.70228   -1343.5144    132416.74   -34040.074    2581.8156    -36621.89    10.103048    242.21075 
    3000    138.69616   -1143.7952    132425.34   -33980.987     2619.473    -36600.46    10.224515    245.74354 
    3050    137.40003   -1094.3688    132325.13   -33993.134    2594.9936   -36588.128    10.262679    243.44703 
    3100    137.07958   -1130.9635    132301.51   -34031.185    2588.9414   -36620.127    10.433757    242.87925 
    3150    140.51904   -1092.5933    132236.13   -34004.499    2653.9005   -36658.399     10.62965    248.97333 
    3200    138.13612   -1427.4847    132175.81   -33983.071    2608.8958   -36591.967    10.754487    244.75125 
    3250    137.43671   -1164.2024    132079.63   -33984.902    2595.6863   -36580.588    10.893517    243.51202 
    3300    138.51367   -1213.7835    132038.42   -34030.037    2616.0262   -36646.063    11.060212    245.42019 
    3350    138.79467   -1060.6336    132061.22   -34063.647    2621.3333    -36684.98    11.214494    245.91807 
    3400    137.06981   -1044.4641    132118.68   -34091.259     2588.757   -36680.016     11.43571    242.86195 
    3450    139.26835    -1037.237     132188.1   -34067.638    2630.2795   -36697.917    11.612966    246.75735 
    3500    140.26147   -939.94785    132229.13   -33998.339     2649.036   -36647.375    11.730456    248.51697 
    3550    137.71913   -1220.7634    132263.87   -34025.281    2601.0202   -36626.301    11.951416    244.01241 
    3600    140.06395   -1140.6625    132327.71   -34021.345    2645.3056   -36666.651    12.192346      248.167 
    3650    139.28689   -1194.7049    132276.77   -34023.932    2630.6296   -36654.561    12.306316    246.79019 
    3700    140.62689   -1109.2734    132235.49   -33985.099    2655.9374   -36641.036    12.481316    249.16442 
    3750     145.1726   -1114.5722    132241.86   -33949.463    2741.7897   -36691.252    12.717895    257.21857 
    3800    140.83991   -1050.7093    132317.28    -34031.34    2659.9605     -36691.3    12.983325    249.54185 
    3850     136.8491   -1154.3354    132372.36   -34100.803    2584.5886   -36685.391     13.18782    242.47089 
    3900    134.15765   -1312.3015    132335.21   -34096.589    2533.7568   -36630.346    13.355584    237.70215 
    3950    139.68119   -1098.6282    132338.47    -33997.69    2638.0766   -36635.767     13.57463    247.48882 
    4000    142.11909   -1320.5405    132331.92   -34028.792    2684.1198   -36712.911    13.809021    251.80832 
    4050    138.22302   -1043.0003    132333.85   -34048.763     2610.537     -36659.3    14.092411    244.90522 
    4100    139.38723   -1343.1384    132407.67   -34016.248    2632.5247   -36648.772     14.19234    246.96798 
    4150    138.05871    -1203.971    132317.18   -34016.062    2607.4337   -36623.496    14.221513    244.61409 
    4200     138.7122    -1328.009    132282.37   -33990.904    2619.7759    -36610.68    14.388618    245.77196 
    4250    137.89451   -1319.2016    132146.57   -34006.365    2604.3327   -36610.698      14.4846    244.32317 
    4300    142.25294   -1260.0919    132174.49   -34010.828    2686.6478   -36697.476     14.56676    252.04548 
    4350     143.3908   -1390.7935    132188.37   -33990.281    2708.1378   -36698.419     14.75069    254.06155 
    4400    136.77766   -1235.0534    132118.66   -34021.742    2583.2392   -36604.981    14.890271     242.3443 
    4450    138.57144   -1066.5965    132177.45   -33961.072    2617.1174    -36578.19    15.004368    245.52255 
    4500    139.33477   -1367.5768    132176.03   -33906.332     2631.534   -36537.866    15.192335    246.87503 
    4550    140.62283   -1288.1067     132181.3   -33941.233    2655.8607   -36597.093    15.546677    249.15722 
    4600    138.80302   -1306.2805    132175.01   -33963.235     2621.491   -36584.726    15.706535    245.93286 
    4650    139.61638     -1233.36    132152.69   -33961.368    2636.8525    -36598.22    15.958213    247.37398 
    4700    139.59187     -1212.13    132139.13    -33922.52    2636.3896    -36558.91    16.077541    247.33056 
    4750    139.19416   -1108.5118    132104.58   -33962.311    2628.8784   -36591.189    16.246663     246.6259 
    4800    142.01494   -1209.0431    132191.93   -33910.911    2682.1528   -36593.064    16.363615    251.62379 
    4850    139.06587   -1272.6772    132200.38   -33918.669    2626.4555   -36545.125    16.532867     246.3986 
    4900    140.28157   -1026.0941    132238.07   -33876.811    2649.4157   -36526.227    16.742825    248.55259 
    4950    141.45352   -1472.6305    132239.42   -33915.758    2671.5495   -36587.307    16.868077    250.62905 
    5000    143.72787   -1321.0024    132219.91   -33905.371    2714.5038   -36619.875    16.937355    254.65877 
    5050    140.12484    -1209.995    132231.08   -33937.018    2646.4555   -36583.473    16.993552    248.27488 
    5100    141.09258   -1130.5911     132206.5   -33990.697    2664.7327   -36655.429    17.109439    249.98955 
    5150    136.06139   -1478.3331    132163.37   -34063.693    2569.7115   -36633.404    17.208642    241.07521 
    5200    136.12022   -1018.4819    132105.34   -34059.524    2570.8226   -36630.347    17.300445    241.17945 
    5250    136.88202   -1167.4694     132105.6   -34073.823    2585.2102   -36659.034    17.496987    242.52921 
    5300    139.32375   -1377.7379    132067.73   -34065.239    2631.3258   -36696.565    17.677682    246.85551 
    5350    139.27374   -1205.9577    132013.68   -34009.824    2630.3813   -36640.206    17.772038    246.76689 
    5400    136.16782   -1226.5698    131985.37   -34017.471    2571.7216   -36589.193    17.863422    241.26379 
    5450    140.39543   -1242.6702    131925.08   -34022.026     2651.566   -36673.592     17.93197    248.75432 
    5500     138.4097   -1201.5623     131948.5   -34046.561    2614.0628   -36660.624    18.116751    245.23599 
    5550    138.94476   -900.44147    132007.32    -34020.65    2624.1681   -36644.818    18.211479    246.18401 
    5600    138.61447   -1260.7497    132074.43   -34022.943      2617.93   -36640.873    18.451395    245.59879 
    5650    141.75019   -1441.4535    132119.36   -34021.105    2677.1526   -36698.257    18.725813     251.1547 
    5700    141.04128   -1088.6458    132217.53    -34018.94    2663.7637   -36682.704    18.849318    249.89864 
    5750    140.72783   -954.48494    132348.23   -34063.568    2657.8439   -36721.412    18.911122    249.34327 
    5800    141.82997   -1158.0807    132277.35   -34032.821    2678.6594    -36711.48    19.049926    251.29606 
    5850    140.60418   -1334.9432    132199.21   -34010.883    2655.5085   -36666.392    19.108536    249.12418 
    5900    140.51279   -1014.0596    132241.51   -34020.464    2653.7825   -36674.247    19.324127    248.96226 
    5950    144.05168   -1138.8823    132270.93   -33992.445    2720.6195   -36713.064    19.509826    255.23251 
    6000    142.69182    -1108.046    132327.14    -33994.97    2694.9366   -36689.907    19.588634    252.82309 
    6050    141.04343   -1053.3481    132378.88   -34026.416    2663.8045    -36690.22    19.636466    249.90246 
    6100    141.23121   -1016.2007    132385.89   -34014.157    2667.3509   -36681.508    19.913909    250.23517 
    6150     139.8637   -1339.6343    132454.02   -34041.712    2641.5235   -36683.235    20.182993    247.81219 
    6200    138.60994   -1143.1146    132407.36   -34106.431    2617.8445   -36724.276    20.233369    245.59076 
    6250    137.74372   -1184.8324    132406.69   -34068.994    2601.4847   -36670.478     20.47532    244.05599 
    6300    139.22102   -1057.4998    132405.41   -34011.623    2629.3855   -36641.009    20.591081    246.67348 
    6350    136.74485   -1156.7828    132476.93   -34025.661    2582.6196   -36608.281    20.759287    242.28617 
    6400    140.31383   -1125.9956    132576.16   -33973.772     2650.025   -36623.797    20.858045    248.60975 
    6450    140.84892   -1019.8251    132683.99    -34013.12    2660.1309   -36673.251    20.923663    249.55783 
    6500    139.99733   -1015.3266    132708.72   -33996.157    2644.0473   -36640.204    21.196208    248.04896 
    6550    140.23178   -878.34677    132844.94   -34033.533    2648.4753   -36682.008    21.410439    248.46437 
    6600    141.57062   -1206.1449    132870.45    -33989.27    2673.7611   -36663.032    21.677626    250.83653 
    6650    138.60874   -1473.9961    132795.49   -33989.226    2617.8219   -36607.048     21.80296    245.58865 
    6700    137.12689   -1193.2579    132804.13    -34055.49     2589.835   -36645.325    21.915303    242.96308 
    6750    143.36119   -1326.8697    132795.14   -34016.957    2707.5786   -36724.536    21.954943    254.00909 
    6800    140.48126   -1362.5732       132770   -34077.167    2653.1871   -36730.354    22.099474     248.9064 
    6850    138.43714   -1310.6836    132813.68   -34055.764    2614.5809   -36670.344    22.259994     245.2846 
    6900    142.66336   -1214.5825    132858.24   -34048.744     2694.399   -36743.143    22.460728    252.77266 
    6950    142.11302   -1305.4921    132875.96   -34040.093    2684.0051   -36724.098    22.680373    251.79756 
    7000    138.90878   -1198.8961     132860.7   -34022.942    2623.4886    -36646.43    22.787588    246.12026 
    7050    140.30911   -1092.6208    132896.64   -34042.175    2649.9357   -36692.111    22.851849    248.60138 
    7100    139.51913   -1312.9972    132927.16   -34009.836    2635.0158   -36644.852    22.954448    247.20168 
    7150    137.92209   -1295.0223    132942.36   -34101.456    2604.8535   -36706.309    23.099232    244.37202 
    7200    139.77512   -1425.0199    132920.41   -34014.093    2639.8506   -36653.944    23.323177    247.65525 
    7250    142.11375   -1264.8466    132938.11   -33986.515    2684.0189   -36670.534    23.648622    251.79886 
    7300    137.98129   -1150.2017    132968.74   -33956.212    2605.9715   -36562.184    23.883411    244.47691 
    7350    142.74735   -933.38106    132933.34   -33917.142    2695.9854   -36613.128     24.00187    252.92148 
    7400    145.70568   -999.93476    133030.11   -33925.073    2751.8575   -36676.931    24.204815    258.16308 
    7450    141.60771   -1269.1341    133061.84    -33946.76    2674.4616   -36621.222    24.461826    250.90225 
    7500    142.54261   -1133.5364    133056.37   -33951.136    2692.1185   -36643.254    24.680985    252.55872 
    7550     143.4985   -1339.8352    133144.83   -33932.391    2710.1718   -36642.563    24.862436    254.25237 
    7600    144.91525   -1085.8977    133121.45   -33872.521    2736.9293    -36609.45    25.064118     256.7626 
    7650    141.79985    -1466.328    133090.98   -33943.182    2678.0904   -36621.272    25.154504    251.24268 
    7700    140.93544   -1299.5211    133006.62   -33938.037    2661.7648   -36599.802    25.335691    249.71111 
    7750     141.7003   -1249.1404    132919.51   -33918.673    2676.2103   -36594.883    25.519517     251.0663 
    7800    141.13998   -1263.1568    132861.72   -33896.161    2665.6279   -36561.789    25.698996    250.07352 
    7850    141.65591   -990.71409    132869.46   -33900.553    2675.3719   -36575.925    25.885751    250.98764 
    7900    143.21185   -1031.3305    132912.21    -33931.63     2704.758   -36636.388    26.022185    253.74448 
    7950    139.55821   -1105.7207     133003.8   -33962.889    2635.7538   -36598.643    26.147391    247.27092 
    8000    139.16465    -1278.721    133048.92   -33979.101     2628.321   -36607.422    26.215848    246.57361 
    8050     139.3617   -1136.6141    132960.22   -33962.966    2632.0425   -36595.008    26.427386    246.92274 
    8100    138.62111   -1077.6696    133008.48   -33961.192    2618.0555   -36579.247    26.557648    245.61056 
    8150    139.94161   -1179.4676     133034.3   -33957.963    2642.9951   -36600.958    26.587269    247.95024 
    8200    146.41579   -1159.5601    133061.91   -33920.263    2765.2689   -36685.532    26.682481    259.42126 
    8250    143.67786   -1382.2264     133050.2   -33946.122    2713.5593   -36659.682    26.941914    254.57017 
    8300    137.34974    -1305.463    132946.71   -33989.249    2594.0439   -36583.293    27.174748    243.35793 
    8350    138.91971   -1216.0931    132911.73   -34039.892    2623.6949   -36663.587    27.246925    246.13961 
    8400    139.81722   -1240.2007    132940.75    -33983.89    2640.6458   -36624.535     27.39867    247.72985 
    8450    140.42295   -949.69826    133048.39   -34044.518    2652.0857   -36696.604    27.578684    248.80307 
    8500    138.31941   -1072.4178     133145.4   -34057.639    2612.3574   -36669.996     27.73789      245.076 
    8550     138.9578   -1129.0079    133312.39   -34072.947    2624.4142   -36697.361    27.857616     246.2071 
    8600    140.31223   -1417.7771    133270.25   -34084.007    2649.9947   -36734.002    28.270596    248.60691 
    8650    136.01964   -1210.2236     133291.2   -34147.741     2568.923   -36716.664    28.379883    241.00124 
    8700    135.32454   -1128.2038    133322.09   -34175.449    2555.7951   -36731.244    28.579487    239.76965 
    8750    140.20574   -1195.6148    133290.72   -34141.889    2647.9834   -36789.873    28.822361    248.41822 
    8800    137.90151   -1225.3708    133327.91   -34069.856    2604.4649   -36674.321    28.930713    244.33557 
    8850    139.98091   -1355.3703    133327.66    -34020.92    2643.7372   -36664.657    29.018712    248.01987 
    8900    141.43415   -1336.4465    133353.47   -34007.517    2671.1837     -36678.7    29.079474    250.59473 
    8950    141.40503   -1157.9793    133278.77   -34008.957    2670.6337   -36679.591    29.174632    250.54314 
    9000    140.22701   -1170.7442    133286.87   -34023.509    2648.3851   -36671.895    29.488177    248.45591 
    9050    140.22798   -1158.2814    133371.68   -34000.333    2648.4035   -36648.737    29.606246    248.45764 
    9100    141.61229   -1046.6282    133417.53   -34002.395    2674.5482   -36676.943    29.615964    250.91037 
    9150    141.25145   -1151.3453    133447.35   -34024.257    2667.7332    -36691.99    29.617847    250.27103 
    9200    141.82418   -925.12757    133498.65    -34022.51      2678.55    -36701.06    29.709273     251.2858 
    9250    143.63315   -1230.1965    133508.04   -33965.447    2712.7149   -36678.162    29.833318    254.49095 
    9300    141.88742   -1223.0705    133553.88   -33916.769    2679.7444   -36596.514    29.958922    251.39785 
    9350    142.18313   -1384.1346    133575.64   -33909.188    2685.3292   -36594.517    30.153552    251.92178 
    9400    142.95207   -1554.1805    133441.79   -33903.171    2699.8517   -36603.023     30.19058     253.2842 
    9450     142.2514   -1202.1594    133289.25   -33900.739    2686.6186   -36587.357    30.313094    252.04275 
    9500    139.76891   -1303.6567    133296.75   -33944.205    2639.7334   -36583.938    30.446791    247.64425 
    9550    142.35507    -1131.998    133378.56   -33931.786    2688.5766   -36620.363    30.831892    252.22644 
    9600    137.25981   -1059.6489    133333.46   -34049.608    2592.3453   -36641.953    31.138022    243.19859 
    9650    138.93649   -1519.2543       133340   -34054.199    2624.0118   -36678.211    31.288449    246.16935 
    9700    140.40372   -1357.3916    133312.61   -34093.634    2651.7226   -36745.356    31.242936    248.76901 
    9750    137.62562     -1314.57     133308.6   -34121.674    2599.2543   -36720.928    31.442844    243.84674 
    9800    136.61394   -1587.2351    133315.78   -34084.017    2580.1472   -36664.165    31.673174    242.05423 
    9850    140.29193    -1371.694    133378.11   -34064.772    2649.6112   -36714.383    31.891291    248.57093 
    9900    138.91476   -1304.9715    133384.32   -34110.743    2623.6015   -36734.345    32.011088    246.13085 
    9950    140.09982   -1152.0268    133428.22     -34097.6    2645.9831   -36743.583     32.22296    248.23056 
   10000    136.79047   -1230.4656    133467.06   -34063.463    2583.4812   -36646.944    32.425644      242.367 
   10050    137.91345   -1196.4935    133457.53   -34115.252    2604.6903   -36719.942    32.601743    244.35672 
   10100    138.56306   -1351.0623     133384.7   -34072.338    2616.9592   -36689.297    32.598016    245.50771 
   10150    139.30179   -1299.2496    133307.65   -34015.484     2630.911   -36646.395    32.665928    246.81659 
   10200    142.04337   -1218.0396    133305.82   -34055.052    2682.6896   -36737.741    32.910764    251.67415 
   10250    136.94621   -1311.2942    133250.74    -34100.27    2586.4226   -36686.692    32.884251    242.64295 
   10300    139.90538   -1174.7842     133276.8   -34049.341    2642.3107   -36691.652     32.81276    247.88604 
   10350     139.4344   -1213.1783    133284.18   -34065.443    2633.4156   -36698.859    32.865752    247.05156 
   10400    140.19629   -1052.4312    133314.17    -34062.86     2647.805   -36710.665    32.882221    248.40149 
   10450    139.45675   -1240.6132    133357.65   -34067.581    2633.8377   -36701.418    32.844296    247.09115 
   10500    141.13816   -1127.6448    133381.78   -34066.627    2665.5934    -36732.22    32.892511    250.07029 
   10550    140.39353   -1197.2945    133371.11   -34056.093    2651.5301   -36707.623    32.938865    248.75095 
   10600    143.70391    -952.2108    133411.87   -33958.545    2714.0513   -36672.596      33.1448    254.61632 
   10650    144.61994   -1153.7724    133377.63   -33912.763    2731.3518   -36644.115    33.299481    256.23936 
   10700      142.044    -1136.567    133465.87   -33958.672    2682.7015   -36641.374     33.36178    251.67527 
   10750    139.76942   -1348.1234    133421.05   -33935.405    2639.7429   -36575.148     33.41426    247.64514 
   10800    141.80959   -1571.0813    133322.01   -33973.907    2678.2745   -36652.182     33.51557    251.25995 
   10850    142.83212   -1390.4189    133226.56   -33966.042    2697.5864   -36663.628    33.482738    253.07168 
   10900    138.26292   -1266.3572    133167.14   -33996.235    2611.2905   -36607.526    33.498328    244.97591 
   10950    139.91736   -1204.2586    133123.26   -34021.205     2642.537   -36663.742     33.58103    247.90727 
   11000     137.4716   -1085.1418    133142.77   -34068.035    2596.3453    -36664.38    33.789023    243.57384 
   11050    139.53397   -1157.6702    133192.66   -34010.218    2635.2962   -36645.515    34.095847    247.22798 
   11100    137.65015    -1078.236    133206.26   -33996.896    2599.7176   -36596.614     34.29456     243.8902 
   11150    139.47093   -989.82821    133254.92   -33958.045    2634.1055    -36592.15    34.485814    247.11627 
   11200    140.09946   -1213.1488    133198.46    -33981.91    2645.9762   -36627.886    34.624859    248.22991 
   11250    139.56297     -1300.36    133092.59   -33999.158    2635.8438   -36635.002    34.758842    247.27935 
   11300     140.7231   -1208.2455    133019.97   -34001.451    2657.7546   -36659.206    34.875547     249.3349 
   11350    140.56052   -1536.9956    132890.61   -33998.927    2654.6839   -36653.611    34.975236    249.04682 
   11400    139.27328   -1135.3064     132838.3   -34012.259    2630.3725   -36642.632    35.089901    246.76607 
   11450    141.85369   -1052.8466    132827.43   -34040.671    2679.1072   -36719.779    35.351792    251.33807 
   11500    140.49797   -1035.1101    132931.75   -34057.385    2653.5027   -36710.888    35.772893      248.936 
   11550    136.62976   -1360.8338    132842.13   -34080.712     2580.446   -36661.158    35.937949    242.08226 
   11600    140.48414   -1171.2125     132803.8   -34042.689    2653.2415    -36695.93    36.146339    248.91151 
   11650    139.79758   -1193.6395    132778.58   -34088.346    2640.2747   -36728.621    36.684874    247.69504 
   11700    140.62949   -1362.7311    132725.43   -34109.962    2655.9866   -36765.948    36.919883    249.16903 
   11750    139.03614   -1244.5509    132643.65   -34088.109     2625.894   -36714.003    36.935283    246.34592 
   11800    138.25789    -1021.809    132709.25   -34072.456    2611.1956   -36683.652    37.149171      244.967 
   11850     137.5192   -954.55498    132782.74   -34081.403    2597.2444   -36678.647    37.346618    243.65819 
   11900    139.81778   -1215.2837    132870.25    -34081.98    2640.6563   -36722.636    37.320487    247.73084 
   11950    141.22484   -1286.5659    132855.44   -34061.093    2667.2306   -36728.324     37.14436    250.22388 
   12000    138.74308   -1372.4722    132774.03   -34124.071    2620.3591    -36744.43    37.128573    245.82667 
   12050     139.5095    -1256.622    132711.62   -34111.266     2634.834     -36746.1    37.245079    247.18462 
   12100    141.24617   -986.75286    132765.26   -34108.879    2667.6334   -36776.512    37.392422    250.26167 
   12150     134.5325   -1199.6503    132831.51   -34114.097    2540.8362   -36654.933    37.675925     238.3663 
   12200    140.95386   -1324.9096    132835.97   -34074.476    2662.1127   -36736.588    37.721468    249.74375 
   12250    138.16344    -1279.747    132843.39   -34091.244    2609.4117   -36700.656     37.93287    244.79965 
   12300    140.10481   -1027.4038       132833   -34044.431    2646.0772   -36690.508     38.14979     248.2394 
   12350    141.65899   -821.69303    132913.01   -34048.676      2675.43   -36724.106    38.352938     250.9931 
   12400    139.57612    -1022.434     132933.4   -34056.121    2636.0921   -36692.214    38.592454    247.30265 
   12450    141.40279   -1067.4863    132935.85   -34009.115    2670.5915   -36679.707    38.667738    250.53918 
   12500    140.65809   -1179.9024       132912   -34049.937    2656.5267   -36706.463     38.74153     249.2197 
   12550    142.44618   -1217.3866    132894.76   -34031.799    2690.2974   -36722.096    38.723453    252.38787 
   12600     141.5554   -1043.4713    132956.34   -34049.846    2673.4737   -36723.319    38.916408    250.80957 
   12650    137.08055    -1106.868    133005.82   -34106.479    2588.9598   -36695.439    39.196564    242.88097 
   12700    139.98944   -1199.5271     133066.1   -34107.123    2643.8983   -36751.021    39.388952    248.03498 
   12750    140.45372   -1322.4638    133053.88   -34080.752    2652.6668   -36733.419    39.482018    248.85759 
   12800    140.15411   -1181.5774    133084.36   -34060.653    2647.0083   -36707.661    39.501312    248.32674 
   12850    139.88604   -1208.2457    133128.85   -34124.145    2641.9454    -36766.09    39.663363    247.85178 
   12900    139.35463   -1315.7129    133092.14   -34134.826    2631.9091   -36766.735    39.964755    246.91022 
   12950    138.97234   -1217.8136    133119.82   -34130.213    2624.6889   -36754.902    40.062826    246.23287 
   13000    140.81483   -1103.9429    133126.41   -34121.748    2659.4869   -36781.235    40.295209    249.49742 
   13050     139.0237   -1142.3226     133193.7   -34132.426     2625.659   -36758.085    40.428276    246.32388 
   13100     140.7165   -1243.3085    133222.35   -34105.495    2657.6299   -36763.125    40.426568     249.3232 
   13150    139.79749   -1280.8857    133232.52   -34123.245    2640.2731   -36763.518     40.60852    247.69488 
   13200    138.01264   -904.85607    133287.01   -34113.919    2606.5637   -36720.483    40.884123    244.53246 
   13250    138.76495   -1117.4892    133424.14   -34132.783     2620.772   -36753.555    40.887921    245.86541 
   13300    140.20459   -1245.8703    133473.48   -34150.107    2647.9617   -36798.069    40.983195    248.41618 
   13350    142.23526   -1208.7875    133413.49   -34161.965    2686.3137   -36848.279    41.252457    252.01414 
   13400    141.84648   -1272.1704    133403.52   -34164.089    2678.9711   -36843.061    41.319354     251.3253 
   13450    139.16476    -1017.011       133365   -34172.941     2628.323   -36801.264    41.517044     246.5738 
   13500    140.68103   -1266.5256     133321.1   -34137.638    2656.9599   -36794.598     41.39561    249.26034 
   13550    137.18511   -1208.7455     133252.2   -34179.384    2590.9345   -36770.318    41.477392    243.06623 
   13600     136.7292    -873.5352    133189.34   -34242.219    2582.3241   -36824.544    41.645141    242.25846 
   13650    135.70755   -1075.1988    133176.74   -34255.144    2563.0287   -36818.173    41.646237    240.44827 
   13700    136.16443   -1108.0689    133179.31   -34226.954    2571.6575   -36798.612    41.734076    241.25778 
   13750    139.07422   -1180.7551    133207.51   -34187.228    2626.6131   -36813.841     41.94416    246.41339 
   13800    140.70713   -1299.2046    133193.08   -34219.907    2657.4528    -36877.36    42.131037    249.30658 
   13850    139.89517   -900.36008    133124.96   -34186.732    2642.1179    -36828.85    42.270486    247.86795 
   13900    138.80196   -998.74343    133228.76   -34143.301    2621.4711   -36764.772    42.561535      245.931 
   13950    138.17598   -1222.4901    133268.09   -34185.184    2609.6485   -36794.832    42.770846    244.82186 
   14000     141.4969   -1265.4826    133367.55   -34154.298    2672.3688   -36826.666    42.765772    250.70591 
   14050    139.64615   -1008.7261    133378.55   -34166.448    2637.4148   -36803.863    42.890025    247.42674 
   14100    138.55961   -1013.8077    133431.12   -34187.888    2616.8939   -36804.782    43.104438    245.50159 
   14150    139.86022   -1352.4339     133465.6   -34182.623    2641.4579   -36824.081    43.297392    247.80603 
   14200    140.87077   -1364.6488    133360.42   -34091.702    2660.5434   -36752.246    43.513855    249.59653 
   14250    136.67275   -1274.8397    133382.46    -34101.87     2581.258   -36683.128    43.610701    242.15843 
   14300    141.38641   -1358.1556    133381.47   -34069.601    2670.2821   -36739.884    43.778165    250.51016 
   14350    142.82315   -1365.3805    133351.81   -34072.745    2697.4169   -36770.162    44.031133    253.05579 
   14400    141.71418   -1294.3486    133341.37   -34062.013    2676.4725   -36738.486    44.211686     251.0909 
   14450    138.43686   -1146.9468     133303.5   -34108.837    2614.5755   -36723.412    44.233638    245.28409 
   14500    142.09735   -1196.8935    133336.83   -34118.169    2683.7091   -36801.878    44.379516     251.7698 
   14550    143.62129   -1262.0292    133276.81   -34108.613    2712.4909   -36821.104    44.468177    254.46994 
   14600    141.85944   -990.40467    133359.16   -34098.035    2679.2159   -36777.251    44.469817    251.34827 
   14650     139.5898    -1258.255    133277.98   -34145.923    2636.3505   -36782.273    44.685926    247.32689 
   14700    138.02827   -1009.7884    133252.75   -34189.363    2606.8589   -36796.222    44.703578    244.56016 
   14750    140.87797   -931.46934    133404.42   -34177.212    2660.6794   -36837.891    44.691838    249.60928 
   14800    138.95578    -1058.195    133460.39   -34117.166    2624.3762   -36741.542     44.83489    246.20353 
   14850    140.63694   -1101.3375    133505.27   -34074.168    2656.1273   -36730.295     44.99951    249.18224 
   14900    138.57571   -1553.6245    133519.93   -34097.823    2617.1981   -36715.021    45.126306    245.53012 
   14950    139.90391   -1394.6031    133462.08    -34083.72    2642.2829   -36726.003    45.054968    247.88343 
   15000    138.37295   -1362.5652    133380.62   -34096.076    2613.3685   -36709.445    45.240521    245.17086 
   15050    139.35878   -1386.2502    133336.91   -34117.402    2631.9874   -36749.389    45.325447    246.91757 
   15100    139.46982   -1238.3342    133258.73   -34091.307    2634.0846   -36725.392    45.405725    247.11432 
   15150     140.6247   -1334.6445    133228.92     -34056.8    2655.8961   -36712.696    45.599641    249.16054 
   15200    136.84083   -1114.1238    133251.67   -34052.635    2584.4323   -36637.068    46.084868    242.45623 
   15250    139.79884   -1193.3866    133222.55   -34028.086    2640.2985   -36668.384    46.325617    247.69727 
   15300    137.09387   -1164.9705    133221.65   -34102.146    2589.2113   -36691.358     46.35838    242.90457 
   15350     140.1631   -1027.3912    133224.81   -34028.495    2647.1782   -36675.673    46.467809    248.34268 
   15400    139.45651   -1202.9775    133315.45   -34044.041    2633.8332   -36677.875    46.524958    247.09073 
   15450     139.0331   -1220.2419    133317.93   -34061.579    2625.8365   -36687.415    46.636339    246.34053 
   15500      136.863   -1313.9837    133315.59   -34089.234     2584.851   -36674.085    46.883999    242.49551 
   15550    139.63967   -1028.1321    133337.84   -34002.759    2637.2923   -36640.051    46.875541    247.41525 
   15600    138.89408    -1344.985    133377.61   -34020.501    2623.2109   -36643.712    47.068966    246.09421 
   15650    141.02855   -1238.1637    133398.06   -33987.974    2663.5234   -36651.497    47.394636     249.8761 
   15700    140.77321   -1316.3957    133431.88   -33959.452    2658.7008   -36618.152    47.845244    249.42367 
   15750    139.10674   -1315.7923    133428.72   -34025.389    2627.2272   -36652.616    47.943389    246.47099 
   15800     136.0521    -1412.399    133367.06   -33999.961    2569.5361   -36569.497    48.150164    241.05875 
   15850    139.91302   -1367.3875    133346.52   -34018.304     2642.455   -36660.759    48.025068    247.89958 
   15900    137.55914   -1308.1574     133416.3   -34021.762    2597.9986   -36619.761    48.081207    243.72894 
   15950    140.84697   -1322.0421    133462.76   -34005.786     2660.094    -36665.88    48.257842    249.55437 
   16000    137.59107   -1388.3233    133458.71   -34019.984    2598.6016   -36618.586    48.302541    243.78551 
   16050    140.57825   -1484.7599    133350.63   -33972.465    2655.0188   -36627.483    48.287215    249.07824 
   16100    139.32111   -1255.6892    133320.63   -33937.453     2631.276   -36568.729    48.486934    246.85083 
   16150    141.05731   -1448.6432    133228.42    -33972.39    2664.0665   -36636.457    48.574019    249.92704 
   16200    136.73925   -1184.7085    133163.14   -33984.894    2582.5139   -36567.408    48.811013    242.27626 
   16250    141.72946   -1014.4411    133149.96   -33930.637    2676.7611   -36607.398    48.890569    251.11797 
   16300    141.97717    -1137.644    133126.18   -33940.734    2681.4394   -36622.173    49.092137    251.55687 
   16350    140.72087   -1172.0073    133104.22   -33910.925    2657.7124   -36568.637    49.489884    249.33093 
   16400    140.09338   -1099.7151    133065.89   -33933.025    2645.8614   -36578.886    49.312521    248.21914 
   16450    140.38407   -1217.4578    133104.22   -33963.593    2651.3514   -36614.945    49.544585    248.73419 
   16500    140.37536    -1288.649    133041.11   -33947.241    2651.1869   -36598.428    49.571231    248.71875 
   16550    142.25479   -1139.2839    133081.52   -33949.554    2686.6826   -36636.237    49.754785    252.04875 
   16600    142.68686   -1277.5949    133142.34   -33932.065     2694.843   -36626.908    50.011476    252.81431 
   16650    138.41105   -1079.6365    133260.52   -33992.163    2614.0882   -36606.252    50.090592    245.23837 
   16700    138.96576   -1342.0591    133231.79   -34020.793    2624.5646   -36645.358    50.143677     246.2212 
   16750    139.29467   -1281.2441    133114.48   -34020.801    2630.7766   -36651.578    50.375564    246.80398 
   16800    140.88972    -1297.303    133080.88   -33997.509    2660.9015    -36658.41    50.735481    249.63012 
   16850    143.30865   -1024.9105    133041.36   -33988.331    2706.5863   -36694.917    50.868316      253.916 
   16900    142.57684   -1331.6219    133017.25   -33985.333     2692.765   -36678.098     51.15832    252.61936 
   16950    140.05789   -1378.1008    132870.74    -34009.67    2645.1911   -36654.861    51.379341    248.15626 
   17000    136.92356   -1334.2512    132897.33   -34032.728    2585.9949   -36618.722    51.531256    242.60283 
   17050    139.67692    -1121.405    132854.29   -34077.619    2637.9959   -36715.615    51.807198    247.48125 
   17100     141.5682   -1169.3959    132910.83   -34077.437    2673.7154   -36751.152    51.868276    250.83224 
   17150    140.76075   -1275.1614    132908.87   -34117.308    2658.4657   -36775.774    52.040308     249.4016 
   17200    139.48764   -1288.1975    132949.95   -34080.409    2634.4211    -36714.83     52.13171    247.14588 
   17250    137.74193   -1201.1709    133010.08   -34160.747     2601.451   -36762.198    52.222954    244.05282 
   17300    138.31007   -1181.2421    133063.89   -34118.117     2612.181   -36730.298    52.549263    245.05945 
   17350    139.75409   -1264.5818    133076.18   -34160.778    2639.4535   -36800.231    52.890439    247.61799 
   17400    139.41067   -1102.9555    133154.44   -34143.805    2632.9674   -36776.773    53.166651    247.00951 
   17450    138.78791   -1206.2722    133189.68   -34122.251    2621.2057   -36743.457    53.392831     245.9061 
   17500    140.84986   -1082.5255    133315.15   -34095.253    2660.1485   -36755.401    53.831566    249.55948 
   17550    140.09693   -1079.5429    133385.92   -34088.602    2645.9285   -36734.531    53.792255    248.22544 
   17600     137.6125    -1330.447    133417.91   -34137.048    2599.0065   -36736.055    54.031524    243.82349 
   17650    135.71037   -1126.9166    133375.36    -34114.33    2563.0821   -36677.412    54.155417    240.45328 
   17700    140.22036   -1169.0292    133469.89   -34094.515    2648.2595   -36742.774    54.294892    248.44412 
   17750    140.20911    -1171.441    133434.28    -34090.04    2648.0471   -36738.087    54.470407     248.4242 
   17800    141.24869    -1382.607    133393.44   -34092.542     2667.681   -36760.223    54.474119    250.26613 
   17850    136.24149   -1090.7226    133252.25   -34145.492     2573.113   -36718.605    54.331153    241.39432 
   17900    140.32714   -1088.9681    133287.17   -34089.909    2650.2762   -36740.185     54.41184    248.63332 
   17950    142.77323   -1010.5743    133263.11   -34123.887    2696.4741   -36820.361    54.736514    252.96733 
   18000    141.67898   -1259.7771    133264.03   -34118.519    2675.8076   -36794.326    54.746333    251.02852 
   18050    138.73894   -1237.6082    133303.13   -34140.581    2620.2808   -36760.861    55.019117    245.81932 
   18100    139.57771   -1220.7384    133221.82    -34099.33    2636.1223   -36735.452    55.057236    247.30548 
   18150     140.9266   -1141.7902     133188.6   -34056.359    2661.5979   -36717.957     55.27017    249.69545 
   18200    140.29679   -1253.4453    133105.68   -34061.299     2649.703   -36711.002    55.371834    248.57955 
   18250    142.68653   -1106.5729    133044.51   -34009.918    2694.8367   -36704.755    55.384477    252.81372 
   18300    140.50277   -1295.7099     132989.3    -34049.46    2653.5932   -36703.053    55.606286     248.9445 
   18350    141.81494   -1075.4771    132871.24   -34055.799    2678.3755   -36734.174    55.792885    251.26943 
   18400    141.50507   -994.35787    132859.33   -34022.384    2672.5232   -36694.907    56.067539     250.7204 
   18450    140.20712   -759.20031    132850.41   -34090.439    2648.0095   -36738.448    56.413994    248.42067 
   18500    136.96446   -980.07771    132857.27   -34090.225    2586.7673   -36676.993    56.642444    242.67528 
   18550    139.67202   -892.61157    132888.72   -34108.414    2637.9034   -36746.317    56.990214    247.47257 
   18600    140.38066   -1238.2255    132932.66   -34114.421    2651.2871   -36765.708    57.072163    248.72815 
   18650    140.37393   -1284.9765    132826.77    -34123.95    2651.1599    -36775.11    57.221692    248.71622 
   18700    138.31644   -1004.2869    132793.51   -34103.272    2612.3014   -36715.573    57.399206    245.07074 
   18750    142.38627   -1039.6365     132883.3   -34039.933    2689.1658   -36729.099    57.402747    252.28171 
   18800    139.50867   -990.98024    132974.05   -34095.053    2634.8183   -36729.871    57.599263    247.18315 
   18850    143.60398   -1150.1345    133048.82   -34028.143    2712.1639   -36740.307    57.702284    254.43926 
   18900    142.21357   -1390.6374    133055.59   -34059.049    2685.9041   -36744.953    57.792293    251.97572 
   18950    140.47133   -1116.3033     132967.4   -34090.995    2652.9994   -36743.994    57.593318     248.8888 
   19000    139.80114   -1081.2134    132897.66   -34084.237     2640.342   -36724.579    57.404908    247.70135 
   19050    140.10162   -1199.0727    132820.61   -34080.366     2646.017   -36726.383    57.565654    248.23374 
   19100     142.2386   -1260.0818    132806.41   -34082.607    2686.3769   -36768.984    58.031061    252.02007 
   19150    141.06911   -1245.0206    132791.73   -34070.397    2664.2894   -36734.686    58.434977    249.94795 
   19200    139.87946    -1210.164    132732.74    -34068.99    2641.8212   -36710.811    58.846206    247.84011 
   19250    138.11783   -1202.0976    132659.22    -34126.28    2608.5502    -36734.83     58.88089    244.71883 
   19300    138.92982   -1084.5426    132631.94    -34086.65    2623.8859   -36710.536    59.035564    246.15754 
   19350    139.96605   -1163.3092    132594.63   -34082.888    2643.4566   -36726.345    59.168439    247.99354 
   19400    137.81237   -1414.9722    132568.97    -34096.96    2602.7812   -36699.742    59.256364    244.17762 
   19450    139.27932   -1007.1801    132560.05   -34066.838    2630.4867   -36697.324    59.324135    246.77679 
   19500    140.35985     -1137.36    132638.09   -34065.952     2650.894   -36716.846    59.411874    248.69128 
   19550    137.81632   -1221.0381    132723.74   -34048.643    2602.8558   -36651.499    59.579085    244.18462 
   19600    137.46043   -1141.6035    132745.59   -34109.359    2596.1344   -36705.494    59.622446    243.55406 
   19650    140.83394   -1319.6067     132733.2   -34113.902    2659.8479    -36773.75    59.705747    249.53128 
   19700    139.25657   -1310.0201    132695.92   -34148.748     2630.057   -36778.805     60.05823    246.73647 
   19750    138.86266   -1203.6437    132721.43   -34167.381    2622.6174   -36789.998    60.188543    246.03853 
   19800    136.82035   -858.41641    132801.46   -34154.297    2584.0456   -36738.343    60.488606    242.41995 
   19850    139.26588    -974.3707    132833.77   -34171.215    2630.2328   -36801.448    60.502064    246.75297 
   19900    138.13625   -1024.8105    132865.19   -34151.697    2608.8982   -36760.595    60.621359    244.75147 
   19950     143.2699   -1124.8172    132881.87   -34140.137    2705.8544   -36845.991    60.884353    253.84733 
   20000      141.059   -995.44648     132888.8   -34216.762    2664.0984    -36880.86    61.147606    249.93003 
   20050    138.38925   -1187.6797    132971.29    -34198.33    2613.6764   -36812.006     61.55513    245.19974 
   20100    141.02703   -1080.0066    132936.91   -34222.885    2663.4946    -36886.38    61.741948    249.87339 
   20150    138.86049   -1265.3273    132926.64   -34165.484    2622.5765   -36788.061    61.976731     246.0347 
   20200    138.03204   -1108.6371    132941.26   -34184.403      2606.93   -36791.333    62.342308    244.56683 
   20250    137.21554   -1183.3222    132997.41   -34182.501    2591.5093    -36774.01    62.398524    243.12015 
   20300    135.74997   -1199.4336    132964.82   -34240.252      2563.83   -36804.082    62.233856    240.52344 
   20350    136.98272   -1154.9729     132956.8   -34192.277    2587.1122   -36779.389    62.255921    242.70764 
   20400    138.32588   -1077.0944    132949.75   -34202.365    2612.4796   -36814.845    62.223811    245.08747 
   20450    138.34793        -1344    132886.38   -34184.894    2612.8961    -36797.79     62.23514    245.12654 
   20500    139.90506   -1315.9205    132882.97   -34121.861    2642.3047   -36764.166    62.343689    247.88548 
   20550    137.93223   -1131.1231     132910.3   -34143.215    2605.0449    -36748.26    62.638876    244.38998 
   20600    139.18497   -1217.5024    132973.27   -34150.025    2628.7048    -36778.73     62.73345    246.60962 
   20650    139.83442   -1163.4808    132949.12    -34143.61    2640.9706   -36784.581    62.921277    247.76032 
   20700    136.20553   -1257.1733     132986.5    -34148.45    2572.4338   -36720.884    63.271984     241.3306 
   20750    136.00763   -1367.2884    132911.58   -34193.896    2568.6962   -36762.592    63.324839    240.97997 
   20800    136.32843   -1076.9167    132874.54   -34201.508    2574.7549   -36776.263    63.444836    241.54836 
   20850     142.2876   -914.89816       132912   -34220.387    2687.3024    -36907.69    63.801153     252.1069 
   20900    138.25229   -1260.3329       132980    -34229.65    2611.0898    -36840.74    64.094726    244.95708 
   20950    134.05741   -1240.2792    132970.93   -34245.218    2531.8636   -36777.082    64.039341    237.52454 
   21000    137.61554   -1280.4392    132987.11   -34292.235    2599.0638   -36891.299    64.108404    243.82887 
   21050    134.79491   -1166.1493    132997.12   -34387.919    2545.7922   -36933.711    64.382129    238.83125 
   21100    136.91225   -1188.8603     133021.8    -34307.56    2585.7813   -36893.341    64.631096    242.58279 
   21150    137.56807   -1167.4895    133033.69   -34230.394    2598.1673   -36828.561     64.60187    243.74477 
   21200    136.63437   -1072.0758    133052.71   -34223.433     2580.533   -36803.966    64.724592    242.09042 
   21250    138.58436   -1104.9495    133077.87   -34227.309    2617.3613   -36844.671    64.611623    245.54544 
   21300    140.51192   -993.16637    133152.36   -34213.603     2653.766   -36867.369    64.839559    248.96071 
   21350    141.50672   -1259.2928    133201.89   -34123.608    2672.5543   -36796.162    64.866869    250.72332 
   21400    140.50752   -1155.6193    133239.07   -34089.817     2653.683     -36743.5     64.91012    248.95292 
   21450    139.80443   -1144.7897    133243.58   -34073.693    2640.4042   -36714.098    65.067838    247.70718 
   21500    141.76112   -1032.5475    133285.39   -34040.141    2677.3589   -36717.499    65.092008    251.17406 
   21550    138.05702   -1077.3572    133458.69    -34042.58    2607.4017   -36649.981    65.434844    244.61109 
   21600    142.17814   -1190.6311    133508.41   -34015.576    2685.2349    -36700.81    65.214563    251.91294 
   21650    139.32062   -1107.6042    133510.69   -34114.542    2631.2667   -36745.808    65.185676    246.84996 
   21700    141.50314   -1142.5413    133514.75   -34130.072    2672.4866   -36802.558    65.472224    250.71697 
   21750    137.98139   -988.03144    133634.68   -34178.085    2605.9735   -36784.058    65.859151    244.47709 
   21800    138.08816   -1152.9296    133780.71   -34162.786      2607.99   -36770.776    66.400068    244.66627 
   21850    139.22424   -1172.2985     133788.6   -34202.868    2629.4463   -36832.315    66.806486    246.67918 
   21900    135.79598   -1220.8587    133854.65   -34213.157     2564.699   -36777.856    67.085356    240.60497 
   21950    139.40328   -1073.7537    133916.01   -34167.379    2632.8278   -36800.207    67.368473    246.99641 
   22000    137.90454   -1151.0577    133943.14   -34146.586     2604.522   -36751.108    67.547039    244.34093 
   22050    139.81347   -1056.9986    133962.01   -34158.977    2640.5748   -36799.552    67.751541    247.72319 
   22100    136.94769   -1081.1972    133876.64   -34177.427    2586.4506   -36763.878    68.130277    242.64558 
   22150    136.94979   -1283.4355    133778.04   -34182.082    2586.4902   -36768.572    68.539937    242.64929 
   22200    135.44722   -1363.5537    133671.86   -34193.633     2558.112   -36751.745    68.571921    239.98702 
   22250    137.70889   -1283.0242     133560.8   -34164.679    2600.8269   -36765.506    68.689415    243.99428 
   22300     136.9406   -1380.6067    133455.17   -34155.819    2586.3167   -36742.135    68.575067    242.63301 
   22350    138.65913   -1248.2161    133361.89   -34127.738    2618.7735   -36746.511     68.70767    245.67792 
   22400    140.43218   -1280.3001    133294.24   -34148.413      2652.26   -36800.673    69.089894    248.81943 
   22450    140.67463   -1240.3824    133291.86   -34109.201    2656.8391    -36766.04    69.243302    249.24901 
   22500    141.06951   -1292.7661    133308.67   -34035.274     2664.297   -36699.571    69.451048    249.94867 
   22550    139.38014   -982.32356    133232.43   -34080.004    2632.3908   -36712.395    69.599753    246.95541 
   22600    140.61818   -1140.0753    133244.44   -34142.141     2655.773   -36797.914    69.908116      249.149 
   22650     140.4302   -1130.7822    133283.69    -34130.56    2652.2226   -36782.782    70.331559    248.81592 
   22700    138.83583   -918.91892    133369.97   -34104.206    2622.1107   -36726.317     70.39069      245.991 
   22750    137.60539   -1066.3656    133428.32   -34063.137    2598.8721   -36662.009    70.642355    243.81089 
   22800    140.03292   -1316.6121    133443.45   -34037.213    2644.7196   -36681.932    70.768916    248.11203 
   22850    141.53387   -1506.6449     133452.7   -33982.335     2673.067   -36655.402    70.824271    250.77141 
   22900     139.3648   -1348.5459    133457.41   -33995.619     2632.101    -36627.72    70.974625    246.92823 
   22950    140.64089   -1291.3154    133388.58   -34001.056    2656.2018   -36657.258    71.047135    249.18923 
   23000    141.60741   -1327.4215    133382.72   -34028.069    2674.4559   -36702.525    70.923831    250.90171 
   23050     139.3237   -1265.2682    133338.44   -34040.744    2631.3249   -36672.068    70.941584    246.85542 
   23100    139.14384   -1394.3489    133234.59   -34024.293    2627.9279   -36652.221    70.864351    246.53673 
   23150    142.36581   -1327.5271    133161.92   -34016.632    2688.7794   -36705.411    70.973364    252.24546 
   23200    138.06988   -1241.6098    133070.97   -34037.301    2607.6447   -36644.946    70.992995    244.63388 
   23250     141.6304   -1279.3105    133093.43    -34001.35    2674.8902    -36676.24    71.110437    250.94246 
   23300    141.37313   -1302.3319    133116.97   -33957.618    2670.0313   -36627.649    71.555818    250.48662 
   23350    141.33493   -1248.9393    133143.37   -33939.405    2669.3097   -36608.715     71.61858    250.41893 
   23400    141.44385   -1143.7544    133135.38   -33978.075     2671.367   -36649.442    71.618029    250.61193 
   23450    143.27656   -1177.9359    133170.34   -33954.534    2705.9802   -36660.515    72.250117    253.85914 
   23500    141.50566    -1431.469    133175.85   -33958.739    2672.5343   -36631.273     72.67756    250.72145 
   23550    141.51594   -1328.7702    133242.94   -33965.687    2672.7284   -36638.415    72.877997    250.73965 
   23600    139.02542   -1134.4143    133265.94   -33993.631    2625.6914   -36619.323    72.793686    246.32692 
   23650    137.92266   -1417.5789    133252.17   -34024.909    2604.8642   -36629.773    73.239031    244.37303 
   23700    139.02073    -1386.649    133200.74     -34023.5    2625.6028   -36649.103    73.615471     246.3186 
   23750    138.08991   -1271.9405    133167.68   -34033.428     2608.023   -36641.451    73.671145    244.66937 
   23800    138.07328    -1454.427    133192.62   -34015.758    2607.7089   -36623.466    73.704956     244.6399 
   23850    137.80554   -1240.0292     133159.1    -33994.49    2602.6522   -36597.142    73.811288    244.16552 
   23900    139.53197   -1281.3841    133239.21   -33993.398    2635.2583   -36628.656    73.943315    247.22442 
   23950    145.24687   -1618.8343    133178.97   -33998.436    2743.1923   -36741.628    73.843269    257.35016 
   24000    138.78744   -1410.1745    133148.31   -34019.754    2621.1968   -36640.951    73.940075    245.90526 
   24050    139.24493   -1387.3951    133110.19   -33986.598    2629.8373   -36616.435    74.185826    246.71586 
   24100    141.91445   -1218.1555    133062.17   -33956.834    2680.2548   -36637.089    74.326172    251.44574 
   24150    140.98414   -1378.2126    133052.17   -33959.084    2662.6846   -36621.768    74.470748     249.7974 
   24200    137.99871   -1535.1347    132974.88   -33961.091    2606.3006   -36567.392    74.597345    244.50779 
   24250    141.03911   -1228.5031    132951.57    -33920.94    2663.7229   -36584.663    74.618034     249.8948 
   24300    142.93709   -1218.6544    132977.97   -33882.312    2699.5688   -36581.881    74.839669    253.25766 
   24350    141.87731   -1448.2009    133012.95    -33830.13    2679.5533   -36509.683    75.149828    251.37992 
   24400     141.4308   -1245.0801    132941.89   -33850.116    2671.1204   -36521.236    75.247782     250.5888 
   24450    142.97955   -1212.8315    132988.82   -33884.045    2700.3708   -36584.415    75.544268     253.3329 
   24500    142.81134   -1262.1075       132985   -33924.038    2697.1939   -36621.231    75.383015    253.03486 
   24550    144.88459   -1393.9536    132923.16   -33888.825    2736.3502   -36625.175     75.50888    256.70827 
   24600    140.43509    -1241.738    132897.25   -33953.582     2652.315   -36605.897    75.480941    248.82459 
   24650    140.34859   -1144.2679    132874.69   -33933.134    2650.6814   -36583.815    75.619967    248.67133 
   24700    138.34127   -1181.6202    132917.82   -33949.677    2612.7702   -36562.447    75.678706    245.11473 
   24750    139.65638   -1024.9483    132904.39    -33963.52    2637.6081   -36601.128    75.732941    247.44487 
   24800    140.29471   -1341.4198    132899.42   -33937.794    2649.6638   -36587.458    76.023321    248.57586 
   24850    139.70098   -1108.0448    132913.86    -33970.48    2638.4503    -36608.93    76.126266    247.52388 
   24900    140.76589   -1376.0849    133018.42    -33955.38    2658.5627   -36613.943    76.278798    249.41071 
   24950    140.56055   -1427.7338     132946.5   -33983.191    2654.6846   -36637.875    76.501375    249.04688 
   25000    139.18665   -1442.0261    132854.94   -33983.026    2628.7365   -36611.763    76.594748    246.61259 
   25050    136.09765   -1237.4262    132736.78    -34032.81    2570.3963   -36603.207    76.651069    241.13946 
   25100    138.70291   -1694.3245    132579.04   -34038.395    2619.6003   -36657.996    76.569439    245.75549 
   25150    138.24305   -1363.5169    132461.24   -34030.327    2610.9152   -36641.242    76.441941     244.9407 
   25200    139.99286   -1412.0364     132440.6    -33995.89     2643.963   -36639.853    76.720975    248.04105 
   25250    135.60135   -1477.3067    132378.91   -34016.189    2561.0231   -36577.212    76.863055    240.26012 
   25300    136.82288   -1260.8534    132304.74   -34015.998    2584.0934   -36600.091    76.796608    242.42444 
   25350    137.18587   -1225.5243    132310.13   -34061.699     2590.949   -36652.648     76.94916    243.06759 
   25400    138.11946   -1009.3704    132377.25   -34045.655    2608.5811   -36654.236    77.192981    244.72173 
   25450    139.91554   -1225.9643    132430.18   -33998.816    2642.5026   -36641.319    77.596283    247.90405 
   25500    140.84288   -1339.9455    132413.68   -33980.998    2660.0167   -36641.015    77.735558    249.54711 
   25550    139.43111   -1322.8468    132447.56   -33975.428    2633.3535   -36608.782    78.089457    247.04573 
   25600    141.06554   -1338.6715    132448.06   -33997.027     2664.222   -36661.249    78.364692    249.94163 
   25650     136.2301    -1400.722    132498.67   -34028.117    2572.8978   -36601.015    78.647557    241.37413 
   25700    139.28705   -1082.9594     132516.6   -34002.186    2630.6327   -36632.819    78.621567    246.79048 
   25750    138.72348   -1526.5249    132437.09     -33990.9    2619.9889   -36610.889    78.834976    245.79194 
   25800    139.35741   -1314.9592    132385.29   -33974.794    2631.9614   -36606.756    79.086441    246.91514 
   25850    142.27538   -1155.8384    132342.27   -33919.992    2687.0716   -36607.063    79.277581    252.08524 
   25900    140.60443    -1292.987    132309.82    -33950.38    2655.5133   -36605.893    79.647072    249.12463 
   25950    140.00487   -1138.9126    132404.16     -33979.2    2644.1897   -36623.389    79.864459    248.06232 
   26000    138.63826   -1097.6315    132418.62   -33997.183    2618.3793   -36615.562     80.19553    245.64094 
   26050    140.62723    -1136.137    132494.22   -33984.946     2655.944    -36640.89    80.253847    249.16503 
   26100    139.68536   -1114.0611    132560.52    -33969.73    2638.1553   -36607.886    80.441204    247.49621 
   26150    138.94519   -1470.6024    132598.92   -33985.154    2624.1762    -36609.33    80.554067    246.18477 
   26200    140.14828   -1308.8692    132603.75   -33970.712    2646.8982   -36617.611    80.756916    248.31641 
   26250    144.49791   -1172.7613    132542.55   -33978.715    2729.0472   -36707.762     80.98792    256.02315 
   26300    140.61014   -1479.7524    132618.68   -33971.624    2655.6212   -36627.245    81.131677    249.13475 
   26350    138.40522   -956.70069    132570.65   -34011.442    2613.9781    -36625.42    81.089971    245.22804 
   26400     138.7567    -1164.394    132648.41   -34011.611    2620.6163   -36632.227    81.142396     245.8508 
   26450    138.76755   -1139.3831    132568.53   -34034.168    2620.8211   -36654.989    81.247329    245.87002 
   26500    137.60796   -1241.0837    132686.64   -34015.581    2598.9207   -36614.501    81.421259    243.81544 
   26550    140.67813   -1355.8156    132674.09   -33983.111    2656.9053   -36640.016    81.691178    249.25522 
   26600    140.06487   -1419.7571    132633.41    -33977.86    2645.3228   -36623.183    82.098666    248.16862 
   26650    137.63797   -1260.5828     132591.4   -34014.492    2599.4875   -36613.979    82.484018    243.86863 
   26700    136.58647   -1226.2415    132504.76   -34033.373    2579.6284   -36613.001    82.549944    242.00556 
   26750    138.19123   -1135.3425    132519.75   -34007.031    2609.9365   -36616.968    82.657197    244.84889 
   26800    140.10538   -1122.4092    132563.65   -33994.219     2646.088   -36640.307    82.620764    248.24041 
   26850    138.23031   -1340.5029    132562.83   -33988.399    2610.6747   -36599.073     82.54126    244.91813 
   26900     140.9045   -1352.6443    132521.07   -34005.843    2661.1805   -36667.024    82.590657    249.65629 
   26950    138.63895   -1062.6773    132485.77   -34007.703    2618.3924   -36626.095    82.916504    245.64217 
   27000    142.20836   -1381.1376    132464.22   -33952.051    2685.8057   -36637.856    83.102123    251.96649 
   27050     139.5127   -1250.0648    132429.89   -33921.622    2634.8943   -36556.516    83.150352    247.19028 
   27100    141.69788    -1170.569    132418.09   -33877.373    2676.1646   -36553.537    83.252266    251.06202 
   27150    141.00714   -1353.4734       132451   -33905.498     2663.119   -36568.617    83.282998    249.83815 
   27200    138.97583   -1324.8115    132448.97   -33921.788    2624.7548   -36546.543    83.408754    246.23905 
   27250    141.14848   -1271.7744    132490.24   -33902.651    2665.7884    -36568.44    83.605233    250.08858 
   27300    142.41611   -916.80618    132573.75   -33917.574    2689.7293   -36607.303    83.741355    252.33458 
   27350     140.1559   -1106.7325    132615.57   -33945.994    2647.0422   -36593.036    84.186483    248.32992 
   27400    139.47327   -1123.7165    132472.51    -34006.78    2634.1497    -36640.93    84.313136    247.12043 
   27450    139.37534   -953.71362    132427.59    -34028.59    2632.3001    -36660.89    84.407723    246.94691 
   27500    138.46102   -953.00435     132466.9   -34002.998    2615.0319   -36618.029    84.576757     245.3269 
   27550     137.4259   -1096.3913    132555.19   -33975.481    2595.4822   -36570.963    84.685022    243.49287 
   27600    139.12655   -1193.9874    132709.47   -33960.441    2627.6014   -36588.043    84.602044     246.5061 
   27650    140.53204   -1100.5183    132810.82   -33924.905     2654.146   -36579.051    84.649687    248.99636 
   27700    139.29325   -999.78909     132872.7   -33909.358    2630.7497   -36540.108    84.824443    246.80146 
   27750    136.50164   -818.76584    132908.39    -33952.13    2578.0263   -36530.156    84.969086    241.85526 
   27800    140.93714   -903.80072    133004.52    -33917.19    2661.7969   -36578.987    85.090393    249.71412 
   27850    141.51311   -1162.9148    132909.73   -33932.616     2672.675   -36605.291    85.021857    250.73464 
   27900    139.17051    -909.4271    132977.56   -33917.479    2628.4317   -36545.911    84.960559    246.58399 
   27950    139.82751   -1238.4357    132963.27   -33962.943    2640.8401   -36603.783    85.014618    247.74808 
   28000    140.85693   -1153.1001    132941.55   -33943.625    2660.2821   -36603.907    85.130098    249.57202 
   28050    140.48805   -1057.2125    132916.04    -33968.32    2653.3153   -36621.635    85.664638    248.91843 
   28100    141.65238   -1200.3186    132895.94   -33977.352    2675.3053   -36652.658    85.887017     250.9814 
   28150    139.95863   -1417.0048    132854.56   -33981.844    2643.3164   -36625.161    86.185348    247.98039 
   28200    143.69356   -1539.8099     132724.1   -33944.238    2713.8559   -36658.094     86.15596    254.59799 
   28250    141.84598   -1324.4532    132701.07   -34011.689    2678.9618   -36690.651    86.341726    251.32443 
   28300    139.79786   -1141.1445    132656.48   -33982.579      2640.28   -36622.859    86.583819    247.69554 
   28350    140.71136   -1436.4577    132641.55   -33977.865    2657.5328   -36635.398    86.860482    249.31409 
   28400     139.8315   -973.49523    132623.96    -33990.42    2640.9154   -36631.335    87.105595    247.75514 
   28450    139.15832   -1251.6964    132671.95   -34015.758    2628.2015    -36643.96    86.960942     246.5624 
   28500    138.27582   -1365.1149    132680.49   -34019.886    2611.5341    -36631.42    87.575648    244.99876 
   28550    140.94079   -1395.2269       132628   -33982.964    2661.8659    -36644.83    87.708029     249.7206 
   28600    140.22838    -1116.427     132659.8   -33976.444     2648.411   -36624.855    87.836175    248.45834 
   28650    136.46298   -1266.4775    132655.57    -34057.64    2577.2962   -36634.936    88.024019    241.78676 
   28700    139.91373   -1086.6264    132681.43   -34005.415    2642.4684   -36647.883    88.154354    247.90084 
   28750    141.46081   -1206.3537       132672   -33975.607    2671.6872   -36647.294    87.913526    250.64197 
   28800    141.15448   -1028.9568     132653.4   -33932.844    2665.9018   -36598.746    87.703853    250.09921 
   28850    139.43128   -1310.0405    132659.08   -33978.268    2633.3567   -36611.625    88.006278    247.04603 
   28900    136.68817    -1192.567    132628.44   -34000.304    2581.5491   -36581.853    88.468271    242.18574 
   28950    139.66849   -1128.9351    132597.05   -34025.678    2637.8367   -36663.515    88.564705    247.46631 
   29000    137.68331   -1247.0646    132528.24   -34058.387    2600.3437   -36658.731    88.550662    243.94895 
   29050    139.82164   -1234.2468     132503.1   -34080.654    2640.7292   -36721.384    88.485383    247.73767 
   29100    136.25288   -1330.9901     132453.2   -34053.574    2573.3281   -36626.902    88.775789     241.4145 
   29150    140.08427   -1216.0574    132439.38   -34069.356    2645.6894   -36715.045    89.033605    248.20301 
   29200    140.70085   -1426.2729    132394.83   -34075.136    2657.3343    -36732.47    89.294508    249.29547 
   29250    140.76357   -828.04718    132459.81   -34096.421    2658.5189    -36754.94    89.624346     249.4066 
   29300    137.56076   -1207.2599    132461.18   -34065.159    2598.0293   -36663.189    89.714045    243.73182 
   29350    140.14339   -1003.5905    132411.85   -34027.478    2646.8058   -36674.284    90.083347    248.30775 
   29400     138.8644   -1177.7541    132439.14   -34037.991    2622.6504   -36660.642    89.982594    246.04162 
   29450    138.04048   -1239.3667    132509.75   -34012.699    2607.0894   -36619.788    90.086081    244.58179 
   29500    138.65272   -1269.9094    132534.12   -34035.038    2618.6525    -36653.69    90.344216    245.66657 
   29550    138.93679   -1222.5165    132517.19   -34026.933    2624.0175    -36650.95     90.73339    246.16988 
   29600    137.09445   -1379.8926    132584.02   -34045.659    2589.2223   -36634.881    90.597622     242.9056 
   29650    142.06486   -1150.4406    132558.13   -34040.589    2683.0956   -36723.685    90.581176    251.71224 
   29700    142.48864   -992.92957    132685.61   -34029.839    2691.0992   -36720.938    90.857888    252.46309 
   29750    137.99793   -814.30814    132734.81   -34076.232    2606.2858   -36682.518    90.959765     244.5064 
   29800    139.18024   -1295.4513    132717.56   -34091.087    2628.6154   -36719.703    91.130967    246.60123 
   29850    134.62914   -1221.9922    132608.32   -34056.835    2542.6615   -36599.496    91.339228    238.53754 
   29900    137.33933   -1085.9912    132567.64   -34033.917    2593.8473   -36627.764    91.684679    243.33949 
   29950    138.20008   -1044.5168    132481.44   -34036.122    2610.1038   -36646.226    91.959131    244.86458 
   30000    140.64861   -1296.6218    132540.21   -34031.507    2656.3476   -36687.855    92.306284     249.2029 
   30050    138.73654   -1323.1855    132585.02   -34032.708    2620.2355   -36652.943    92.698955    245.81508 
   30100    136.88101   -1339.5746     132541.5   -34025.408    2585.1912   -36610.599    92.802989    242.52743 
   30150    139.77195   -1098.1437    132530.36   -34025.909    2639.7907     -36665.7    93.081452    247.64963 
   30200    140.76565   -902.17402    132602.87   -33999.694    2658.5581   -36658.252    93.307453    249.41028 
   30250    141.72336   -825.89324     132663.5   -33966.511    2676.6459   -36643.157    93.540357    251.10716 
   30300    139.96688   -1270.1432    132668.97   -33989.838    2643.4723   -36633.311     93.78363    247.99501 
   30350    140.38932   -1374.3039    132627.43    -34013.81    2651.4506   -36665.261    94.179923    248.74349 
   30400    141.27478   -1181.7749    132668.29   -34022.198    2668.1739   -36690.372    94.341028    250.31237 
   30450    140.39877   -1358.9869       132677     -33986.3     2651.629   -36637.929    94.139558    248.76023 
   30500    141.36521   -1019.5451    132792.57   -33991.331    2669.8817   -36661.212    94.313696    250.47259 
   30550    140.59971   -1074.1798    132890.36   -33984.236    2655.4242    -36639.66    94.298354    249.11627 
   30600     141.0773   -968.60075    132825.78   -34011.374    2664.4441   -36675.818     94.38749    249.96246 
   30650    141.86037   -1155.3662    132819.02   -33987.164    2679.2334   -36666.398    94.486909    251.34991 
   30700    139.45797   -1035.9314    132861.26   -34017.632    2633.8607   -36651.493     94.76836    247.09332 
   30750    141.38038   -1419.2452    132872.62   -33979.778    2670.1682   -36649.946    94.703306    250.49946 
   30800    139.72664   -1175.4898    132853.04   -34001.259     2638.935   -36640.194    94.794472    247.56936 
   30850    138.47014   -1074.6118    132844.73   -33999.519    2615.2043   -36614.723    94.869065    245.34308 
   30900    140.13302   -1057.0799    132889.14   -34017.928    2646.6101   -36664.538    95.285542    248.28938 
   30950    141.26472   -1349.6459    132851.41   -34018.258    2667.9838   -36686.241    95.501511    250.29454 
   31000    141.74345   -1201.3512    132823.26   -33964.309    2677.0253   -36641.334    95.919126    251.14276 
   31050    140.36858   -1451.5359    132838.18   -33979.356     2651.059   -36630.415    95.939884    248.70675 
   31100     141.1276   -1473.6366    132773.98   -34006.709     2665.394   -36672.103    96.079904    250.05158 
   31150    139.07188    -1135.766    132758.49   -34032.396    2626.5689   -36658.965    96.344698    246.40924 
   31200    142.76485   -1133.6489     132754.6   -34025.833    2696.3159   -36722.149    96.486519    252.95249 
   31250    139.11574   -1289.0174    132826.98   -34028.761    2627.3972   -36656.158    96.920505    246.48694 
   31300    139.76198   -1074.2942    132723.96    -33994.07    2639.6024   -36633.672    96.916483    247.63196 
   31350    142.02167   -1040.9524     132695.7   -34004.084    2682.2798   -36686.364    96.903118    251.63571 
   31400    141.09242   -1117.5371    132786.16   -34030.144    2664.7297   -36694.873    96.695743    249.98926 
   31450    137.53334   -1314.1858     132788.2   -34021.737    2597.5114   -36619.248    96.895271    243.68324 
   31500    138.58157    -1038.165    132837.83   -34024.971    2617.3086    -36642.28    96.959275    245.54049 
   31550    140.56359   -1002.2656    132855.57   -34073.279     2654.742   -36728.021    97.210176    249.05227 
   31600    141.43983   -1029.3882    132996.23   -34069.212    2671.2911   -36740.503    97.623166    250.60481 
   31650    141.71936   -1319.7887    132970.98   -34027.284    2676.5703   -36703.855    98.002758    251.10007 
   31700    137.57678   -1298.1538    132999.83   -34046.213    2598.3319   -36644.545    98.098135    243.76021 
   31750     139.5715   -1069.2772    132982.02   -34058.379    2636.0049   -36694.384       98.425    247.29446 
   31800    136.02234   -1161.0718    132964.55   -34071.791    2568.9741   -36640.765    98.448971    241.00603 
   31850    141.02335    -1134.813    133041.81   -34058.964    2663.4251   -36722.389    98.782877    249.86687 
   31900    138.85127   -1256.4297    132955.71   -34091.239    2622.4023   -36713.641     99.25808    246.01835 
   31950    138.17572   -1159.7211    132867.76   -34097.061    2609.6437   -36706.705    99.291859    244.82141 
   32000    138.04857   -1250.9807    132808.47    -34089.83    2607.2422   -36697.072    99.394324    244.59612 
   32050    140.62325   -1145.6227    132821.86   -34120.363    2655.8687   -36776.232    99.593871    249.15797 
   32100    138.96358    -1174.012    132843.83   -34074.729    2624.5234   -36699.252    99.837379    246.21734 
   32150    138.12175   -1060.4185    132846.16   -34086.946    2608.6243    -36695.57    99.775811    244.72578 
   32200     136.8878   -1159.9841    132840.32   -34082.554    2585.3195   -36667.873    99.940628    242.53946 
   32250    138.86259   -1398.6151    132824.86   -34102.629    2622.6161   -36725.245    99.823512    246.03841 
   32300    137.24049    -1184.147    132796.26   -34106.888    2591.9805   -36698.868      100.019    243.16436 
   32350    136.06576   -1137.1508    132819.63   -34071.547    2569.7941   -36641.341    100.17474    241.08296 
   32400    139.72448    -1152.418    132835.88   -34040.261    2638.8942   -36679.155    100.38105    247.56552 
   32450    140.69027   -1286.6414    132785.35   -34027.822    2657.1344   -36684.957    100.28543    249.27671 
   32500    140.19987   -1280.3622    132788.95   -33997.014    2647.8725   -36644.887    100.50305    248.40782 
   32550    138.97251   -941.66776    132789.45   -34027.995    2624.6921   -36652.687    100.67116    246.23316 
   32600    140.44862   -1225.1515    132840.58    -34003.18    2652.5706    -36655.75    100.78865    248.84856 
   32650    138.55919   -1261.5127    132853.08   -34047.299     2616.886   -36664.185    101.23943    245.50085 
   32700    139.50113   -1364.4459    132827.74   -34028.103    2634.6759   -36662.779    101.48416    247.16979 
   32750    137.37636   -1118.1756    132889.87   -34067.587    2594.5465   -36662.134    101.48808    243.40509 
   32800    136.01453   -1210.0862     132937.6   -34072.215    2568.8265   -36641.042    101.64258    240.99219 
   32850     138.3977   -1214.8828    133022.85   -34015.296    2613.8361   -36629.132    101.91197    245.21472 
   32900    138.36692   -1276.4365    133014.44   -34039.915    2613.2548    -36653.17    102.06541    245.16019 
   32950    139.42601   -1242.5278    133044.84   -34072.246    2633.2572   -36705.503    102.31421    247.03669 
   33000    139.83701   -1375.1305    132982.47    -34018.88    2641.0195     -36659.9    102.52842    247.76491 
   33050     135.8188   -1042.6527    132966.49   -34049.334    2565.1298   -36614.464     102.7076    240.64538 
   33100    140.02103   -1482.1227    132899.23   -34016.389     2644.495   -36660.884    102.61546    248.09096 
   33150    138.05758   -1384.3638    132876.44   -34040.783    2607.4124   -36648.195    102.70928    244.61209 
   33200    142.53761   -1297.4274     132893.2    -33992.92    2692.0241   -36684.944    102.74969    252.54986 
   33250    139.52092   -1503.1081    132874.67   -34012.196    2635.0497   -36647.245    103.03543    247.20485 
   33300    137.96031   -1261.6807    132828.08   -34001.835    2605.5754    -36607.41    103.22277    244.43975 
   33350    138.02092   -1261.1406    132837.54   -34013.075    2606.7201   -36619.795    103.42927    244.54714 
   33400    136.20415   -1137.5399    132864.94   -34020.788    2572.4078   -36593.196     103.8951    241.32816 
   33450    138.19489   -1276.7437    132831.25   -34031.977    2610.0057   -36641.982    103.98673    244.85538 
   33500    138.74991   -1285.7665    132829.04   -34046.228     2620.488   -36666.716    104.30221    245.83877 
   33550    138.47995   -1072.6841    132798.63   -34014.562    2615.3894   -36629.951    104.69755    245.36044 
   33600    137.35955   -1254.5029    132796.04   -34058.668    2594.2292   -36652.898    104.56268    243.37532 
   33650    136.08196   -1297.0199    132691.62   -34090.664       2570.1   -36660.764    104.58234    241.11166 
   33700    139.07429   -986.16377    132694.46    -33999.35    2626.6144   -36625.965    104.58853     246.4135 
   33750    138.47622   -1387.7748    132736.56   -34004.644    2615.3191   -36619.963    104.54468    245.35385 
   33800     138.1471   -1124.5814    132738.01   -33953.714    2609.1031   -36562.817    104.33168     244.7707 
   33850    138.57586   -1079.2301     132726.4   -33957.573    2617.2008   -36574.774    104.51823    245.53038 
   33900    139.87377   -1351.2728     132703.5   -33978.873    2641.7137   -36620.586    104.58185    247.83003 
   33950    139.83175   -1160.6938    132681.27   -33918.871      2640.92   -36559.791    104.62082    247.75558 
[...]
   92000    142.05503   -1157.0111    132943.27   -34024.127    2682.9099   -36707.037    284.35584    251.69482 
   92050    139.15074   -1146.1216    132908.58   -34020.454    2628.0583   -36648.512    284.51792    246.54896 
   92100    140.31828   -1392.3901    132892.87   -34007.853    2650.1089   -36657.962    284.44321    248.61762 
   92150    140.21996   -1309.5121     132893.8   -34053.761    2648.2521   -36702.013    284.31734    248.44342 
   92200      138.042   -1310.2256    132962.75   -34122.471    2607.1181   -36729.589     284.7189    244.58448 
   92250    138.20847   -1442.9715    132935.26   -34110.165    2610.2621   -36720.427    284.43956    244.87943 
   92300    140.42361   -1099.3587    132904.81   -34115.267    2652.0983   -36767.365    284.89121    248.80426 
   92350    136.15733   -1052.0197     132944.1   -34103.842    2571.5234   -36675.365    284.79361     241.2452 
   92400    138.10872   -969.07664    132995.88   -34056.777    2608.3783   -36665.156    285.08882    244.70271 
   92450    138.86398   -1232.8911    133059.77   -34033.631    2622.6423   -36656.273    285.49575    246.04087 
   92500     139.5699   -1055.9191    133019.94   -34019.834    2635.9748   -36655.809    285.38752    247.29164 
   92550    139.23566    -1383.703    133010.06   -34050.685    2629.6621   -36680.347    285.94419    246.69942 
   92600    141.29781   -1127.3586    133010.94   -34006.586    2668.6088   -36675.194    286.25057    250.35317 
   92650    138.77442   -1502.4627    132899.01   -34009.354    2620.9509   -36630.305    286.46576    245.88219 
   92700    139.36841    -1186.719       132760    -34010.77    2632.1693    -36642.94    286.18657    246.93463 
   92750    139.53357   -1429.3173    132726.67   -34030.974    2635.2886   -36666.262    286.34866    247.22727 
   92800    142.66066    -1052.429    132695.22   -34056.939     2694.348   -36751.287    286.41794    252.76788 
   92850    138.22206    -1139.542    132605.63   -34048.143    2610.5188   -36658.661    286.57558    244.90351 
   92900    137.96715   -1036.2225    132538.26   -34029.277    2605.7045   -36634.981     286.3502    244.45186 
   92950    142.17642   -1200.7418    132544.14   -34045.325    2685.2025   -36730.527    286.56831     251.9099 
   93000    140.54718   -1377.2225    132450.26    -34060.45     2654.432   -36714.882    287.35696    249.02319 
   93050    138.72531    -1193.208    132361.01   -34060.717    2620.0233   -36680.741     287.2561    245.79517 
   93100    139.18085   -1151.5172     132397.5   -34054.405    2628.6269   -36683.032    287.28622    246.60231 
   93150    142.44253   -1119.5897    132266.72   -33985.834    2690.2284   -36676.063    286.94642     252.3814 
   93200     139.0927   -1318.2157    132253.51   -33988.198    2626.9621    -36615.16    287.10602    246.44613 
   93250    138.50788   -1208.4014    132223.21   -34020.736    2615.9169   -36636.653       287.31    245.40993 
   93300    140.95886   -1126.8104    132298.25   -33973.324    2662.2071   -36635.531    287.57483    249.75261 
   93350     141.9252   -1155.9575    132241.88   -33988.949    2680.4579   -36669.407    287.60192    251.46479 
   93400    140.46604   -986.54645    132237.51   -34036.502    2652.8995   -36689.401    287.24315    248.87942 
   93450    138.63054   -1182.5049    132325.14   -34013.567    2618.2336     -36631.8    287.61878    245.62727 
   93500    141.24115   -977.49568    132338.95   -34025.661    2667.5387   -36693.199    287.70162    250.25278 
   93550    140.78048   -887.49902    132434.54   -33992.074    2658.8383   -36650.912    287.72825    249.43656 
   93600    140.45202   -853.88896    132528.56   -33953.535    2652.6347    -36606.17     288.0487    248.85458 
   93650    140.33425   -943.79134    132561.65   -34014.572    2650.4105   -36664.982    288.21264    248.64592 
   93700    138.43235   -940.39698    132652.98   -34067.839    2614.4905   -36682.329    288.17834    245.27611 
   93750     139.5036    -1032.584    132717.18   -33956.406    2634.7226   -36591.129    288.34419    247.17417 
   93800    140.72183   -1122.0274    132779.97   -33956.247    2657.7305   -36613.978    288.71391    249.33264 
   93850    142.32132   -1272.1437    132640.07    -34008.35    2687.9391   -36696.289    288.87044    252.16663 
   93900    143.06302   -921.88196    132582.83   -33989.138    2701.9472   -36691.085    289.11452    253.48079 
   93950    140.29663   -1026.5283    132656.98   -34003.345       2649.7   -36653.045     289.5246    248.57926 
   94000     140.2581   -1406.2358     132663.2   -34010.954    2648.9723   -36659.927    289.47636    248.51099 
   94050    142.95397   -1281.2565     132631.5   -34032.827    2699.8876   -36732.714    289.54349    253.28757 
   94100    137.82535    -1287.502    132692.33   -34063.621    2603.0264   -36666.647    290.22422    244.20062 
   94150    140.74324   -963.16448     132824.1   -34027.915    2658.1349    -36686.05      290.152    249.37057 
   94200    140.38686   -1220.9588    132866.35   -34038.848    2651.4042   -36690.252    290.29654    248.73914 
   94250    136.59387   -1001.0559    132817.59   -34033.012    2579.7682    -36612.78    290.35485    242.01867 
   94300     139.7249   -1128.2903    132865.94   -34009.464    2638.9022   -36648.367    290.57029    247.56627 
   94350    136.87659   -1266.2736    132839.72   -34044.698    2585.1077   -36629.806    290.34017     242.5196 
   94400    137.79769   -1324.7906     132873.9   -34010.524    2602.5041   -36613.028     290.2149    244.15162 
   94450    140.74882   -981.70183    132906.72   -33979.941    2658.2403   -36638.182     290.5936    249.38047 
   94500    140.79533   -1352.1309    132982.28   -33955.068    2659.1187   -36614.187    291.08121    249.46287 
   94550    140.49262   -1318.6464    132995.58   -34009.485    2653.4015   -36662.886     291.1702    248.92652 
   94600    138.43943   -1357.2037    132974.82   -34027.115    2614.6242   -36641.739    291.23368    245.28865 
   94650    139.16026   -1505.8048    132952.64   -34036.959    2628.2381   -36665.197     291.5796    246.56584 
   94700    140.96354   -1245.0587     132877.3    -33973.04    2662.2956   -36635.336    291.79091     249.7609 
   94750      141.147   -1161.3561    132987.58   -33980.298    2665.7605   -36646.059    292.11533    250.08597 
   94800    142.32871   -1184.5317    133039.26    -33939.18    2688.0787   -36627.259    292.38414    252.17973 
   94850    142.67699   -1250.9264    132973.04   -33986.468    2694.6565   -36681.125     292.6376    252.79682 
   94900    142.25788   -1177.8411    132991.19   -33958.867    2686.7411   -36645.608    292.55941    252.05424 
   94950    142.99534   -1319.3708    132981.45   -33966.901     2700.669    -36667.57    292.44313    253.36088 
   95000    142.20241   -1009.1782    132975.68   -33938.975    2685.6933   -36624.668    292.57503    251.95594 
   95050    138.94627   -1280.6954    133028.45   -34039.722    2624.1966   -36663.918    292.79608    246.18669 
   95100    141.68579   -1106.8317    133085.83   -34009.644    2675.9363   -36685.581    293.25172     251.0406 
   95150    139.90246   -1177.5382    133100.76   -34014.642    2642.2555   -36656.897    293.58449    247.88086 
   95200    143.38805    -1332.586    133067.78   -34029.672    2708.0859   -36737.758    293.77904    254.05668 
   95250    138.04006   -1176.9224    133094.63   -34032.408    2607.0815    -36639.49    294.09178    244.58104 
   95300    138.91219   -1217.0654    133068.29   -34046.417    2623.5529    -36669.97    294.00671    246.12629 
   95350    137.98961   -1181.5489    133060.36   -34034.948    2606.1286   -36641.076    293.79712    244.49165 
   95400    142.39162   -1199.8439    133008.57   -33988.133    2689.2669     -36677.4    293.85283     252.2912 
   95450    138.01087   -1384.9755    133026.81   -34001.735    2606.5302   -36608.265    294.17669    244.52932 
   95500    139.91204   -1399.8967    132978.12   -33958.919    2642.4365   -36601.355    294.23484    247.89784 
   95550    142.20543   -1411.6813    132979.28   -33924.636    2685.7504   -36610.386    294.22378     251.9613 
   95600    141.56428   -1246.7428    132999.85   -33930.893    2673.6414   -36604.534    294.11322     250.8253 
   95650    139.60156   -1393.3417    132940.42   -33975.431    2636.5726   -36612.004    294.15666    247.34772 
   95700    139.89512   -1222.4893    132876.63   -33987.307    2642.1169   -36629.424    293.94958    247.86786 
   95750     139.8067   -1199.4036    132885.55   -34007.829     2640.447   -36648.276    293.92186     247.7112 
   95800    140.54045   -1037.1011    132794.69   -34022.275    2654.3049    -36676.58    294.21711    249.01127 
   95850     139.0752   -1537.5006    132729.69   -34054.161    2626.6316   -36680.792     294.3814    246.41512 
   95900    137.70039   -1484.6981    132543.77   -34034.776    2600.6664   -36635.443    293.88907    243.97922 
   95950    139.57713   -1550.3563    132483.62   -34050.818    2636.1113    -36686.93    293.90946    247.30445 
   96000    139.59165   -1480.1727    132393.18   -34004.969    2636.3855   -36641.354     294.3971    247.33017 
   96050    140.32764   -1394.2868    132320.42   -34002.711    2650.2857   -36652.997    294.51584    248.63421 
   96100     141.9664   -1044.7746    132295.08   -34023.312    2681.2361   -36704.548    294.29072    251.53779 
   96150    140.44135   -1449.3985    132248.36   -34020.949    2652.4333   -36673.383    294.46834    248.83569 
   96200    141.20422   -1025.5966    132269.51   -33971.063    2666.8412   -36637.904     294.7338    250.18735 
   96250    140.88232   -1296.0653    132207.28   -33980.803    2660.7616   -36641.564    294.45149    249.61699 
   96300     140.3846   -812.30061    132284.52    -33979.57    2651.3615   -36630.931    294.99541    248.73514 
   96350    140.55792   -1147.1648    132380.75   -33932.385    2654.6349    -36587.02    295.27901    249.04222 
   96400    140.24894   -1222.7473    132389.62   -33933.943    2648.7993   -36582.742    295.56016    248.49477 
   96450      139.032   -1114.0179    132469.46   -33983.177    2625.8157   -36608.992    295.79075    246.33858 
   96500    137.75725    -1029.423    132414.52   -33973.295    2601.7403   -36575.035    296.06708    244.07997 
   96550    139.13954    -1233.561     132428.3   -33980.836    2627.8467   -36608.683    295.50097    246.52912 
   96600    138.69327   -1495.0444    132440.26   -34013.347    2619.4184   -36632.766    295.81935    245.73842 
   96650    140.57702   -1296.5486     132413.2   -34015.204    2654.9956     -36670.2     295.9388    249.07607 
   96700    141.99524   -1127.7069    132489.05   -33954.644    2681.7807   -36636.425    295.60202    251.58888 
   96750    142.40128   -1152.7591    132509.32   -33975.805    2689.4494   -36665.255     295.7333    252.30831 
   96800    139.92189   -1120.5024    132535.38   -33976.839    2642.6226   -36619.461    296.20959     247.9153 
   96850    140.68075   -1323.2017    132463.08   -33978.283    2656.9546   -36635.237    296.84363    249.25985 
   96900    139.55178   -1274.1265    132487.58     -33965.8    2635.6325   -36601.433    296.57208    247.25953 
   96950    138.72777   -1217.7769    132409.75   -33982.254    2620.0699   -36602.324    296.24149    245.79954 
   97000    138.65469   -1355.6958     132435.6     -33964.9    2618.6896   -36583.589    296.33882    245.67005 
   97050    139.79657   -993.14214     132471.9   -33988.107    2640.2557   -36628.362     296.5692    247.69325 
   97100    143.08898   -1196.2649     132532.5   -33937.761    2702.4375   -36640.198    296.90736    253.52679 
   97150    142.89909   -1118.8685    132540.07   -33961.245    2698.8512   -36660.096    297.01178    253.19034 
   97200    138.45208   -1213.0616    132585.44   -34019.389     2614.863   -36634.252    297.34608    245.31106 
   97250    142.52665   -1222.6846    132584.36   -33982.177    2691.8171   -36673.994    297.61503    252.53044 
   97300    139.95834   -936.72303    132674.91   -33920.081    2643.3108   -36563.392    298.28048    247.97987 
   97350    138.90207   -1278.7482    132819.34   -33888.009    2623.3617   -36511.371    299.00926    246.10836 
   97400    139.11454   -1298.8801    132789.63   -33945.691    2627.3745   -36573.065    299.33222    246.48481 
   97450    138.57206    -1285.499    132858.32   -33927.022    2617.1291   -36544.151    299.48765    245.52365 
   97500    142.57897   -1160.7614    132910.18    -33901.01    2692.8053   -36593.815    299.49859    252.62315 
   97550    140.96852   -1278.5128    133026.25   -33844.117    2662.3896   -36506.506    299.55021    249.76973 
   97600    143.98171    -1341.058    132994.15   -33843.062    2719.2981    -36562.36    299.75698    255.10854 
   97650    140.49699   -1331.6029    132983.88   -33861.686    2653.4841    -36515.17     299.7275    248.93426 
   97700    140.92529   -1473.4761    132933.78   -33900.705    2661.5731   -36562.278    299.58876    249.69312 
   97750    137.58869   -1528.9967    132863.83   -33944.173    2598.5568    -36542.73    300.03203    243.78131 
   97800    139.83626   -1597.9073    132787.43   -33975.723    2641.0052   -36616.729    299.95172    247.76357 
   97850    137.23775   -1067.3576    132731.44   -33997.671    2591.9287   -36589.599    299.76875     243.1595 
   97900      138.741   -1065.6613    132781.35   -33982.086    2620.3198   -36602.406    299.74087    245.82298 
   97950    140.33091   -1145.3822    132819.58   -34041.819    2650.3475   -36692.166    299.88716    248.64001 
   98000    138.03473   -1066.4385    132872.99   -34024.124    2606.9809   -36631.105    299.87003     244.5716 
   98050    139.51662   -1257.1731    132978.21   -33999.648    2634.9684   -36634.616    300.35687    247.19723 
   98100     139.8129   -985.89111    133019.59   -33980.758    2640.5642   -36621.322    300.31898    247.72219 
   98150    141.16183   -1112.9617    133043.11   -33983.636    2666.0405   -36649.676    300.50202    250.11223 
   98200     141.3174   -1229.7298    133088.77   -34020.609    2668.9787   -36689.587    301.09186    250.38788 
   98250    138.40652   -1444.1695    132939.94    -34026.97    2614.0026   -36640.973    301.01184    245.23034 
   98300    140.58552   -1205.3433    132865.07   -34027.043    2655.1561   -36682.199    301.68092    249.09112 
   98350    139.03629   -1301.8757    132727.39   -34063.483    2625.8967    -36689.38    301.83649    246.34618 
   98400    136.88935   -1064.3242    132699.64   -34123.318    2585.3488   -36708.667    302.07886    242.54221 
   98450    141.03116   -976.33436    132790.82   -34049.779    2663.5727   -36713.352    302.13598    249.88072 
   98500    142.24445   -1339.8039    132834.21   -33981.601    2686.4873   -36668.088    302.03719    252.03043 
   98550     141.8937   -1351.2638    132861.57   -33943.129    2679.8629   -36622.992    302.31591    251.40897 
   98600    144.74808   -1089.0053    132889.69   -33928.788     2733.772    -36662.56    302.22243     256.4664 
   98650    141.39243   -1257.8889     132973.3     -33943.5    2670.3957   -36613.896     302.3642    250.52081 
   98700    143.55123   -1234.8758    132984.25   -33919.225    2711.1677   -36630.393    302.41161     254.3458 
   98750    143.56846   -1353.6767    133075.14   -33882.587    2711.4932    -36594.08    302.58262    254.37633 
   98800     142.6832   -1544.8813    133066.23   -33914.862    2694.7738   -36609.636    303.06229    252.80782 
   98850     141.2772   -1175.8624    133091.26   -33897.008    2668.2194   -36565.227    303.19038    250.31664 
   98900     144.6607   -1083.3119    133160.41   -33873.256    2732.1217   -36605.378     303.4505    256.31158 
   98950    140.09961   -1109.9249    133106.46   -33959.275    2645.9791   -36605.254    303.97154    248.23019 
   99000    140.26065   -1233.3164    133123.08   -34020.709    2649.0205    -36669.73    304.04942    248.51552 
   99050    138.15407   -1496.4037    133153.62    -34055.16    2609.2348   -36664.394     303.6809    244.78306 
   99100    140.64947   -1478.7681    133131.83   -34038.436    2656.3639     -36694.8    303.42545    249.20443 
   99150     139.7172   -1521.9951    133072.17   -34088.038    2638.7566   -36726.795    303.84988    247.55262 
   99200    138.47337    -974.8741     133093.4   -34054.636    2615.2651   -36669.902    303.91775    245.34878 
   99250    139.92652   -1402.2914    133193.36   -34026.901      2642.71   -36669.611    304.41189     247.9235 
   99300    135.75072   -1324.8009    133167.01    -34097.56     2563.844   -36661.404    304.63289    240.52476 
   99350    137.82131   -1276.7164    133122.07   -34101.995    2602.9502   -36704.945    304.66711    244.19347 
   99400    139.44871   -994.70163    133238.54   -34107.146    2633.6858   -36740.831    304.75535    247.07691 
   99450    140.46262   -1372.4633    133279.85   -34093.846     2652.835   -36746.681    305.06006    248.87337 
   99500    137.73124   -1344.5544     133232.1   -34086.049    2601.2491   -36687.298    304.65924    244.03388 
   99550    137.75687   -1298.9849    133192.23    -34044.52     2601.733   -36646.253    304.51719    244.07928 
   99600    140.80277   -1178.5869     133186.9   -34043.299    2659.2593   -36702.558    304.75249    249.47606 
   99650    138.79324   -1386.5268    133153.07   -34079.354    2621.3063    -36700.66    304.97598    245.91553 
   99700    141.05115   -1269.0952    133063.71   -34091.366    2663.9502   -36755.316    305.06695    249.91613 
   99750    140.56316   -1108.7364    133118.96   -34064.099    2654.7339   -36718.833    305.45438    249.05151 
   99800    141.40337    -1223.862    133167.45   -34034.031    2670.6023   -36704.633    305.71668     250.5402 
   99850    141.51775   -1258.2762    133133.67   -33971.874    2672.7626   -36644.636    305.82337    250.74286 
   99900     138.9467   -1407.4259    133152.93   -34026.972    2624.2046   -36651.176    305.65605    246.18743 
   99950    140.60423   -1169.2485    133121.45   -34008.251    2655.5095    -36663.76    305.75268    249.12428 
  100000    139.60125   -1460.5503    133116.89   -34007.849    2636.5668   -36644.415    306.06565    247.34718 
Loop time of 49.1561 on 128 procs for 100000 steps with 6337 atoms

Performance: 878.833 ns/day, 0.027 hours/ns, 2034.336 timesteps/s
96.5% CPU use with 128 MPI tasks x no OpenMP threads

MPI task timing breakdown:
Section |  min time  |  avg time  |  max time  |%varavg| %total
---------------------------------------------------------------
Pair    | 4.9292     | 12.203     | 33.195     | 302.5 | 24.82
Neigh   | 0.4302     | 0.94462    | 2.9215     |  83.1 |  1.92
Comm    | 5.3581     | 14.506     | 37.232     | 299.5 | 29.51
Output  | 0.16309    | 0.16595    | 0.17589    |   0.4 |  0.34
Modify  | 3.6798     | 20.589     | 36.287     | 332.5 | 41.89
Other   |            | 0.7471     |            |       |  1.52

Nlocal:    49.5078 ave 138 max 27 min
Histogram: 95 1 0 8 8 0 0 0 4 12
Nghost:    561.258 ave 959 max 370 min
Histogram: 64 0 1 31 0 0 0 0 16 16
Neighs:    0 ave 0 max 0 min
Histogram: 128 0 0 0 0 0 0 0 0 0
FullNghs:  3976.48 ave 17120 max 1041 min
Histogram: 96 0 0 3 13 0 0 0 3 13

Total # of neighbors = 508990
Ave neighs/atom = 80.3203
Neighbor list builds = 6114
Dangerous builds = 0

write_data		${DIR}/data.eq-${NAME}-${TEMP}
write_data		run_16/data.eq-${NAME}-${TEMP}
write_data		run_16/data.eq-het_freeze_16-${TEMP}
write_data		run_16/data.eq-het_freeze_16-248
undump          1

reset_timestep  0

unfix           2
unfix           3
unfix           4


################################################
#######         Run Simulation         #########
################################################

log				${DIR}/log.run_${NAME}
log				run_16/log.run_${NAME}
log				run_16/log.run_het_freeze_16
