LAMMPS data file via write_data, version 16 Mar 2018, timestep = 100000

6337 atoms
2 atom types

0.0000000000000000e+00 4.9219999999999999e+01 xlo xhi
0.0000000000000000e+00 4.9019635930410494e+01 ylo yhi
2.4469079835472876e+00 5.7615092016449950e+01 zlo zhi

Masses

1 18.015
2 12.01

Atoms # atomic

1922 1 4.2387947834722413e+00 2.1373603868156414e+00 3.3487010435459994e+00 1 1 0
3116 1 2.5196604828444062e+00 1.9333545460624510e-01 2.6229739668876944e+00 0 2 0
6077 1 5.1324741551454487e+00 1.6177593057042419e+00 6.2343337119153617e+00 1 0 1
4894 1 8.6282550487704821e+00 2.0319755198368901e+00 3.4266819113535307e+00 1 1 1
180 1 9.3435620079470887e+00 9.3105851252322991e-01 5.9403007117980007e+00 0 1 0
5226 1 2.2927738245304394e+00 5.2486428142827890e+00 5.7036412846976514e+00 1 1 0
3295 1 2.3768282835937522e+00 4.1460061607190344e+00 3.2865414743744550e+00 0 0 0
3634 1 3.9921345923696534e+00 7.5834027672922426e+00 4.6308748484604392e+00 1 0 1
3465 1 4.6589060055480100e+00 4.3543400255486020e+00 6.9032713025352299e+00 0 0 0
47 1 1.8773584034038079e-01 7.0576907776103592e+00 6.8999655093105821e+00 0 0 0
1361 1 8.2705496583607356e+00 4.7351857499135379e+00 3.8682960805090030e+00 1 0 0
3017 1 6.1788578172710311e+00 6.5745249887211692e+00 2.6744104630250245e+00 1 0 0
1363 1 7.4640963454977127e+00 5.2909301292848800e+00 6.5324004004290321e+00 0 0 1
113 1 6.9818745863664171e+00 8.0143654847925916e+00 5.2299059200325262e+00 0 0 1
2013 1 9.6762959101886103e+00 8.0208615793282920e+00 5.7649340510550617e+00 1 1 0
343 1 9.9686391401251306e-01 1.2101059792747618e+01 4.0813586700037350e+00 0 1 0
1324 1 3.2766559081284039e+00 1.0484402018814048e+01 5.5170783340302512e+00 0 -1 1
3059 1 4.5746177736935447e+00 1.1811317639205386e+01 3.0966692442234907e+00 1 0 1
4552 1 6.9946530435619909e+00 1.0703221018439464e+01 4.2827100728000742e+00 1 1 1
1583 1 4.4956503231370020e+00 1.2523927768879071e+01 7.0034894326345212e+00 0 1 1
6151 1 2.3818731985051871e+00 1.4089450525216364e+01 6.2060125326071143e+00 1 1 1
1762 1 3.7188401116262888e+00 1.5817763569845846e+01 4.4631483051807201e+00 0 0 0
5237 1 6.8330075340533947e+00 1.4167826329821457e+01 5.9866810272864672e+00 1 0 0
1461 1 8.5784272941378710e+00 1.2827551420756606e+01 4.0028564075841109e+00 0 0 1
143 1 5.2158945443906557e+00 1.4528006176770679e+01 2.5148781666044906e+00 0 0 0
5194 1 8.2230587236055241e-01 5.4659215884380385e-01 7.1681097483318759e+00 1 1 0
5081 1 1.1467394287505865e+00 1.2125750530375670e+00 9.9592496862024529e+00 -1 0 0
1736 1 5.9325168394598427e-01 3.6113592959201206e+00 7.2739175266874376e+00 1 1 0
361 1 1.3373802064934786e+00 3.9607437286645042e+00 9.8511120029026529e+00 0 0 0
6259 1 7.5255633099748538e+00 8.4228737231328477e-01 7.6897733504140415e+00 1 1 1
1429 1 7.7442284332773257e+00 2.5720224335711022e+00 1.0023226820815410e+01 0 0 0
4495 1 6.5939276393921800e+00 9.1637934160857526e-02 1.0740724726360467e+01 0 1 0
4937 1 3.5419553452619268e+00 7.4732037716020310e+00 1.0175686232626411e+01 0 1 0
5978 1 3.7941317895794131e+00 4.9429170534465792e+00 9.4943288255228779e+00 1 0 1
1569 1 9.7096708147083000e+00 6.5963081193918098e+00 1.0328560138684264e+01 0 0 1
3315 1 9.1491852419175164e+00 4.3639262168282791e+00 8.6220581304478578e+00 0 0 0
2168 1 5.7887480804908464e-02 1.1651366503403906e+01 7.3795068926475862e+00 0 1 1
3512 1 2.6752399678126224e+00 8.4799833206770181e+00 7.6765993195507543e+00 1 0 0
446 1 4.2431591878607557e+00 1.1648360780115290e+01 9.4983518667158364e+00 0 0 0
5143 1 1.6224351196799394e+00 1.0722479880571571e+01 9.4739276676461621e+00 1 0 0
4830 1 6.8825743109574171e+00 1.0562215572047281e+01 7.0604161572228143e+00 0 1 0
3382 1 9.7501906940421978e+00 1.0586534831465363e+01 1.0017654980753019e+01 1 0 1
2121 1 5.4807971948154126e+00 9.2480583214583945e+00 9.3155085003068798e+00 0 0 0
5266 1 8.9330136135226628e+00 1.2203638099508728e+01 7.9589916915880714e+00 1 0 1
45 1 7.1060281493463320e+00 9.8025380364727539e+00 1.1318162102455995e+01 0 0 1
413 1 4.9158977255266540e+00 1.3378250019587572e+01 1.1357598640412723e+01 1 0 0
6081 1 2.0491144329353230e+00 1.5153685225227736e+01 9.2097706864738385e+00 0 1 1
1494 1 5.3424217554979609e+00 1.5033328938554902e+01 9.2762171946306360e+00 0 0 1
3263 1 7.8845655890152120e+00 1.4665225155894245e+01 8.7267561025064140e+00 0 0 0
5122 1 4.3836612627118638e+00 1.1012446270578080e+00 1.2713433926050325e+01 1 1 0
4437 1 4.5105635976597718e+00 2.4219579585674222e+00 1.5282700238734398e+01 1 1 1
6003 1 1.5579598767652214e-01 6.3644419850141271e-02 1.3621914456674372e+01 0 0 1
3545 1 1.7580424312290062e+00 2.4007122480375918e+00 1.6165913248563786e+01 0 1 0
408 1 1.5265885842032056e+00 2.0851469049523028e+00 1.2743843863018920e+01 0 0 0
137 1 5.4076499355847814e+00 3.6697548634587105e+00 1.1681234372868929e+01 1 0 0
5177 1 3.7699545528877314e+00 5.8223499518279844e+00 1.3463334208959905e+01 0 1 0
5138 1 1.2029005939588375e+00 7.3786109995887870e+00 1.1880573102916010e+01 0 1 0
319 1 1.7115907309617187e+00 5.1347410799534137e+00 1.5438276019787208e+01 0 0 0
3141 1 5.1775980292360968e-01 4.8434612043481309e+00 1.2726376581148845e+01 0 0 0
2104 1 7.9069119778051533e+00 4.9614695190833364e+00 1.2828731945344419e+01 -1 1 0
6332 1 8.5051736401422637e+00 7.7514573444585375e+00 1.2799969636861867e+01 1 0 1
6224 1 7.3371928363071381e+00 6.3872545089537853e+00 1.5392458934060530e+01 1 -1 1
267 1 1.6972615969772524e+00 9.6338209532806989e+00 1.3504233781822583e+01 -1 -1 0
415 1 4.4815977554632447e+00 8.6389071295507538e+00 1.2783795209043141e+01 0 0 0
5035 1 2.8390370043009376e+00 9.1092248910929197e+00 1.5997493563700756e+01 -1 0 0
5000 1 5.9504971419037589e-01 1.1630877908063827e+01 1.1994677401944594e+01 1 -1 0
1604 1 5.3120121024665492e+00 9.5358875551817839e+00 1.5205783498107980e+01 1 0 0
4993 1 6.7893732139556926e+00 1.2211845356424970e+01 1.2827365337496911e+01 1 -1 0
4434 1 5.3381189637437974e+00 1.2239298927583302e+01 1.5291412025673136e+01 0 1 1
4790 1 1.7376204391523880e+00 1.4206321968613068e+01 1.1930259787682887e+01 1 0 0
1 1 2.0613355173762113e+00 1.2758336817281052e+01 1.6203632995375308e+01 0 1 0
4562 1 3.3554859230514436e+00 1.4387446888833461e+01 1.4261145623286186e+01 1 0 1
6177 1 9.2231116975930441e+00 1.3706630448204571e+01 1.3525097422847272e+01 1 0 1
300 1 8.9791483880726393e+00 1.3535875938688312e+01 1.6093390162900821e+01 0 -1 0
4792 1 3.3525467572238972e+00 1.2341456307632261e+00 1.8862716136456367e+01 0 -1 1
3504 1 3.5063620636531625e+00 3.4343372434927892e+00 2.0788457573025365e+01 0 1 0
3120 1 5.3359463300576628e+00 2.7093316884439583e-01 1.7106919918779120e+01 0 1 0
3523 1 8.0226644492593291e+00 8.7033903727389428e-01 1.6931998242872830e+01 -1 1 0
5068 1 8.2142758789362542e+00 3.0548339194892646e+00 1.8575906878950413e+01 0 0 0
4853 1 7.1691591792864102e+00 5.1492427566629295e-01 2.0444512593294558e+01 0 0 1
3092 1 3.2561720125837099e+00 6.4504642949330773e+00 1.7140868044112572e+01 0 1 1
5234 1 2.2101296888487054e+00 5.6043294452026178e+00 1.9373113697815093e+01 1 0 0
1770 1 4.9041011529316796e+00 6.7888849475624573e+00 2.0833966445497033e+01 0 1 0
275 1 9.4705345243632877e+00 4.7604294117942008e+00 1.6732244705981131e+01 0 0 0
3376 1 5.7799169221706190e+00 4.2454554826427930e+00 1.9026796210370250e+01 -1 0 0
1874 1 5.2804735824163718e+00 4.9375793175689831e+00 1.6420639442666157e+01 0 0 0
3308 1 7.6968916477975329e+00 6.5398255973100872e+00 1.9145901334324964e+01 -1 0 0
2008 1 1.3358055217720808e+00 1.0449421108187151e+01 2.0211635786944601e+01 1 0 0
3453 1 4.4153644883962985e-02 8.9542449168903406e+00 1.8209842434958777e+01 1 0 0
1248 1 3.4257530288960005e+00 1.1286150505955073e+01 1.8569815193738631e+01 1 0 1
3627 1 7.0932964106295708e+00 8.8129106392538894e+00 1.7346972463484683e+01 0 0 1
4675 1 5.5184852331981142e+00 9.3960413575616091e+00 1.9870975460270913e+01 0 1 1
3072 1 9.1688891990826544e+00 1.0520609221606087e+01 1.7048441437719795e+01 1 0 1
5064 1 2.7513453301004487e-01 1.5153902702161602e+01 1.9991350926750734e+01 0 0 0
1585 1 4.7517507822069422e+00 1.3322435152500002e+01 1.9535759062746472e+01 0 -1 0
5112 1 1.2508998032036518e+00 1.5223389452510983e+01 1.7436355637023226e+01 1 0 1
6225 1 6.5421927523594130e+00 1.3627977777858282e+01 1.7584778484448663e+01 1 0 1
3430 1 8.4394433948569745e+00 1.2403717945634302e+01 1.9483816329432347e+01 0 0 0
5233 1 3.9742073722811866e+00 3.9391627618461467e+00 2.3647333379942172e+01 1 1 1
460 1 4.7942713070275547e+00 1.1589841104580287e+00 2.4104871012663878e+01 0 2 1
5063 1 7.9225926993530926e-01 1.5193227235580140e-01 2.1558105191813180e+01 1 0 0
224 1 7.5393912362156634e-01 2.9446040406506775e+00 2.1678658716420188e+01 0 1 0
372 1 1.4433953312820011e-01 3.6999606482474690e-02 2.4245020749094440e+01 1 2 1
4834 1 9.3833022171087919e+00 1.7869803279544136e+00 2.3861900486241851e+01 1 0 0
4841 1 7.1427698457698892e+00 2.4608369207967062e-01 2.3148949725504821e+01 1 0 0
3464 1 1.3904196380222376e+00 5.1628155535217291e+00 2.4217419994920185e+01 0 1 1
1897 1 2.2389859852638327e+00 7.9006193422989961e+00 2.3773286745637975e+01 0 -1 0
1986 1 1.5994228673477362e+00 7.8379922049145963e+00 2.1257040896646949e+01 1 1 0
4964 1 5.7126263167243403e+00 5.5613505226574595e+00 2.4701708388990649e+01 1 0 0
30 1 8.4903591950211439e+00 4.4930842301705693e+00 2.4084060501855678e+01 0 0 0
1893 1 4.9618164463374388e+00 7.8493998508429268e+00 2.3298703657487295e+01 1 -1 0
1920 1 5.2476040361997012e-01 1.0009876785159625e+01 2.4517077430214140e+01 1 1 0
502 1 8.8864293387636906e+00 9.2893408304330514e+00 2.3641899685857616e+01 0 1 1
2837 1 6.5667211852915246e+00 1.1762689521766125e+01 2.1106732453257187e+01 0 0 1
1968 1 6.5848889981695873e+00 9.8027326264414540e+00 2.4429458217217185e+01 0 1 0
424 1 9.5451589175866260e+00 9.7462388778583335e+00 2.0997732859809954e+01 0 0 0
1554 1 4.3423303336738952e+00 1.4241283117118321e+01 2.4264716286237938e+01 0 0 0
5006 1 1.2683847427061925e+00 1.4951158113345482e+01 2.4153090233481116e+01 0 1 0
4601 1 2.8406380251896164e+00 1.4353708966905192e+01 2.1381950517188866e+01 0 0 1
1433 1 6.1437940778730713e+00 1.2408927669597920e+01 2.3745872777323644e+01 1 0 1
1991 1 8.3166092993449308e+00 1.4074811931778484e+01 2.3943761993047165e+01 1 1 1
554 2 0.0000000000000000e+00 2.8417180249513345e+00 2.6854034686805083e+01 0 0 0
556 2 0.0000000000000000e+00 0.0000000000000000e+00 2.6854034686805083e+01 0 0 0
558 2 1.2305000000000001e+00 7.1042950623783474e-01 2.6854034686805083e+01 0 0 0
565 2 1.2305000000000001e+00 2.1312885187134998e+00 2.6854034686805083e+01 0 0 0
567 2 2.4610000000000003e+00 2.8417180249513345e+00 2.6854034686805083e+01 0 0 0
569 2 2.4610000000000003e+00 0.0000000000000000e+00 2.6854034686805083e+01 0 0 0
571 2 3.6915000000000004e+00 7.1042950623783474e-01 2.6854034686805083e+01 0 0 0
586 2 3.6914999999999996e+00 2.1312885187134998e+00 2.6854034686805083e+01 0 0 0
588 2 4.9220000000000006e+00 2.8417180249513332e+00 2.6854034686805083e+01 0 0 0
590 2 4.9220000000000006e+00 0.0000000000000000e+00 2.6854034686805083e+01 0 0 0
592 2 6.1524999999999999e+00 7.1042950623783407e-01 2.6854034686805083e+01 0 0 0
615 2 6.1524999999999999e+00 2.1312885187134989e+00 2.6854034686805083e+01 0 0 0
617 2 7.3829999999999991e+00 2.8417180249513345e+00 2.6854034686805083e+01 0 0 0
619 2 7.3829999999999991e+00 0.0000000000000000e+00 2.6854034686805083e+01 0 0 0
621 2 8.6134999999999984e+00 7.1042950623783407e-01 2.6854034686805083e+01 0 0 0
652 2 8.6134999999999984e+00 2.1312885187135002e+00 2.6854034686805083e+01 0 0 0
561 2 0.0000000000000000e+00 4.2625770374269996e+00 2.6854034686805083e+01 0 0 0
563 2 1.2305000000000001e+00 4.9730065436648339e+00 2.6854034686805083e+01 0 0 0
578 2 1.2305000000000001e+00 6.3938655561404980e+00 2.6854034686805083e+01 0 0 0
582 2 2.4610000000000003e+00 4.2625770374269996e+00 2.6854034686805083e+01 0 0 0
584 2 3.6914999999999996e+00 4.9730065436648339e+00 2.6854034686805083e+01 0 0 0
607 2 3.6914999999999996e+00 6.3938655561404980e+00 2.6854034686805083e+01 0 0 0
559 2 0.0000000000000000e+00 7.1042950623783341e+00 2.6854034686805083e+01 0 0 0
580 2 2.4610000000000003e+00 7.1042950623783341e+00 2.6854034686805083e+01 0 0 0
611 2 4.9220000000000006e+00 4.2625770374269978e+00 2.6854034686805083e+01 0 0 0
613 2 6.1524999999999999e+00 4.9730065436648339e+00 2.6854034686805083e+01 0 0 0
644 2 6.1524999999999999e+00 6.3938655561404980e+00 2.6854034686805083e+01 0 0 0
648 2 7.3829999999999991e+00 4.2625770374269996e+00 2.6854034686805083e+01 0 0 0
650 2 8.6135000000000002e+00 4.9730065436648339e+00 2.6854034686805083e+01 0 0 0
689 2 8.6135000000000002e+00 6.3938655561404980e+00 2.6854034686805083e+01 0 0 0
609 2 4.9220000000000006e+00 7.1042950623783341e+00 2.6854034686805083e+01 0 0 0
646 2 7.3830000000000009e+00 7.1042950623783341e+00 2.6854034686805083e+01 0 0 0
574 2 0.0000000000000000e+00 8.5251540748539991e+00 2.6854034686805083e+01 0 0 0
576 2 1.2305000000000001e+00 9.2355835810918343e+00 2.6854034686805083e+01 0 0 0
603 2 2.4610000000000003e+00 8.5251540748539991e+00 2.6854034686805083e+01 0 0 0
605 2 3.6915000000000004e+00 9.2355835810918343e+00 2.6854034686805083e+01 0 0 0
572 2 0.0000000000000000e+00 1.1366872099805333e+01 2.6854034686805083e+01 0 0 0
599 2 1.2305000000000001e+00 1.0656442593567498e+01 2.6854034686805083e+01 0 0 0
601 2 2.4610000000000003e+00 1.1366872099805333e+01 2.6854034686805083e+01 0 0 0
636 2 3.6914999999999996e+00 1.0656442593567499e+01 2.6854034686805083e+01 0 0 0
640 2 4.9220000000000006e+00 8.5251540748539991e+00 2.6854034686805083e+01 0 0 0
642 2 6.1524999999999999e+00 9.2355835810918343e+00 2.6854034686805083e+01 0 0 0
685 2 7.3830000000000009e+00 8.5251540748539991e+00 2.6854034686805083e+01 0 0 0
687 2 8.6134999999999984e+00 9.2355835810918343e+00 2.6854034686805083e+01 0 0 0
638 2 4.9220000000000006e+00 1.1366872099805333e+01 2.6854034686805083e+01 0 0 0
681 2 6.1524999999999999e+00 1.0656442593567499e+01 2.6854034686805083e+01 0 0 0
683 2 7.3829999999999991e+00 1.1366872099805333e+01 2.6854034686805083e+01 0 0 0
728 2 8.6134999999999984e+00 1.0656442593567498e+01 2.6854034686805083e+01 0 0 0
593 2 0.0000000000000000e+00 1.5629449137232333e+01 2.6854034686805083e+01 0 0 0
628 2 1.2305000000000001e+00 1.4919019630994494e+01 2.6854034686805083e+01 0 0 0
634 2 3.6915000000000004e+00 1.3498160618518829e+01 2.6854034686805083e+01 0 0 0
673 2 3.6915000000000004e+00 1.4919019630994494e+01 2.6854034686805083e+01 0 0 0
630 2 2.4610000000000003e+00 1.5629449137232328e+01 2.6854034686805083e+01 0 0 0
595 2 0.0000000000000000e+00 1.2787731112280996e+01 2.6854034686805083e+01 0 0 0
597 2 1.2305000000000001e+00 1.3498160618518829e+01 2.6854034686805083e+01 0 0 0
632 2 2.4610000000000003e+00 1.2787731112280996e+01 2.6854034686805083e+01 0 0 0
724 2 7.3829999999999991e+00 1.2787731112280996e+01 2.6854034686805083e+01 0 0 0
726 2 8.6135000000000002e+00 1.3498160618518835e+01 2.6854034686805083e+01 0 0 0
767 2 8.6135000000000002e+00 1.4919019630994494e+01 2.6854034686805083e+01 0 0 0
722 2 7.3829999999999991e+00 1.5629449137232333e+01 2.6854034686805083e+01 0 0 0
677 2 4.9220000000000006e+00 1.2787731112280996e+01 2.6854034686805083e+01 0 0 0
720 2 6.1524999999999990e+00 1.4919019630994494e+01 2.6854034686805083e+01 0 0 0
679 2 6.1524999999999990e+00 1.3498160618518829e+01 2.6854034686805083e+01 0 0 0
675 2 4.9220000000000006e+00 1.5629449137232333e+01 2.6854034686805083e+01 0 0 0
555 2 0.0000000000000000e+00 1.4208590124756650e+00 3.0030999999998652e+01 0 0 0
557 2 0.0000000000000000e+00 0.0000000000000000e+00 3.0030999999998652e+01 0 0 0
566 2 1.2305000000000001e+00 2.1312885187134998e+00 3.0030999999998652e+01 0 0 0
568 2 2.4610000000000003e+00 1.4208590124756650e+00 3.0030999999998652e+01 0 0 0
570 2 2.4610000000000003e+00 0.0000000000000000e+00 3.0030999999998652e+01 0 0 0
587 2 3.6914999999999996e+00 2.1312885187134998e+00 3.0030999999998652e+01 0 0 0
564 2 1.2305000000000001e+00 3.5521475311891644e+00 3.0030999999998652e+01 0 0 0
585 2 3.6914999999999996e+00 3.5521475311891644e+00 3.0030999999998652e+01 0 0 0
883 2 0.0000000000000000e+00 2.8417180249513345e+00 3.3207965313191721e+01 0 0 0
884 2 0.0000000000000000e+00 0.0000000000000000e+00 3.3207965313191721e+01 0 0 0
885 2 1.2305000000000001e+00 7.1042950623783474e-01 3.3207965313191721e+01 0 0 0
889 2 1.2305000000000001e+00 2.1312885187134998e+00 3.3207965313191721e+01 0 0 0
890 2 2.4610000000000003e+00 2.8417180249513345e+00 3.3207965313191721e+01 0 0 0
891 2 2.4610000000000003e+00 0.0000000000000000e+00 3.3207965313191721e+01 0 0 0
892 2 3.6915000000000004e+00 7.1042950623783474e-01 3.3207965313191721e+01 0 0 0
900 2 3.6914999999999996e+00 2.1312885187134998e+00 3.3207965313191721e+01 0 0 0
589 2 4.9220000000000006e+00 1.4208590124756650e+00 3.0030999999998652e+01 0 0 0
591 2 4.9220000000000006e+00 0.0000000000000000e+00 3.0030999999998652e+01 0 0 0
616 2 6.1524999999999999e+00 2.1312885187134989e+00 3.0030999999998652e+01 0 0 0
618 2 7.3829999999999991e+00 1.4208590124756659e+00 3.0030999999998652e+01 0 0 0
620 2 7.3829999999999991e+00 0.0000000000000000e+00 3.0030999999998652e+01 0 0 0
653 2 8.6134999999999984e+00 2.1312885187135002e+00 3.0030999999998652e+01 0 0 0
614 2 6.1524999999999999e+00 3.5521475311891644e+00 3.0030999999998652e+01 0 0 0
651 2 8.6134999999999984e+00 3.5521475311891657e+00 3.0030999999998652e+01 0 0 0
901 2 4.9220000000000006e+00 2.8417180249513332e+00 3.3207965313191721e+01 0 0 0
902 2 4.9220000000000006e+00 0.0000000000000000e+00 3.3207965313191721e+01 0 0 0
903 2 6.1524999999999999e+00 7.1042950623783407e-01 3.3207965313191721e+01 0 0 0
915 2 6.1524999999999999e+00 2.1312885187134989e+00 3.3207965313191721e+01 0 0 0
916 2 7.3829999999999991e+00 2.8417180249513345e+00 3.3207965313191721e+01 0 0 0
917 2 7.3829999999999991e+00 0.0000000000000000e+00 3.3207965313191721e+01 0 0 0
918 2 8.6134999999999984e+00 7.1042950623783407e-01 3.3207965313191721e+01 0 0 0
934 2 8.6134999999999984e+00 2.1312885187135002e+00 3.3207965313191721e+01 0 0 0
560 2 0.0000000000000000e+00 5.6834360499026637e+00 3.0030999999998652e+01 0 0 0
562 2 0.0000000000000000e+00 4.2625770374269996e+00 3.0030999999998652e+01 0 0 0
579 2 1.2305000000000001e+00 6.3938655561404980e+00 3.0030999999998652e+01 0 0 0
581 2 2.4610000000000003e+00 5.6834360499026637e+00 3.0030999999998652e+01 0 0 0
583 2 2.4610000000000003e+00 4.2625770374269996e+00 3.0030999999998652e+01 0 0 0
608 2 3.6914999999999996e+00 6.3938655561404980e+00 3.0030999999998652e+01 0 0 0
577 2 1.2305000000000001e+00 7.8147245686161639e+00 3.0030999999998652e+01 0 0 0
606 2 3.6914999999999996e+00 7.8147245686161639e+00 3.0030999999998652e+01 0 0 0
887 2 0.0000000000000000e+00 4.2625770374269996e+00 3.3207965313191721e+01 0 0 0
888 2 1.2305000000000001e+00 4.9730065436648339e+00 3.3207965313191721e+01 0 0 0
896 2 1.2305000000000001e+00 6.3938655561404980e+00 3.3207965313191721e+01 0 0 0
898 2 2.4610000000000003e+00 4.2625770374269996e+00 3.3207965313191721e+01 0 0 0
899 2 3.6914999999999996e+00 4.9730065436648339e+00 3.3207965313191721e+01 0 0 0
911 2 3.6914999999999996e+00 6.3938655561404980e+00 3.3207965313191721e+01 0 0 0
886 2 0.0000000000000000e+00 7.1042950623783341e+00 3.3207965313191721e+01 0 0 0
897 2 2.4610000000000003e+00 7.1042950623783341e+00 3.3207965313191721e+01 0 0 0
610 2 4.9220000000000006e+00 5.6834360499026637e+00 3.0030999999998652e+01 0 0 0
612 2 4.9220000000000006e+00 4.2625770374269978e+00 3.0030999999998652e+01 0 0 0
645 2 6.1524999999999999e+00 6.3938655561404980e+00 3.0030999999998652e+01 0 0 0
647 2 7.3829999999999991e+00 5.6834360499026637e+00 3.0030999999998652e+01 0 0 0
649 2 7.3829999999999991e+00 4.2625770374269996e+00 3.0030999999998652e+01 0 0 0
690 2 8.6135000000000002e+00 6.3938655561404980e+00 3.0030999999998652e+01 0 0 0
643 2 6.1524999999999999e+00 7.8147245686161639e+00 3.0030999999998652e+01 0 0 0
688 2 8.6135000000000002e+00 7.8147245686161639e+00 3.0030999999998652e+01 0 0 0
913 2 4.9220000000000006e+00 4.2625770374269978e+00 3.3207965313191721e+01 0 0 0
914 2 6.1524999999999999e+00 4.9730065436648339e+00 3.3207965313191721e+01 0 0 0
930 2 6.1524999999999999e+00 6.3938655561404980e+00 3.3207965313191721e+01 0 0 0
932 2 7.3829999999999991e+00 4.2625770374269996e+00 3.3207965313191721e+01 0 0 0
933 2 8.6135000000000002e+00 4.9730065436648339e+00 3.3207965313191721e+01 0 0 0
953 2 8.6135000000000002e+00 6.3938655561404980e+00 3.3207965313191721e+01 0 0 0
912 2 4.9220000000000006e+00 7.1042950623783341e+00 3.3207965313191721e+01 0 0 0
931 2 7.3830000000000009e+00 7.1042950623783341e+00 3.3207965313191721e+01 0 0 0
573 2 0.0000000000000000e+00 9.9460130873296642e+00 3.0030999999998652e+01 0 0 0
575 2 0.0000000000000000e+00 8.5251540748539991e+00 3.0030999999998652e+01 0 0 0
602 2 2.4610000000000003e+00 9.9460130873296642e+00 3.0030999999998652e+01 0 0 0
604 2 2.4610000000000003e+00 8.5251540748539991e+00 3.0030999999998652e+01 0 0 0
598 2 1.2305000000000001e+00 1.2077301606043163e+01 3.0030999999998652e+01 0 0 0
600 2 1.2305000000000001e+00 1.0656442593567498e+01 3.0030999999998652e+01 0 0 0
635 2 3.6914999999999996e+00 1.2077301606043163e+01 3.0030999999998652e+01 0 0 0
637 2 3.6914999999999996e+00 1.0656442593567499e+01 3.0030999999998652e+01 0 0 0
894 2 0.0000000000000000e+00 8.5251540748539991e+00 3.3207965313191721e+01 0 0 0
895 2 1.2305000000000001e+00 9.2355835810918343e+00 3.3207965313191721e+01 0 0 0
909 2 2.4610000000000003e+00 8.5251540748539991e+00 3.3207965313191721e+01 0 0 0
910 2 3.6915000000000004e+00 9.2355835810918343e+00 3.3207965313191721e+01 0 0 0
893 2 0.0000000000000000e+00 1.1366872099805333e+01 3.3207965313191721e+01 0 0 0
907 2 1.2305000000000001e+00 1.0656442593567498e+01 3.3207965313191721e+01 0 0 0
908 2 2.4610000000000003e+00 1.1366872099805333e+01 3.3207965313191721e+01 0 0 0
926 2 3.6914999999999996e+00 1.0656442593567499e+01 3.3207965313191721e+01 0 0 0
639 2 4.9220000000000006e+00 9.9460130873296642e+00 3.0030999999998652e+01 0 0 0
641 2 4.9220000000000006e+00 8.5251540748539991e+00 3.0030999999998652e+01 0 0 0
684 2 7.3830000000000009e+00 9.9460130873296642e+00 3.0030999999998652e+01 0 0 0
686 2 7.3830000000000009e+00 8.5251540748539991e+00 3.0030999999998652e+01 0 0 0
680 2 6.1524999999999999e+00 1.2077301606043163e+01 3.0030999999998652e+01 0 0 0
682 2 6.1524999999999999e+00 1.0656442593567499e+01 3.0030999999998652e+01 0 0 0
727 2 8.6135000000000002e+00 1.2077301606043163e+01 3.0030999999998652e+01 0 0 0
729 2 8.6134999999999984e+00 1.0656442593567498e+01 3.0030999999998652e+01 0 0 0
928 2 4.9220000000000006e+00 8.5251540748539991e+00 3.3207965313191721e+01 0 0 0
929 2 6.1524999999999999e+00 9.2355835810918343e+00 3.3207965313191721e+01 0 0 0
951 2 7.3830000000000009e+00 8.5251540748539991e+00 3.3207965313191721e+01 0 0 0
952 2 8.6134999999999984e+00 9.2355835810918343e+00 3.3207965313191721e+01 0 0 0
927 2 4.9220000000000006e+00 1.1366872099805333e+01 3.3207965313191721e+01 0 0 0
949 2 6.1524999999999999e+00 1.0656442593567499e+01 3.3207965313191721e+01 0 0 0
950 2 7.3829999999999991e+00 1.1366872099805333e+01 3.3207965313191721e+01 0 0 0
973 2 8.6134999999999984e+00 1.0656442593567498e+01 3.3207965313191721e+01 0 0 0
596 2 0.0000000000000000e+00 1.2787731112280996e+01 3.0030999999998652e+01 0 0 0
633 2 2.4610000000000003e+00 1.2787731112280996e+01 3.0030999999998652e+01 0 0 0
594 2 0.0000000000000000e+00 1.4208590124756663e+01 3.0030999999998652e+01 0 0 0
629 2 1.2305000000000001e+00 1.4919019630994494e+01 3.0030999999998652e+01 0 0 0
631 2 2.4610000000000003e+00 1.4208590124756663e+01 3.0030999999998652e+01 0 0 0
674 2 3.6915000000000004e+00 1.4919019630994494e+01 3.0030999999998652e+01 0 0 0
905 2 0.0000000000000000e+00 1.2787731112280996e+01 3.3207965313191721e+01 0 0 0
906 2 1.2305000000000001e+00 1.3498160618518829e+01 3.3207965313191721e+01 0 0 0
924 2 2.4610000000000003e+00 1.2787731112280996e+01 3.3207965313191721e+01 0 0 0
925 2 3.6915000000000004e+00 1.3498160618518829e+01 3.3207965313191721e+01 0 0 0
904 2 0.0000000000000000e+00 1.5629449137232333e+01 3.3207965313191721e+01 0 0 0
922 2 1.2305000000000001e+00 1.4919019630994494e+01 3.3207965313191721e+01 0 0 0
923 2 2.4610000000000003e+00 1.5629449137232328e+01 3.3207965313191721e+01 0 0 0
945 2 3.6915000000000004e+00 1.4919019630994494e+01 3.3207965313191721e+01 0 0 0
678 2 4.9220000000000006e+00 1.2787731112280996e+01 3.0030999999998652e+01 0 0 0
725 2 7.3829999999999991e+00 1.2787731112280996e+01 3.0030999999998652e+01 0 0 0
676 2 4.9220000000000006e+00 1.4208590124756663e+01 3.0030999999998652e+01 0 0 0
721 2 6.1524999999999990e+00 1.4919019630994494e+01 3.0030999999998652e+01 0 0 0
723 2 7.3830000000000009e+00 1.4208590124756663e+01 3.0030999999998652e+01 0 0 0
768 2 8.6135000000000002e+00 1.4919019630994494e+01 3.0030999999998652e+01 0 0 0
947 2 4.9220000000000006e+00 1.2787731112280996e+01 3.3207965313191721e+01 0 0 0
948 2 6.1524999999999990e+00 1.3498160618518829e+01 3.3207965313191721e+01 0 0 0
971 2 7.3829999999999991e+00 1.2787731112280996e+01 3.3207965313191721e+01 0 0 0
972 2 8.6135000000000002e+00 1.3498160618518835e+01 3.3207965313191721e+01 0 0 0
946 2 4.9220000000000006e+00 1.5629449137232333e+01 3.3207965313191721e+01 0 0 0
969 2 6.1524999999999990e+00 1.4919019630994494e+01 3.3207965313191721e+01 0 0 0
970 2 7.3829999999999991e+00 1.5629449137232333e+01 3.3207965313191721e+01 0 0 0
993 2 8.6135000000000002e+00 1.4919019630994494e+01 3.3207965313191721e+01 0 0 0
5153 1 4.2800634393895507e+00 2.2130866283041577e+00 3.7086787166921212e+01 0 1 -1
3171 1 7.9885611135362755e-01 3.1091876477686147e+00 3.5768256458017291e+01 0 1 -1
4512 1 7.9920794983895114e+00 1.2594244657950642e+00 3.5827622226841797e+01 0 0 0
2159 1 6.6344515527455874e+00 3.9713780483246199e+00 3.6630124834979469e+01 0 1 0
1467 1 7.2989232998419098e+00 5.1616842235754423e-01 3.8767108177675993e+01 0 1 0
1728 1 9.3929565857742805e+00 4.0346185980532825e+00 3.5730460359754758e+01 -1 0 -1
3145 1 3.4253756474725212e+00 4.5526696288169122e+00 3.5942832349042462e+01 0 1 0
5998 1 3.2777544243615933e+00 7.6167123945297206e+00 3.5941291320815438e+01 0 0 0
6319 1 3.7992996718328711e+00 6.5301683453996864e+00 3.8415962054053523e+01 0 0 0
5154 1 5.7849150439550068e-01 8.1031191996630305e+00 3.6201470384269911e+01 1 0 -1
1430 1 6.6727042190463282e+00 5.6747396780264996e+00 3.8954383466660374e+01 1 1 0
118 1 2.6908358609330812e-01 1.1087716289651759e+01 3.5909809449660798e+01 0 0 -1
485 1 3.8416007586641260e-01 1.1917384137608854e+01 3.8653444443623826e+01 0 0 0
3660 1 4.5667414096704144e+00 1.2222067933618685e+01 3.6767620162477741e+01 0 1 -1
1271 1 9.5671043409080365e+00 1.0753320498264772e+01 3.5885806714355994e+01 0 0 0
5268 1 7.8667488339942704e+00 8.7888714104278804e+00 3.8522002055348977e+01 0 1 0
454 1 5.3116427663728034e+00 9.4224056468853750e+00 3.6625380402844868e+01 0 0 0
6167 1 8.0902653773663253e+00 8.4311074174626590e+00 3.5726312382470823e+01 0 0 -1
5271 1 4.5340470608801703e-01 1.5336039590495037e+01 3.6181344570212872e+01 0 0 0
3544 1 8.2798562928413666e-01 1.4539217411084378e+01 3.8877625341932188e+01 0 0 -1
5193 1 2.1011675440625681e+00 1.3104762223738117e+01 3.5862938332281971e+01 0 1 0
6201 1 6.0500674697529115e+00 1.4400718742569639e+01 3.6405201545658869e+01 0 0 -1
6134 1 8.6090690354919417e+00 1.3789820800258816e+01 3.5586498935557202e+01 1 0 0
6020 1 6.8306615111951903e+00 1.5167984044464724e+01 3.8906663990338174e+01 0 1 0
6093 1 9.3834283762880411e+00 1.5629345763539037e+01 3.8720428523722816e+01 1 1 -1
5328 1 4.4287680322250933e-01 1.9397991186381531e+00 4.3132607324997068e+01 0 1 -1
381 1 4.5965184450545360e+00 1.0099331915889618e+00 4.3334848070348684e+01 1 1 0
4686 1 1.2501552395743138e+00 3.7421818478237081e+00 4.1143915084274781e+01 1 1 0
4676 1 4.9867258936433538e+00 1.9355343226406638e+00 3.9710925490684119e+01 1 0 -1
1325 1 7.8135695453983285e+00 3.7857350251164830e+00 4.0553053347164180e+01 0 1 -1
1701 1 8.6255180295682123e+00 1.6084002394962409e+00 4.2653931026776775e+01 1 0 0
6008 1 5.7503228517883072e+00 3.4680648807798864e+00 4.2511272700960461e+01 0 0 0
1290 1 4.0959884087419267e+00 6.4472026929660888e+00 4.3179333388874426e+01 0 1 0
1320 1 1.3007948460869347e+00 7.5101480683967177e+00 3.9479845673934506e+01 0 -2 0
4963 1 6.9672255089191670e-01 6.4119276497178115e+00 4.1829080944411658e+01 0 0 -1
4761 1 3.9493767363417569e+00 4.8351552501397261e+00 4.0854593085266927e+01 0 0 0
3482 1 8.2418375351222810e+00 6.8222168472755547e+00 4.3555447265255921e+01 0 1 -1
6012 1 9.6619370495548615e+00 6.6976346488666394e+00 3.9286158230572013e+01 1 -1 0
38 1 1.7075408332041748e+00 1.0216269349578370e+01 4.0172566787787943e+01 0 0 0
4491 1 1.0517607147483194e+00 9.9935008206192286e+00 4.2778931762712006e+01 2 0 0
4681 1 4.3065407479329592e+00 1.1295744115704229e+01 3.9748120064502217e+01 1 0 0
6007 1 6.1636651624842411e+00 8.5872497738019931e+00 4.2732617983543165e+01 1 -1 0
4551 1 5.4276234855167145e+00 8.8062151375021571e+00 3.9860291093263598e+01 0 0 0
1539 1 7.1670463019330013e+00 1.1278728736198108e+01 4.1948317751840932e+01 0 0 -1
1259 1 8.7839124643864235e+00 1.0854770665392921e+01 3.9942623115418996e+01 0 1 0
3736 1 3.3415330462491539e+00 1.6199251270789457e+01 4.2389846974933135e+01 1 0 0
4900 1 1.9030041593912705e+00 1.2483654922150796e+01 4.3430200507644784e+01 1 0 -1
4641 1 2.5534137021927603e+00 1.3857717137589804e+01 4.1184864330907942e+01 0 0 0
1422 1 9.4655501824093218e+00 1.2325144656829522e+01 4.3443830947981297e+01 0 1 -1
3189 1 5.5316026650425325e+00 1.3540664802967738e+01 4.0946278990860677e+01 1 1 0
4810 1 6.4064002463491025e+00 1.5782216821836409e+01 4.2963350077464497e+01 1 0 -1
6127 1 2.2948071091521745e+00 1.0455823400985560e+00 4.4881048811120422e+01 1 1 -1
4537 1 1.9673490768097570e+00 2.4006538744521646e+00 4.7515937539002991e+01 1 0 -1
6327 1 4.2971968101010338e+00 1.2992811140060543e+00 4.8404930026910392e+01 1 1 0
1606 1 6.5410128304922477e+00 4.2814743368712227e-01 4.7099736362444901e+01 0 0 -1