
# Create simulation box and atoms

read_data data.ML_graphite_m1000atm_245K
  orthogonal box = (0 0 2.62195) to (49.22 49.0196 57.4401)
  5 by 3 by 6 MPI processor grid
  reading atoms ...
  6337 atoms
  reading velocities ...
  6337 velocities
group water type 1
3577 atoms in group water
group graphite type 2
2760 atoms in group graphite

# Define potential

pair_style sw
pair_coeff * * MLC_e.sw mW C


# Fix graphite atoms in place

fix 5 graphite setforce 0.0 0.0 0.0
velocity graphite set 0.0 0.0 0.0


# Equilibration of molecular water

# Add velocity/set timestep

velocity	    water create ${TEMP} ${SEED} rot yes dist gaussian
velocity	    water create 248 ${SEED} rot yes dist gaussian
velocity	    water create 248 11605 rot yes dist gaussian
timestep	    5.0

# Define output

compute			1 water msd
compute			3 water temp
thermo	    	50
thermo_style	custom step temp press vol etotal ke pe c_1[4] c_3

# Neighbor lists

neigh_modify    delay 0 every 1 check yes

# Set fixes

fix             1 water momentum 10 linear 1 1 1 rescale
fix             2 water nve
fix             3 water temp/csvr ${TEMP} ${TEMP} 500.0 ${SEED}
fix             3 water temp/csvr 248 ${TEMP} 500.0 ${SEED}
fix             3 water temp/csvr 248 248 500.0 ${SEED}
fix             3 water temp/csvr 248 248 500.0 11605
fix             4 water press/berendsen z ${PRES} ${PRES} 1000.0 modulus 20000
fix             4 water press/berendsen z -1000 ${PRES} 1000.0 modulus 20000
fix             4 water press/berendsen z -1000 -1000 1000.0 modulus 20000

# Run 0.5 ns equilibration

dump		    1 all atom 2000 ${DIR}/eq.${NAME}-${TEMP}.dump
dump		    1 all atom 2000 run_6/eq.${NAME}-${TEMP}.dump
dump		    1 all atom 2000 run_6/eq.het_freeze_6-${TEMP}.dump
dump		    1 all atom 2000 run_6/eq.het_freeze_6-248.dump

reset_timestep  0

run	            100000
Neighbor list info ...
  update every 1 steps, delay 0 steps, check yes
  max neighbors/atom: 2000, page size: 100000
  master list distance cutoff = 6.67472
  ghost atom cutoff = 6.67472
  binsize = 3.33736, bins = 15 15 17
  1 neighbor lists, perpetual/occasional/extra = 1 0 0
  (1) pair sw, perpetual
      attributes: full, newton on
      pair build: full/bin/atomonly
      stencil: full/bin/3d
      bin: standard
Per MPI rank memory allocation (min/avg/max) = 4.07 | 4.222 | 4.502 Mbytes
Step Temp Press Volume TotEng KinEng PotEng c_1[4] c_3 
       0     139.9697   -1056.0851     132262.2   -34085.323    2643.5254   -36728.848            0          248 
      50    140.02174   -1238.3926     132312.9   -34118.014    2644.5083   -36762.523   0.51489308    248.09221 
     100    139.43097   -1106.7395    132365.05   -34128.782    2633.3508   -36762.132   0.81606215    247.04547 
     150    139.39515   -909.07642    132494.61   -34123.064    2632.6742   -36755.738    1.0260988    246.98201 
     200    141.71702   -1107.4964    132527.69    -34079.55    2676.5261   -36756.076    1.2621368    251.09593 
     250    141.95419   -1102.3608    132556.76   -34043.249    2681.0055   -36724.255    1.4572201    251.51616 
     300     142.1765    -939.7287    132467.34   -34068.637    2685.2041   -36753.841    1.6011751    251.91004 
     350      140.359   -1232.0434    132528.12   -34023.487     2650.878   -36674.365    1.8250641    248.68977 
     400    141.35175   -1205.4499    132574.39   -34002.715    2669.6275   -36672.342    2.0107212    250.44874 
     450    139.75475   -1018.5976    132622.26   -33993.353    2639.4659   -36632.819    2.1868278    247.61916 
     500    139.31601   -984.48981    132744.03    -34030.18    2631.1796   -36661.359    2.3758967    246.84179 
     550    142.23878   -1195.3579    132840.14   -34025.262    2686.3802   -36711.642    2.5987957    252.02039 
     600    139.57146   -1314.6442    132863.34   -33992.808    2636.0042   -36628.812     2.793426     247.2944 
     650    139.59479   -1233.9733    132825.03    -33968.92    2636.4448   -36605.365    2.9913916    247.33574 
     700    142.87692   -1131.5795    132840.74   -33951.626    2698.4325   -36650.058    3.1923175    253.15106 
     750    142.89239   -1348.7474    132823.31   -33951.509    2698.7247   -36650.234    3.3753739    253.17847 
     800    142.13146   -1351.7877    132714.41   -33956.612    2684.3533   -36640.965    3.5065897    251.83023 
     850    140.51805   -1098.4375    132697.68   -33950.952    2653.8819   -36604.834    3.7044521    248.97158 
     900    141.73397   -1035.1085     132623.5   -33990.072    2676.8463   -36666.919    3.9190411    251.12596 
     950    138.93619   -1234.5031    132647.05   -33965.116    2624.0061   -36589.122    4.0948142    246.16881 
    1000    139.76499   -1545.9626    132670.49   -33950.416    2639.6592   -36590.075    4.2517733     247.6373 
    1050    141.24497   -1210.8769    132628.39   -33965.873    2667.6107   -36633.484    4.4154762    250.25954 
    1100    139.33924   -1418.3761    132555.08   -33977.824    2631.6184   -36609.442    4.5638405    246.88295 
    1150    140.14679   -1566.0182     132352.8   -33991.346    2646.8701   -36638.216    4.6985896    248.31378 
    1200    140.46458   -1205.6823    132289.65   -33982.935     2652.872   -36635.807    4.8186622    248.87684 
    1250    140.62441   -1112.5067    132371.68   -34022.125    2655.8907   -36678.016    4.9635426    249.16003 
    1300    140.88785   -1025.4459    132453.57   -34017.794    2660.8661    -36678.66      5.07924     249.6268 
    1350    139.89701    -1370.907    132455.18   -34072.193    2642.1526   -36714.345    5.3208766    247.87121 
    1400    140.52314   -1161.9446    132423.01   -34051.641     2653.978   -36705.619    5.4821881     248.9806 
    1450    136.43145   -1001.5418    132435.43   -34099.033    2576.7006   -36675.734    5.6620668    241.73089 
    1500    139.93229   -1101.8641    132487.26       -34111    2642.8189   -36753.819    5.7674143    247.93372 
    1550    137.96346   -1100.4706    132516.88   -34061.003    2605.6348   -36666.638    5.9239067    244.44532 
    1600    138.64345   -1085.7266    132543.24   -34059.071    2618.4774   -36677.548    5.9956044    245.65014 
    1650    137.67541   -1404.3658    132551.93    -34044.94    2600.1946   -36645.134    6.0771722    243.93496 
    1700    140.33745   -1241.5265    132489.81   -34036.207     2650.471   -36686.678    6.2085398    248.65159 
    1750    139.25905   -1214.2582    132489.48    -34024.14     2630.104   -36654.244    6.3425902    246.74088 
    1800     137.5337   -1220.8352    132515.85   -33951.335    2597.5181   -36548.853    6.5052562    243.68386 
    1850    141.18431   -1244.1366    132373.01     -33981.3     2666.465   -36647.765    6.6993921    250.15206 
    1900    137.07849   -1241.4139     132314.3   -34015.337    2588.9209   -36604.258    6.9539125    242.87732 
    1950    139.66804   -1313.5942    132324.06    -34059.48    2637.8282   -36697.308    7.1297439    247.46552 
    2000    139.68986   -1047.0786    132285.99   -34057.311    2638.2403   -36695.551    7.2778759    247.50418 
    2050      138.026   -905.22282    132355.82   -34035.738     2606.816   -36642.554    7.4331091    244.55613 
    2100    137.53831   -1187.8204    132413.27   -34057.294    2597.6052   -36654.899    7.7151217    243.69204 
    2150    140.36453   -1116.2469    132425.41   -34009.108    2650.9823    -36660.09    7.9473765    248.69956 
    2200    139.14628   -947.07881    132559.67   -34028.608    2627.9741   -36656.582     8.059356    246.54106 
    2250    139.07054   -1170.6702    132622.21   -34006.782    2626.5436   -36633.326    8.1861068    246.40686 
    2300    141.20907   -1145.6407    132577.41   -33995.494    2666.9327   -36662.426    8.3505768    250.19594 
    2350     143.3061   -1138.5552    132577.54   -33991.738    2706.5382   -36698.276    8.4693133    253.91148 
    2400    138.16266   -1481.0105    132470.67   -34055.523     2609.397    -36664.92    8.6048295    244.79827 
    2450    136.29338   -1241.5544    132360.66   -34099.963    2574.0931   -36674.056    8.7544359    241.48627 
    2500    137.51227   -1348.6597    132341.78   -34066.154    2597.1134   -36663.268    8.8482647     243.6459 
    2550    136.63078   -1255.7036    132339.06   -34101.606    2580.4652   -36682.071    9.0624169    242.08406 
    2600    138.98929   -1230.6621    132301.98   -34142.075     2625.009   -36767.084    9.2482256     246.2629 
    2650    133.49265    -1373.882    132220.36   -34182.794    2521.1973   -36703.991    9.3746263     236.5239 
    2700    138.29102   -1268.3424    132230.33    -34126.84    2611.8213   -36738.662    9.4129462     245.0257 
    2750    137.96012   -1078.3779     132276.1   -34140.407    2605.5718   -36745.979     9.620908    244.43941 
    2800    139.77984   -1105.7005    132369.66   -34105.787    2639.9397   -36745.726    9.8719714    247.66361 
    2850    139.86129   -1058.5937    132445.91   -34045.188    2641.4781   -36686.666    10.034531    247.80793 
    2900    143.33316   -1306.9596    132597.66   -34040.795    2707.0491   -36747.844    10.144917    253.95942 
    2950    137.40262   -1135.1631    132591.42    -34056.61    2595.0425   -36651.653    10.331722    243.45162 
    3000    142.26519   -1574.8301    132557.76   -34056.951    2686.8791    -36743.83    10.535409    252.06719 
    3050     141.2892   -1278.4904    132560.65   -34025.695     2668.446   -36694.141    10.655481     250.3379 
    3100     141.7707   -995.36083    132643.71   -34000.561    2677.5398     -36678.1    10.693409    251.19103 
    3150    139.88211   -859.36118    132731.94   -34025.284    2641.8713   -36667.155    10.942548    247.84482 
    3200    140.22233   -1254.3805    132864.17   -33954.031    2648.2967   -36602.328    11.065536    248.44761 
    3250    141.70531   -1171.3595    132847.02   -33933.723    2676.3049   -36610.028    11.165509    251.07518 
    3300    140.24278   -1284.3786    132854.45   -33973.187     2648.683    -36621.87    11.332429    248.48385 
    3350    142.90061   -1456.3104    132772.03   -33972.927    2698.8799   -36671.807    11.490431    253.19303 
    3400    137.02866   -1245.8202    132768.53   -34017.503    2587.9798   -36605.482    11.634759    242.78904 
    3450    139.47795   -1504.8418    132787.23   -33972.648    2634.2382   -36606.887    11.837797    247.12872 
    3500    142.16144   -1526.0624    132767.91   -33969.538    2684.9196   -36654.458    11.878742    251.88336 
    3550    146.32642   -1167.9786    132787.71   -33899.794    2763.5812   -36663.375    12.056651    259.26292 
    3600    141.27567   -1050.6418    132838.38   -33895.645    2668.1906   -36563.836     12.33037    250.31394 
    3650    141.04934   -1067.3392       132883   -33922.136     2663.916   -36586.052    12.553895    249.91292 
    3700    140.74162   -1384.2126     132822.8   -33944.951    2658.1044   -36603.055    12.853812    249.36771 
    3750    142.00661   -1201.5679    132841.21   -33993.297    2681.9954   -36675.292    13.112888    251.60903 
    3800    140.87662   -1292.1598     132851.3   -34014.918    2660.6539   -36675.572    13.268864    249.60689 
    3850    141.42333   -1170.5103    132822.01   -34025.093    2670.9793   -36696.072     13.34947    250.57556 
    3900    141.76535   -1464.4483    132809.68   -34022.542    2677.4389    -36699.98    13.346482    251.18156 
    3950    141.69264   -1487.2397    132724.43   -33986.813    2676.0657   -36662.879    13.392628    251.05273 
    4000    142.66268   -1173.3751    132645.64   -33951.392    2694.3863   -36645.778    13.477239    252.77146 
    4050    142.81964   -1167.7754     132598.3   -33922.142    2697.3507   -36619.493    13.654432    253.04957 
    4100    144.75487   -836.21011    132652.93   -33840.463    2733.9001   -36574.363    13.824494    256.47842 
    4150    145.21405   -1233.3233    132752.86   -33909.373    2742.5724   -36651.945    14.046313    257.29201 
    4200    141.04334   -1111.0123    132813.14   -33923.043    2663.8028   -36586.845    14.132166     249.9023 
    4250    142.23037   -1139.1035    132814.74   -33887.521    2686.2215   -36573.743    14.304363    252.00549 
    4300    143.42248   -1545.7552     132743.7   -33864.543    2708.7361   -36573.279    14.549167    254.11768 
    4350    142.45988   -1183.8547    132623.83   -33911.257     2690.556   -36601.813    14.762538    252.41213 
    4400    143.19173   -1182.1041    132612.61   -33855.419    2704.3781   -36559.797    14.819906    253.70884 
    4450    144.15739   -1006.6351    132585.68   -33836.673     2722.616   -36559.289    14.982632    255.41981 
    4500    144.99125   -1084.2777    132641.16   -33893.759    2738.3646   -36632.124    15.264142    256.89725 
    4550    138.99062   -1003.3229    132802.39   -33917.418    2625.0341   -36542.452    15.369316    246.26525 
    4600    139.41387   -878.12322    132880.84   -33905.134    2633.0278   -36538.162    15.388359    247.01517 
    4650     140.3297   -1285.9088     132979.9   -33949.022    2650.3246   -36599.347    15.558962    248.63786 
    4700    139.73564   -1168.0268    132963.06   -33979.035     2639.105    -36618.14    15.874367     247.5853 
    4750    140.08123   -1299.1674    132971.38   -33994.889    2645.6319   -36640.521    16.060693    248.19762 
    4800    137.38553   -1245.2411    132932.94   -34046.489    2594.7199   -36641.209    16.213891    243.42135 
    4850    139.17556   -1118.4612    132952.57   -34056.072     2628.527   -36684.599    16.346658    246.59294 
    4900    136.48258   -1164.4939    132974.39   -34067.569    2577.6662   -36645.235    16.480087    241.82148 
    4950    135.91462   -1194.0375    132926.26   -34054.656    2566.9396   -36621.595    16.711981    240.81517 
    5000    140.47127   -1122.5782    132937.45   -33970.149    2652.9984   -36623.148     16.83146     248.8887 
    5050    142.52121   -1178.9035    132944.05    -33991.17    2691.7144   -36682.884    17.038041    252.52081 
    5100    141.68142   -1428.9833    132946.72   -33937.224    2675.8538   -36613.078    17.165896    251.03286 
    5150    140.36724   -1340.0967    132985.09   -33949.738    2651.0337   -36600.771    17.276228    248.70438 
    5200    139.95007   -1352.1837    132928.93   -33929.012    2643.1548   -36572.166    17.276311    247.96522 
    5250     140.4936   -1233.5346     132940.3   -33941.078    2653.4202   -36594.498    17.317027    248.92827 
    5300    137.47579   -1315.7111    132874.68   -33941.372    2596.4245   -36537.796    17.513433    243.58127 
    5350    138.53578   -1323.3126    132869.73   -33976.598    2616.4438   -36593.042    17.767492    245.45936 
    5400    138.07484   -1284.0881    132793.08   -33967.629    2607.7384   -36575.368    17.985672    244.64267 
    5450    142.60796   -1351.3415    132756.25   -33941.184    2693.3527   -36634.536    18.068654     252.6745 
    5500    140.13417   -1127.2667    132713.98    -33980.77    2646.6317   -36627.401     18.22597    248.29142 
    5550     140.8039   -1141.8542    132656.87   -34016.942    2659.2806   -36676.223    18.545853    249.47806 
    5600    139.47792   -1438.8165    132582.15   -33942.773    2634.2375    -36577.01    18.754871    247.12866 
    5650    142.03928   -1250.6645    132501.39   -33931.868    2682.6125   -36614.481    18.857712    251.66691 
    5700    139.95212   -1602.8668    132422.26   -33982.872    2643.1934   -36626.065    19.024264    247.96885 
    5750    136.82176   -1388.1038    132337.08   -34087.031    2584.0722   -36671.103    19.120001    242.42245 
    5800    137.74656   -1245.4683    132354.38   -34058.427    2601.5383   -36659.965    19.201572    244.06102 
    5850    141.48795   -1137.3572    132465.14   -33983.483    2672.1999   -36655.683    19.378973    250.69007 
    5900    141.27723   -1082.2765    132563.08   -33939.287      2668.22   -36607.507    19.561514     250.3167 
    5950    139.05985   -1346.5983    132610.38   -33956.394    2626.3417   -36582.736    19.748914    246.38792 
    6000     141.8752   -953.93477    132627.96   -33917.444    2679.5135   -36596.957    19.832202    251.37619 
    6050    139.84017   -1382.0488     132654.6   -33936.674    2641.0792   -36577.753    19.964247    247.77051 
    6100    141.31763   -1126.2646    132654.71   -33929.304     2668.983   -36598.287     20.10092    250.38828 
    6150    138.99812   -1408.6326    132640.52    -33921.28    2625.1759   -36546.455    20.248569    246.27855 
    6200    141.10936   -1320.3767    132579.79   -33899.383    2665.0495   -36564.432    20.378967    250.01926 
    6250     140.1462   -1345.0759    132580.56   -33879.183    2646.8589   -36526.042    20.530429    248.31272 
    6300    142.46124    -1049.701    132478.92    -33927.61    2690.5817   -36618.192    20.663543    252.41454 
    6350    137.37803   -1368.6261    132467.94   -33941.493     2594.578   -36536.071    20.901999    243.40804 
    6400    138.11326   -1325.3245    132376.06   -33983.364    2608.4639   -36591.828    21.081535    244.71074 
    6450    140.94819    -1281.081    132262.84   -33968.434    2662.0056   -36630.439    21.273776     249.7337 
    6500    137.54177   -1367.2745    132288.75    -33943.09    2597.6706   -36540.761    21.528134    243.69817 
    6550    138.84398   -1333.7712    132440.46   -33976.993    2622.2647   -36599.258    21.738149    246.00544 
    6600    140.81684   -1136.9755    132508.98   -33876.958     2659.525   -36536.483    21.944511    249.50099 
    6650    142.65227   -1154.6572    132577.24     -33880.3    2694.1897    -36574.49    22.078017    252.75302 
    6700    142.50129   -1134.0308    132554.63   -33931.903    2691.3381   -36623.241    22.212176    252.48551 
    6750    140.29876   -1430.5683    132533.85   -33871.814    2649.7402   -36521.554     22.32332    248.58303 
    6800    143.80014   -1334.1906    132462.35   -33925.054    2715.8687   -36640.923    22.548489    254.78682 
    6850    138.66064    -1409.151    132459.25   -33943.472    2618.8021   -36562.274    22.713652     245.6806 
    6900    139.62699     -1311.23    132429.66   -33948.282    2637.0529   -36585.335    22.767383    247.39278 
    6950    140.48252   -1242.6314    132411.19   -33947.456    2653.2108   -36600.667    22.898372    248.90862 
    7000    138.31359    -1271.041     132440.3   -33973.162    2612.2475    -36585.41    23.138706    245.06569 
    7050    136.62768   -1487.4115    132361.25    -33982.28    2580.4068   -36562.687     23.30484    242.07858 
    7100    136.12382   -1005.0365    132308.13   -34020.387    2570.8906   -36591.277    23.466972    241.18583 
    7150    136.79072   -1027.8401    132306.09   -34045.764     2583.486    -36629.25    23.654225    242.36746 
    7200    137.67005    -1287.409    132243.13    -34044.49    2600.0933   -36644.583    23.892504    243.92545 
    7250    140.71434   -1335.2323    132186.23   -33988.583    2657.5891   -36646.173    23.856498    249.31937 
    7300    140.61343   -1182.3467    132186.35   -33966.781    2655.6832   -36622.464    24.047317    249.14057 
    7350    143.20708   -1099.3089    132202.14    -33897.64    2704.6679   -36602.308    24.236936    253.73603 
    7400    143.65685   -1108.7855    132229.11   -33863.373    2713.1626   -36576.536    24.546585    254.53295 
    7450    143.07164   -1147.3398    132234.11   -33847.143      2702.11   -36549.253    24.668808    253.49606 
    7500    143.37526   -968.84329     132258.9    -33854.57    2707.8443   -36562.414    24.895452    254.03402 
    7550    143.13947   -1111.5625    132340.36   -33813.964     2703.391   -36517.355    25.158838    253.61624 
    7600     145.1382   -1197.8046    132278.63   -33814.782    2741.1399   -36555.922    25.266119    257.15762 
    7650    141.22475   -1307.8769    132290.92   -33910.085    2667.2288   -36577.314    25.384672    250.22371 
    7700    142.22645   -1369.1317    132310.03   -33904.538    2686.1474   -36590.686    25.429659    251.99854 
    7750    142.39056   -1413.7705     132285.5   -33946.611    2689.2469   -36635.858    25.680272    252.28932 
    7800    138.38553   -967.42813    132252.26   -33940.938    2613.6062   -36554.545    26.044068    245.19315 
    7850     139.6479   -1038.2721     132219.2   -33976.821    2637.4479   -36614.269    26.145182    247.42984 
    7900    140.66146   -1239.1541    132247.84   -33935.317    2656.5904   -36591.907    26.363839    249.22568 
    7950    140.15061   -1104.7129    132206.85   -33962.018    2646.9422    -36608.96    26.392212    248.32054 
    8000    139.47577   -1169.7052    132341.17   -33975.386    2634.1969   -36609.583    26.692873    247.12485 
    8050    141.10544   -967.72334    132355.48   -33995.988    2664.9755   -36660.964    26.745969    250.01231 
    8100     140.3323   -749.59436    132505.74   -33988.766    2650.3738    -36639.14    26.882539    248.64247 
    8150     140.3631   -1193.6189    132558.91   -33949.545    2650.9554     -36600.5    26.959687    248.69703 
    8200    139.68193    -1200.931    132486.76   -33974.766    2638.0906   -36612.857    27.237611    247.49013 
    8250    142.44886   -1211.6613    132476.21   -33944.074    2690.3479   -36634.422    27.350869    252.39261 
    8300    145.21782    -1069.427     132468.9   -33866.589    2742.6436   -36609.232    27.543542    257.29868 
    8350    140.67678   -1388.5585    132472.67   -33881.489    2656.8797   -36538.368    27.731375    249.25282 
    8400    140.68919   -1318.2812    132454.11   -33950.652    2657.1141   -36607.766    27.794402     249.2748 
    8450    139.65174   -1253.0286    132444.14   -33956.701    2637.5204   -36594.221    27.874142    247.43665 
    8500    140.24456   -1281.1461    132510.84   -34003.747    2648.7165   -36652.463    28.065802      248.487 
    8550    136.81017   -1310.4035    132424.47   -34012.671    2583.8533   -36596.525    28.359076    242.40191 
    8600    139.54672   -946.33959    132455.03   -33969.543    2635.5369    -36605.08    28.371788    247.25056 
    8650    140.39829    -1173.734    132519.72   -33979.184    2651.6199   -36630.804    28.473933    248.75938 
    8700    138.65956   -1435.2665    132533.32   -33989.716    2618.7817   -36608.497    28.720401    245.67869 
    8750    136.34624   -1311.0153    132471.92   -34063.512    2575.0914   -36638.604    28.906686    241.57992 
    8800     139.0055   -1254.8405    132535.73   -34050.318    2625.3153   -36675.633    28.994814    246.29163 
    8850    140.81953   -1216.5126    132539.99   -34036.425    2659.5758   -36696.001    29.206982    249.50575 
    8900    140.19449   -1267.2566    132518.69   -33990.028     2647.771   -36637.799    29.504794     248.3983 
    8950    141.61983    -1067.605    132512.77   -33991.004    2674.6905   -36665.694    29.589505    250.92372 
    9000    137.07084   -1178.5874    132494.25   -34027.884    2588.7764   -36616.661    29.858789    242.86377 
    9050    142.43569   -1109.4149    132453.34   -34061.645    2690.0993   -36751.744    30.050341    252.36929 
    9100     139.4522   -1079.1608    132417.01   -34039.235    2633.7517   -36672.987    30.216458    247.08309 
    9150    140.56622   -908.11358    132527.34   -34044.605    2654.7916   -36699.397    30.356416    249.05692 
    9200    141.45974   -1198.1909    132588.81    -33978.57     2671.667   -36650.237    30.459457    250.64008 
    9250    140.77451   -1218.7165    132668.97   -33954.343    2658.7254   -36613.068    30.549052    249.42597 
    9300    140.75735   -1250.6372    132639.29   -33954.183    2658.4013   -36612.584    30.695171    249.39557 
    9350    142.26853   -1109.7715    132627.89   -33887.049    2686.9421   -36573.991    30.986026    252.07309 
    9400    142.60606   -1227.7616    132601.43   -33899.648    2693.3169   -36592.965    31.027303    252.67115 
    9450    139.28422   -1303.2906    132645.64   -34006.026    2630.5792   -36636.606     31.32601    246.78546 
    9500    139.21566   -1359.6303    132610.74   -34067.981    2629.2844   -36697.265     31.47767    246.66399 
    9550     138.7853   -1166.5391     132535.2   -34063.345    2621.1564   -36684.501    31.633851    245.90147 
    9600    138.86792   -1007.8478    132660.26   -34032.638    2622.7168   -36655.355    31.799747    246.04786 
    9650    140.38132   -1112.2494     132755.9   -34022.769    2651.2996   -36674.068    31.829504    248.72932 
    9700    138.36562     -1168.56    132764.97   -34015.474    2613.2302   -36628.704    32.079649    245.15788 
    9750    139.82531    -1298.369    132790.59   -34036.312    2640.7985    -36677.11    32.239984    247.74417 
    9800    141.40093   -920.89214    132775.21    -33998.57    2670.5563   -36669.126     32.46317    250.53588 
    9850    139.08735   -1175.2613    132783.64   -33983.682     2626.861   -36610.543    32.579091    246.43664 
    9900    141.45568   -1297.7029    132727.79   -34000.853    2671.5904   -36672.443    32.578605    250.63289 
    9950    142.53029   -1155.5526    132692.42   -34030.358    2691.8859   -36722.244    32.699029    252.53689 
   10000     139.0414   -811.65218    132702.27   -34093.035    2625.9932   -36719.029    32.960187    246.35523 
   10050     141.4701   -972.47692    132802.01   -34032.008    2671.8626    -36703.87    33.056149    250.65843 
   10100    138.63564   -1050.5755    132771.57   -34025.753    2618.3298   -36644.083    33.062484     245.6363 
   10150    141.51644   -1244.4095    132744.55   -34025.715    2672.7378   -36698.453    33.183554    250.74053 
   10200    139.62455   -1118.6616    132722.13   -34020.292    2637.0068   -36657.299    33.304583    247.38846 
   10250     138.9606   -1435.8557    132741.72    -33987.12    2624.4672   -36611.587    33.541413    246.21207 
   10300    138.40974   -1254.5909    132766.43   -33994.034    2614.0634   -36608.098     33.88256    245.23605 
   10350    140.69937   -989.23682    132814.94   -34029.402    2657.3064   -36686.709    34.125613    249.29285 
   10400    138.43377   -1216.4617    132775.39   -34008.313    2614.5172    -36622.83    34.323801    245.27862 
   10450    140.26132   -1381.5964    132807.18   -34013.184    2649.0331   -36662.217    34.445684    248.51669 
   10500    139.46878   -1209.5271    132832.01   -33955.695    2634.0649    -36589.76    34.676908    247.11247 
   10550    142.74149   -1201.5685    132812.22   -33923.108    2695.8747   -36618.983    34.770992     252.9111 
   10600    142.00854   -1233.4597    132844.86   -33922.942    2682.0319   -36604.974    34.891128    251.61245 
   10650    143.74041   -1178.9988    132832.95   -33920.615    2714.7407   -36635.356    35.054852    254.68099 
   10700    138.30107   -1367.8951    132842.54    -33977.13    2612.0111   -36589.141    35.282971    245.04351 
   10750    139.71396   -1472.1859    132705.29   -33999.196    2638.6954   -36637.891    35.256667    247.54687 
   10800    135.58057   -1234.5658    132611.21   -34045.469    2560.6306     -36606.1    35.321768    240.22329 
   10850    139.26854    -1059.464    132563.31   -34013.817    2630.2831     -36644.1    35.523826    246.75769 
   10900    139.04627     -1167.84     132601.9   -33963.857    2626.0851   -36589.942    35.827458    246.36385 
   10950    140.12942   -1069.7758    132633.43   -33988.384    2646.5421   -36634.926    35.890942      248.283 
   11000    139.33559   -1030.0092    132733.52   -34040.127    2631.5495   -36671.676    35.876241    246.87649 
   11050    138.02887   -1219.1625    132746.05   -34002.208    2606.8701   -36609.078    36.056817    244.56121 
   11100    141.52462   -889.25703    132785.18   -34032.302    2672.8924   -36705.195    36.300513    250.75504 
   11150    139.10871   -1130.0682    132727.87   -34045.664    2627.2644   -36672.928    36.470426    246.47449 
   11200    138.62328    -1072.105    132697.32   -34052.119    2618.0964   -36670.215    36.748229     245.6144 
   11250    136.64962   -1075.1117    132708.23   -34047.518    2580.8211   -36628.339    36.756394    242.11745 
   11300    141.39333   -1012.1323    132857.11   -34059.145    2670.4127   -36729.558    36.873885    250.52241 
   11350    139.33121   -1143.8435    132852.98   -34001.008    2631.4667   -36632.474    37.044878    246.86872 
   11400    142.18089   -1194.7004    132809.91   -33957.624     2685.287   -36642.911    37.100733    251.91783 
   11450    142.26835   -1232.7759    132802.58   -33936.885    2686.9388   -36623.824    37.305578    252.07279 
   11500    139.37073   -1530.3208    132752.88   -33989.878     2632.213   -36622.091      37.3573    246.93874 
   11550    139.49168   -1246.0842    132670.45   -33986.794    2634.4974   -36621.292    37.440338    247.15304 
   11600    139.77986   -1164.8923    132673.25   -34002.398      2639.94   -36642.338    37.629016    247.66364 
   11650    140.93641   -1272.1765    132672.49    -33993.67    2661.7832   -36655.453    37.837512    249.71284 
   11700    138.59209   -983.09775    132695.67   -34065.934    2617.5073   -36683.442    37.985376    245.55913 
   11750    138.79774   -855.30619    132790.84   -34040.951    2621.3913   -36662.342    38.081307    245.92351 
   11800    138.89992   -1011.7359    132847.29   -34034.905    2623.3213   -36658.227    38.106104    246.10457 
   11850     140.2389   -1530.3104    132841.18   -34062.268    2648.6097   -36710.878    38.328289    248.47698 
   11900    139.17836   -1299.5989    132794.95   -34054.997    2628.5798   -36683.576    38.648479    246.59789 
   11950    139.40277   -1228.8684    132825.15   -34054.084    2632.8181   -36686.902    38.678651     246.9955 
   12000    136.31783   -1208.8332    132860.91   -34052.345    2574.5547     -36626.9    38.922467    241.52958 
   12050    139.91471    -1211.761    132906.12   -34029.105    2642.4869   -36671.592    39.224345    247.90257 
   12100    138.50339   -1422.4771    132897.86   -34043.197    2615.8322   -36659.029    39.432726    245.40198 
   12150    139.77084   -1224.3003    132883.11   -34053.818    2639.7698   -36693.588    39.687792    247.64767 
   12200    138.77042   -1118.2965     132858.7   -34055.845    2620.8754    -36676.72    39.913738    245.87511 
   12250    139.75126   -1147.3021    132823.54   -34025.213    2639.3999   -36664.613    39.951726    247.61297 
   12300    136.94067   -1141.6485    132885.99   -34027.461     2586.318   -36613.779    40.173675    242.63314 
   12350    141.14592   -1003.8098    132885.25   -34003.592      2665.74   -36669.332    40.143185    250.08404 
   12400    140.03752   -1177.8976    132976.54   -34021.083    2644.8063   -36665.889    40.356975    248.12016 
   12450    143.53262   -1212.8522    133008.37   -33949.931    2710.8163   -36660.748    40.644997    254.31284 
   12500    143.23617   -1368.5222    132897.57    -33929.53    2705.2175   -36634.747    40.928341    253.78758 
   12550    141.20726   -1589.6515    132865.85   -33923.902    2666.8985   -36590.801    41.183092    250.19272 
   12600    144.24278   -1296.8604    132832.36   -33874.896    2724.2286   -36599.124    41.506882     255.5711 
   12650    141.22016   -1320.0554    132823.57   -33890.099    2667.1422   -36557.241     41.61183    250.21558 
   12700    143.64433   -1120.0004     132845.2   -33806.494    2712.9261    -36519.42    41.832281    254.51077 
   12750    143.65511   -1274.0833    132824.29   -33841.136    2713.1297   -36554.266    42.085818    254.52986 
   12800     142.9609    -1359.733    132742.27    -33820.14    2700.0185   -36520.158    42.275576    253.29985 
   12850    139.78526   -1119.7028    132701.54   -33882.444    2640.0421   -36522.486    42.379918    247.67321 
   12900    141.97053   -1258.8093    132717.57   -33919.023    2681.3141   -36600.338    42.690612    251.54511 
   12950    143.28044   -1279.4608    132771.78   -33877.777    2706.0534   -36583.831    42.869026    253.86601 
   13000    141.51286   -1317.2331    132817.23   -33902.488    2672.6702   -36575.158    43.097839    250.73419 
   13050    141.32971   -1233.8422    132891.95   -33922.979    2669.2112    -36592.19     43.25419    250.40968 
   13100    141.24822     -1255.81    132905.08   -33958.362    2667.6721   -36626.035    43.318105     250.2653 
   13150    139.87064    -1245.593    132808.14   -33957.288    2641.6547   -36598.943    43.433823     247.8245 
   13200      139.342   -1170.9255    132789.12   -33934.241    2631.6705   -36565.912    43.627878    246.88784 
   13250    144.54764   -1350.6006    132787.59   -33951.574    2729.9864   -36681.561    43.748923    256.11126 
   13300    140.52818   -1167.2525    132778.03   -33948.133    2654.0732   -36602.206    43.887509    248.98953 
   13350    141.63429   -1327.0639    132773.92   -33972.325    2674.9637   -36647.289    44.092467    250.94935 
   13400    142.12598   -1142.5497    132764.31   -33963.268    2684.2499   -36647.518    44.060118    251.82053 
   13450    142.08112   -1283.6112    132778.14   -34019.827    2683.4026   -36703.229    43.898707    251.74105 
   13500     140.7202   -1268.5298    132775.93   -34066.367    2657.6998   -36724.067     43.84245    249.32976 
   13550    140.90451   -1236.3777     132765.5   -34027.565    2661.1808   -36688.745      43.7495    249.65632 
   13600    137.95363   -1241.3655    132730.58   -34013.131    2605.4491    -36618.58    43.866966    244.42791 
   13650    140.88785   -1076.6391    132749.44   -34071.174     2660.866    -36732.04    44.095466    249.62679 
   13700    140.84261   -1277.9903    132757.11   -34034.931    2660.0116   -36694.942    44.558118    249.54663 
   13750     138.5339    -1131.597    132723.59     -34067.6    2616.4084   -36684.009    44.557266    245.45604 
   13800    137.98739   -1261.4823    132644.44   -34067.527    2606.0868   -36673.614    44.726755    244.48773 
   13850    141.10459   -854.40952    132633.06    -34045.76    2664.9595    -36710.72    44.803373    250.01081 
   13900    138.06625    -1046.867    132707.82   -34052.471    2607.5762   -36660.047    44.889339    244.62745 
   13950     140.0186   -1398.9199    132732.95   -34093.154     2644.449   -36737.603    44.990161    248.08665 
   14000     139.2116   -1236.3693    132743.09    -34143.84    2629.2076   -36773.047    45.117174    246.65679 
   14050    138.31068   -1252.2166     132753.1   -34159.142    2612.1926   -36771.334    45.160956    245.06054 
   14100     135.8884    -1197.451    132777.75   -34133.331    2566.4443   -36699.776    45.344794    240.76871 
   14150    138.78399   -1251.1883    132822.96   -34109.713    2621.1317   -36730.845    45.461871    245.89915 
   14200    138.93991   -1249.2899    132801.32   -34063.356    2624.0765   -36687.433     45.73838    246.17542 
   14250    137.86061   -1049.3938    132793.72   -34038.162    2603.6923   -36641.855    45.839025    244.26309 
   14300    142.33964   -1128.5789    132744.91   -34043.352    2688.2852   -36731.637    46.074235     252.1991 
   14350    139.59437    -1127.604    132714.16   -34051.303    2636.4368    -36687.74    46.174913    247.33499 
   14400    142.16038   -1136.2632    132749.38   -34006.698    2684.8995   -36691.598    46.314814    251.88147 
   14450    138.29892    -1087.703    132755.98   -34044.337    2611.9704   -36656.307    46.460539    245.03969 
   14500    140.27106   -962.18325    132771.18    -34073.88     2649.217   -36723.097    46.680952    248.53395 
   14550    138.34704   -1156.0383    132744.88   -34035.378    2612.8793   -36648.258    46.640356    245.12496 
   14600    136.26497   -1314.0666    132657.85   -34087.799    2573.5564   -36661.356    46.702597    241.43592 
   14650    138.26473   -1378.3909    132614.53   -34071.934    2611.3247   -36683.259    46.847955    244.97912 
   14700    141.19141   -1142.3236    132595.13   -34029.445    2666.5992   -36696.044    47.062779    250.16464 
   14750    137.87476   -1206.4519    132651.87   -34042.803    2603.9596   -36646.762    47.427257    244.28816 
   14800    141.74336   -1229.9716    132620.21   -34038.514    2677.0236   -36715.538      47.5848     251.1426 
   14850    137.72232   -1421.7731    132567.86   -34119.214    2601.0805   -36720.294    47.665082    244.01806 
   14900     140.8001   -1275.2321    132571.56   -34046.547    2659.2088   -36705.755    48.101965    249.47132 
   14950    137.73473   -1222.7469    132534.26   -34131.155    2601.3149    -36732.47    48.411842    244.04006 
   15000    137.08598   -1183.7292    132585.02   -34091.771    2589.0623   -36680.834    48.627017    242.89059 
   15050    137.98041   -1320.1064    132523.94   -34092.129     2605.955   -36698.084     48.83424    244.47536 
   15100    139.54916    -1202.623    132553.54   -34026.459     2635.583   -36662.042    49.057909    247.25489 
   15150    141.38506   -1134.0977    132515.51   -34032.648    2670.2566   -36702.905    49.086076    250.50776 
   15200    138.91584   -1012.8027    132418.35   -34053.626    2623.6218   -36677.248    49.291402    246.13276 
   15250     137.0459   -1215.4849    132465.26   -34105.536    2588.3053   -36693.842    49.436697    242.81958 
   15300    142.04383   -1029.9262     132545.5   -34100.922    2682.6983    -36783.62    49.585713    251.67497 
   15350    137.99304   -1100.1772    132578.85   -34108.995    2606.1935   -36715.188    49.642839    244.49774 
   15400    140.08441   -1091.0325    132626.64   -34091.283     2645.692   -36736.975    49.829156    248.20326 
   15450     140.7707   -1089.0128    132593.28    -34104.95    2658.6535   -36763.603    50.050486    249.41923 
   15500    139.89902   -1336.9563    132602.41   -34084.303    2642.1905   -36726.494    50.078192    247.87477 
   15550    139.28184   -1281.3768    132602.23   -34111.287    2630.5344   -36741.821     49.99263    246.78126 
   15600    138.75829   -1151.4125    132594.65   -34107.062    2620.6464   -36727.709     49.99841    245.85362 
   15650    137.29299   -1241.2817    132569.12   -34109.477    2592.9721   -36702.449    50.129596    243.25738 
   15700     136.9274   -1125.0338    132596.31   -34107.406    2586.0674   -36693.473    50.339143    242.60962 
   15750    139.44215   -1137.5288    132689.44   -34076.127     2633.562   -36709.689    50.381348    247.06529 
   15800    139.93257   -1081.3391    132756.42    -34055.25    2642.8242   -36698.074    50.655577    247.93422 
   15850    139.31416   -1236.6907    132841.85   -34071.851    2631.1448   -36702.996    50.742726    246.83852 
   15900    140.72936   -1131.5394    132875.96   -34079.647    2657.8728    -36737.52    50.889392    249.34598 
   15950     140.1716   -1061.4517    132914.76   -34027.938    2647.3387   -36675.276     51.15374    248.35774 
   16000    140.26128   -1430.3618    132958.67   -34048.318    2649.0323   -36697.351      51.1323    248.51662 
   16050    141.37728   -1148.0479    132923.79   -34032.851    2670.1095    -36702.96    51.392543    250.49396 
   16100    139.61672   -1328.7438    132862.43   -34076.757     2636.859   -36713.616    51.614824     247.3746 
   16150    142.09203   -1213.8631    132806.28   -34052.617    2683.6086   -36736.226    51.723635    251.76037 
   16200    140.51166   -1084.1052    132904.13   -34054.841    2653.7611   -36708.602    52.007227    248.96025 
   16250    140.27169    -1048.484    132979.75   -34072.392     2649.229   -36721.621    52.160065    248.53508 
   16300    139.62515   -1199.2936    133041.85   -34052.867    2637.0182   -36689.885     52.38263    247.38953 
   16350    139.48455   -1477.0633    132959.82    -34073.64    2634.3627   -36708.003    52.362565    247.14041 
   16400    141.04031   -1184.6507    132858.65   -34075.913    2663.7454   -36739.658    52.650552    249.89692 
   16450    136.63283   -1004.6035     132869.7   -34090.701     2580.504   -36671.205     52.88527     242.0877 
   16500    140.96288   -1362.0517    132828.12   -34040.142    2662.2831   -36702.425    53.029949    249.75973 
   16550     138.7637   -1151.2131    132784.03   -34043.315    2620.7485   -36664.064    53.302921     245.8632 
   16600    139.19271    -1256.587    132758.81   -34060.756    2628.8509   -36689.606    53.513339    246.62332 
   16650    142.49002   -947.25144    132733.79   -34026.265    2691.1252    -36717.39    53.592218    252.46553 
   16700    142.16061   -1070.8054    132758.64   -34012.554    2684.9039   -36697.458    53.877945    251.88189 
   16750    143.75352   -1047.7654    132760.96   -34009.396    2714.9882   -36724.384    54.147023    254.70422 
   16800    140.09053   -1215.7724    132640.78   -34046.175    2645.8075   -36691.982    54.240025    248.21409 
   16850    140.89825   -1099.5771    132597.96   -34047.475    2661.0624   -36708.538    54.273974    249.64521 
   16900    138.80527   -951.50719    132668.08   -34073.182    2621.5335   -36694.716    54.594996    245.93685 
   16950    140.26851   -1285.9467    132689.04     -34051.5    2649.1689   -36700.669     54.80494    248.52943 
   17000    141.93002   -1215.9963    132581.09   -34087.453    2680.5489   -36768.002    55.099958    251.47332 
   17050     139.4293   -1159.0964    132530.09   -34041.181    2633.3193     -36674.5    55.332913    247.04252 
   17100    142.19637   -1066.1052    132623.12   -34047.535    2685.5793   -36733.114    55.689029    251.94525 
   17150    137.62912   -1293.8518    132713.54   -34097.189    2599.3204   -36696.509    55.816285    243.85294 
   17200    138.96729   -1172.9237    132732.84   -34079.229    2624.5935   -36703.822    56.078845    246.22392 
   17250    137.16804   -910.11193    132755.04    -34089.88    2590.6121   -36680.492    56.057089    243.03598 
   17300    140.59151   -989.09855    132832.44   -34108.727    2655.2692   -36763.997    56.208888    249.10173 
   17350    136.13483   -1019.9921    132838.58   -34091.098    2571.0986   -36662.197    56.533825    241.20534 
   17400    140.36289   -1065.3527    132888.91   -34084.158    2650.9514   -36735.109    56.718109    248.69666 
   17450    141.41388   -1053.1681    132940.72   -34065.896    2670.8008   -36736.696    56.895021    250.55882 
   17500     140.0683   -1029.2903     133043.8   -34039.909    2645.3878   -36685.297    56.846377    248.17471 
   17550    142.18474   -1224.1478    133032.38   -33999.404    2685.3597   -36684.764    56.792762    251.92465 
   17600    140.55496   -875.45798    133040.42   -33990.507    2654.5789   -36645.086    56.879179    249.03697 
   17650    139.97053   -1167.7062     133034.4   -33967.741    2643.5412   -36611.282    57.003487    248.00148 
   17700    139.66854     -1308.34    132938.31   -34009.067    2637.8377   -36646.905    57.008675    247.46641 
   17750    138.69143   -1216.9342    132834.83    -33971.52    2619.3836   -36590.903    57.088854    245.73515 
   17800    141.29583   -1044.4082    132835.73   -34010.439    2668.5713    -36679.01    57.506882    250.34966 
   17850    140.04921   -1226.5362    132773.22   -34051.202    2645.0272   -36696.229    57.630714    248.14088 
   17900    140.60312   -1432.6433    132835.86   -34107.757    2655.4886   -36763.246    57.842047    249.12231 
   17950      141.306   -1148.2418    132761.94   -34071.266    2668.7634   -36740.029    58.052127    250.36768 
   18000    140.92595   -1033.4848    132804.82   -34104.148    2661.5856   -36765.734      58.3534     249.6943 
   18050    138.65023   -1133.6846     132785.5   -34112.787    2618.6053   -36731.392    58.480473    245.66214 
   18100    136.04486   -1416.2482       132829   -34057.068    2569.3994   -36626.468    58.806159    241.04593 
   18150    137.49438   -1090.4906    132855.73   -34034.462    2596.7756   -36631.237    59.082486     243.6142 
   18200    136.68805   -997.58455    132970.57   -34057.034    2581.5468   -36638.581    59.361558    242.18553 
   18250    141.15725    -1288.739    132998.39   -34004.846     2665.954     -36670.8    59.604714    250.10412 
   18300    136.95608   -1280.2105    132874.95   -34039.492    2586.6091   -36626.101    59.648173    242.66044 
   18350    138.84228   -1176.1337    132826.69   -34021.136    2622.2326   -36643.368    59.838062    246.00243 
   18400    135.92377   -1167.9445    132787.05   -34020.289    2567.1124   -36587.402    60.222977    240.83138 
   18450    138.10272   -1380.9229    132739.49   -33995.447     2608.265   -36603.712    60.390681    244.69207 
   18500      140.095   -1305.0854    132706.71   -33988.805     2645.892   -36634.697    60.519178    248.22201 
   18550    137.60065   -1260.1312    132728.96    -33977.59    2598.7827   -36576.372     60.91259     243.8025 
   18600    139.22189   -1003.8342    132731.92   -33963.275    2629.4021   -36592.677      60.9274    246.67503 
   18650    144.17366   -1009.5676    132689.51   -33903.529    2722.9232   -36626.452    61.161978    255.44863 
   18700     138.7267   -1041.8176    132756.59   -33905.047    2620.0496   -36525.097    61.137824    245.79764 
   18750    142.07562   -1218.4282    132780.38   -33954.153    2683.2988   -36637.452    61.299042     251.7313 
   18800    141.29549   -1033.7652    132832.84   -33938.658    2668.5649   -36607.223    61.259228    250.34906 
   18850    142.45704   -1133.4389    132855.46   -33937.506    2690.5024   -36628.009    61.362432     252.4071 
   18900    139.12506   -1301.4743    132782.85   -33923.414    2627.5733   -36550.987    61.526557    246.50347 
   18950     139.4917    -1314.711    132786.84    -33935.99    2634.4979   -36570.487    61.631653    247.15309 
   19000    140.40128   -1042.0847    132799.26   -33941.681    2651.6765   -36593.357    61.820411    248.76468 
   19050    138.72173   -1211.8936     132796.1   -33960.962    2619.9559   -36580.917    62.094899    245.78884 
   19100    140.68561   -1153.9397    132814.76   -33900.077    2657.0464   -36557.123    62.448624    249.26846 
   19150    140.69118   -1362.7944    132840.56   -33864.335    2657.1517   -36521.487    62.564202    249.27833 
   19200    142.69181   -1383.3645    132826.36   -33841.337    2694.9364   -36536.274    62.714239    252.82308 
   19250    141.78368     -1733.61    132710.84    -33840.94    2677.7851   -36518.725    63.065063    251.21404 
   19300    141.15719    -1292.868    132537.47   -33834.042    2665.9529   -36499.995    63.235941    250.10402 
   19350     144.2868   -1335.6028     132511.1   -33851.975      2725.06   -36577.035    63.485042    255.64909 
   19400    141.98634   -1153.1218    132559.18   -33894.665    2681.6126   -36576.277    63.845243    251.57312 
   19450     141.7359   -1132.0016    132626.11   -33941.373    2676.8826   -36618.255    63.912164    251.12937 
   19500    140.91602   -1088.2837    132690.63   -33949.392    2661.3982    -36610.79    63.934484    249.67671 
   19550    139.11294   -1131.0809    132793.99   -33940.495    2627.3444   -36567.839    64.093916    246.48199 
   19600    140.48738   -926.93434    132844.65   -33984.011    2653.3026   -36637.314    64.208887    248.91723 
   19650    142.90196   -1327.2001     132879.6   -33953.916    2698.9054   -36652.821    64.473619    253.19542 
   19700    140.19886   -1064.6202    132878.62    -33996.08    2647.8535   -36643.933     64.55705    248.40604 
   19750    142.15109   -898.06692    132895.45   -33993.856    2684.7241    -36678.58    64.664791    251.86502 
   19800    138.00815   -821.69635    133058.58   -34017.482    2606.4789   -36623.961    64.744651    244.52451 
   19850    137.26675    -1268.119    133081.51   -34020.535    2592.4765   -36613.011    64.862691    243.21089 
   19900    136.87957    -1054.578    133039.46    -34015.17     2585.164   -36600.334    64.894023    242.52487 
   19950    140.34162   -880.82113    133131.41   -33995.965    2650.5497   -36646.515    65.040952    248.65898 
   20000    137.31591   -1090.0653    133215.12   -34004.508    2593.4049   -36597.913    65.075417    243.29798 
   20050    141.57496    -1162.759    133305.17   -34031.962    2673.8431   -36705.805    65.062332    250.84422 
   20100    139.25777   -1165.0889    133278.56   -34072.637    2630.0797   -36702.717    65.131304     246.7386 
   20150     137.3694   -1036.5698    133290.46   -34048.028    2594.4152   -36642.443    65.433769    243.39276 
   20200    138.22834   -1163.4528    133342.96   -34058.848    2610.6375   -36669.485    65.405348    244.91465 
   20250    138.28688   -1174.1395    133356.22   -34076.808     2611.743   -36688.551    65.645882    245.01836 
   20300    137.79031    -1263.084    133379.36    -34085.67    2602.3646   -36688.035    65.785315    244.13854 
   20350    136.89722   -1330.4085    133392.33   -34056.653    2585.4974    -36642.15    65.742583    242.55615 
   20400    138.13181    -1277.791    133343.95   -34035.437    2608.8144   -36644.252     65.76955    244.74361 
   20450    140.79564   -1266.5309    133340.41   -34052.472    2659.1245   -36711.597      65.8316    249.46341 
   20500    142.30971   -1172.6058    133387.39   -33999.243    2687.7198   -36686.963    65.970011    252.14606 
   20550    138.73987   -1452.2467    133433.85   -33987.108    2620.2983   -36607.406    66.189724    245.82097 
   20600    140.13301   -1365.3193    133306.63   -34000.167    2646.6098   -36646.777    66.253677    248.28936 
   20650    137.94096    -1241.637    133185.67   -34037.452    2605.2099   -36642.662    66.223672    244.40546 
   20700     140.8441    -1173.395    133164.46   -34011.536    2660.0398   -36671.576    66.394858    249.54929 
   20750     141.6749   -1176.7906    133193.39   -33995.564    2675.7307   -36671.294    66.707105     251.0213 
   20800    137.35392   -1159.6862    133245.95    -34001.34    2594.1229   -36595.463    66.889653    243.36534 
   20850    140.04767    -1164.155    133226.72   -33996.453     2644.998   -36641.451    67.132656    248.13815 
   20900    141.59411   -1097.3962    133275.03    -33945.84    2674.2048   -36620.044    67.560106    250.87816 
   20950    139.54207   -1342.8497    133279.41   -33966.732    2635.4491   -36602.182    67.731346    247.24233 
   21000    141.74002   -1097.5809     133243.8   -33964.201    2676.9605   -36641.162    67.696955    251.13668 
   21050    140.18248   -1065.3168    133364.04   -33980.361    2647.5441   -36627.905    67.866648      248.377 
   21100    138.79978    -1248.451    133364.49   -33974.695    2621.4299   -36596.125    68.056487    245.92713 
   21150    142.16979   -1256.6216    133341.09   -33965.683    2685.0774    -36650.76    68.116885    251.89816 
   21200    140.62484   -1502.3115    133238.91   -33972.882    2655.8988   -36628.781    67.890449     249.1608 
   21250     143.6822   -1474.4649    133202.44   -33950.591    2713.6413   -36664.233    67.834153    254.57785 
   21300    141.43469   -1172.3008    133195.46   -33932.778     2671.194   -36603.972    67.986462     250.5957 
   21350    140.94061   -1162.6864    133194.34   -33967.595    2661.8625   -36629.458    68.184934    249.72028 
   21400    139.35685   -1206.0323    133152.44   -33986.474    2631.9509   -36618.425    68.268731    246.91415 
   21450    138.32349   -1137.1467    133240.84   -34026.869    2612.4344   -36639.304    68.451339    245.08322 
   21500    136.43733   -1313.6251     133330.3   -34090.995    2576.8117   -36667.807    68.604185    241.74131 
   21550     142.2677   -1217.8834    133349.76   -34011.596    2686.9265   -36698.523    68.738411    252.07163 
   21600    137.18129   -1244.7817    133436.09   -34050.739    2590.8624   -36641.601    68.814333    243.05946 
   21650    139.28805    -1328.771    133437.66   -34028.216    2630.6516   -36658.867    69.033933    246.79225 
   21700    138.93543   -1319.7599    133357.69   -34022.471    2623.9917   -36646.463    69.163093    246.16746 
   21750    141.94049   -1344.7881    133341.32   -34000.349    2680.7466   -36681.096    69.328728    251.49187 
   21800    141.08165    -1203.695     133341.7   -34021.524    2664.5262    -36686.05    69.369716    249.97017 
   21850    143.48295   -1394.2056    133393.37   -33959.279    2709.8782   -36669.158    69.500893    254.22483 
   21900    142.95019   -1305.9366    133276.18   -33942.687    2699.8162   -36642.503    69.641936    253.28087 
   21950    141.63301    -1393.576    133183.46   -33931.226    2674.9395   -36606.166    69.845682    250.94709 
   22000    140.46835   -1077.4287    133162.49   -33982.491    2652.9431   -36635.434    69.847951    248.88351 
   22050     140.0212   -1107.1238    133237.13   -33973.648    2644.4982   -36618.147     70.14484    248.09126 
   22100    141.06412   -1063.6265    133269.91   -34005.298    2664.1951   -36669.494    70.370468    249.93911 
   22150    141.13247   -1144.4753    133274.98   -33996.403     2665.486   -36661.889    70.852131    250.06021 
   22200    143.24793   -965.31948    133300.76   -33974.797    2705.4395   -36680.237    70.745892    253.80842 
   22250    136.08223   -1298.2918    133417.83   -34025.444    2570.1051   -36595.549    70.801028    241.11214 
   22300    140.32755   -1175.3264    133381.07   -34059.843     2650.284   -36710.127    70.994358    248.63404 
   22350     141.7954   -1198.8336    133462.88   -34041.359    2678.0064   -36719.366    71.223151     251.2348 
   22400    138.23858   -1299.8971    133407.01   -34064.883    2610.8309   -36675.714    71.366915    244.93279 
   22450    140.64392   -1188.7361    133437.57   -34015.781    2656.2591   -36672.041    71.468129     249.1946 
   22500    142.07367   -1268.8184    133403.41   -33990.996    2683.2618   -36674.258    71.476397    251.72784 
   22550    142.35661    -1235.642    133443.08   -34036.029    2688.6057   -36724.635    71.770319    252.22916 
   22600    138.01948   -1157.8735    133392.52   -34072.896    2606.6928   -36679.589    71.946258    244.54458 
   22650    140.37213   -1137.3154    133363.46   -34058.649     2651.126   -36709.775    71.918722    248.71304 
   22700    139.93592   -1406.8582    133340.18   -34060.935    2642.8875   -36703.822    72.205376    247.94016 
   22750    139.90734   -942.01474    133352.04   -34045.119    2642.3477   -36687.467    72.262304    247.88951 
   22800    138.45421   -882.22388    133395.23   -34045.414    2614.9033   -36660.317    72.519977    245.31484 
   22850    140.25318   -1317.4887    133387.41   -34088.648    2648.8794   -36737.528    72.646979    248.50228 
   22900     138.0772   -1289.3408    133292.26   -34114.428     2607.783   -36722.211    72.925345    244.64685 
   22950     137.7394   -1221.6071    133152.49    -34143.01    2601.4032   -36744.413    72.990702    244.04834 
   23000    138.37851   -1063.6224     133139.9   -34141.215    2613.4736   -36754.688    73.280119    245.18071 
   23050    140.95444   -1046.2301    133077.05   -34082.375    2662.1238   -36744.498    73.272082    249.74479 
   23100    139.85275   -1243.6042    133088.02   -34091.177    2641.3168   -36732.494    73.221281     247.7928 
   23150    141.50418   -1305.2287    133064.04   -34143.553    2672.5062   -36816.059    73.309483    250.71881 
   23200    135.89338   -1137.6343    133005.57   -34148.272    2566.5384    -36714.81    73.425378    240.77753 
   23250    138.58704   -911.45362    133070.79   -34079.084    2617.4119   -36696.496    73.691844    245.55018 
   23300    138.73668   -963.56917    133114.44   -34133.397    2620.2381   -36753.635    73.955092    245.81532 
   23350      136.987   -1296.7808    133025.32   -34106.078    2587.1929   -36693.271    74.008873    242.71521 
   23400    140.06323   -1005.8714    133017.08   -34088.768     2645.292    -36734.06    74.134063    248.16573 
   23450    141.35881   -1207.4285    132981.97   -34026.661    2669.7607   -36696.422     74.38476    250.46124 
   23500    142.14591   -1281.9751    132920.62   -34005.209    2684.6264   -36689.835    74.349408    251.85585 
   23550     141.4158   -1114.6573    132965.77   -33946.259    2670.8371   -36617.096    74.442193    250.56222 
   23600    141.15593   -1165.7924    132938.49   -33980.739    2665.9291   -36646.668    74.809764    250.10178 
   23650    140.52322   -1062.1379    132969.82   -34002.928    2653.9795   -36656.907    74.846416    248.98074 
   23700    144.06445   -1061.6138    132978.03   -33995.862    2720.8605   -36716.722    74.886354    255.25513 
   23750    138.74764   -1105.9513    133015.19   -34119.688    2620.4452   -36740.133    75.165778    245.83475 
   23800    140.80773   -986.22505    133037.61   -34126.038    2659.3529   -36785.391     75.45865    249.48484 
   23850    134.59597   -1321.9005    132983.96   -34195.951    2542.0351   -36737.986    75.877807    238.47877 
   23900    139.99751    -1184.584    133012.97   -34148.611    2644.0506   -36792.662    76.031205    248.04927 
   23950    140.76751   -1166.3883     132973.1   -34153.983    2658.5933   -36812.576    76.114924    249.41358 
   24000    141.26746   -1148.6849    132945.32   -34110.129    2668.0355   -36778.164    76.114453    250.29939 
   24050    138.76622   -1084.1269    132933.08   -34076.455     2620.796   -36697.251     76.19044    245.86766 
   24100    144.23306   -1030.4126    132980.12   -34023.005    2724.0451    -36747.05    76.411791    255.55388 
   24150    142.11833   -1181.4932    132920.03   -34020.156    2684.1054   -36704.261    76.754675    251.80697 
   24200    143.42348   -1217.0359    132851.36   -34033.679    2708.7549   -36742.434    76.671061    254.11945 
   24250    139.04291   -1142.4081    132813.06   -34076.201    2626.0217   -36702.222    76.603743     246.3579 
   24300    139.76886    -1242.408     132808.8   -34115.246    2639.7323   -36754.978    76.953479    247.64415 
   24350    140.29501   -1090.8811     132819.7   -34156.401    2649.6694    -36806.07    76.924717    248.57639 
   24400    136.76982   -1158.6153    132901.22   -34204.879    2583.0912    -36787.97    77.148086    242.33042 
   24450    137.96164   -1483.2882    132917.09   -34140.083    2605.6004   -36745.684    77.358317    244.44209 
   24500    138.77983   -1145.7511    132832.45   -34120.273    2621.0531   -36741.326    77.405834    245.89178 
   24550    133.58962   -1200.7632     132841.9   -34167.897    2523.0287   -36690.926    77.659887     236.6957 
   24600    138.09202   -1293.4984    132778.66   -34193.574    2608.0629   -36801.637    77.345402    244.67312 
   24650    140.29097   -1193.3843    132869.22   -34155.162    2649.5931   -36804.756    77.548917    248.56923 
   24700    135.14756    -1247.798    132872.86   -34186.595    2552.4526   -36739.047    77.673145    239.45608 
   24750     140.5449    -1181.861    132849.45   -34160.245     2654.389   -36814.634    77.740656    249.01916 
   24800    141.03366   -1157.1194    132857.19   -34072.172    2663.6199   -36735.792    77.796602    249.88514 
   24850    139.54135   -1230.9891    132840.54   -34163.225    2635.4355    -36798.66    77.732326    247.24105 
   24900    136.19852   -1180.4252    132804.85   -34204.945    2572.3014   -36777.247    78.108554    241.31818 
   24950    137.66794   -1399.1574    132751.67   -34234.372    2600.0534   -36834.425    78.232231    243.92171 
   25000    135.98845   -1298.2294    132795.22   -34272.433    2568.3339   -36840.767    78.504289    240.94597 
   25050     136.5801   -1327.3258    132856.58   -34269.639     2579.508   -36849.147    78.626568    241.99426 
   25100    137.09913   -1359.3446    132836.77   -34306.637    2589.3108   -36895.948    78.807808     242.9139 
   25150    134.30999   -1281.3852     132773.5   -34288.983    2536.6339   -36825.617    78.908034    237.97206 
   25200    136.41439   -1314.0707     132807.7   -34249.401    2576.3784   -36825.779    78.908368    241.70066 
   25250    137.73022   -1305.2359    132845.15    -34256.63    2601.2297    -36857.86    79.099735    244.03207 
   25300    139.59748   -1222.5408    132905.29   -34227.837    2636.4957   -36864.333    79.155725    247.34051 
   25350    140.91312   -1370.0405    132954.04   -34228.544    2661.3433   -36889.888    79.311735    249.67157 
   25400    137.18119   -975.10768    133005.36   -34174.642    2590.8605   -36765.503    79.728262    243.05928 
   25450     136.3702   -1056.4467    133087.78   -34148.202    2575.5439   -36723.746     80.09366    241.62237 
   25500     137.1498   -1198.8008    133190.66   -34160.534    2590.2677   -36750.802    80.356646    243.00368 
   25550    138.12537   -1189.6587    133201.35   -34086.666    2608.6927   -36695.359    80.479486     244.7322 
   25600    142.78806   -1108.5253    133270.08   -34066.023    2696.7542   -36762.777    80.606373    252.99361 
   25650    140.90762   -1364.1793    133278.57   -34020.321    2661.2394    -36681.56    80.707929    249.66182 
   25700    141.27364   -1316.5279    133295.19   -34044.393    2668.1522   -36712.546    80.946491    250.31034 
   25750    140.83375   -1116.0556    133370.14   -34029.132    2659.8444   -36688.977    81.298743    249.53095 
   25800    139.51308   -1154.9254    133396.75   -33996.824    2634.9015   -36631.726    81.373041    247.19095 
   25850    139.33303   -1049.5272    133420.51   -34001.464     2631.501   -36632.965    81.745488    246.87194 
   25900    140.68619   -989.42211    133482.07   -33963.609    2657.0574   -36620.666     82.26588    249.26949 
   25950    141.30759   -1210.6956    133546.95   -33985.326    2668.7935    -36654.12    82.282416     250.3705 
   26000    138.74754   -1067.4658    133513.54   -33978.318    2620.4433   -36598.761    82.173715    245.83457 
   26050    141.25757   -1177.6775    133541.49   -34016.865    2667.8488   -36684.714    82.271808    250.28187 
   26100    144.41194   -986.29523    133535.71   -33959.104    2727.4234   -36686.528    82.449739    255.87081 
   26150    139.16802   -961.65141    133564.68   -33995.013    2628.3847   -36623.398    82.203876    246.57958 
   26200    142.16977   -1187.7889    133649.11   -33951.148    2685.0769   -36636.225    82.383911    251.89811 
   26250    139.50019   -1459.6326    133540.42   -33973.924    2634.6582   -36608.582    82.317503    247.16812 
   26300    142.57978   -1313.2428    133441.84   -33944.255    2692.8205   -36637.076     82.68258    252.62457 
   26350    139.19112   -1263.1167    133384.32   -33974.863    2628.8209   -36603.684    82.890519    246.62051 
   26400    139.80088   -1287.4977     133364.3   -33998.483     2640.337    -36638.82    83.239005    247.70088 
   26450    140.85009   -1203.7639    133382.05   -33993.023    2660.1528   -36653.176    83.453834    249.55988 
   26500     141.4636   -1439.2293    133390.36   -33968.188    2671.7398   -36639.928    83.649722    250.64691 
   26550    141.52832   -1293.9698    133363.37   -33991.766    2672.9623   -36664.728    83.850191    250.76159 
   26600    139.90901   -1327.0196    133380.75   -33979.838    2642.3793   -36622.218    83.868853    247.89248 
   26650    138.88947   -1262.5133    133376.55   -33971.718    2623.1239   -36594.842    83.951821    246.08605 
   26700    140.67422    -1210.529    133401.02   -34028.242    2656.8313   -36685.073    84.089411    249.24828 
   26750     139.0714   -1408.5196    133367.03   -34071.366    2626.5598   -36697.925    84.281787    246.40839 
   26800    138.97535   -1094.5436    133426.42   -34025.999    2624.7459   -36650.745    84.173718    246.23821 
   26850    140.87085    -940.8645    133492.09   -34060.843     2660.545   -36721.388    84.093813    249.59667 
   26900    140.11035   -1173.9568    133537.78   -34098.443    2646.1819   -36744.625    84.290562    248.24921 
   26950    138.16028   -1094.1403    133575.26   -34002.888     2609.352    -36612.24    84.318705    244.79405 
   27000    142.49658   -1341.8838    133644.14   -34064.426    2691.2493   -36755.676    84.320483    252.47717 
   27050    140.57893   -1293.2322    133713.08   -34066.847    2655.0316   -36721.879    84.717114    249.07944 
   27100    141.33022   -1441.8754    133762.58   -34079.196    2669.2209   -36748.417    85.155391     250.4106 
   27150     139.2008   -1384.1175    133645.38   -34072.654    2629.0038   -36701.658    85.197461    246.63766 
   27200    140.72498   -1223.7835    133575.93   -34141.443    2657.7899   -36799.233    85.147943    249.33821 
   27250     137.4836   -977.04925    133649.59   -34131.651    2596.5721   -36728.223    85.327963    243.59511 
   27300    138.49854   -1054.1459    133743.33   -34087.718    2615.7405   -36703.458    85.347525    245.39338 
   27350    141.88178   -1494.9394    133790.57   -34036.965    2679.6379   -36716.603     85.28794    251.38786 
   27400    141.88581   -1189.9683     133820.1   -34015.026    2679.7138   -36694.739    85.416458    251.39498 
   27450    142.25187   -1109.9521    133806.09   -33956.473    2686.6275   -36643.101    85.612325    252.04359 
   27500    143.95782   -1385.6651    133783.64   -33945.211    2718.8467   -36664.058    85.497614     255.0662 
   27550    143.17716   -1110.8043    133854.19   -33946.215    2704.1028   -36650.318    85.583321    253.68302 
   27600    140.10863   -1330.3078    133993.18   -33908.478    2646.1493   -36554.627    85.754978    248.24616 
   27650    145.60461   -1223.0715    134009.15   -33881.667    2749.9487   -36631.615     86.08227    257.98401 
   27700    145.52178   -1268.4367     134080.8   -33872.297    2748.3844   -36620.681    86.131557    257.83725 
   27750    142.33736   -1615.9436     134088.4   -33895.378    2688.2421    -36583.62    86.458054    252.19505 
   27800    142.63308   -1488.7492    134040.37    -33882.86    2693.8272   -36576.687    86.650361    252.71902 
   27850    140.82522   -1313.7852    134054.88   -33914.022    2659.6832   -36573.705    86.884503    249.51582 
   27900    139.21936    -1319.843    134014.01   -33936.792    2629.3543   -36566.147    87.109503    246.67055 
   27950    141.92345   -1355.3098    134020.67   -33918.323    2680.4249   -36598.748    87.293483    251.46169 
   28000    141.89325    -1390.537     133982.3   -33936.801    2679.8544   -36616.656    87.352021    251.40817 
   28050    138.61449   -1240.5733    133968.59   -33973.702    2617.9304   -36591.632    87.392212    245.59882 
   28100    140.81244   -1367.7029    133980.65   -33960.434    2659.4418   -36619.876    87.711822    249.49318 
   28150    140.96246   -1287.1177    133918.49   -33946.179    2662.2752   -36608.454    87.997251      249.759 
   28200    138.42247   -1267.7999     133900.8   -33911.777    2614.3039    -36526.08    88.305798    245.25861 
   28250    139.08899   -1066.4796    133875.57   -33956.476    2626.8921   -36583.368    88.707892    246.43956 
   28300    138.58357   -1269.3729    133777.26   -34010.336    2617.3464   -36627.683     89.08208    245.54404 
   28350    138.92026   -997.52905    133692.41   -34060.611    2623.7054   -36684.316    89.280885     246.1406 
   28400    136.64171   -1465.0232    133653.46   -34073.246    2580.6717   -36653.918    89.717406    242.10344 
   28450    137.83848   -1411.2145    133588.38    -34060.16    2603.2743   -36663.434    90.133446    244.22388 
   28500    139.55515   -1391.7597    133587.11   -34031.155    2635.6961   -36666.851    90.465089     247.2655 
   28550     140.7184   -1349.2826    133559.91   -34056.936    2657.6657   -36714.602    90.772731    249.32656 
   28600    142.34711   -1257.5547    133481.09   -34004.462    2688.4262   -36692.888    90.817554    252.21232 
   28650     137.3198   -1328.5135    133351.07   -33995.334    2593.4784   -36588.813    91.022672    243.30488 
   28700    140.14047   -1300.2213    133221.86    -34018.98    2646.7508   -36665.731    91.072236    248.30258 
   28750    142.21727   -1304.7191     133205.4   -34015.724    2685.9739   -36701.698    90.976043    251.98227 
   28800    140.41415   -1183.8945    133260.52   -33954.738    2651.9196   -36606.657    90.894229     248.7875 
   28850    138.96235   -1169.8793    133261.42   -34017.182    2624.5003   -36641.682     90.96309    246.21517 
   28900    139.39227   -1115.9252    133323.56   -34052.401      2632.62   -36685.021    91.340598    246.97691 
   28950    138.43312   -1375.4631    133393.67    -34040.32    2614.5051   -36654.825    91.346184    245.27748 
   29000    141.04811    -987.7054    133413.72   -34043.239    2663.8929   -36707.132    91.671809    249.91075 
   29050    141.44832   -1229.8608    133382.23   -34087.193    2671.4513   -36758.645    91.426915    250.61985 
   29100    142.07565   -989.26096    133414.45   -34121.834    2683.2994   -36805.134    91.400527    251.73136 
   29150    139.97069   -1317.5422     133433.6   -34127.164    2643.5441   -36770.708    91.684372    248.00176 
   29200    142.39041   -1071.9606     133463.3   -34095.611    2689.2441   -36784.855    91.730237    252.28905 
   29250    139.79904    -1032.375    133573.07   -34083.001    2640.3023   -36723.303    91.855844    247.69762 
   29300     143.6209   -1157.6915    133553.43   -34036.407    2712.4836   -36748.891    91.841361    254.46925 
   29350    142.62923   -1200.9968    133583.39   -34000.043    2693.7545   -36693.798    91.958219     252.7122 
   29400     139.5756   -1184.7625    133562.34   -34051.553    2636.0824   -36687.636    92.305825    247.30174 
   29450    140.03577    -998.6601    133625.32   -34041.441    2644.7732   -36686.214    92.353547    248.11706 
   29500    140.45599   -1183.5363    133652.33   -34069.905    2652.7098   -36722.615    92.490263    248.86163 
   29550    141.70726   -1295.5369    133678.44   -34055.062    2676.3418   -36731.404    92.941246    251.07863 
   29600    140.88331   -1624.9911    133678.25   -34036.868    2660.7802   -36697.648    93.023311    249.61874 
   29650    138.44993   -1390.4862    133589.67   -34098.245    2614.8225   -36713.067    93.214319    245.30726 
   29700    138.74565   -1325.4538     133545.6   -34100.555    2620.4075   -36720.963    93.238259    245.83122 
   29750     139.7306   -1316.6935    133369.76   -34055.963    2639.0097   -36694.973    93.274691    247.57636 
   29800    140.30142   -1398.8113    133310.81   -34080.311    2649.7905   -36730.101    93.516362    248.58775 
   29850    139.27202   -1429.5374    133181.14   -34093.089    2630.3489   -36723.438    93.841639    246.76385 
   29900    138.60081    -1075.322    133087.29   -34065.919     2617.672   -36683.591    94.075982    245.57458 
   29950    138.83191   -1107.3258    133094.98   -34002.028    2622.0368   -36624.064    94.570359    245.98406 
   30000    140.57424   -1334.5279    133181.57   -34021.899    2654.9432   -36676.842    94.879001    249.07114 
   30050    139.75143   -1079.7538    133104.94   -33989.597    2639.4032       -36629    94.900661    247.61328 
   30100    140.94052   -1340.3143    133130.24   -33987.195    2661.8608   -36649.056    95.107932    249.72011 
   30150    139.66949   -897.32453    133105.33   -34022.374    2637.8555   -36660.229      94.9367    247.46808 
   30200    138.89334   -1187.6802    133096.97   -34035.523     2623.197    -36658.72    94.766578     246.0929 
   30250    137.93151   -1183.4804    133118.84   -34054.071    2605.0315   -36659.102    95.060899    244.38872 
   30300    138.81827   -1257.8249    133062.33     -34024.2     2621.779   -36645.979     95.25824    245.95988 
   30350    139.03557   -1344.7254    132979.56   -33997.049    2625.8831   -36622.932    95.478072     246.3449 
   30400    139.09915   -1330.0644    133007.46   -33935.076    2627.0839    -36562.16    95.541854    246.45756 
   30450    141.24008   -1421.9032    132906.61   -33965.367    2667.5184   -36632.886    95.413412    250.25088 
   30500    140.15872   -1112.1273    132864.32   -33947.299    2647.0954   -36594.394    95.490509    248.33491 
   30550    139.21153   -1033.1622    132911.88   -33925.694    2629.2063   -36554.901    95.451953    246.65667 
   30600    140.92548   -1399.9893    132924.51   -33905.821    2661.5768   -36567.398    95.414331    249.69347 
   30650    141.02144   -1153.3884    132941.72   -33872.096    2663.3892   -36535.485    95.884885     249.8635 
   30700    142.02339   -1153.7154    132973.61    -33868.51    2682.3124   -36550.822    96.296787    251.63876 
   30750     142.0304   -1373.5855    132864.95   -33893.756    2682.4448     -36576.2    96.169019    251.65118 
   30800    139.08814   -1142.7775    132832.54   -33936.527    2626.8761   -36563.403    96.555526    246.43805 
   30850    136.72249   -1269.0486    132933.73   -33977.368    2582.1974   -36559.565    96.594141    242.24657 
   30900     137.7635   -1265.9641    132955.86   -33954.773    2601.8583   -36556.632    96.598067    244.09104 
   30950    139.39017   -1427.4815     132900.7   -33911.295    2632.5803   -36543.875    96.546636    246.97319 
   31000    141.49034   -1113.4399    132862.23   -33919.944    2672.2449   -36592.189    96.677521    250.69429 
   31050    142.57548   -1077.6414    132912.71   -33909.222    2692.7392   -36601.962    96.824744    252.61695 
   31100    142.53344    -1222.816    132923.25   -33905.855    2691.9454     -36597.8    97.085557    252.54247 
   31150    140.23504   -1076.9445    132968.65   -33930.685    2648.5368   -36579.222    97.168757    248.47014 
   31200    141.53788   -1271.5664    132931.85   -33958.652    2673.1427   -36631.795    97.386125    250.77852 
   31250    138.91591    -1255.224    132980.96   -33944.973    2623.6231   -36568.596    97.502931    246.13288 
   31300     139.0643   -1411.5948    132887.94   -33949.588    2626.4257   -36576.014    97.672674     246.3958 
   31350    141.64586   -1232.5377    132872.15   -33943.523    2675.1821   -36618.705    97.673943    250.96984 
   31400    139.14971   -1182.6504    132845.22   -33926.349    2628.0389   -36554.388    97.795879    246.54714 
   31450    143.97484   -1117.7188     132847.6   -33908.841    2719.1682   -36628.009    98.281712    255.09636 
   31500    144.34954   -1281.4458    132853.57   -33899.803    2726.2449   -36626.047    98.444883    255.76026 
   31550     140.0632   -1528.0465    132774.27   -33960.449    2645.2913   -36605.741    98.816086    248.16566 
   31600    143.59365   -991.66214    132713.76   -33930.003    2711.9689   -36641.972    98.684661    254.42096 
   31650    139.41994    -1310.578    132701.17   -33905.327    2633.1425    -36538.47    98.689098    247.02594 
   31700    140.55844   -1233.2402    132645.13   -33924.677    2654.6447   -36579.322    98.966826    249.04314 
   31750    139.69328   -1203.1876    132673.93   -33940.588    2638.3049   -36578.893    99.113093    247.51024 
   31800    143.02206   -1524.1133    132734.08   -33928.957    2701.1736   -36630.131    99.286576    253.40821 
   31850    140.58096   -1422.8694     132667.6   -33925.692      2655.07   -36580.762    99.222775    249.08304 
   31900     138.6737    -1009.799    132681.17   -33952.545    2619.0487   -36571.593    99.518154    245.70374 
   31950     139.4229   -1264.2925    132687.57   -33966.229    2633.1984   -36599.427    99.577347    247.03117 
   32000    142.26314   -1308.7941    132697.62   -33953.364    2686.8404   -36640.205    99.775706    252.06355 
   32050    142.23399    -1313.174    132597.78    -33914.99    2686.2899    -36601.28    99.880442    252.01191 
   32100    144.14549   -1241.4968    132511.01   -33893.988    2722.3913   -36616.379    100.04614    255.39873 
   32150    141.16197   -1274.6335    132523.55   -33930.933    2666.0433   -36596.977    100.49882    250.11249 
   32200    141.09897   -1342.8242    132460.32   -33936.711    2664.8533   -36601.565     100.4473    250.00086 
   32250    140.70829   -1218.5715    132408.99   -33942.771    2657.4747   -36600.246    100.69042    249.30864 
   32300    141.05225   -1086.2582    132415.82   -33907.386    2663.9709   -36571.357    100.81008    249.91808 
   32350    141.17273   -1239.3133    132407.61   -33948.653    2666.2464   -36614.899    100.77374    250.13155 
   32400    140.83234   -1302.8596    132343.54   -33939.509    2659.8177   -36599.327    100.92701    249.52845 
   32450    141.46695   -1148.6496    132340.75   -33886.355    2671.8032   -36558.158    101.24741    250.65286 
   32500    145.21759   -1276.9927    132274.36   -33934.736    2742.6393   -36677.375    101.33424    257.29828 
   32550    140.63161   -1265.7153    132280.75    -33968.59    2656.0266   -36624.616     101.3806    249.17279 
   32600    139.72923   -1302.7451     132296.3   -33942.595    2638.9838   -36581.579     101.5924    247.57393 
   32650    139.41823   -1360.1232    132283.05   -33967.201    2633.1101   -36600.311    101.60247     247.0229 
   32700    140.55501   -1245.0355    132234.53   -33962.611    2654.5798   -36617.191    101.82499    249.03706 
   32750    141.63585   -1493.3874    132208.15   -33995.787     2674.993    -36670.78    101.76417     250.9521 
   32800    140.71317   -1388.9069    132234.02   -34002.673    2657.5669    -36660.24    101.95129    249.31729 
   32850    139.45498   -938.14865     132262.4   -34012.468    2633.8043   -36646.273    102.14776    247.08802 
   32900    138.42399   -1278.7355    132358.68   -34007.475    2614.3325   -36621.807    102.52221    245.26129 
   32950    140.62448   -1207.8679    132431.48   -33964.758    2655.8919    -36620.65    102.75362    249.16015 
   33000    138.89371   -1025.8061    132475.02   -33987.153     2623.204   -36610.356    103.12575    246.09356 
   33050    140.56099   -1272.8524    132550.86   -33968.621    2654.6928   -36623.314    103.21532    249.04765 
   33100    140.16569   -865.28209    132597.77   -33981.915     2647.227   -36629.142    103.23773    248.34726 
   33150    141.96805   -1082.5916    132658.48   -33868.326    2681.2672   -36549.593    103.38079    251.54071 
   33200    138.83958   -1370.1626    132674.77   -33888.321    2622.1815   -36510.503     103.6623    245.99764 
   33250    141.09849   -1300.6098    132722.31   -33920.713    2664.8443   -36585.558    103.64741    250.00001 
   33300    143.94829   -1261.4304       132717   -33882.127    2718.6668   -36600.794    103.96604    255.04933 
   33350    141.90074   -1191.1141       132791   -33899.097    2679.9959   -36579.093    103.90985    251.42144 
   33400    144.72544   -1325.4847    132741.78   -33868.926    2733.3443    -36602.27    104.18257    256.42628 
   33450    143.00784   -1091.2921    132641.93   -33884.238    2700.9051   -36585.143    104.16399    253.38302 
   33500    142.97441   -1124.8254    132639.88   -33868.229    2700.2736   -36568.502    104.27418    253.32378 
   33550    140.81558   -1224.0781    132610.61   -33901.212    2659.5012   -36560.713    104.70749    249.49875 
   33600    143.47786   -1378.2637    132621.69   -33935.643     2709.782   -36645.425    105.12465     254.2158 
   33650    143.66486   -1221.8228    132494.36   -33889.904    2713.3139   -36603.218    105.26871    254.54714 
   33700    141.78575   -1058.8993    132502.66   -33928.599    2677.8241   -36606.423    105.55876     251.2177 
   33750    143.85628   -1084.0621    132521.98   -33906.553     2716.929   -36623.482    105.95867    254.88629 
   33800    141.75457   -1287.8729    132474.94   -33901.578    2677.2352   -36578.813    105.90266    251.16245 
   33850    140.33195   -1165.4211    132444.72   -33951.469     2650.367   -36601.836    106.01377    248.64184 
   33900    138.12689   -1075.3869    132460.13   -34012.817    2608.7215   -36621.539    106.18593     244.7349 
   33950    137.30893   -1128.7954    132483.54   -34033.976    2593.2731   -36627.249     106.0966    243.28562 
[...]
   92000    140.21159   -1115.0495    132836.27   -33975.033    2648.0939   -36623.127    291.21926    248.42859 
   92050    141.78774   -1111.3327    132870.55   -33996.455    2677.8617   -36674.317    291.28992    251.22123 
   92100     143.0991   -988.60775    132932.58    -33960.86    2702.6286   -36663.489    291.49737    253.54471 
   92150    141.44824    -1039.763    132945.75    -34006.77    2671.4498    -36678.22    291.93942     250.6197 
   92200    140.22463   -1103.1343    132918.43   -33981.698    2648.3401   -36630.039    291.27297    248.45169 
   92250    141.67352   -1443.4806     132824.9   -33960.987    2675.7045   -36636.692    291.18946    251.01885 
   92300    140.51838   -1318.5124    132764.31    -33941.09     2653.888   -36594.978    291.24866    248.97216 
   92350    140.90952   -1198.4064    132726.85   -33927.967    2661.2752   -36589.242    291.45206    249.66518 
   92400    140.33397   -1331.2751    132611.31   -33909.741    2650.4053   -36560.147    291.41526    248.64543 
   92450    140.40673   -1259.9125    132514.17   -33950.225    2651.7794   -36602.005    291.60742    248.77434 
   92500    140.54395   -1375.7118    132532.07   -33927.033    2654.3709   -36581.404    291.39788    249.01746 
   92550    137.21866   -1272.1846    132409.88   -33985.043    2591.5682   -36576.611    291.21568    243.12567 
   92600    139.15994   -1242.1527    132327.14   -33994.415     2628.232   -36622.647    291.55296    246.56526 
   92650    138.51772   -1127.1953    132329.49   -33970.505    2616.1028   -36586.608    291.59777    245.42737 
   92700    141.65058   -831.31927    132365.99   -33991.228    2675.2712   -36666.499     291.3171     250.9782 
   92750     141.4539   -1345.0965    132395.77   -33935.148    2671.5567   -36606.704    291.55084    250.62973 
   92800    140.52303    -1169.376    132361.43   -33961.966    2653.9759   -36615.942    291.23983     248.9804 
   92850    140.47007   -1214.0751    132448.31   -33955.946    2652.9757   -36608.922    291.22987    248.88656 
   92900    141.78529   -1240.0006    132518.08   -33906.268    2677.8154   -36584.083    291.46223    251.21688 
   92950    143.38996   -1297.9852    132508.52   -33894.859     2708.122   -36602.981    291.42404    254.06007 
   93000    140.08932   -1139.2956    132524.05   -33946.053    2645.7847   -36591.838    291.57545    248.21195 
   93050    142.71784   -1325.1679    132562.48    -33908.52    2695.4281   -36603.948    291.56267     252.8692 
   93100    140.05213    -1171.745    132548.47   -33921.754    2645.0823   -36566.836    291.92101    248.14605 
   93150    142.18787   -1308.4337    132633.38   -33915.666    2685.4188   -36601.085     292.2307    251.93019 
   93200    140.86796    -1652.841    132686.44   -33957.617    2660.4904   -36618.107    292.27236    249.59155 
   93250    138.65809   -1304.5545    132719.19   -33960.082    2618.7538   -36578.836    292.76304    245.67607 
   93300    139.00388   -1416.3901    132788.04   -33992.848    2625.2847   -36618.133    293.42745    246.28876 
   93350    139.21675   -1153.0648    132712.48   -33942.263    2629.3049   -36571.567    293.13355    246.66591 
   93400    142.10064   -1384.8252    132757.87    -33914.42    2683.7713   -36598.191    293.13495    251.77563 
   93450    142.46715   -1201.9061    132795.36   -33918.849    2690.6934   -36609.542    293.75748    252.42502 
   93500     143.9632   -1265.8861    132766.09   -33906.444    2718.9483   -36625.392    293.41755    255.07573 
   93550     141.5419   -1413.2546    132717.27   -33858.383    2673.2188   -36531.602    293.33309    250.78565 
   93600    142.71837   -1282.3869     132688.2   -33915.388     2695.438   -36610.826    293.59371    252.87014 
   93650      140.475   -1168.5599    132613.68   -33944.053    2653.0689   -36597.122    293.74496    248.89531 
   93700    139.58979   -1200.0382    132569.14   -33918.629    2636.3503   -36554.979    294.21193    247.32687 
   93750    142.94667   -1107.1045    132522.19   -33985.879    2699.7497   -36685.629    294.52537    253.27463 
   93800    138.44586   -1333.2778    132568.37   -33975.321    2614.7457   -36590.066    294.62698    245.30005 
   93850    139.50096   -1327.5463    132514.49   -33968.353    2634.6727   -36603.026    294.69408    247.16949 
   93900      141.511   -1449.1583    132538.66   -34006.565    2672.6352     -36679.2    294.72217     250.7309 
   93950    138.61881   -1336.6114    132554.35   -33999.989    2618.0119   -36618.001     294.6056    245.60647 
   94000    143.60712    -1082.604     132571.2   -33971.829    2712.2232   -36684.052    294.54534    254.44482 
   94050    141.40016   -1099.7884    132568.97   -33969.551    2670.5417   -36640.092    294.80364    250.53451 
   94100    139.76767   -1238.2764    132518.97   -34034.142    2639.7098   -36673.852    294.72284    247.64204 
   94150    139.35388   -1324.6826    132486.66   -34055.663    2631.8948   -36687.557     295.0069    246.90888 
   94200    140.22984   -1150.4705    132337.86   -34050.217    2648.4386   -36698.656    295.10404    248.46092 
   94250    140.47522   -1252.5647    132353.29   -34051.026    2653.0729   -36704.099    295.24205    248.89569 
   94300    141.01223   -1217.8639     132339.1   -34054.865    2663.2152    -36718.08     296.0704    249.84718 
   94350    141.54553    -1377.022    132339.45   -34109.679    2673.2873   -36782.966    296.26962    250.79209 
   94400    139.69651    -1207.727     132361.3   -34085.016    2638.3658   -36723.381    296.40943    247.51596 
   94450    139.91085   -1100.4846    132425.65   -34089.139     2642.414   -36731.553    296.58051    247.89573 
   94500     139.1649   -1090.8244    132478.65   -34098.345    2628.3257   -36726.671    297.09409    246.57405 
   94550    138.33211   -1099.0724    132515.94   -34126.926    2612.5973   -36739.523    297.32637     245.0985 
   94600    137.07775   -1058.3338    132532.56   -34157.487    2588.9069   -36746.394    297.69832    242.87601 
   94650    140.98508   -1214.3222    132560.42   -34078.338    2662.7024    -36741.04    297.97585    249.79907 
   94700    139.24108   -1038.5774       132677   -34092.543    2629.7645   -36722.307    297.72139    246.70903 
   94750    139.86938   -1167.4171     132739.8    -34031.25    2641.6308   -36672.881    297.96316    247.82225 
   94800    138.63196   -1322.9762    132777.86   -34093.273    2618.2604   -36711.534    298.27957    245.62978 
   94850    137.87551   -1228.2752    132777.26   -34124.853    2603.9738   -36728.826    298.16301     244.2895 
   94900    139.72017   -1211.8109    132790.37   -34102.725    2638.8127   -36741.538    298.39388    247.55788 
   94950    140.63987   -1154.9329    132862.02   -34077.705    2656.1826   -36733.888    298.63295    249.18742 
   95000    142.75741   -1046.3824    133067.16   -34022.908    2696.1754   -36719.083    298.68628    252.93931 
   95050    140.19736   -1397.0164     133049.6     -34029.7    2647.8252   -36677.525    298.64491    248.40338 
   95100    139.94044   -1228.2213    133045.39   -34074.902    2642.9728   -36717.875    298.90246    247.94815 
   95150    138.66293   -1180.5573    133085.67   -34023.215    2618.8453   -36642.061    298.97745    245.68465 
   95200    138.97412   -1181.7672    133073.23   -34058.311    2624.7226   -36683.033    298.89413    246.23602 
   95250    143.12582   -1356.4713    132980.29   -34027.736    2703.1333    -36730.87    298.86449    253.59206 
   95300    138.35671   -1504.4398    132977.03   -33966.654    2613.0619   -36579.716     298.7636    245.14209 
   95350    140.76666   -1567.5502    132912.27    -34019.45    2658.5772   -36678.027    298.78494    249.41207 
   95400    139.67334   -1256.7417    132829.93   -34011.636    2637.9283   -36649.564    299.26468    247.47491 
   95450    140.44359   -1219.6174    132941.03   -34013.302    2652.4755   -36665.777    299.48519    248.83964 
   95500    137.82767   -1218.5033     132935.1   -34045.098    2603.0703   -36648.168    299.39626    244.20474 
   95550    140.27174   -1455.4819    132895.55   -34094.969      2649.23   -36744.199    299.74366    248.53517 
   95600     135.0065    -1381.742    132929.01   -34059.282    2549.7885   -36609.071    300.13294    239.20615 
   95650    140.21494   -1209.6664    132988.57   -34006.995    2648.1573   -36655.153    299.93705    248.43453 
   95700    143.64921   -1253.9732    133058.14   -33988.437    2713.0183   -36701.455    299.82042    254.51941 
   95750      142.358   -1177.0573    133086.24   -34005.488    2688.6318    -36694.12    300.29158    252.23162 
   95800    141.29707   -1597.9955    132984.65   -33986.695    2668.5947   -36655.289    300.44362    250.35185 
   95850     139.4255   -1309.1936    133036.77   -33982.641    2633.2474   -36615.888    300.50214    247.03578 
   95900    142.56242   -1463.4593    133094.62   -33917.906    2692.4928   -36610.399    300.64632    252.59383 
   95950    140.61014   -1227.6509    133021.25   -34004.804    2655.6212   -36660.425    300.31077    249.13475 
   96000    135.94824   -1440.8008    133108.19   -34056.587    2567.5745   -36624.162    300.60796    240.87473 
   96050    140.90029   -1502.3011     133031.7   -34118.177    2661.1011   -36779.278    301.46556    249.64884 
   96100    138.89116   -1046.7768    133012.68   -34091.349    2623.1557   -36714.504    301.89774    246.08903 
   96150    142.30837   -1299.6632    133024.28   -34087.238    2687.6946   -36774.932    301.59189    252.14369 
   96200    142.23672   -1092.1498       133159       -34058    2686.3413   -36744.341    302.02396    252.01673 
   96250    141.64452   -1313.0184    133235.19   -34075.212    2675.1568   -36750.369    302.09346    250.96747 
   96300     141.0992   -1101.6414     133223.3   -34085.166    2664.8577   -36750.023    302.51255    250.00127 
   96350    139.97955   -1117.4387     133306.6   -34045.918    2643.7114    -36689.63     302.9414    248.01745 
   96400    142.72704   -1425.4569    133357.26   -34025.051    2695.6018   -36720.652    303.01826     252.8855 
   96450    142.49939   -1031.7672    133402.91   -34027.133    2691.3023   -36718.435    303.24949    252.48214 
   96500    139.51876   -1359.2113     133403.6   -34056.447    2635.0089   -36691.456    303.68549    247.20103 
   96550    136.63935   -1218.3506    133475.91   -34077.426    2580.6271   -36658.053    303.86538    242.09925 
   96600    139.13459   -1196.3005     133391.9   -34095.611    2627.7533   -36723.364    303.87398    246.52035 
   96650    137.33094   -1238.9523    133396.36   -34124.809    2593.6888   -36718.498    304.18675    243.32462 
   96700    137.68747   -1165.0501    133387.36   -34113.022    2600.4224   -36713.444    303.97696    243.95632 
   96750    138.66124   -1289.2254    133388.11   -34056.026    2618.8133    -36674.84    304.24608    245.68166 
   96800    142.55946   -1394.6278    133290.82   -34010.698    2692.4368   -36703.135    304.32109    252.58858 
   96850    140.43072   -1450.4525     133141.6   -34071.726    2652.2326   -36723.958    304.07389    248.81685 
   96900    139.27859   -1314.8778    133097.15   -34093.539    2630.4729   -36724.012     304.1206    246.77549 
   96950    143.62986     -1203.01    133148.68    -33998.23    2712.6527   -36710.883    304.24865    254.48512 
   97000    142.28682   -1263.0025    133158.19   -34012.737    2687.2877   -36700.024    304.41538    252.10552 
   97050    145.04163   -1190.6125    133130.43   -34026.446     2739.316   -36765.762    304.39868    256.98651 
   97100    140.36954   -1350.6347    133119.02   -34023.654     2651.077   -36674.731    304.28163    248.70845 
   97150     139.3968   -1209.3122    133118.53   -34082.595    2632.7054     -36715.3    304.57377    246.98493 
   97200     139.2578   -1362.3771    133071.86   -34056.213    2630.0802   -36686.294    304.84669    246.73864 
   97250    141.17399   -1267.9925    133035.46   -34036.162    2666.2703   -36702.432    305.07189    250.13379 
   97300    142.50305    -988.6524    132977.93   -33998.714    2691.3714   -36690.085    305.37711    252.48863 
   97350     138.7731   -1260.0488    132889.38   -33999.262     2620.926   -36620.188    305.88713    245.87985 
   97400    140.82363    -1318.666    132764.39   -34050.047    2659.6532     -36709.7    305.62378    249.51301 
   97450    140.17718   -862.17469    132750.24   -34034.225     2647.444   -36681.669    305.46158    248.36762 
   97500    138.84734   -1188.4611    132832.23   -34052.637    2622.3282   -36674.965    305.77614     246.0114 
   97550    139.46429    -1031.561    132878.22   -34035.033    2633.9801   -36669.013    306.37316    247.10451 
   97600    140.39897   -1159.1131    132961.08   -34052.186    2651.6328   -36703.819    306.87081    248.76059 
   97650    139.06702   -1130.2086    132917.19   -34064.995    2626.4771   -36691.472     306.9777    246.40063 
   97700    136.40751    -1202.937    132830.47   -34113.774    2576.2485   -36690.023    306.82678    241.68848 
   97750     139.4391   -1055.4196    132843.17   -34068.276    2633.5043    -36701.78    306.89081    247.05987 
   97800    138.63951   -1566.4539    132853.28   -34082.619    2618.4029   -36701.022    306.99987    245.64315 
   97850    140.57717   -1228.5569    132790.67   -34112.441    2654.9985    -36767.44    306.99297    249.07634 
   97900    138.87774   -1218.5993    132850.94   -34098.041    2622.9023   -36720.943    307.41709    246.06526 
   97950    138.07108   -788.00198    132924.07   -34114.143    2607.6674    -36721.81    306.96994    244.63601 
   98000    137.43974   -1156.3196    132972.59   -34137.379    2595.7437   -36733.123    307.17437     243.5174 
   98050    139.64505   -1217.7053    132985.73   -34108.239    2637.3941   -36745.633    307.44767    247.42479 
   98100    137.79427   -888.38731    133032.43   -34123.944    2602.4394   -36726.384    307.45574    244.14555 
   98150    139.54534   -998.54548    133077.75   -34033.605    2635.5109   -36669.116    307.79678    247.24812 
   98200     141.5763   -1080.1392    133073.93    -34035.23    2673.8684   -36709.098    307.81157     250.8466 
   98250    138.95314   -1163.1422    133033.56   -33995.452    2624.3264   -36619.778    308.11105    246.19886 
   98300    141.98765   -1059.6845    133012.74   -34008.948    2681.6373   -36690.585     307.9098    251.57543 
   98350    140.55293   -1231.5699    133083.54   -33987.915    2654.5406   -36642.456      308.091    249.03338 
   98400    140.16682   -1432.2812    133086.88   -34015.835    2647.2484   -36663.083    308.38589    248.34926 
   98450    139.03668   -1197.9674    133085.05   -34031.711    2625.9042   -36657.615    308.52321    246.34688 
   98500    137.98303   -1293.9587    133062.57   -34044.999    2606.0045   -36651.003    308.75436    244.48001 
   98550    140.01113   -1142.6643    133070.42   -34068.951     2644.308   -36713.258    308.67024    248.07341 
   98600     137.6908   -1397.0805    133115.88   -34022.584    2600.4852   -36623.069    309.21063    243.96222 
   98650    141.30441   -1426.4592    133092.36   -34002.358    2668.7334   -36671.091    309.36794    250.36487 
   98700    139.48145   -1056.6716    133077.46   -34046.196    2634.3042     -36680.5    309.17907    247.13492 
   98750    138.08854   -1298.7612     132997.9   -33993.749     2607.997   -36601.746    309.25565    244.66694 
   98800     142.1578   -1367.7339    132984.45   -34016.981    2684.8508   -36701.832    308.84934    251.87691 
   98850    138.75714   -1168.8869    132958.02   -34064.173    2620.6246   -36684.798    308.59218    245.85158 
   98900    138.84481    -1107.955    132913.89   -34088.283    2622.2804   -36710.563    308.67873    246.00691 
   98950    136.08564   -1338.7431    132787.12   -34144.834    2570.1695   -36715.004    308.48702    241.11817 
   99000    139.14075   -1210.8124    132763.75   -34095.776    2627.8696   -36723.645    307.88328    246.53126 
   99050    135.38841   -1255.3017    132793.59   -34085.194    2557.0014   -36642.195    308.30888    239.88283 
   99100    140.12083   -1105.1772    132764.01   -34052.226    2646.3798   -36698.606    308.27104    248.26778 
   99150    140.20835   -1216.9189    132826.86   -33983.803    2648.0327   -36631.835    308.11303    248.42285 
   99200    142.68228   -1136.5037    132789.96   -33950.851    2694.7563   -36645.607    308.18626    252.80618 
   99250    141.13018   -1104.8936    132829.46   -33978.461    2665.4428   -36643.904    308.35439    250.05616 
   99300    143.47759   -1271.5101    132782.46   -33986.666     2709.777   -36696.443    308.91606    254.21533 
   99350    140.59901   -1181.0825    132817.02   -33962.441    2655.4109   -36617.851    309.12149    249.11503 
   99400    140.17069   -1051.9556     132800.6    -33972.39    2647.3215   -36619.711    309.22017    248.35612 
   99450    139.51781   -1169.2082    132797.32   -34029.134    2634.9908   -36664.125    309.14012    247.19933 
   99500    137.95084    -1114.826     132766.7   -34042.033    2605.3964    -36647.43    308.84416    244.42296 
   99550    141.25861   -1155.4588    132785.27   -34025.305    2667.8684   -36693.174    308.83275    250.28371 
   99600    139.17224   -1311.0774    132780.91   -34005.278    2628.4644   -36633.743    309.11724    246.58706 
   99650     142.8552   -939.50178    132851.66   -33952.964    2698.0222   -36650.986    309.37297    253.11256 
   99700    144.32807   -1187.5592    132822.63   -33940.397    2725.8395   -36666.236    309.38919    255.72222 
   99750      141.802   -1168.2979    132806.18    -33938.56     2678.131   -36616.691    309.53172    251.24649 
   99800     140.2718   -1168.8823    132817.55   -33977.194     2649.231   -36626.425    309.60864    248.53526 
   99850    141.20582   -1229.8907    132866.06   -33945.061    2666.8714   -36611.933    309.77862    250.19018 
   99900     141.9685   -998.39707    132892.96   -33890.744    2681.2756   -36572.019    309.63186     251.5415 
   99950    141.76419   -865.14505    133032.81   -33869.108     2677.417   -36546.525    310.10752    251.17951 
  100000    143.57283   -1258.8476    133106.84   -33840.024    2711.5756   -36551.599    310.84342    254.38407 
Loop time of 54.9013 on 90 procs for 100000 steps with 6337 atoms

Performance: 786.866 ns/day, 0.031 hours/ns, 1821.449 timesteps/s
97.2% CPU use with 90 MPI tasks x no OpenMP threads

MPI task timing breakdown:
Section |  min time  |  avg time  |  max time  |%varavg| %total
---------------------------------------------------------------
Pair    | 6.672      | 17.036     | 38.259     | 307.6 | 31.03
Neigh   | 0.56363    | 1.3094     | 3.3609     |  84.5 |  2.39
Comm    | 5.4821     | 18.959     | 41.745     | 315.0 | 34.53
Output  | 0.14794    | 0.15102    | 0.16044    |   0.5 |  0.28
Modify  | 3.3101     | 16.651     | 38.819     | 379.9 | 30.33
Other   |            | 0.7957     |            |       |  1.45

Nlocal:    70.4111 ave 158 max 39 min
Histogram: 58 2 0 4 11 0 0 0 4 11
Nghost:    705.989 ave 1043 max 433 min
Histogram: 30 0 0 15 15 0 0 0 15 15
Neighs:    0 ave 0 max 0 min
Histogram: 90 0 0 0 0 0 0 0 0 0
FullNghs:  5667.36 ave 18788 max 1479 min
Histogram: 60 0 0 0 15 0 0 0 0 15

Total # of neighbors = 510062
Ave neighs/atom = 80.4895
Neighbor list builds = 6137
Dangerous builds = 0

write_data		${DIR}/data.eq-${NAME}-${TEMP}
write_data		run_6/data.eq-${NAME}-${TEMP}
write_data		run_6/data.eq-het_freeze_6-${TEMP}
write_data		run_6/data.eq-het_freeze_6-248
undump          1

reset_timestep  0

unfix           2
unfix           3
unfix           4


################################################
#######         Run Simulation         #########
################################################

log				${DIR}/log.run_${NAME}
log				run_6/log.run_${NAME}
log				run_6/log.run_het_freeze_6
