LAMMPS data file via write_data, version 29 Oct 2020, timestep = 0

6864 atoms
2 atom types

0.0 49.22 xlo xhi
0.0 49.019635930410494 ylo yhi
-1.3651754502173823 61.42717545021794 zlo zhi

Masses

1 18.015
2 12.01

Atoms # atomic

1 1 19.04846963917489 17.427609874530578 16.152927836725933 0 0 0
2 1 19.72730476472948 22.99062113335624 -0.8766329409455924 0 0 0
3 1 0.08270256790146391 14.132409133693868 14.650873085045742 0 0 0
4 1 3.0090068814279807 3.0927389731673185 -0.7236917638029915 1 0 0
5 1 9.899380909266005 1.2414124163714244 -0.49949084238143193 1 0 1
6 1 0.39487947864900275 11.284949431738362 17.429567391826136 0 0 0
7 1 24.378502006262604 13.948333956130584 1.1640678455501887 0 0 1
8 1 3.0369623045554257 24.303846116969623 10.055464645755224 1 0 0
9 1 17.259094364245605 4.0484326555563275 1.3271840868710898 0 0 0
10 1 22.305962707612622 2.019741533503579 0.40395398380824377 0 1 1
11 1 24.599103684928917 4.23697176294057 16.45713465632706 0 0 0
12 1 2.2164006689950955 6.590692022821908 2.187186068214943 0 0 1
13 1 10.559278697512005 17.16361474235556 19.397788387024708 0 0 0
14 1 5.879980823703946 4.4363233053373525 1.2255143915885935 0 0 0
15 1 1.9430451955343906 24.214007223379767 19.076518274609235 0 0 0
16 1 10.368221289102632 4.773263252961135 1.2402376878902515 0 0 1
17 1 0.06876997897366864 1.7434145768658758 11.11191898976733 0 0 0
18 1 24.100182684070084 5.756432306166844 0.6584282836835458 0 0 0
19 1 14.637707938583443 5.300034529620505 0.5638369231978826 0 0 0
20 1 20.89641796957083 8.326677263210959 -1.347603155735497 0 0 0
21 1 18.392497348849474 5.417311435604299 3.22130265365161 0 0 0
22 1 19.71657644676641 5.634042534810384 -0.20702153389823907 0 0 1
23 1 21.87819679438493 4.475171931841956 1.4741981794321317 0 1 0
24 1 0.8050332749926251 9.203742209415504 0.05509879550379293 0 0 1
25 1 4.3575568168298355 8.38369264953111 2.089394750856823 0 0 1
26 1 17.232440055016756 1.6080713429790328 -0.3858360407911464 0 1 1
27 1 7.923099862550751 7.95156268331098 0.44852448383236543 0 0 0
28 1 9.462455761136495 6.626268129843519 3.1932986469448688 0 0 0
29 1 10.790870324004672 9.659211249351632 0.770092537495811 0 0 0
30 1 13.808672075673003 8.436890407750269 0.37565418471152867 0 0 0
31 1 16.357958598773006 9.345204555028525 1.2485095732445126 0 1 1
32 1 3.47837126474074 20.950494626643607 17.910574949759244 0 0 0
33 1 19.188010344763793 11.30528289844987 1.9564181807965308 0 1 0
34 1 20.314410320984774 21.422094216862494 16.758823774720042 0 0 0
35 1 22.90425454611794 8.331205959657154 0.7308585341033274 0 0 0
36 1 13.079545864603702 23.277852012026216 16.028633714543073 0 0 0
37 1 3.691182322683055 10.859043213178957 0.9954692133220546 0 0 1
38 1 6.864356201378966 12.178862487018154 1.512103072923932 1 0 1
39 1 8.664346091970529 15.50790380203915 -1.0427385752991656 0 0 1
40 1 14.91865422985169 11.780567817180511 1.5855757880448524 0 0 0
41 1 20.595541551130278 10.713565934267235 -0.5560026569009203 0 0 0
42 1 17.209480576967074 13.186928092220588 1.952898154799073 0 0 0
43 1 0.6322472395090051 24.344303462810082 16.4048759800694 0 0 0
44 1 23.688197141386542 19.72424561700953 3.352841448278954 0 0 0
45 1 2.4942951192254497 15.032882836075645 0.2592610379761118 0 0 0
46 1 0.5917271664911212 16.193625137188377 2.672786085519025 0 0 1
47 1 4.988031293438374 15.565746935039535 -0.8150192301820228 1 1 0
48 1 6.883055741633756 14.921567957450517 1.0808563952748904 0 0 1
49 1 23.928377740399966 23.27729091714656 18.060974612066538 0 0 0
50 1 12.414132994991197 15.014876188011437 2.451798747392017 0 0 0
51 1 7.642031941113192 23.04040004422249 14.34676667157606 1 0 0
52 1 16.7122060564955 15.542477896380344 0.13339749673585555 0 1 0
53 1 19.722456789781237 16.023806980506265 -0.3122133732207448 0 0 0
54 1 6.117636789745768 19.33103776686417 0.6509276190912248 0 0 1
55 1 6.667507954700498 23.75244595115476 0.5946111138335879 0 0 0
56 1 8.557624093841323 20.38156642606045 1.0993527754249715 0 0 1
57 1 7.556022672645886 10.633432631604348 -1.0613413255206225 1 0 0
58 1 0.31227847148545473 21.747458703135802 13.112294272050452 0 0 0
59 1 13.714571835107067 19.682016038452552 1.5405432285992147 0 0 1
60 1 16.13776297851048 18.32848126805558 1.7565266104418469 0 0 0
61 1 18.504170824519925 20.049178422204875 0.7648099479724841 0 0 0
62 1 20.023129942558075 18.530595799768314 -1.1737410880500512 0 0 0
63 1 22.339731620410905 19.584177714478294 0.0714004636055281 0 0 1
64 1 23.21346134094952 17.620481091006713 1.6531726986333402 0 0 0
65 1 3.6798911110641743 22.13584860086912 2.0139625812405924 0 0 0
66 1 1.2897234343006108 21.859430549071877 0.5085662354867357 0 0 0
67 1 5.254530351397962 21.743907907488612 -0.037433953368526174 0 0 1
68 1 9.234852599627779 22.96991691386878 0.8457370085891545 0 0 1
69 1 10.204010298285512 23.982052422999686 3.3518526945093647 0 0 1
70 1 15.383909534109977 23.140881835454493 1.3551859625811473 0 0 0
71 1 17.219310137653377 21.788823456175727 -0.5340799230209189 0 0 0
72 1 0.08529891248263563 6.905691085314673 4.288529356116914 1 1 0
73 1 21.312474510258205 21.954253472148928 1.0787462694894927 0 0 0
74 1 23.563158948151063 23.636830288641725 1.7174877921386646 0 0 1
75 1 2.445969717160208 2.1923673914460613 2.0278193770474253 0 0 0
76 1 6.142603731401978 1.293347219951358 1.9698417757919353 0 0 1
77 1 0.39577576546784776 1.1344806385405939 14.119975353513817 1 0 0
78 1 8.560102075275646 2.701778919506512 1.988702360548488 0 1 1
79 1 10.175667634609416 0.30603574510557974 2.554868291506773 0 1 1
80 1 12.38798401544792 1.4745405521924009 3.42254200805249 0 0 1
81 1 16.55913764831141 1.7917640247069313 3.4929006442735915 0 1 0
82 1 17.40256114161836 21.241254377209817 16.12123786701721 0 0 0
83 1 22.44634751917313 1.8416541176350667 4.813247553373563 0 0 0
84 1 3.6215104971287233 4.5682777710203 2.6959049239493886 0 0 0
85 1 5.994943879773977 4.968807444296815 5.403741798635157 0 1 0
86 1 8.18798009257288 3.567237962679813 4.555507805452834 0 0 1
87 1 12.67047921380443 3.2608968812972945 0.9451073275322308 0 0 0
88 1 20.705005280409758 6.7021881882028485 4.148659923023131 0 0 1
89 1 18.55892008989459 4.758155971261969 6.832812101883432 0 0 1
90 1 22.588991027823518 4.633378506311261 4.062617254961862 0 0 0
91 1 12.219990029236106 18.51054032839537 -0.7503944970353154 0 0 0
92 1 2.3651937716969638 5.807562205698195 -1.0872312930879824 0 0 1
93 1 6.356790679269972 6.9809352940136495 3.3668909932739224 0 0 0
94 1 9.11285931610292 9.27873468509368 4.39765069038794 0 0 0
95 1 13.109755406835927 5.2962990045479 3.565580127470687 0 0 1
96 1 13.68060388999297 8.981306258495687 4.822696309611903 0 0 0
97 1 12.012790265440687 7.8110472523903045 2.8232071204980054 0 0 1
98 1 16.892867668467844 7.71498457820499 3.4608294683537704 0 1 0
99 1 21.399905852309356 9.107040091294191 2.849916786797028 0 0 0
100 1 23.56143992292065 10.37719215874263 4.1759060372496775 0 0 0
101 1 1.6229515059852986 11.304956317700562 5.495240412469797 0 0 0
102 1 3.497784195399219 12.215853191171105 3.4975320893117283 1 0 1
103 1 5.922217992318863 12.106664399874942 4.007626569859594 0 0 0
104 1 6.372767579675067 9.470208410082538 4.91583704737057 0 1 0
105 1 9.329585131682844 11.136696749014654 2.45074116522392 0 0 1
106 1 11.389422625109788 12.697338579166425 3.7717071958275055 0 0 0
107 1 18.41641192600142 9.27797438549747 5.230131387949325 0 0 0
108 1 13.947875336131116 11.538424381902056 4.171755034011547 0 0 0
109 1 19.74797774291303 12.700897248479285 4.58132564397281 0 0 0
110 1 24.11528610146771 12.992000530963415 3.95872591817293 0 0 0
111 1 2.3677638818647955 15.505894107168466 6.112304772939427 1 0 0
112 1 3.1398155625275703 14.997022906468628 3.384011821682419 0 0 0
113 1 5.906392741809001 15.950589142093058 3.3707896035084675 0 0 1
114 1 6.450242141239479 14.035384973095532 5.907667837314784 0 0 0
115 1 9.31000012833449 17.200666472958254 2.4289246140073697 0 0 1
116 1 10.46907208357509 13.80911242490286 6.360057305431421 0 0 0
117 1 17.428755599864914 14.153810570418532 4.475234632994158 0 0 0
118 1 21.15765222855907 16.259688921156286 2.1715009850676936 0 0 0
119 1 21.853024913782278 14.59823325773679 4.149511137474464 0 0 0
120 1 1.249413933611519 19.563106379207856 3.664502249637488 1 0 0
121 1 6.238750092519819 18.66165232634494 3.269043958887676 0 0 0
122 1 3.76663032255302 20.368134538824883 3.7286637026507723 0 0 0
123 1 10.519911140311063 19.6754134343082 3.0589849151107567 0 0 0
124 1 8.000868021915881 20.037273165378764 4.70977985590173 0 0 0
125 1 12.88070791043419 17.8062019359743 3.3166392850504103 0 0 0
126 1 17.49976224680861 16.715993666564234 3.8565534851682086 0 0 0
127 1 19.79830106699056 18.058114664762243 4.369558560331249 0 0 0
128 1 21.20508276267233 19.182978548063073 16.597940689115138 0 0 0
129 1 23.517475821458266 18.797048803445996 15.153298514391626 0 0 0
130 1 11.333720693982567 21.93400848708538 4.470052823273941 0 0 0
131 1 13.9953790039812 22.415512331705127 3.513988925967121 0 0 1
132 1 15.552942435426901 21.155611353690894 5.5697587903900105 0 0 0
133 1 19.73494856398844 20.4790494382092 3.302031688426391 0 0 0
134 1 18.06623540523364 22.25863942866759 4.494947475246191 0 0 0
135 1 22.025711562205135 20.693366516952413 5.574815222386687 0 0 0
136 1 1.379692856588046 1.932756312048468 5.26120571094638 0 0 0
137 1 6.5655172381204885 1.2465187242429945 5.061640852844878 0 0 1
138 1 11.037217641444629 16.074617841259652 0.31770636314748346 0 0 1
139 1 10.549203710192243 1.6504406855483618 7.806063519839707 0 0 1
140 1 13.211208866806473 0.7440411031490717 9.131835170273764 0 1 0
141 1 12.400446396186327 3.2443025182079688 5.551484198687651 0 0 0
142 1 14.970731356839929 2.051751798250442 7.214020051988692 0 0 0
143 1 16.75703780640592 4.0165212321059185 5.0633435579246635 0 1 0
144 1 17.53871445382545 1.3196876842728 7.400703239602896 0 0 0
145 1 19.483248732632227 2.1414055159694616 5.88327847965001 0 1 0
146 1 9.558856679805121 0.4604294970266428 11.900619401348486 0 0 0
147 1 1.1570679202093435 5.958536736648458 6.47971601387032 1 0 0
148 1 3.1211424035732414 4.137130159476172 5.750353813744218 0 0 1
149 1 4.2170306085896065 3.610985406676972 8.216182203747517 0 0 0
150 1 6.605574581861092 6.35789045067891 7.620856977854171 1 0 0
151 1 10.313937319246303 4.979507959620281 5.775351989599993 0 0 0
152 1 9.199417202809796 5.833777360122171 8.00072069157232 0 0 0
153 1 14.096434186551678 7.549964054247992 7.34144515202882 0 0 0
154 1 15.10951180506868 5.806625094197768 5.032061964204813 0 0 0
155 1 17.35623392202752 4.569710431964944 9.202519715785984 0 1 0
156 1 23.557291989647325 5.868681341695926 6.698517857734945 0 1 0
157 1 22.911616825368945 3.582881504897381 8.54083026688474 0 1 0
158 1 3.080219320274193 9.820469214188572 7.193369928998072 0 0 0
159 1 1.3309462676208106 7.9729841351003525 8.33496896983403 0 0 0
160 1 5.773080909739505 9.563816039382015 7.463629678379663 0 0 0
161 1 5.420361497534035 10.801491883601491 11.071976930562093 0 0 1
162 1 10.794756600084643 9.69141700400193 6.005640334737365 0 0 0
163 1 10.817386221618202 8.13218420396872 8.18646390118323 0 0 0
164 1 16.759715829808826 8.692355410026106 7.764753813955565 0 1 0
165 1 16.34855755565074 10.324031352856654 9.991930575596346 0 1 0
166 1 19.809283517479724 7.378789093800819 6.347303857376351 0 0 0
167 1 20.7440023825007 7.629195307398256 10.495532790676807 0 0 0
168 1 22.062434982004508 7.721866569058932 7.785510111103884 0 0 0
169 1 12.34400572791056 1.9421839474995406 -1.2273587493864277 1 0 1
170 1 2.758016908399191 13.317541309911203 10.258529579814597 1 0 1
171 1 3.300529089277541 10.784026773842315 9.685892496476418 0 0 0
172 1 6.941910285465723 12.00983240606133 7.76742715543257 0 0 0
173 1 9.485280076331101 11.625654361270803 7.289498672884282 0 1 0
174 1 15.461909059366347 13.086338266504375 5.966062864837727 0 0 0
175 1 16.946210026606966 12.685197841786747 8.824575839131155 0 0 0
176 1 19.167686649085113 11.585655512946946 6.961327657977815 0 0 0
177 1 23.547549071766532 9.996717555877535 6.808854657095081 0 0 0
178 1 21.613714939714608 11.448214245466362 8.267129207869035 0 0 0
179 1 0.7629259054761671 14.348532224020241 8.68125769694708 0 1 0
180 1 4.865894298911556 14.873352436687746 10.005871515255237 0 0 1
181 1 4.717035180772225 15.362594270154107 7.33589623015102 0 0 0
182 1 8.792557847794594 15.48995509069153 4.856891150468197 0 0 0
183 1 13.1338007837449 14.747375979399017 6.928304787504679 0 0 0
184 1 13.5851182858533 17.2844191672821 5.86699591484289 0 0 1
185 1 22.098274179337075 16.033638008300752 6.465172423038234 0 0 0
186 1 21.52557784271925 14.184416785857643 8.704270505543517 0 0 0
187 1 0.24096913446720541 17.30505859057323 5.278849696346319 0 0 0
188 1 14.577545157628606 0.031824833768688165 3.584778112138091 0 1 0
189 1 4.5091623709914295 20.34088673474984 8.1365399404543 0 0 0
190 1 5.829497306136032 17.826882584154625 7.585142008888377 1 0 0
191 1 8.21539163139528 17.737001595196045 6.257015751201508 1 0 1
192 1 12.356366222509646 18.419994401358718 7.93847057723948 0 0 0
193 1 16.12266958701412 18.18673698645824 5.892358534385234 0 0 0
194 1 18.08263099441019 18.12781908122121 7.94143791159477 0 0 0
195 1 20.92042398796561 18.438209419989054 7.158047744453034 0 0 0
196 1 13.908173161426513 0.7115336132339622 11.661157196285423 0 1 0
197 1 0.5893856358557907 23.458266595870338 6.520105727830285 1 0 0
198 1 4.555226992707261 21.639485277499798 5.957886411126845 0 0 1
199 1 7.09665522133366 22.096429024816857 5.74597836825384 0 0 0
200 1 7.985206807644989 22.889849090037895 8.292838916679075 0 0 0
201 1 10.579458680700977 22.75869574372294 9.26841053319122 0 0 0
202 1 11.667789000455382 21.088711868543292 7.344270381182486 0 0 0
203 1 14.059346297275626 22.44353511734183 7.772884677798004 0 0 0
204 1 19.53883542687942 22.389784130797853 6.5445694008751865 0 0 0
205 1 18.186373189770443 20.772993248450756 8.518085314734488 0 0 0
206 1 21.79027810154199 24.332754832006483 5.954435008439188 0 0 0
207 1 23.79833388439168 23.794418770252786 7.838333125541686 0 0 0
208 1 9.239595492980424 0.2872503007236857 5.6380061997061635 0 1 0
209 1 2.1752237133952685 3.5971273643944555 9.923174297634839 0 0 0
210 1 5.710078995769082 1.025683398296905 9.250301333458573 0 0 0
211 1 16.701541334067223 4.210719529524253 19.0897686841122 0 0 0
212 1 7.24361935053511 3.2360429062201232 10.528603857993462 0 0 0
213 1 16.915217640545894 12.805091504730523 18.480630063701852 0 0 0
214 1 16.86809993712343 0.5034120267277729 12.161824934340705 0 0 0
215 1 20.27297559446474 2.9326530778602673 11.549508785469238 0 0 0
216 1 18.08478870760448 1.8470809668415864 10.285959265954533 0 0 0
217 1 21.915867437496523 1.0935191890537175 12.563439969372611 0 0 0
218 1 0.5760527770526291 5.62962532145226 10.545102687816982 0 0 0
219 1 5.736799379235173 5.175968206675725 9.931247835663777 0 0 0
220 1 9.568483372642902 3.748826495563962 9.27281338688972 1 0 0
221 1 11.133889888059132 4.607828836934959 11.274150104105887 0 1 0
222 1 13.770472781120484 5.523638589671331 11.012154249696799 0 0 0
223 1 14.481505493487397 4.752177709754033 8.423977999538478 0 0 0
224 1 15.335076764081652 5.665550141086234 13.228900638246433 1 0 0
225 1 17.82182686883008 7.3223000024148295 12.622036981800976 0 0 0
226 1 21.812544087990183 4.869425913797436 10.430213679259195 0 1 0
227 1 23.25124585594362 6.793996393167647 12.477939360897484 0 0 0
228 1 1.745534203513031 9.00364611563007 11.427218984864162 0 0 0
229 1 12.614677010436623 11.04814356203831 19.066079293004172 0 0 0
230 1 6.839631556445479 6.910273321250009 12.48711210427303 0 0 0
231 1 6.842042245431026 8.622500765842657 10.270817500840263 0 0 0
232 1 9.479110157336763 9.16487605936971 10.333332079005674 1 0 0
233 1 12.964491649338143 7.947151954023195 10.210209891503887 0 0 0
234 1 18.270191370436834 7.378718235358487 9.898641309067417 0 0 0
235 1 23.239786367232416 9.735094881980702 12.22743689031768 0 0 0
236 1 20.911909031095124 10.681854894765001 10.905304988808908 0 0 0
237 1 12.603271236094587 11.981079582616104 0.38797872330716854 0 0 1
238 1 5.119467522621152 11.302358933513368 13.607179509189226 0 0 0
239 1 6.859188155944263 13.063255038158006 10.22176090312261 0 0 1
240 1 8.854630378432399 13.963443737550339 11.877938466759655 0 0 1
241 1 9.999275752856066 11.97739922390751 9.809485617882151 0 1 0
242 1 12.669113787587813 12.427401212648542 10.460357783611531 0 0 0
243 1 14.061953846845764 10.241621349192444 11.130310304570017 0 1 0
244 1 20.34115859551134 13.22156949564978 12.105225461684599 0 1 0
245 1 18.413148432283798 10.146019142458162 12.042771245781866 0 0 0
246 1 2.2085912434207264 14.63255464198402 12.978496055666476 0 0 0
247 1 4.652636000874868 17.017461478494955 12.049673413206186 0 0 0
248 1 9.401845564791737 16.295416766043385 10.708038864619356 0 0 0
249 1 14.436108959276343 14.326937512387921 9.138673170084877 0 0 0
250 1 15.320814968116984 16.38794338879208 10.628555705047686 0 0 0
251 1 18.99995917529548 14.148740189444075 9.864400288896393 0 0 0
252 1 18.02993196830184 16.600126421964912 9.944196414810223 0 0 0
253 1 23.79853673106716 15.204348519991754 10.028307993836192 0 0 0
254 1 8.028889172676893 1.1545652048627817 19.210956044702282 0 0 0
255 1 2.3320043370937182 19.65776117898838 9.05518165713089 0 0 1
256 1 2.5835824906792513 18.569348111504436 11.733429127894606 0 0 0
257 1 7.271939892119177 17.644170222442604 10.217620548431482 0 0 0
258 1 7.427505804515756 19.868077669868182 11.275249622738476 0 0 0
259 1 10.32332282083182 16.561943018879443 8.090841727595476 0 0 0
260 1 12.521246307129092 19.245410434973163 12.218234389366588 0 0 0
261 1 14.150176360540618 18.724716970788865 10.067479864660214 0 0 0
262 1 19.833422800721756 17.950898756694304 11.876985644296832 0 0 0
263 1 22.53727005727978 17.46231759083246 11.356301127799615 0 1 0
264 1 22.651703449830986 19.039083500471705 9.273950988373548 0 0 0
265 1 1.3965168740131941 22.29780639061835 9.121275232134414 0 0 0
266 1 4.987160958092502 23.222381444696087 11.52799705810544 1 0 0
267 1 6.221236743148599 21.547467694106793 9.910479849707778 0 0 0
268 1 9.780189370895298 20.755074478798846 12.05546279433677 0 0 0
269 1 12.493009038755357 22.312228165666617 11.685359757782617 0 0 0
270 1 15.563357517624128 21.076740868501936 9.618681366817768 0 0 0
271 1 15.308908924404516 22.38419289604877 11.826401141086931 0 0 0
272 1 19.58082283438343 20.672518424102066 10.8425958187789 0 0 0
273 1 18.35574471271287 22.50300826929296 12.683611385070044 0 0 0
274 1 22.80090470406771 23.76544218270834 10.32441134344785 0 0 0
275 1 22.10858636561691 21.16202084161698 11.190478529071017 0 0 0
276 1 2.8852703699422984 1.8246198310422068 14.625837475183408 1 0 0
277 1 5.659249429896034 7.002321454536795 -0.17187976538011251 0 0 1
278 1 4.645471554218944 0.46634119404076374 13.210562930479318 0 0 0
279 1 6.9987595289466 1.2760710840006058 12.682341649838703 0 0 0
280 1 8.178746511878245 2.5778641068165595 15.17988744898043 0 1 0
281 1 15.16039287664247 6.590287133443427 18.671376175126294 0 1 0
282 1 10.86664388315406 1.843101314347965 15.427181921796581 0 0 1
283 1 11.631959585203308 2.34133088514702 12.520750281517795 0 1 0
284 1 17.487714950082562 1.164798335025043 14.741980751384936 0 0 0
285 1 8.618752459703632 3.679213252773562 19.383972100232377 0 0 0
286 1 24.286471272161137 1.7391979394073762 13.68271397009963 0 0 0
287 1 22.589426101766882 3.3162257041621053 15.463035896153201 0 0 0
288 1 3.2816431579937504 4.15357100315513 12.61794924272569 0 1 0
289 1 5.568290659023548 4.526903526851159 13.925170647980396 0 1 0
290 1 3.2665351324551355 7.347963073352847 12.963152599188302 0 0 0
291 1 9.822624585410646 5.884200084671804 15.536271407419044 1 0 0
292 1 9.923559204292115 6.641964123552634 12.76377903525392 0 0 0
293 1 13.169217718870472 6.45672798766667 14.882643806732663 0 0 0
294 1 17.446079693146647 3.771405083058656 15.339750918765375 0 0 0
295 1 19.03006886189857 4.857785906089157 13.553301436616389 0 0 0
296 1 21.344011495578954 5.6814105242818504 14.665558828637593 0 0 0
297 1 1.9548736460961829 8.19181240716467 15.70860519750261 0 1 0
298 1 2.1364008776856442 11.67095291965053 13.007505528333416 1 0 0
299 1 6.187061286288846 8.668965051895734 14.187457971388639 0 1 0
300 1 8.056542032306968 10.292954246694435 15.339245682731232 0 0 0
301 1 11.930466390376603 8.830314871084008 13.37789650428125 0 0 0
302 1 12.159124828758488 9.62508735023626 16.715063192891513 0 0 0
303 1 16.236959951820435 9.167155904982803 14.905366276579407 0 0 0
304 1 19.194412653495466 7.826964313957747 15.364023354534364 0 0 0
305 1 22.17148497494001 10.545084766709955 15.58218272735838 0 1 0
306 1 9.799489983495826 19.52240182465086 -1.2199842386372937 0 0 1
307 1 2.640418494903249 10.821977189353928 15.76922597440257 1 0 0
308 1 9.734026090935018 10.785787763913262 13.21821144128561 0 0 0
309 1 6.782724082029889 13.91428308737612 14.18122926332848 0 0 0
310 1 6.9529531566748455 12.381707932480655 16.539736459422294 0 0 0
311 1 11.496703790758922 13.12251759111128 13.245415187242806 0 0 0
312 1 14.872178097186438 11.11403318615102 13.783778654356162 0 0 0
313 1 12.93916497622229 12.043748001019768 15.31905654591559 0 0 0
314 1 16.465467517432252 13.56537067983698 14.265447026313177 0 0 0
315 1 19.667430782562427 10.610860277136272 14.70287943146769 0 0 0
316 1 22.62684842457125 14.267481729826303 12.394494294027183 0 0 1
317 1 24.00437648383207 12.33054836321921 14.087217753062987 0 0 0
318 1 1.347915536201788 12.496014698856937 0.02044024731945937 0 0 0
319 1 3.4540629925070894 1.1344679407410971 10.926663875259463 0 1 0
320 1 0.36450390560788 16.932281276607146 12.090503424212546 0 0 1
321 1 4.560357660689038 15.65206646981973 14.216146428468342 0 0 0
322 1 7.93944964155841 16.97354072312167 14.606671501068844 0 0 0
323 1 11.26870297349572 15.314169683004959 14.731670476402979 0 0 0
324 1 15.748199248389032 15.949842685566171 13.249429212270728 0 0 0
325 1 13.72778554406242 16.48958976827541 15.205406497993419 0 0 0
326 1 23.01217275314028 15.91238158395945 14.635208252283661 0 0 0
327 1 2.6957423623312056 20.43597064388196 13.58653533614307 0 0 0
328 1 10.582748642588362 17.420571582134055 13.008065204395528 0 0 0
329 1 6.007174161139938 19.3441298658417 13.562428284272288 0 0 0
330 1 10.840193292215261 19.394069680214784 15.47633116550977 0 0 0
331 1 14.128180698045687 19.094023288017407 14.475744331331876 0 0 0
332 1 16.60242213390331 20.317199663932257 13.675506677828766 0 0 0
333 1 17.683281529114616 17.938369803520754 13.654602675037282 0 0 0
334 1 15.56529574042669 21.61983139102419 19.298178874612677 0 0 0
335 1 22.35190332573559 22.94476798622741 15.342951950034472 0 0 0
336 1 4.747916869356719 22.57587970969066 14.077750568901825 1 0 0
337 1 8.431110417628599 20.597594572021823 14.781898456827701 0 0 0
338 1 0.39456111022704937 13.56575437991213 5.6311998674356065 0 0 0
339 1 23.472212527481673 8.061209570768407 15.056852018345708 0 0 0
340 1 0.7033807955039078 0.9832495602748512 18.22911297666015 0 1 0
341 1 22.67141803590576 12.715639328446574 -0.6889687900394421 0 0 0
342 1 3.1719010943797312 1.6452608577684722 17.299955016750193 1 0 0
343 1 7.486585422336044 0.3023999387786211 16.562769460349088 0 1 0
344 1 16.111236461129838 23.562585675529423 16.59505173470913 0 0 0
345 1 14.394825130675729 1.5688775887164306 18.21629225730337 0 0 0
346 1 23.273251835510816 1.1993819665102297 19.129491018611393 0 1 0
347 1 21.41399129761639 2.3370935323153765 17.645162326588544 0 0 0
348 1 0.03384532752269 7.536941176882084 17.972083732512107 0 0 0
349 1 2.9849419967168713 4.059730275635623 18.48042450681168 0 0 0
350 1 5.2485185497065014 4.98559817730732 16.56347180648645 0 0 0
351 1 7.692262872371692 4.707107969147966 17.204822614020525 0 1 0
352 1 11.900309929153098 4.221389873937298 16.54054216188429 0 0 0
353 1 11.16132149273492 4.27720729978577 18.93877323362787 0 0 0
354 1 23.0347124930512 18.928079958099243 18.929226402366748 0 0 0
355 1 14.644769532647487 3.7423348223807413 16.926010656088216 0 1 0
356 1 19.287537432924303 4.149426219108339 17.822629544479923 0 1 0
357 1 20.024283788607594 7.102963535633562 17.6952343189281 0 0 0
358 1 24.143397966376337 21.349952055542722 6.800065769360655 0 0 0
359 1 4.4483001486085705 0.5799881762281869 6.939243840935559 0 0 0
360 1 4.753057142802457 7.817105674238688 16.359686762797836 0 0 0
361 1 5.545747688124316 9.117796843700576 18.51419382770183 0 0 0
362 1 8.374068749970908 8.652164483703833 18.990269551502248 0 0 0
363 1 9.72103259634678 8.260447680384635 16.692608223316864 0 0 0
364 1 14.209473165507175 8.229511934711288 16.402025489392756 0 0 0
365 1 4.692218784508186 23.59554797721588 17.599147405532808 1 0 0
366 1 19.162265640597465 9.177149550103913 18.82849862022662 0 0 0
367 1 22.589560636787436 7.528560231783704 17.7724632221014 0 0 0
368 1 7.1505490905499745 23.32232703669345 17.053876624085618 0 0 0
369 1 22.607012888984258 1.0254617719464452 7.776667731943936 0 0 0
370 1 4.498206711687945 11.671963108411218 17.57225660930408 0 0 0
371 1 20.043546709202722 22.02347701570974 19.279425461746563 0 0 0
372 1 8.385548327945727 13.535526931243496 18.331930897120134 0 0 0
373 1 12.590169564521336 13.555326245985997 18.649629773950117 0 0 0
374 1 14.733571581573031 13.640669838038361 16.614721153063844 0 0 0
375 1 18.246427760974946 18.028920452452617 18.93711181913872 0 0 0
376 1 17.663639953690833 10.70693181003762 16.607514357174463 0 0 0
377 1 19.076896310888202 13.397323731717638 14.534326313350993 0 0 0
378 1 22.818359973399573 10.229051044981885 18.10510133276502 0 0 0
379 1 0.328338495679429 18.805332996972496 1.1540664635474784 0 0 0
380 1 2.322574066921316 15.265467759394255 18.777672477273093 1 0 0
381 1 3.6863212249206367 16.78907292962696 16.647066009823778 0 0 0
382 1 6.3173609102092865 14.891569144648146 19.484750185754642 1 0 0
383 1 5.980941427659047 17.29303649145113 18.1997438415334 0 0 0
384 1 9.429449333877425 6.167582100174116 -1.098493411091443 0 0 1
385 1 10.424877702614593 14.820842882968499 17.400565912480918 0 0 0
386 1 14.648001574860377 16.98773816209387 18.050870049049244 0 0 0
387 1 20.67770972280015 15.141025668601294 15.845382426619778 0 0 0
388 1 21.397768044151626 14.689686911450671 18.609324970838973 0 0 0
389 1 24.169797654700513 14.147275207251921 18.66892751127291 0 0 0
390 1 2.2772074883419156 19.492799241911126 16.131194120204025 0 0 0
391 1 5.977225411168232 19.827932563514437 19.04851271365328 0 0 0
392 1 8.458982920516084 21.006424586134084 18.078483283135416 0 0 0
393 1 8.761844223430439 18.073976474592456 17.08664465743255 0 0 0
394 1 12.908964365053976 18.443824103147303 18.80379588801867 0 0 0
395 1 12.910972479662124 20.731277321312938 16.70101501900156 0 0 0
396 1 15.90326375959231 19.48201521691078 17.53298235738333 0 0 0
397 1 23.6283671052043 21.22918627614401 13.539836832093796 0 0 0
398 1 14.790440273049759 0.24462434534700464 -0.9627247775697704 0 1 0
399 1 19.68045683861577 0.42568240092444753 16.181047648531962 0 0 0
400 1 0.4411241295298377 5.599042706701786 13.360802786462152 0 0 0
401 1 24.547134788694997 5.92908368700489 18.445255742496766 0 0 0
402 1 3.1772643606445303 23.97763367373227 5.8412659684462565 0 0 0
403 1 0.148585144895493 9.641043668740362 3.975434971453639 1 0 0
404 1 0.2699197523624867 9.850446950366424 19.547292472810383 0 0 0
405 1 9.079922570022099 11.148016086468987 19.558186983265543 0 0 0
406 1 1.836271087715213 0.9358371302755452 20.86144858253783 0 0 0
407 1 4.214934937652154 2.364595009246815 21.553032468336703 0 0 0
408 1 13.115616637938793 0.8021484313178446 39.29570884293035 0 1 0
409 1 12.335535739955885 0.0577485430259339 24.480165812095777 0 1 0
410 1 13.306939279402185 1.832317656508218 22.89809103628655 0 0 0
411 1 15.86552529891244 1.6796095941461746 20.334264710265774 0 0 0
412 1 20.92526174024998 2.7353994071967485 22.092080576614766 0 0 0
413 1 19.556626953827397 5.062339287898317 20.849149532412724 0 0 0
414 1 23.520379163053487 2.3597956534803806 21.738238829374225 0 1 0
415 1 3.8567224245214686 0.21914823276470224 38.992964175398924 1 1 0
416 1 4.413450537304815 4.634981341912667 20.628503161281646 1 1 0
417 1 3.7729356332374353 6.453044941836377 22.313310360363268 0 0 0
418 1 7.2187220061923325 4.811352218758854 21.371181334391096 0 1 0
419 1 13.508132645826334 1.7731688957899263 36.689451487969066 0 0 0
420 1 12.695736314237054 5.990815874338109 20.402786646401477 0 0 0
421 1 17.309160021773526 6.602030597732384 21.76411265287533 0 0 0
422 1 21.895574378224225 6.629986679045743 20.83047171897557 0 0 0
423 1 4.036738964011354 13.698203725107302 19.56561130099242 0 0 0
424 1 12.197462814351061 1.6774269064139347 20.218369962825754 0 0 0
425 1 2.1979189463795956 10.723064213040276 21.610126268641856 1 0 0
426 1 4.195652428829886 9.007867446638526 20.848423382137717 0 0 0
427 1 6.468409362385605 8.805428170676832 22.472802904673628 0 1 0
428 1 8.345327700427621 7.263358862288327 21.425559372540256 0 1 0
429 1 10.895753116571797 8.008635230189636 21.641232792033676 0 0 0
430 1 16.520129134085202 8.611730075432595 19.9113940385198 0 0 0
431 1 19.918990553833464 8.579599380368009 22.271946111590275 0 0 0
432 1 3.1102507823344383 12.916692592582098 21.90612221358222 1 0 0
433 1 5.829610675086202 13.113215884838095 22.84562589036747 1 0 0
434 1 7.668841352381253 11.034350466249222 21.903491254990087 0 0 0
435 1 0.845951268994516 3.0297550564768487 22.70538281680559 0 1 0
436 1 11.02116566823916 10.809910196421326 21.140657259095732 0 0 0
437 1 15.32089329947347 11.043314736222754 19.819469546405852 0 0 0
438 1 0.18350759657863014 11.092137654130592 39.85442540323422 0 0 0
439 1 11.00198689028954 10.943154677642003 40.475426868505565 0 0 0
440 1 22.219723031534777 12.140808967764823 22.089538451411656 0 0 0
441 1 16.58076116838237 3.113509239492639 40.2867004916547 0 1 0
442 1 0.7578398617653185 16.38161092599908 20.969660141997643 1 0 0