LAMMPS data file via write_data, version 29 Oct 2020, timestep = 6000000

6589 atoms
2 atom types

0.2047993073389094 49.01520069266343 xlo xhi
0.20396561326220564 48.8156703171515 ylo yhi
0.8978338991400889 59.16416610085751 zlo zhi

Masses

1 18.015
2 12.01

Atoms # atomic

4716 1 1.3433293312887142 7.061031285562794 2.507018638339453 -2 2 1
5064 1 22.18909726062515 10.156135825625794 14.623795367683677 0 -2 1
40 1 7.704432569379638 22.39478507327539 2.272110323204318 -1 0 1
62 1 2.424952212752261 4.431152283823024 3.362448201243045 2 2 1
6273 1 7.5510811137454255 23.53722649698853 18.626257459564712 -1 0 1
551 1 11.304550829720219 5.580246254975481 2.1615392262723816 2 2 1
1837 1 6.129694612718922 3.449475789130829 3.9819703897328336 2 -2 0
435 1 21.7336953454062 2.037403221399286 10.407711888096681 4 0 1
5520 1 6.739429015695371 0.6050995805514948 17.620112029935893 -2 3 1
1904 1 12.345985147833982 20.85000378723066 2.928273109486548 0 3 0
187 1 18.037584104378414 3.86223863761596 5.781869060536119 0 -1 0
2001 1 16.202437216492356 4.655247753940035 3.7433087348560656 -1 0 0
6253 1 20.559896611818697 6.502360556028164 3.573185459770497 -7 0 1
1314 1 14.29247864715761 1.045644418680384 17.40387204231865 -3 -2 1
1488 1 23.150865530560324 14.187741892368805 5.366230578874111 4 3 1
2141 1 6.30790984268178 10.263216627567152 2.2669478523407536 -4 -4 1
1895 1 11.482169950562708 9.703361033802002 4.772880008444626 3 -4 0
4747 1 8.236948096508625 7.067679310259495 1.0883490056185376 1 -5 1
3 1 16.989796516672754 6.877653707992835 2.078790937872428 -4 -1 1
6513 1 15.703277615792109 0.952022250353535 13.02155782063202 8 5 1
116 1 23.911778440883083 21.48696702087613 1.2360007063761722 -3 1 0
1414 1 22.746954982747056 8.03212083245065 2.593876834516909 -1 0 1
4999 1 5.623938015709165 22.528016331649216 16.850220274944643 1 0 0
5479 1 19.37562931613564 15.975264698537957 1.7041063799060754 3 -1 1
2049 1 22.700631741850234 22.386795007817415 17.362847534385583 1 -4 0
4980 1 6.645481228108412 4.625536973493255 1.209173159324013 2 7 0
276 1 19.669293775478753 24.347919078268095 9.255344443172874 0 1 0
3703 1 2.0834386823498683 1.626011403796628 4.579706287447869 0 4 0
4596 1 3.4314459364853573 18.419609711050875 5.2904957213143975 3 0 0
5229 1 13.901568355624208 11.403675087222064 3.584772955506699 1 1 1
6216 1 15.49312009381671 9.391877724800654 4.426446093131098 -3 -4 1
1445 1 17.832827011333098 9.559601549568189 2.962783354848326 -1 -2 1
6222 1 24.609466001199774 13.69253713878556 2.0918155375596266 -1 1 1
1846 1 20.72611761964031 12.113866630278551 1.8282374462944226 0 4 0
5316 1 1.0774765958381163 8.978115442898032 10.887704769948332 2 0 0
6363 1 22.85268115255272 0.4894380606073767 3.6361599378822596 1 1 1
3050 1 6.57476495417171 12.777769033090458 4.153617736313649 -4 -5 0
6572 1 2.214175705842 14.957550251003918 3.0582508343129233 -3 0 0
6396 1 23.241533632788556 17.51306013564414 6.590994702190814 -3 3 1
1685 1 6.369587023991829 23.93408850760545 13.036129518807028 2 0 1
3524 1 7.500115107496588 16.48664028360087 5.394799013705387 3 -1 1
1544 1 12.536320497538838 15.897143502262528 2.8719693706989253 -1 -2 1
3110 1 12.7490305947262 13.712992923817895 4.578581917027575 1 2 1
5135 1 20.26296609546716 0.3790831463194948 2.6211496161148577 -1 2 0
239 1 3.618313337505457 20.30718591346263 1.3595908344796372 -1 -3 0
1788 1 16.086264356844104 13.704684426828267 4.304111975859244 4 0 0
3636 1 16.903868765925335 14.622338010766228 1.5507301842519352 0 3 0
3378 1 21.704943038175642 11.913006895017029 4.577993799821433 2 0 0
1905 1 16.466252123802263 2.7041504169633397 1.172062404993317 -1 2 0
317 1 1.4456597238747044 21.353144429086964 6.235756945595469 -2 -1 0
3020 1 7.134123777422574 20.62575148484597 4.420990516487121 -1 0 1
1306 1 4.5027389493958445 20.42601222448537 4.073235766336845 0 0 1
312 1 9.108325168411179 18.59368159981514 3.898980138004527 1 -1 0
3839 1 11.068728542057004 17.947777534186518 6.778640949724623 2 2 0
3337 1 11.956692687130356 18.173832275246816 4.2785759919574335 -4 1 0
5536 1 23.45632305999621 13.365996624585723 9.305362954405958 0 3 1
1759 1 16.2433354578285 19.873550959071828 3.0513975051589712 0 3 1
3468 1 18.549008546821312 18.883969152118976 2.238776761536716 1 -4 1
6367 1 16.798480536613646 16.17512676380062 18.593854969097897 -4 1 0
467 1 23.25195875386004 0.9994431758324136 6.815333046667908 2 2 0
5507 1 22.175393182247884 19.73436237794296 4.056558068729264 5 0 1
4981 1 22.310697426580873 16.84491914127212 4.1329857952983104 1 -5 1
417 1 23.598352224843808 16.942056372056093 1.6121317217095972 3 1 0
1704 1 0.45999786535588255 22.799045873944312 3.0372046585437236 1 3 1
6454 1 20.976372736645754 1.7715005298156574 7.959755026070904 -3 4 0
453 1 23.738377907318092 19.408579547397018 17.570470468273633 4 -2 0
3348 1 1.0198237225746798 9.36327245435452 15.85491072446488 -2 3 0
4715 1 12.524357930379672 23.24125896692878 3.99458867400993 2 -6 1
1379 1 20.670499067510868 23.892787396456132 6.763615598813204 -5 -4 1
5432 1 14.572571490110532 23.508004728602202 5.98718180866278 -1 1 0
1777 1 12.217677466310038 1.2765511426627292 2.088717675695861 3 -1 0
3154 1 9.72348973082825 20.492589301665497 1.7031910634179426 -3 1 1
5464 1 20.74569824984143 22.02679632329912 2.4066615432953578 3 -1 0
6226 1 4.089352662430422 2.3426361334415193 6.624642375783843 2 2 1
3384 1 8.305337423637177 3.721270157083614 5.536241222301207 4 -6 0
5125 1 4.261261897932047 5.182931513308663 5.261372403265078 -5 3 1
4783 1 3.4484858003578966 23.151601665046744 4.736919947714664 2 -3 1
1592 1 11.894204864944363 3.1086825155718123 4.091241910758407 -1 2 1
3330 1 12.92627729506354 0.5164288469650042 8.237701611035995 -3 -1 1
2111 1 13.347121789730418 2.651726193134814 6.520052451407801 1 -1 0
3547 1 13.275770120586024 5.335057233138303 7.070419264270518 -1 -2 1
5028 1 21.086580831634357 3.976827940779371 4.918916393118605 4 -2 1
4702 1 20.69510484562213 4.504213176141732 7.6343115106286685 2 3 1
581 1 17.34373878220358 3.058663019997572 9.779322127119546 -5 0 1
5294 1 0.5934501928322786 1.2595962340001867 14.354115676790158 -4 -1 1
5051 1 24.60431787330271 15.07005392620658 18.05094059972899 0 0 0
3038 1 2.8253913068900784 8.646129259257032 4.105469642737826 1 2 1
1362 1 19.34865824869238 2.3972976848995793 11.60937438740513 0 6 1
3003 1 7.772233873070651 8.167148669976793 4.072221540630601 2 -2 1
162 1 5.3438926389173504 7.927562324196593 5.422699138600909 4 -2 0
6510 1 5.560105375104599 9.139055378305288 7.914322024052596 -1 4 1
518 1 9.486711217661872 5.8132948668099145 4.351385213085527 2 -1 0
2078 1 11.085799967759183 7.189460646829292 6.320634706050232 5 1 0
6249 1 12.734495096472486 7.497780469294129 3.1762432146762998 -1 -7 1
2954 1 14.564433529865083 6.632409705594612 5.035403097788676 4 -5 1
4590 1 17.548095870904685 6.4988721375255105 6.485119170415605 1 0 1
1687 1 19.089308552878666 8.160112839575307 5.0612403167528495 3 -1 0
1734 1 20.356243319052705 9.34786049199327 7.264469905567638 -5 2 1
1607 1 0.8249516173869212 9.093691858723595 6.40054291989265 -3 -3 1
1854 1 3.4089600187644438 11.21852126862508 3.270112663937805 2 3 1
3277 1 7.750765510759542 16.888449561199696 2.160794229856684 2 -2 0
1678 1 8.378606240787363 9.83623946711414 7.623567714411112 2 -3 0
1405 1 7.823232382787496 14.015881547248174 8.949418191992953 5 3 1
131 1 10.929190897037309 13.413674009209688 6.549392978474636 -3 1 1
4911 1 8.963187830859324 10.425634016713504 4.771668892209424 -1 0 1
4917 1 12.46151857282845 9.790575175316382 7.445111624503295 -2 2 1
3444 1 15.211916122613443 9.937470858029247 7.108006704317784 0 9 0
4939 1 16.579332579396446 12.404956266118706 6.994682946348884 1 2 1
4926 1 18.447034382145375 12.086482621216415 3.876154457230434 -2 -4 0
2254 1 21.3778146638122 13.890583499102993 7.538566389210636 2 0 1
6493 1 24.171876663757317 3.1083934978151007 4.322158492476898 1 -1 1
1765 1 2.3070252015681523 5.372717680684027 7.5203588450464105 6 1 0
1606 1 0.5823469792810274 14.028623184695 8.14763949391638 0 -3 1
3100 1 4.920252636070442 16.33599685242149 1.8462249753093172 1 -1 1
5289 1 3.921983418911299 13.589361795064962 4.745709544735453 0 -4 0
1716 1 3.009966436211753 13.023794586468151 7.179986994698833 -2 -1 1
1955 1 11.507188269947662 12.054265821252818 8.504828907146035 0 -4 0
1991 1 8.114871409654686 13.794317068557225 6.241707640637531 1 -2 0
4851 1 14.885637110932034 15.019423659392274 7.155144258041155 0 -1 1
5078 1 16.776647653567434 16.76650078823273 5.611472290531136 -5 -5 0
3369 1 19.674800989601767 15.925091973160562 4.613706607537614 -2 -1 0
2986 1 20.787832681972475 16.566042149394832 7.749339647486792 0 -2 1
5279 1 3.6533368114616476 4.379847344169495 1.105021093720944 3 3 0
3654 1 3.4865118734969665 24.13371591572433 2.161953275880214 3 0 0
2227 1 4.890924454813102 16.225459702358 4.59117219487627 2 0 1
6279 1 23.377849962800713 3.867024272913772 11.118811458308256 -4 -3 1
6538 1 23.037984250821534 10.280301798709147 6.6921313843569115 1 2 0
4779 1 6.290049792781957 21.136596495472123 9.60508971713505 3 3 1
3456 1 8.387680820440202 18.09227077791959 7.557012539855566 6 -3 0
3235 1 12.531617318302878 19.95275493119239 7.991276165696415 -4 1 1
4990 1 10.62686366411629 21.9367733882161 7.9454944322872985 -3 -2 0
175 1 11.822879708727584 15.588639717205071 8.056487428154728 -1 -1 0
3273 1 14.76762118145478 18.63711779477258 5.306190416129986 -2 -3 1
5115 1 18.163513127527107 17.082209635913827 7.845746524400408 0 2 0
5526 1 19.32831120123727 20.05113472764504 4.790278807004605 0 0 1
1819 1 17.81778176453379 19.797346086233155 7.893056975843563 6 -8 0
3355 1 22.906711752641915 22.179489464726085 6.471892481769104 -3 0 0
2118 1 21.069832269686398 20.116569072627424 7.229775138901848 -3 3 0
1285 1 13.775325840738894 22.62835596438465 19.158809772567615 1 1 0
3392 1 16.97651307820216 7.768425032548376 19.851267568165024 3 0 0
2220 1 1.1865757773841712 17.630172820841878 3.864222345742788 -1 3 1
147 1 8.086404529202962 20.949602079045437 7.309477260700022 -5 2 1
3735 1 9.969872168026255 15.199093726029643 1.6666937342486663 -4 6 0
1756 1 14.98710066965119 20.91371317569929 6.865866194451245 0 0 1
2113 1 18.968953710278154 22.844761339530024 4.609479529861979 -1 -2 0
1763 1 0.6798356085465882 19.26544900617592 19.120303085122064 -2 0 0
4752 1 0.8149148044590259 0.7029522399341239 18.252676934018975 -3 -1 1
1288 1 22.067565626895274 19.037503865539733 19.65433076981927 7 -1 1
4767 1 2.1030883579338804 2.6999039931385673 8.422767352087291 1 -4 1
6488 1 3.058026938621773 2.6516784759298435 10.800415700234957 4 0 1
5188 1 6.088002225418485 2.4131129351895204 10.33009765569087 1 1 0
2072 1 18.49458611064076 23.23152992275063 18.58939056678818 0 3 1
4655 1 9.301009134481353 2.988404908826416 10.305010453783968 -2 -2 1
2045 1 24.469856596027086 3.6059375864186056 7.049017593044398 5 1 0
4561 1 12.25155294043169 2.2978059165734366 10.723267844179253 -4 0 1
3397 1 18.536912164623594 5.463476231034033 8.962054598756103 -1 0 0
3663 1 21.05457015697866 2.465291903418667 15.497515727612052 5 5 0
6558 1 22.076628763886323 7.516961295836173 12.86442010294616 -2 2 1
1277 1 2.8887301679264636 6.765573656287177 9.954484033881359 -1 1 1
4919 1 14.711974898187451 0.799097118004547 2.313594594321141 0 3 1
365 1 2.0119130409423107 4.774283670521132 11.721262017992762 4 1 0
294 1 5.811146816196882 4.489703056430641 8.155220425081742 -6 3 0
73 1 5.52000214759682 7.001656200107137 9.520274452867863 1 -2 1
3532 1 8.543404401416527 4.762141108685095 8.182677231109295 3 1 0
4856 1 6.546477575054398 7.851495870390445 11.869098172871588 0 4 1
3832 1 9.387654853435446 7.530118026352194 8.351658252504041 3 1 1
3559 1 14.163774282662391 6.148918198786808 9.422420646525321 -1 0 0
1358 1 16.318405345714694 7.823148696040041 8.721596651348165 0 2 1
5271 1 14.650125509907877 3.7560986430704433 10.830437048921473 0 -2 0
3183 1 17.783565600349004 8.143331019272777 11.106807784819907 3 1 0
1698 1 20.588345226111564 9.048818605846416 10.183675603066003 -1 2 0
5205 1 19.97256233433472 6.2311781225143505 11.587011796809623 3 2 0
4973 1 2.176521119616133 0.3994790073379265 12.547458641439876 1 7 1
3048 1 16.153817172101377 2.3045015746245117 7.074992966695404 3 3 1
1938 1 2.9069425611472566 10.309408494696525 7.965846247272193 1 5 0
3423 1 19.32702324795196 5.136924948372978 18.302941715268602 4 1 1
1874 1 4.316862346305658 8.997640535643665 12.6583992260743 -3 -5 0
81 1 8.652121735887052 9.927445449093687 11.867491005728946 -4 -1 0
6467 1 12.702780536734924 11.751878829904935 12.594038958554284 4 2 1
2069 1 9.008518585999902 11.452803831619578 9.590877748232435 -1 -4 1
3847 1 12.00701283799127 7.985441779389322 9.66592559242692 3 2 1
524 1 19.56574041820425 11.852633269044075 6.6006260678288795 -3 5 1
1834 1 21.634947299598572 14.05420331582129 11.254333411266758 1 2 0
2076 1 24.429892877762274 11.010778725441256 12.149496192880443 -3 -5 0
2030 1 21.614194276414963 11.143821335393689 11.896430137955788 -4 -2 0
2084 1 23.306662073014788 3.700215094565721 19.07591483751882 -1 -1 0
4994 1 3.159024186766007 10.831925669748243 10.921664071469793 1 3 0
4854 1 5.070597005742814 13.709902775019144 9.287541015357512 -1 2 1
3035 1 4.723914723708034 13.277903956884094 11.8780838179366 -3 0 0
3665 1 9.739366552156799 15.17505634456585 11.28691495186908 -1 0 0
267 1 7.64053317838627 16.74471960293175 9.920950991429727 -1 -1 0
5073 1 10.577110652115474 13.577649366903152 13.177263719050659 0 4 0
5418 1 13.471024994935156 12.759977120685205 10.274892075162706 1 -4 0
4676 1 16.28234151883869 12.960838293221444 9.706317272807947 -2 -1 1
4575 1 12.263593242573751 15.411789173810583 10.645524537125429 -3 -1 1
3304 1 16.56104146730653 15.754221130831118 9.798843918187107 0 0 1
3231 1 18.425903759566815 16.13475360207897 12.107106854490779 6 -2 0
3422 1 24.600524173607855 21.175927447534757 3.8768764579381663 2 8 0
1435 1 21.438515982542356 16.9163542719767 10.33119010524343 4 1 1
1390 1 19.431995282618967 5.922462247677824 1.2603747545159527 0 2 1
3698 1 1.9006428954739727 20.373348658990817 11.540010337360206 -3 -1 0
208 1 4.3639217900387 19.423938705321767 10.124013709570583 -3 3 1
6406 1 4.900513641249644 16.60864689652977 10.640659941142482 -2 -1 1
4763 1 9.444788020355336 17.719534744389243 12.245977859213465 0 -4 1
503 1 10.035670953430243 22.225751095510496 10.659685330102667 2 -2 1
3102 1 11.180942118121532 19.85448887012688 12.327477070148257 0 -2 1
3388 1 13.306644237771835 19.485691202157938 10.801295443451805 -3 4 0
4723 1 15.5881487670625 21.049274848389654 9.821509391238664 1 3 1
2102 1 19.392705188960488 21.45696721134913 9.709618929376076 7 -3 0
3556 1 20.269268656332788 18.464995654677697 12.65046486757068 -4 0 0
1632 1 21.46812688325331 20.362127094423283 10.689738585603406 -5 1 1
4968 1 24.10338445468512 17.447096217932767 10.769689408506249 0 1 0
3066 1 2.483193507693342 22.945448191963447 11.17466270070965 2 2 1
1768 1 7.995273633930522 20.185255349702018 11.750785113862987 0 3 1
5150 1 5.020397888755202 23.241257331359257 10.62977889242066 0 -4 0
1942 1 5.7751453963690365 5.249313407186517 18.37059321510997 -4 2 0
3362 1 14.532872527034417 23.490842628562394 9.047541104054766 2 2 1
2064 1 12.598542059488876 23.25033723365175 10.940272529490418 2 -2 0
514 1 6.070376019484907 0.9783067933144823 2.6659802155565897 -4 -2 0
6355 1 22.942498362159466 22.771455521658115 19.976205153886095 0 0 1
212 1 23.73330665791413 3.543430691165943 1.5106292534847485 -1 1 0
6291 1 14.155731880594741 23.03667272568251 13.678531270343491 -1 3 0
69 1 2.2294053402338094 11.82741313392492 20.226812196140667 5 -3 1
2134 1 23.3324530028947 5.233054237531315 8.86470070471253 2 2 1
1477 1 1.5040706488210003 3.3378113131238316 15.780655784354725 -1 -1 1
5470 1 6.985468472950804 2.081050706800207 13.174287898109167 -1 0 1
5195 1 5.566315779130457 4.07375269703855 14.385002953895123 -3 -4 0
3699 1 7.6007661223011445 23.307630487564964 5.457582839834075 -2 -1 0
4947 1 9.076619073054026 3.975150209993659 13.141886977696224 -3 -1 1
5221 1 11.086816459324695 2.4530070776420962 14.656757816294194 1 -2 1
2002 1 12.109664925117784 0.7785862451353865 12.84826219449655 -2 4 0
3126 1 15.629800349785627 3.704295050566415 13.487427141084797 2 5 1
5161 1 17.636290386437818 5.9224963691086145 14.620133520034486 -2 -2 0
531 1 18.678506465938877 1.9671978066245703 17.171549174092952 -3 1 1
4881 1 19.426645579811055 8.225170611332828 18.786443710558366 0 2 0
1840 1 24.029278638146327 8.263594298511412 5.067593820603062 -1 0 0
1720 1 22.649486179097515 4.784515755536833 13.847960180369888 0 0 0
464 1 3.5007676129626626 8.037447141225009 15.037711960924447 -2 -2 0
6344 1 3.0138317408435253 5.336111355525177 14.317644995645262 6 2 1
2191 1 7.426899838998538 6.158259963481703 13.91803578095545 3 8 1
6541 1 13.485176573035064 4.180551102756553 15.090018385484386 -5 4 0
4732 1 11.033409206214285 8.254314591304743 15.214906350854353 3 -2 1
90 1 14.267148446010376 8.677890548968316 13.467105360589143 -1 3 1
103 1 13.162250235385885 6.8483044408159515 15.685418355481302 -2 3 0
5040 1 19.63292968509348 4.108521434320797 13.566599737362706 3 -3 0
4722 1 15.638052937004598 6.731420327622919 12.241792027436725 1 4 1
4936 1 15.207780232695479 7.15956991658827 17.808889341717663 -3 -2 1
1822 1 21.407889861642985 7.3923605742014 15.875812025182158 0 0 0
2936 1 18.58447058414449 8.697307092832997 15.217775104019427 -3 3 1
5119 1 9.977765365619303 2.2380354615512412 19.91371852536181 3 6 0
4908 1 5.328997999265848 11.174754569918191 13.964978988520675 -3 -4 1
1386 1 3.9258580771192593 12.416703393637107 16.010144756708165 -4 -3 0
1730 1 11.539256182841365 8.966883296176654 12.292694943726817 0 0 0
182 1 11.192281448215665 10.372532732492274 16.78277716269608 6 1 1
3018 1 8.693510630136768 11.70112436201237 16.754072989826042 2 0 1
1982 1 16.040909123614675 9.208889740455115 15.96979682056427 0 -3 1
5031 1 13.194000563929539 12.494874441872758 16.900097848563735 -1 1 0
3770 1 16.74037969819939 11.563503032781997 14.137413402818343 -3 1 1
555 1 18.854854877073404 10.296784800678438 12.737276996072495 -2 2 1
320 1 18.319164521967565 13.561075805580026 14.689482614666616 -2 1 1
1875 1 20.852143231523222 13.901599427018938 16.190719616528543 -1 -2 0
4612 1 3.489228899247484 7.670816623206324 19.28727012948182 2 -4 1
3241 1 8.388079188768975 11.890155864763111 13.971234740785269 0 1 0
2057 1 2.122548307801047 14.283532812185205 11.88298006814183 4 8 0
430 1 7.938253598538944 16.71492113736812 17.01238679421279 -4 -1 0
2982 1 12.177178271163381 19.034563379600367 14.685505533323742 0 2 1
93 1 14.291010994660176 12.673820570745963 14.37903261403357 5 2 0
4699 1 11.937610568467226 14.79185839938399 16.58231694319958 5 -1 0
5508 1 18.64679666037148 13.133542665502047 11.498859523535758 3 3 1
1666 1 16.533319898945102 17.706369360939004 13.373574971965306 2 -2 0
6496 1 14.193819610212334 15.607961797616339 13.751222922451458 1 3 0
516 1 2.4429108170738885 19.174182806713883 8.120369960318401 1 0 0
1770 1 20.299162629725544 16.750517978368496 16.104916896125474 -3 6 0
6215 1 1.1007610230236562 19.840273115127573 14.019656226054748 1 -1 1
127 1 2.939023847387728 19.297391856585474 16.35157672532325 -6 1 0
301 1 4.849908928771905 17.202860281172615 13.326118711072606 1 -3 0
1667 1 6.843781547829197 21.295906245414535 14.353185996467131 0 0 1
300 1 7.825217959659333 16.92994728564186 14.27391993513809 0 -2 0
5457 1 11.658720192170966 15.995190543906864 14.159125314506765 2 1 1
6210 1 8.220277447011862 20.534425288454784 18.47625182501656 2 4 1
218 1 14.647573810883028 20.001451984886415 13.8089797391668 1 -3 0
527 1 14.470816156045773 16.969679216158433 11.128708493568235 1 4 1
533 1 12.046712045756355 20.879776524572513 16.80082688912062 -2 0 1
53 1 18.07299879991941 20.369147776288287 13.847252794728442 -2 -2 1
5424 1 16.559997188092822 20.532830354219087 16.55156419822702 1 3 0
1828 1 18.983373619783563 20.429996999608672 18.13426280542307 1 4 0
4769 1 20.286182140507506 0.24585542800066218 18.9681761464521 3 -1 1
5186 1 20.833145843473492 20.844055165009877 15.803697064903654 0 -2 0
2237 1 14.26034361355927 23.709214385319278 1.886779360764614 1 -2 0
2987 1 1.142204549895788 23.170326582956395 18.875150903329345 -1 0 1
305 1 4.242186878521444 19.718057906721562 13.822294330411864 -1 0 0
6192 1 1.507709660882353 23.44635602153452 14.7982753966053 0 2 1
6511 1 0.5379134094684788 16.760898107519363 6.6567261740522214 2 1 1
3011 1 6.347268544894049 19.012710342846244 16.329878212553236 3 1 1
3632 1 9.136338560698075 22.546157488249108 16.144836227448803 -2 0 0
1694 1 1.7728899357595074 16.151424342794655 9.382874270878597 0 1 1
15 1 11.189442630018759 22.353937092747575 13.993934166177574 -1 0 0
1475 1 16.475788826822388 24.392580760507858 12.708671694627332 3 0 1
520 1 24.32778164088902 8.238844667608209 11.253175106203507 -1 0 0
5123 1 17.474051029158296 21.928027277201227 11.82584639138129 -1 0 0
4837 1 0.5896365286170927 12.039164473178488 12.099312111004915 -4 4 1
496 1 24.457228143043878 22.997429384171642 14.639732161609016 -4 -2 1
5473 1 20.139075009872336 22.875375834733134 13.946334998230249 -4 2 1
5128 1 9.01163638826562 7.7847480575754116 19.620953202311348 -2 -3 0
4965 1 2.378996609214246 3.2008375175741084 18.301395018644865 1 2 0
3390 1 4.9941645711280245 2.9418765371607547 17.13605829004406 1 3 1
481 1 16.61976338048808 22.53493214070214 2.82142931421311 -1 -1 1
5499 1 15.25415604940108 0.619958749539427 10.125888483527682 2 0 0
1337 1 22.771510467553295 14.274491333675684 13.956587415985853 -4 -4 1
150 1 16.797417111792903 0.733974395926851 15.676397680429623 1 0 0
3073 1 16.900033087044687 4.549008795588323 17.06462666735814 6 2 1
76 1 22.361309748031683 22.443802882169233 12.661662555486462 -1 1 1
3475 1 22.816787491348887 8.575304748087735 18.41066380151417 0 3 1
1891 1 21.624463974675734 4.760957560814443 17.08027439162679 1 6 0
3287 1 23.794672047029316 1.3763955756885247 15.876088340822925 3 0 0
1357 1 0.9897301186380951 5.7155272634596 18.984557700973816 -1 3 1
3437 1 5.344921708515301 7.850743121975636 16.94237222418112 2 -2 1
1409 1 8.510288305126155 7.672207923455904 15.938316244382463 0 -3 1
4751 1 9.93969095951133 1.4088434961268081 17.145213756278086 -2 2 1
331 1 19.11416998036542 3.3762708244173765 2.47571891968572 -4 -1 0
5088 1 9.192193830108868 5.177569062695614 16.673964158919006 -2 1 0
5369 1 1.0638318180336435 9.394284224646805 18.949959341055557 2 1 0
3754 1 14.244302381198828 3.99717676257836 17.822979235753234 0 4 1
2988 1 11.78242470844541 6.135283233751392 18.057140836765942 -1 -1 1
6405 1 19.89891162919636 10.285701752042455 16.991517445791505 0 2 1
6234 1 9.995035270439995 1.6426822187101078 5.678780728904368 2 4 1
1883 1 22.70859970030908 11.478114400257216 17.163810077360818 -7 0 0
4912 1 24.519844992203726 7.597114450896327 8.376005982908918 0 -4 1
3783 1 24.328002209926424 6.030453487845976 19.886749117160033 1 4 0
3203 1 4.486249032146673 10.789209887137375 18.501386344178037 1 2 1
1791 1 7.408176159805921 9.535139598840793 18.060727552476344 6 -5 1
1489 1 23.506891665579698 21.654724184070346 9.181325042434851 -5 -2 1
1719 1 11.405425732852585 8.605380767404476 18.99526358175866 0 4 0
5430 1 15.642417845277182 11.289680404403137 17.825617897563767 5 2 1
243 1 18.225657675706245 13.900754781681218 19.9501842085321 6 -3 1
1302 1 18.28021008503011 12.401848985712858 17.514419516159947 2 0 1
4818 1 1.6534795825767996 14.113787676125174 16.707765743412367 1 -1 0
4595 1 6.35425953352834 13.080343486605829 17.837149017147233 1 1 1
4666 1 2.4810295711663874 15.786253250761852 14.215960216106875 -2 4 1
2912 1 22.000776295637717 14.311876589336002 19.030993864814846 2 -5 1
348 1 4.97501268856703 15.140103576772729 16.050017702113134 3 -4 0
6247 1 7.125800521094901 17.722158202226492 19.727712484224902 1 2 0
6457 1 24.29838015717269 24.096923520305836 9.786988263573633 -2 -4 0
3817 1 23.580032058707115 16.671174999682346 13.584984146597122 0 0 1
324 1 9.342089062372036 14.500842566937324 17.624018427093425 2 3 0
3340 1 11.671326948383065 18.214880071248256 19.638146652774154 -1 -2 0
6578 1 14.39054195274944 16.620692482684625 16.53932518410703 -4 0 1
5387 1 17.617608200240443 16.1539295369314 15.453952555909554 0 1 0
396 1 8.696758372895962 5.004863337406299 19.5043074477522 -2 2 0
3675 1 22.094336660770846 19.289104642102355 0.9833693458257781 -5 -6 0
5124 1 7.6228747137332435 13.412524812544511 1.616042420246584 2 1 0
129 1 2.872550349740005 22.15776861715817 16.95958905282695 3 3 0
3627 1 6.75542507978091 14.173524034409136 13.483010596266743 0 2 1
3762 1 4.485148100591995 17.113616701667762 18.148834319125424 -2 -2 1
5527 1 14.127125410959632 0.6162653031387944 20.237592051411752 2 -3 1
4659 1 10.063373949718022 18.373148544279484 17.410957312563283 -1 4 1
6205 1 14.710280935407688 22.589589761452157 16.67060917417266 -1 5 1
1781 1 14.210925532332796 19.137489935633216 17.93646588034556 -2 -1 0
5518 1 19.287946282240686 17.470022485956243 18.463835758511333 4 6 1
6230 1 22.286369370088362 18.56816187361786 15.422324462575041 1 -2 1
3222 1 5.164797394913593 20.359716379523604 18.941476145391732 -2 2 1
414 1 2.8375646383389856 14.321486929280134 19.372348544582742 -2 -3 1
3739 1 11.364181334441945 23.70038973621607 17.830671536836444 4 -1 0
6422 1 13.610079119802442 13.501182884766633 19.81639382013493 1 0 0
4624 1 22.53614246891649 11.071633343764269 20.092891491192272 -3 -1 1
3017 1 12.919083365093384 11.388716442111393 1.0846145496681459 2 2 1
5138 1 1.2640223622063471 24.445947010986774 23.652553481969534 -5 3 0
3024 1 23.6415155146927 10.0966925824089 22.575624994798908 2 2 1
264 1 23.003107711254412 24.270122495562784 39.669246835400145 1 2 -1
4893 1 20.754905310046503 21.222093119035467 20.98984100043901 1 -1 1
5377 1 18.371907878247598 24.07112744860432 22.63941572238896 4 0 0
488 1 7.6597872846243815 0.866247355089278 36.45348816772534 -1 1 0
5444 1 11.31277140203657 3.4872387689906015 23.919861350469084 0 0 1
4884 1 24.016240670807857 11.757610535839365 38.80653221968593 1 2 -1
1992 1 7.611181087029686 6.528287789306456 22.33652761794546 5 0 0
1773 1 14.14515567959297 2.359744013326819 23.95452789455583 -2 3 0
1755 1 16.062169418689244 4.201429003429046 24.833198454943933 -4 -3 0
3534 1 16.17282905448127 0.4643407691237531 21.7823680896394 0 3 0
4689 1 19.89231112055665 4.3439953361625365 21.03663373151057 2 -1 0
3141 1 20.03199059527928 2.0272474772071387 39.628853740503786 1 -1 0
34 1 20.356317481780007 12.69106736929182 20.974049172182365 2 2 0
3763 1 14.881099639235563 22.187808911037813 36.42145347711234 -2 2 -1
1671 1 21.64178122338894 5.110320406406883 23.26894015110951 0 2 1
3602 1 1.5130695003347625 16.017739099001837 39.67430725074925 2 -3 -1
1923 1 5.719135492784957 3.274674267265211 24.197295555992756 2 -2 0
3441 1 22.743612738691287 8.127174627414167 39.416952499914956 0 0 -1
4632 1 7.538552732820576 2.4784916439300266 21.948056671279378 3 -3 1
1877 1 6.258132705778314 7.946342190997852 24.33340011904154 -5 2 0
5117 1 23.41382915316622 14.252682073147813 23.009182856641416 4 1 0
3333 1 14.050220656657846 24.36101146280038 23.541615079863274 0 0 1
434 1 5.077392628697109 6.85828011643415 39.11403718954264 -3 -4 -1
1398 1 12.5039852238898 6.174744556691617 23.750317418058373 2 1 1
329 1 15.265418592009224 6.530731388258019 23.89164942916501 -1 2 1
223 1 17.627069040544264 22.039268793456973 21.111991009085642 0 0 1
354 1 16.114576349778343 9.187026704343548 23.406110156817366 5 -2 0
5330 1 21.40273806698182 8.063982278609494 22.979032377974058 0 1 0
228 1 2.511040755163219 11.78779244987496 39.23346564337381 2 -2 -1
6324 1 3.298604354795778 7.232809211488982 23.58275550426658 0 0 1
270 1 9.407215483698817 14.309296777515241 20.510277738616274 -3 2 0
363 1 13.23491033160784 14.283014538460451 39.262447107835946 2 0 0
5092 1 6.929255657759249 13.298710280674687 23.912149049012015 0 2 0
1953 1 5.038873871347747 15.066779914266423 23.68436897342205 -3 0 1
4744 1 6.827639734796997 10.562302918189006 20.766924175064748 5 -2 1
3177 1 9.441630960334013 16.94730041619467 21.302283292612042 0 -1 1
277 1 7.3392220572427105 10.61041175285336 24.194962567343634 -3 -5 0
5284 1 8.597520509866055 4.3616911359441985 23.746536037688763 6 -3 0
4971 1 9.141058029089766 9.126614820318066 22.4386727006154 4 0 0
1735 1 21.420349079502863 2.0806088368791826 20.57532239951206 1 -3 0
5384 1 13.9709257375415 10.792130959722694 24.09571390739207 -2 -2 0
1352 1 23.38959635303454 1.5793754378560638 24.436934327460097 -1 0 1
3516 1 18.939830881452462 9.674189742022458 23.8972298071355 -1 1 0
4658 1 24.040338071513478 18.064216811209924 22.049132580115117 -1 -1 1
5091 1 18.890183300716128 12.225361845744066 24.23540021030416 1 -2 1
2006 1 19.623158250408455 9.975706860228932 21.148399848809035 0 -6 0
523 1 5.425298751658943 12.864489639830426 38.87859463072409 5 0 0
5265 1 2.5248843601821047 13.801463853120154 23.60839267031603 0 0 0
4934 1 17.522184084241577 3.2111797078166435 22.321095624386203 0 -4 0
4705 1 12.564348006364552 9.895147307733893 21.077415015647773 -2 -2 1
3128 1 15.924618442359622 5.299513238765479 21.349927360232012 2 7 0
287 1 9.549728104527464 14.29398228094446 24.162400981769554 2 3 0
44 1 15.637914243917509 18.438943766452354 38.76413167225824 0 6 0
1986 1 12.131243223092813 13.124559094326814 23.65769673146698 0 -4 0
2946 1 13.201916859883505 15.60200268202733 23.176300864824217 3 1 1
577 1 16.221091892451994 12.867808497366736 23.659360528567213 -1 -2 1
6408 1 4.840486328402849 8.612015281037035 21.80247147011438 -3 5 1
5298 1 9.691444202172597 23.487845787485615 23.529952552168027 2 -1 0
1560 1 19.944008357874495 16.516707600713733 22.97594048258227 4 2 1
460 1 20.793291094352035 14.017485194519208 23.25939909517625 -2 -3 1
1429 1 24.276953336160602 12.083366687494571 24.465020941667127 1 2 1
4933 1 5.2434303551470425 5.735318347187092 21.1869466544334 -2 0 1