LAMMPS data file via write_data, version 29 Oct 2020, timestep = 100000

6589 atoms
2 atom types

0.2964697546354955 48.92353024536505 xlo xhi
0.2952628898134968 48.72437304059616 ylo yhi
1.0072634588959843 59.054736541106166 zlo zhi

Masses

1 18.015
2 12.01

Atoms # atomic

406 1 3.5788305150867097 0.738164031369862 2.5206065547473573 0 1 0
3224 1 2.5929581237354413 3.4248569164075136 4.646051862236636 -1 -1 1
6266 1 2.3168206974707397 2.9113879682976105 1.5555159219120058 0 -1 0
368 1 2.1620968491021184 0.46906871292548136 4.954226229020349 0 0 1
1388 1 6.1868510329467385 1.270727263258058 4.118110489968824 -1 1 1
1386 1 5.586046248084223 3.975016370145533 4.171893043373523 1 -1 0
4903 1 7.776101701644491 0.8084075726536424 2.095519442763164 0 1 1
2178 1 10.65948867512693 0.8726982519772513 4.359647083695812 0 1 0
6369 1 11.537177194206258 3.207618036233382 3.3474904408407835 -1 0 1
6505 1 14.810803955700493 3.7356215774197175 1.4703607759197996 0 2 1
3838 1 13.824246826225433 2.09707677152125 5.7188041510200245 1 1 1
2135 1 18.66345882165489 3.148110735095615 2.2190086586477764 0 2 1
3403 1 16.897648142279838 4.232349854132709 4.067798226516377 0 -1 1
4850 1 16.65334466378285 1.5790969650399422 5.595625911818641 0 1 0
2183 1 23.178064028886304 0.9662801614637052 2.115618291394008 0 1 0
2196 1 21.10552168219802 2.2396282718674625 3.4842639814721643 0 0 0
5158 1 2.461970454771613 6.256495045681561 4.650767043212225 1 1 0
3353 1 3.3606041451475424 8.121493954158451 1.9316642950330136 1 0 1
3776 1 0.6172503427699407 6.758102414703394 2.6388270380496706 0 0 1
5208 1 4.909873649719975 7.1956412552101385 4.0343769923980055 0 1 0
5437 1 6.989389070983826 5.684241937535836 1.9364084572378257 1 1 0
6348 1 8.620475283795704 4.447494633210146 4.390280587152036 0 1 1
6493 1 9.00051679152945 6.818760415183657 5.506427655008195 0 1 1
587 1 11.350579750506867 6.985538116474021 2.1150751640093897 0 0 1
1793 1 9.852583126217898 4.910240108729164 1.5435955377727875 0 1 0
592 1 14.030272796700887 4.415311327872379 4.00269960543565 0 0 0
2097 1 13.557128820632789 6.936917891712906 3.8402574616486165 0 -1 0
5291 1 15.311056885299205 8.350030833214202 2.054029769910582 1 -1 0
3369 1 20.38955497027426 7.8302729712301264 2.888052971096126 0 1 0
295 1 19.637767621238915 7.936993699988404 5.337743171554856 0 0 0
4875 1 18.28572751600974 5.926790406219642 1.667139696631053 -1 1 1
3751 1 22.135434972709522 4.425340099374183 4.669413492928841 0 -1 1
1404 1 22.72839547631092 6.3575993806946745 2.642423310562364 1 1 0
63 1 24.514555975597307 8.158462363965235 3.7469813152815856 1 -1 0
4782 1 2.3988599999133355 9.9046205571313 5.700815358725737 1 1 0
40 1 1.9517957945890623 10.31655461725198 2.7199335009612025 -1 0 1
3467 1 7.511310098881073 8.825219906894732 1.587209758478846 0 0 0
6329 1 6.78296227868542 11.268727224777066 3.7247417238944602 1 0 1
1482 1 5.327898198703773 9.64660616129007 5.357794951059088 0 0 1
5485 1 9.766901482712557 8.807431365600175 3.437306981075431 1 -1 1
588 1 10.682788317631147 11.023724335730524 4.420003226565836 0 -1 1
174 1 14.301741444184964 11.254073949494042 2.8751782129406567 0 1 0
5065 1 14.747791892069074 11.009264324982894 5.72323961736734 1 0 0
1276 1 20.257479904449564 11.026377764481154 5.348592857957637 -1 0 1
3109 1 17.422364181976775 9.482846837695487 2.9750730131181924 0 1 1
3523 1 17.410124764087413 9.779966724636333 5.795337952425558 0 -1 0
3538 1 16.87917009983082 12.35852898667714 2.3360726048038867 0 0 0
6542 1 19.722351471888256 10.265461275395635 1.0742453499469389 1 1 0
1906 1 23.97973898803567 12.168357473076387 5.331860952004717 0 0 0
3644 1 23.25762110759334 11.16396082332925 1.3896477111509342 0 0 0
531 1 22.227157881867033 10.159934573100472 3.60541713804343 0 1 1
6529 1 2.928725671245116 12.871277304680007 3.128327126821878 0 -1 1
4590 1 2.6317734200868976 16.339747579291444 1.5582860965541232 0 -2 1
144 1 0.7475413797621998 15.466148627145245 5.332534608351811 0 0 0
1891 1 0.686934796480321 14.471946316600894 2.8716204425372487 1 1 0
3740 1 5.321053391092843 13.595265986434462 4.577660353466186 -1 1 0
2926 1 6.669934615589533 15.906630079448957 3.7797073194056505 1 1 1
1889 1 12.045654491837814 12.707055657500957 2.7959405752084745 -2 1 0
2913 1 9.866765960823917 15.4276195882973 5.099652930423703 1 -1 0
3745 1 8.713146091796315 12.815483083726079 4.900694134169113 0 0 0
4669 1 12.31675646672499 14.384370899264988 4.918276993587045 -1 1 1
1524 1 20.26545196632156 13.059725222817383 1.4935416563584207 0 0 1
4970 1 17.004251139124232 14.407890017349775 4.172689923254417 1 0 0
3595 1 19.681110893226435 13.435304195986003 4.408998166947258 0 0 0
3344 1 21.55767588517825 15.671935149446833 4.284932439253065 0 0 0
6201 1 24.267309914961707 14.794228319388194 3.8804044767256407 0 1 1
3633 1 2.4114459569371616 18.21017992062467 3.6510505583271677 0 -1 0
1798 1 6.546666600027202 20.05274921806397 4.2557924121522595 1 0 0
46 1 4.382001981573525 19.855982278934867 2.601047269958197 0 0 0
3154 1 5.341822762813268 17.28097643087502 1.989142009162498 0 0 1
1523 1 8.655877556460142 19.21400724378842 2.76236853251147 -1 0 1
4687 1 12.13614740225415 18.903765026193387 5.842488140292188 0 1 1
3756 1 11.054691280528337 20.170956595030457 3.5595358225091567 2 1 0
1817 1 11.900807598492259 16.958540337582583 2.066254899999622 0 1 0
332 1 9.192787255830751 16.533810153034633 2.436555736544249 0 0 0
3437 1 13.378848705526732 16.927137327520075 4.3096739576027625 0 0 1
3294 1 16.002286742197967 16.880839095814203 3.2437189511455746 0 0 1
3733 1 12.78434094406665 19.756933611082744 1.4806176865334442 -1 0 0
2168 1 17.20679434554881 19.091052603735342 4.498220897982754 -1 1 0
3381 1 19.466006995103513 19.903896762471216 3.0542371439834137 -1 0 0
3860 1 18.389324180353334 17.330297594902625 1.0450488237673068 0 -1 1
6240 1 21.12644799642597 17.587637775418575 2.3607969413442684 -1 0 1
3522 1 22.760040591417784 19.461238426796136 3.8752653048978054 0 -1 0
52 1 3.2839262648975702 21.514098872570113 4.692595494888055 3 0 1
458 1 2.3425179214284655 23.984497820790303 3.93244228887129 1 1 0
1705 1 0.5098453559838608 21.07172548941249 3.5697795459062376 1 -1 1
6392 1 4.569686984205073 23.951380430315684 1.7884876392084346 0 0 1
3126 1 6.528896288596763 22.43993110678324 5.422852270149908 1 1 1
3385 1 7.4828605429378285 23.222128046029813 2.7024406793838502 -1 -1 0
3402 1 10.369998286084245 22.8981446624399 3.9539222707744326 1 0 0
5177 1 14.010695772493747 22.19097693680287 1.903858431707402 0 0 0
3250 1 15.334288910815369 21.319747970307628 4.496457373579075 0 -1 1
1884 1 12.841318676923777 23.635687869565878 4.882034860790029 0 1 0
1791 1 16.5739044782617 22.792846904931952 1.0978700660539216 1 -1 1
1546 1 17.623840679631748 22.55483416456464 5.570174743491812 0 0 1
6550 1 18.57660146038223 23.606726021906784 2.8983011892793646 0 0 1
4956 1 20.4615081566334 21.86262038505646 1.1071688194903595 -1 0 1
3196 1 23.409145913255358 24.21010780257287 3.6101459929747914 1 -1 1
3711 1 20.588960612578894 20.79711614120243 5.599539065322761 1 1 0
3230 1 22.72109499261158 21.58847185688264 2.3502079917059255 0 0 1
4863 1 21.45595063788933 23.309550662139554 5.460946572071323 2 -1 1
4772 1 1.2135707361179446 3.881050516127443 6.99356105634967 1 0 1
359 1 4.272412606678424 1.2878745806154321 6.817793888303033 -1 1 0
1456 1 3.371952526429796 3.0618772331262285 8.58866373516721 1 0 1
3265 1 1.8116050083761326 1.7463052083952266 10.417814033725428 1 -1 1
1711 1 6.521903043828658 3.5107416081598615 6.790959447637913 1 1 0
5390 1 6.852407257033943 3.4021963467592595 9.964456769800282 0 0 0
399 1 7.465043445835991 0.639871570811669 10.427745388220146 1 0 0
380 1 8.791557433539094 2.041792044368433 5.980993425132555 0 0 0
5277 1 9.41221611911764 0.8668572155616946 8.548792875323937 1 1 0
5410 1 9.166368710602432 4.113602211798213 8.490410873390347 0 1 0
1465 1 11.379048078811353 2.881794532664298 9.706801460268776 1 2 1
5474 1 16.383911142476283 2.2211349248330476 8.449349833114713 1 1 0
1466 1 13.175164098068345 1.3235941528243929 8.54589825055064 0 1 1
3519 1 19.459597381143254 3.413936935197264 7.158857974536552 1 2 0
4631 1 18.858260818095964 1.7487783318023815 9.403269431656527 0 1 0
192 1 20.631524996681158 1.2645710902754854 6.264677218985513 0 1 0
440 1 22.699574637025794 1.2296244957597973 8.246469754081177 0 1 0
3465 1 1.6677592884052954 7.341957882218412 6.907100017349728 0 -1 0
53 1 3.802214948333022 7.394557904431902 8.902702583194358 0 1 1
3585 1 6.398158382384626 6.525276276375289 6.491845943496951 2 1 0
1979 1 4.629567948485338 5.12678253204129 10.401303669016352 0 1 0
3715 1 8.2314575901512 8.144177202724066 9.18623715836074 0 0 0
3361 1 10.461702867632258 6.497589232780679 8.022312339904008 0 1 0
1865 1 16.405035999334608 4.989834235985191 8.39375913353036 -1 1 1
1770 1 13.729952969211805 4.849030416074637 9.57467088574862 0 1 0
4815 1 13.095811916374814 7.515285766583638 9.13909653049032 0 1 1
262 1 16.38338428070872 8.35649251505454 10.24045852198205 0 1 0
3725 1 13.232424549055876 7.851528174688808 6.473104629227674 0 1 0
3374 1 15.926927854778826 7.907756191181591 7.4224343159980695 0 1 0
3211 1 17.97507465639039 5.7155276237704715 6.069389905668314 2 0 1
6420 1 18.91910023126721 5.257327958086851 9.922682634685918 0 1 1
6478 1 19.783526530140136 7.785831879085704 9.372593858345192 0 0 1
4608 1 22.135358586276467 4.8216863075181475 7.59545734110988 1 -1 1
4754 1 21.702238826670722 4.8341212093279715 10.622392765487175 0 0 1
6443 1 21.62548070847561 7.513999120703261 7.273978706731731 1 1 1
3395 1 23.5863890940826 7.259460041673594 9.952038901166832 0 0 0
6205 1 0.6734333169803989 11.239123184304907 9.342094013178823 1 1 1
2053 1 2.6197817298915016 9.55276604378581 10.603360296963022 0 -1 0
4800 1 2.7781505060863454 12.003400087042102 7.4682217267226525 0 0 0
2098 1 5.774824700028736 8.852723210314245 7.941702507772569 0 0 0
1858 1 5.262773331097486 11.520184154200486 8.652769756354068 0 1 0
4596 1 9.311397953598373 10.463411321106607 10.233485514659511 2 0 0
3045 1 11.997848663204714 11.022595750179358 9.174903445056326 -1 -1 1
2058 1 12.415349940952906 10.565316386994185 6.6068450289109935 -1 -1 1
546 1 18.587991715783613 9.96683807651223 8.538107460778466 1 0 0
302 1 22.423575861757207 9.819791762237514 10.313223249242181 0 1 0
5030 1 24.226890401600894 9.047874175883305 6.41980937003432 -1 -1 0
1718 1 21.0744627094111 11.181281293082389 7.976185689738074 1 0 0
1813 1 0.6443049378435899 14.104555076309296 8.455251334073985 1 0 0
3231 1 3.202487420375177 14.331674780798629 6.418445975170444 0 1 0
4987 1 6.525570088178254 13.38480208502817 7.127244893152925 0 0 0
3038 1 5.207041660190489 15.939337206817077 7.699360722891302 1 1 1
2038 1 5.1427518355052815 14.753731466418204 10.531952556569127 -1 0 0
4727 1 8.956955091429913 13.16767615586973 8.684037724999232 1 -1 1
3754 1 11.461718562367889 13.672745870206422 7.928076468310681 0 1 1
2966 1 11.48491475157513 15.389792272382483 10.213362297398923 2 1 0
5465 1 8.792391123502034 16.039113291114916 9.262601367607521 2 -2 0
3810 1 15.150443478021645 13.855881943107002 6.2031390543621105 0 1 0
3379 1 16.298994687370012 13.80738733147776 9.167542457357692 0 1 0
1377 1 15.67861668283577 16.40728572298066 10.081877535805381 0 1 1
5215 1 18.64332671737283 14.938006232306018 7.273339676487691 -1 0 0
1797 1 20.532365549646563 13.746396017583667 8.942338513078596 -1 0 0
2959 1 24.599065491058454 13.643401626589908 7.409555923633715 0 0 1
6491 1 23.5028686007883 13.7082529819698 10.191015708621944 1 1 1
2049 1 22.30431374279971 15.499237730993618 7.47905503291015 1 0 0
3837 1 0.38160718116330344 17.24774070430141 8.502437257098293 0 0 1
3822 1 2.4221463912791963 19.19816412343091 8.872492821107036 1 0 1
4947 1 3.6452442270570504 19.144819095993682 6.106034206078721 0 -1 1
5032 1 6.627649903032189 17.662517731514814 6.137534604999457 0 -1 0
3766 1 6.187854844988744 18.075865429013025 9.739622110470092 1 0 0
3050 1 8.069206130182181 19.741306191279538 8.008028117893637 0 1 0
6496 1 9.676266301498218 17.61505172076479 7.078812391331775 0 1 0
1733 1 11.668344860904194 18.238643114233305 9.388872527961688 -1 1 1
3011 1 16.390521951923983 16.769752878288077 6.830791358637953 1 0 1
4916 1 14.403393458046928 18.261827593087233 8.490026661383421 -1 1 0
1975 1 18.442190135153265 18.543879687927124 7.168931468265646 -1 -1 0
6250 1 22.89966372162005 19.55058764422845 7.278394706804785 0 1 1
1602 1 20.808964533040466 17.783221027781924 6.244932617763958 1 1 0
5381 1 22.853652842770863 17.19477923120672 9.655625498132036 1 0 0
100 1 0.6646748479240671 21.282203768408742 8.74809131388513 0 0 0
6576 1 2.7969004167646014 23.348393702275224 9.255705814480482 2 1 1
1699 1 5.102816405637377 22.170655924668075 10.103923479545552 0 2 0
4979 1 5.640208596419735 21.028458683632618 7.43856614281051 1 0 0
1455 1 9.691903543103411 22.03378276048168 8.738394522122903 0 0 1
5231 1 12.14077195437909 22.815859094929102 7.397428356252807 1 1 1
6459 1 8.920503292518505 23.70785330418035 6.100212446515644 1 1 0
210 1 14.060390491524803 20.863531875150354 7.0214745264392 1 0 0
1517 1 15.674623653924417 20.65125839552959 9.550072619589267 0 1 1
3631 1 16.15188781671324 24.38434983370902 8.979328817827462 0 -1 0
5122 1 13.130214803321236 24.382914541452354 9.649407630969439 -1 -1 1
4838 1 18.19470183351638 21.28307766612859 7.863323852243457 0 0 1
3380 1 19.071683075634766 22.879005410402797 10.016749958188587 -1 0 0
2250 1 22.975310066510946 21.75097981174471 9.41747797104517 -1 1 1
555 1 22.415947025330976 24.10924749224606 8.004201808980454 0 0 1
2063 1 1.2504323823633166 2.731390620111796 13.036887392768548 0 -1 1
5080 1 3.4286192430914153 2.729881550192555 14.814610372690167 1 0 1
3153 1 4.0482119832030685 0.6549166104245392 12.03279471988543 0 1 0
6504 1 7.7736995813656105 4.127336513773651 12.684662065937806 0 0 1
6233 1 7.257177557514263 2.058301671200489 15.205175847480346 1 0 0
2991 1 8.903614665312665 1.1558668072919582 12.857853650075912 1 0 1
1698 1 12.300877455669687 3.0519742845645883 14.295092021823239 0 0 0
3426 1 11.741138059554522 1.6918772161733806 11.965537827445138 1 1 0
166 1 15.64523059595686 2.2632706746397577 11.340669706328496 1 0 0
1958 1 14.977356089513782 2.54134998726809 14.601089260439473 1 0 0
3004 1 17.78832993018765 0.5110831083261098 12.585639223436338 0 0 1
1441 1 19.098516747482996 3.1443473331153755 12.124846464726145 -1 0 1
22 1 17.485878496930983 3.675538826325909 14.621584865352762 0 1 0
328 1 21.932253683177525 1.9009833238817442 10.756292122624817 0 0 0
5236 1 21.625604345884653 1.8763395133374923 15.105624434041177 0 0 0
2076 1 3.028259010111848 5.342970557002648 12.529000404020994 0 0 0
3742 1 2.7674568622207154 8.196185282831127 12.956180476199105 1 0 0
5327 1 5.705203675043923 5.053943159075925 14.400793979582886 1 1 0
1801 1 6.942383391908946 6.64881726091728 11.542592649808471 1 2 1
6573 1 5.245137457872126 8.103517356213898 14.163953268268775 2 0 0
2245 1 8.310647545729175 7.652682542618754 13.838964184750191 -1 1 1
287 1 10.113978040400573 5.247439087129318 13.962131214044964 1 1 0
6363 1 14.786844731303853 5.030393274082376 12.20255443599351 1 -1 1
3604 1 12.673620257559211 6.299096913389739 13.628630525674206 0 0 0
15 1 17.156272081311315 6.434002714290233 12.157600325559129 -1 1 0
497 1 18.338162565728506 6.718105636747645 14.616341511761071 -1 1 0
3244 1 20.954465036489182 5.86423429631991 13.028564365265012 -1 1 0
3759 1 22.985393626527706 8.307011782312527 13.875211022449408 -1 1 1
1739 1 22.753927598977445 4.690906603307655 15.091389620242902 -1 1 0
3288 1 20.73493321729502 8.276974366940415 15.466550412277796 0 1 0
4882 1 1.7869228240510422 9.773867839128085 14.832202350556006 0 -1 1
1845 1 6.638545651359596 10.755024166143425 13.395408466737718 1 0 0
4723 1 4.565118724508404 11.325830608544804 11.3186516245467 1 0 1
4814 1 9.810841741495269 10.002887590722413 12.758956792590022 1 0 1
5196 1 11.43512339347682 12.32293458599733 13.899640377151885 1 1 0
3035 1 14.961956665790991 12.048630680396515 11.223733490937525 0 0 0
561 1 12.486971148218217 9.004260261096128 13.331617097375394 0 0 1
5392 1 13.983490703251862 9.468510718692336 11.015877293495073 1 1 0
420 1 17.711247240331453 11.22469803924651 11.10010544314364 1 1 0
1490 1 20.258878598360276 8.96856991617576 12.210814703293257 0 0 1
3571 1 17.078943381173797 9.369203490017043 14.888918638502853 1 1 0
5063 1 18.596803419905175 11.06886087212599 13.465159268515453 0 -1 0
4587 1 23.159074728938233 11.245022333662991 13.294787356969746 -2 0 0
2021 1 3.190469442921405 13.429858204067923 12.325012238352505 2 0 0
4920 1 4.279964925363043 13.791737094058188 14.80597132111759 1 1 1
2108 1 0.4375259918912344 12.968740637030153 11.915538805345516 1 0 1
1493 1 6.963551961528362 13.738259234008499 14.54770317019987 0 0 1
1693 1 7.168705431004417 13.081175157846262 11.104962681890626 0 0 1
3517 1 5.873217133294191 16.29017979121342 13.010527515070226 1 -1 0
1902 1 9.793127695999223 13.996859412381564 12.058901925372027 0 -1 0
20 1 9.657829586901997 16.17063779056241 14.571248374670397 1 0 0
2994 1 15.794452461089712 13.933720679511172 15.26525367830732 -1 -1 1
4694 1 13.81490078608373 13.580647396268747 13.209523876450072 0 0 1
6315 1 13.819644622341988 15.914868106082261 11.912033391852505 1 0 1
3169 1 18.61915551804933 14.13210359937236 11.022755023322595 0 0 1
1348 1 17.604238130761065 16.328523037675684 14.811190888168875 0 0 1
5046 1 21.557993675419443 13.315946287871808 14.670408620234953 -1 1 0
3142 1 21.34090853287231 15.381512420878272 11.708245898107903 0 -1 1
2017 1 21.828588768254075 16.341129304977528 14.752286935029385 0 2 0
4969 1 3.7309024095207093 18.657572621450765 11.263026151882215 1 0 1
4981 1 3.0810283423719538 16.578856032830835 13.114333173938812 1 0 1
1867 1 1.106969173217379 19.138374547211637 12.2544245035686 1 0 0
498 1 5.960163647845317 18.859305510474282 14.82910388207317 -1 -1 0
3360 1 7.281058786578628 19.48639874298935 12.148560134614387 1 0 1
534 1 8.525278418354674 16.797674128041134 11.953148176872409 0 0 1
243 1 10.126518329537344 19.67611627827035 13.141460029029469 1 0 1
3209 1 12.190346774185207 17.694802554887403 13.163624940630864 1 1 0
6308 1 14.372074598767762 19.650557784281403 13.271201752051729 1 0 1
5198 1 18.042336411954384 16.963424370633312 11.999132424980584 0 0 0
3584 1 16.981639250606126 19.516622675688527 11.944861801886983 0 1 0
3726 1 20.470674114033468 18.309932681403687 11.202906453284257 0 1 0
3834 1 20.77438063928006 19.018524464200258 14.013329989278482 0 -1 0
3676 1 24.11857060272407 17.232076183780386 12.859361557700828 0 0 1
1508 1 3.1337890199960494 24.34400604673137 12.008136732423994 0 0 1
5516 1 3.523767971517321 22.98835854953589 14.34719273759312 0 0 1
2022 1 1.39864759042741 20.495752378828183 14.623669273550796 0 0 0
4626 1 0.31141274159630794 23.630772990447518 11.812468453070437 2 1 1
3706 1 4.8568178979043335 21.195453080521826 12.759230667564724 0 -1 0
2073 1 6.831221422817412 23.514000343228677 13.65372002234816 1 -2 0
2978 1 6.455866708419588 24.178515260682882 10.733806498319229 0 0 1
6325 1 9.368904071627666 24.30928595028691 13.950051444191127 1 0 0
3316 1 10.415924912794877 21.700147321582858 14.843555944463525 0 1 0
2110 1 10.908818020257204 20.642325754505833 10.71202426640895 -1 -1 0
1640 1 13.786881056946877 22.424858097924957 14.074162642292741 -1 -1 1
2045 1 13.329012836398975 21.863132543351096 11.099953686656711 0 1 0
357 1 15.683143249716027 24.219978086333256 15.31305317885522 0 0 1
1322 1 18.407806930410864 23.453941870834164 14.004333105492865 -1 1 1
3484 1 18.471911417239614 20.56078328876058 14.116352931907137 0 -1 1
3488 1 16.60514481794159 22.796389840626546 11.40207093357825 1 0 0
163 1 21.086025269409248 21.176753640403444 11.192095625130909 -1 0 0
164 1 22.32128765281588 21.639337270519324 13.866626169720247 1 -1 0
3321 1 1.6831852989108536 2.5687396828986495 20.355173383702105 -1 0 1
3077 1 2.952900312582316 2.326936457561367 17.901772365002845 1 2 1
3845 1 5.4281565047075055 3.5777422802869308 18.949793424695688 2 0 1
3466 1 7.523436475878751 1.5850881617185741 18.14033626940945 1 0 0
5005 1 10.446454503947358 2.023150867437376 16.160899691088044 1 2 0
1350 1 10.136719157002773 2.040985807455802 19.269889851978853 2 0 1
267 1 12.575431250016171 3.7271750218759596 17.77413906106626 -1 0 0
5431 1 14.57923270571344 1.6523437823873897 17.26941939182538 1 0 1
3863 1 16.25161037582902 2.8945703160404563 19.306158419878432 0 0 1
6229 1 12.732238740804032 0.6196189643752508 19.262452992915055 1 0 1
3325 1 19.008313413952653 1.9996870020400266 16.17055841250373 0 0 0
1786 1 18.987875370550714 2.7206673810438615 18.725075094794686 -1 1 0
6294 1 22.446637709323383 0.4322429141215212 19.366361733349752 -1 2 0
4799 1 0.8085408092994967 7.774761381404449 16.608328390778503 1 0 1
356 1 2.295919719413234 5.295029698204898 17.51696970044588 1 1 0
3319 1 2.9765889902146205 6.554431857511395 19.928985105589145 1 0 1
3314 1 6.40088441477675 7.891622370289652 19.540562168585236 0 0 0
1930 1 6.812893475526118 4.981149645061029 16.79333756254482 1 0 0
5412 1 4.659470680779153 7.329133972336389 16.826914313057603 1 0 0
1886 1 8.119707593699621 7.835712206670283 16.575902358610314 0 1 0
97 1 9.435121435437882 4.7157059603724845 16.37634167269666 1 1 0
4642 1 10.377260504121303 6.3947950596558405 18.37386948282976 0 0 1
2929 1 12.969930467664259 7.805481594877966 17.440715122411596 2 1 1
23 1 13.99535655247759 5.484416415779092 16.139043416252058 0 -1 0
2933 1 13.22760847823704 5.8803541649531885 19.93709098418389 1 2 1
6322 1 17.24133834910274 7.156124973124613 19.607274153497606 1 2 1
3737 1 16.838142679719887 5.673522530939964 17.13797254510472 0 1 0
3635 1 23.890740345030085 8.192533719313477 17.87779366917774 1 -1 0
6263 1 21.04346210285405 4.9256187277127035 19.24063455582674 -1 1 1
5166 1 22.067064711896755 6.419594800086147 17.111325992890155 1 1 0
3537 1 3.586648207996918 11.436518724548922 16.034572950494347 0 1 0
3767 1 3.909144857797999 9.685573870468883 18.373726299211807 1 0 1
1779 1 1.8134040230995538 9.16750623997185 20.22001489128953 0 1 0
232 1 6.4884713649389285 10.127480235838151 16.37066276040046 -1 0 0
5454 1 4.823292458620392 11.864403457182828 20.250178403020247 -1 0 0
242 1 10.309912585217877 9.61756980719692 17.30458031974825 0 0 0
4993 1 9.303031305690219 12.308991037525548 18.148630769842065 -1 1 0
3827 1 10.08576860449489 9.016297742755642 20.12681324337053 1 -1 1
1677 1 12.721793594092897 10.561503977092908 15.986987387219623 1 2 0
5226 1 14.273300867787583 11.837613107348178 20.10649346785711 1 0 0
104 1 14.967939624895887 9.572402639665926 18.75851564846138 0 0 0
574 1 15.572006866801036 11.133422013449369 16.41511568084599 1 -1 1
3105 1 18.275368486266416 8.829689234867319 17.397564423341805 0 0 1
3721 1 17.97432771963407 11.6175973704901 18.093051335062796 0 0 0
6558 1 20.670295635617148 11.059106490645009 16.319100132466247 0 1 1
4622 1 21.972769279870306 10.30341530593445 18.736156186660892 -1 1 1
5064 1 0.8668773019589165 15.907500897313097 15.763956316297488 2 0 1
1703 1 3.660488302497316 15.955756627000136 19.65593044137111 1 0 0
1499 1 1.7692037088646988 13.044691291580772 17.514646376887573 1 0 1
4996 1 3.638401957429028 15.604610343372904 17.011856649054856 2 1 0
4821 1 2.296968839990405 13.307231102137791 20.32778144440832 0 0 0
5287 1 6.478983968205123 12.543562934778093 17.98947208799377 2 1 0
335 1 6.459049881095516 15.224350782620293 16.975842231359795 0 1 0
6471 1 7.947779058260032 15.809420321735148 19.538305271920226 1 1 1
6298 1 9.786163942687299 13.463009095435726 15.578341060155147 -1 0 0
3055 1 12.323693104406361 12.691102870843087 17.684033456605754 -1 2 1
5314 1 14.081368810378981 15.944226405586399 19.76199366161744 0 1 0
479 1 14.064464509492074 15.125454260859172 17.094953926435284 1 0 1
1974 1 18.400922691771306 12.984908365617967 15.523876793262152 -1 1 0
3804 1 17.23525381896959 16.297468908304566 20.33941810877674 0 -1 0
1318 1 18.61477173151136 14.405001739318823 18.90520779749061 0 -1 1
5428 1 19.573296174610192 15.473761634240029 16.528046916538727 -1 1 0
1903 1 23.065931901582104 12.818091348441168 18.77569510132446 -1 0 0
5060 1 23.879338879642038 13.610600380762131 16.17510906605942 0 0 0
5008 1 21.362636536874035 14.63283299004005 20.21424328554092 1 0 1
3575 1 1.1204726615330634 20.247019197950497 18.53874523305197 1 0 0
1905 1 3.4304740667386713 18.136130758529255 15.581620506217424 0 1 0
2068 1 3.741917711776653 19.6210789541577 18.03485326744657 -1 0 0
3738 1 8.021660652356413 17.398079290017463 16.250622006896883 -2 0 1
3041 1 8.916246847766791 20.39183845532396 16.62377672826522 0 1 1
544 1 12.422944966586025 16.85320189868742 15.928707677202079 0 -1 1
536 1 10.630792513806893 17.490927902878905 17.998945327287426 0 -1 1
3183 1 11.947103898402334 19.94330406196243 18.684104821575737 1 0 0
5317 1 15.959183795670576 18.69818955425918 18.08857403263155 0 0 0
5278 1 13.997460157521399 19.318988631695724 16.218078938618376 1 -1 1
4773 1 20.330085700637735 19.792044064185493 18.2878908597785 0 0 1
1514 1 18.08218070923994 20.40211566967559 16.932415812661336 0 0 0
5259 1 23.46286318970538 17.41682007091586 16.794523419001536 0 0 0
3462 1 24.028905144160202 20.35529015847181 19.73412935434368 0 0 0
5299 1 21.23328007355704 16.983370908427847 18.741075338294003 0 0 0
339 1 1.2166023808472497 22.944989692706248 18.979825329997965 1 -1 0
3580 1 2.3076325251906207 24.41846847412164 17.245280041239678 1 0 1
401 1 8.175660735412963 23.278826756728048 18.966667637985246 0 0 0
268 1 6.637286904650273 21.368169398210497 15.651025639146582 -2 0 0
3157 1 4.409889012956876 22.22195219108771 17.276777560931976 2 0 1
2927 1 5.201489059754305 23.460646982242174 19.963062145470662 2 1 1
1823 1 11.679961996271874 23.01218457668102 20.23836803075051 0 1 0
3347 1 9.369371688670537 20.864965535747785 19.521202332789745 -1 1 0
2033 1 12.538785767259542 21.71590067735387 16.613064214510807 -1 0 0
2240 1 14.237543010099932 23.782184245195687 17.53825734542195 -1 0 1
1828 1 15.717706118206117 21.631158803191695 20.034009493907575 0 0 0
5486 1 17.12245142169096 22.98421669835588 17.681049840372467 0 1 1
4806 1 21.11142265948681 24.32598575666027 17.339868667130922 1 -1 1
3746 1 21.40248876517179 23.813653300308676 20.238185458151115 -1 -1 0
6483 1 24.32185160599648 20.80952712905755 17.17431263490386 -2 0 1
5154 1 21.799156022819417 21.746809735320326 16.636229734529064 0 -1 0
3138 1 2.496491689209378 4.01286150470456 24.028730348004412 0 1 1
3312 1 1.4403870169903439 1.4978481686743763 24.352729292467245 1 1 0
5186 1 6.7732205737616065 1.628171087134934 23.689006461731083 0 1 0
2106 1 5.246608990550926 3.7771310421485333 23.6682999489441 -1 1 0
1278 1 6.085631147702421 0.6594142942613603 20.665964540015736 1 -2 1
1518 1 7.701111540153324 3.4342610217580787 21.13757299887585 1 0 1
2100 1 9.608599771268063 2.011277128897716 24.261047950338163 -1 1 0
6485 1 9.124570056069196 0.65737422532437 21.413678627939 0 1 1
3841 1 15.932125282657669 1.146446656829068 23.35401563361787 0 0 1
6209 1 15.786429874650004 4.011764794304749 23.600583374035413 1 2 1
3449 1 15.31167904977939 0.8586273567725055 20.598296987205146 0 0 0
4693 1 20.334318603885272 1.2973237465350531 23.213161826534407 1 1 0
6577 1 20.254364243984497 4.048102905717021 23.79329603664529 0 -1 0
484 1 20.02298758060153 0.9248419191322631 20.49506603410381 0 0 1
2151 1 1.1679335208023152 6.277170793291871 23.37718256276587 0 0 1
1434 1 0.8692478704295233 5.26070615194283 20.817203421790186 -1 -1 1
222 1 6.013425492584342 6.427800380982219 24.185217512125224 0 -1 1
2925 1 5.464866771919993 5.658091705659808 21.168264146581432 1 -1 1
6419 1 10.58204744082883 4.880119870589346 23.16882326385117 0 0 1
4716 1 8.727842165252186 6.647901840197998 23.91987196999888 -1 1 1
5043 1 10.547999025408823 4.415362442574263 20.56584301799089 0 -2 1
447 1 8.482409734064023 6.721915297746792 21.039609629982596 0 0 0
421 1 13.334269017248861 5.548380475174125 23.913281692674524 -1 1 0
382 1 14.008650870230943 8.124912726904746 23.226309834320634 0 1 1
4936 1 15.54354598523917 5.041150655866665 21.093939449418386 -1 0 1
5353 1 18.254164635570724 5.6091508993946535 22.910315974532956 0 1 0
5429 1 18.10263860258976 7.847660709318923 24.4533639226929 0 0 1
3547 1 19.77658205070834 6.6999655427379565 20.724364001843806 0 -1 1
239 1 22.510337218527273 5.458360107225758 23.32879932010376 0 0 0
3425 1 23.316459573189142 4.495364032128392 20.777832602900553 0 0 1
5351 1 0.890160955380994 10.805165371763325 24.631973769346107 1 2 0
6372 1 2.017521556167295 8.831888864662329 23.102763674496924 1 1 1
1805 1 6.297714706107241 9.831595569140033 21.56642414030066 1 1 0
4719 1 4.795950146025589 8.956036789638558 23.930311996734808 0 2 1
1354 1 4.8200656290213 12.032184384041766 24.338391997147617 0 1 1
3666 1 9.381641779740672 9.203563706749186 24.444005437871617 1 0 0
4565 1 12.00706064865164 9.757022635696446 24.53995659812994 1 0 0
2048 1 11.985572196290201 11.37876096489067 21.51650065176229 0 -2 0
2006 1 8.687466432503319 10.923492474662192 22.298062800091373 0 0 0
259 1 12.859045118700763 8.713716075844733 20.82344657620364 -2 -1 0
1282 1 20.48307926918398 9.336530434137245 20.775382558078 0 1 1
6507 1 16.538425612625172 9.797040570712946 23.18950877505588 0 0 1
3313 1 17.630313147230538 9.938958810057926 20.539096977712372 0 -1 0
1800 1 17.2024278357778 11.845239601744415 24.436277086657146 -1 1 0
1540 1 20.32973213811019 9.40317899082014 23.859534174044896 -1 2 1
6332 1 20.12330714430628 12.103328292641258 24.20858629600981 -1 0 1
3378 1 22.9168924053364 8.412358221462801 23.108353628775983 1 0 0
4598 1 2.244320387748151 12.77188542845729 23.14978515751274 0 1 1
101 1 1.8671776809448497 15.635344349536645 23.43248211091874 0 0 0
4881 1 1.0662425669789966 16.22815651222798 20.66390028824291 0 0 0
5489 1 5.934981973528999 14.494012365602174 21.203514421775623 1 1 1