LAMMPS data file via write_data, version 16 Mar 2018, timestep = 8000000

4065 atoms
2 atom types

0.0000000000000000e+00 4.9219999999999999e+01 xlo xhi
0.0000000000000000e+00 4.9019635930410494e+01 ylo yhi
1.3452253800043561e+00 2.6495606866284376e+01 zlo zhi

Masses

1 18.015
2 12.01

Atoms # atomic

83 2 0.0000000000000000e+00 2.8417180249513345e+00 2.8601653566323915e+00 0 0 0
85 2 0.0000000000000000e+00 0.0000000000000000e+00 2.8601653566323915e+00 0 0 0
87 2 1.2305000000000001e+00 7.1042950623783474e-01 2.8601653566323915e+00 0 0 0
94 2 1.2305000000000001e+00 2.1312885187134998e+00 2.8601653566323915e+00 0 0 0
90 2 0.0000000000000000e+00 4.2625770374269996e+00 2.8601653566323915e+00 0 0 0
92 2 1.2305000000000001e+00 4.9730065436648339e+00 2.8601653566323915e+00 0 0 0
107 2 1.2305000000000001e+00 6.3938655561404980e+00 2.8601653566323915e+00 0 0 0
88 2 0.0000000000000000e+00 7.1042950623783341e+00 2.8601653566323915e+00 0 0 0
103 2 0.0000000000000000e+00 8.5251540748539991e+00 2.8601653566323915e+00 0 0 0
105 2 1.2305000000000001e+00 9.2355835810918343e+00 2.8601653566323915e+00 0 0 0
101 2 0.0000000000000000e+00 1.1366872099805333e+01 2.8601653566323915e+00 0 0 0
124 2 0.0000000000000000e+00 1.2787731112280996e+01 2.8601653566323915e+00 0 0 0
126 2 1.2305000000000001e+00 1.3498160618518829e+01 2.8601653566323915e+00 0 0 0
128 2 1.2305000000000001e+00 1.0656442593567498e+01 2.8601653566323915e+00 0 0 0
122 2 0.0000000000000000e+00 1.5629449137232333e+01 2.8601653566323915e+00 0 0 0
153 2 0.0000000000000000e+00 1.7050308149707998e+01 2.8601653566323915e+00 0 0 0
157 2 1.2305000000000001e+00 1.4919019630994494e+01 2.8601653566323915e+00 0 0 0
151 2 0.0000000000000000e+00 1.9892026174659328e+01 2.8601653566323915e+00 0 0 0
155 2 1.2305000000000001e+00 1.7760737655945832e+01 2.8601653566323915e+00 0 0 0
194 2 1.2305000000000001e+00 1.9181596668421495e+01 2.8601653566323915e+00 0 0 0
188 2 0.0000000000000000e+00 2.4154603212086325e+01 2.8601653566323915e+00 0 0 0
190 2 0.0000000000000000e+00 2.1312885187134999e+01 2.8601653566323915e+00 0 0 0
192 2 1.2304999999999993e+00 2.2023314693372832e+01 2.8601653566323915e+00 0 0 0
233 2 1.2304999999999993e+00 2.3444173705848499e+01 2.8601653566323915e+00 0 0 0
84 2 0.0000000000000000e+00 1.4208590124756650e+00 5.8900453098868288e+00 0 0 0
86 2 0.0000000000000000e+00 0.0000000000000000e+00 5.8900453098868288e+00 0 0 0
95 2 1.2305000000000001e+00 2.1312885187134998e+00 5.8900453098868288e+00 0 0 0
89 2 0.0000000000000000e+00 5.6834360499026637e+00 5.8900453098868288e+00 0 0 0
91 2 0.0000000000000000e+00 4.2625770374269996e+00 5.8900453098868288e+00 0 0 0
93 2 1.2305000000000001e+00 3.5521475311891644e+00 5.8900453098868288e+00 0 0 0
108 2 1.2305000000000001e+00 6.3938655561404980e+00 5.8900453098868288e+00 0 0 0
102 2 0.0000000000000000e+00 9.9460130873296642e+00 5.8900453098868288e+00 0 0 0
104 2 0.0000000000000000e+00 8.5251540748539991e+00 5.8900453098868288e+00 0 0 0
106 2 1.2305000000000001e+00 7.8147245686161639e+00 5.8900453098868288e+00 0 0 0
125 2 0.0000000000000000e+00 1.2787731112280996e+01 5.8900453098868288e+00 0 0 0
127 2 1.2305000000000001e+00 1.2077301606043163e+01 5.8900453098868288e+00 0 0 0
129 2 1.2305000000000001e+00 1.0656442593567498e+01 5.8900453098868288e+00 0 0 0
123 2 0.0000000000000000e+00 1.4208590124756663e+01 5.8900453098868288e+00 0 0 0
154 2 0.0000000000000000e+00 1.7050308149707998e+01 5.8900453098868288e+00 0 0 0
156 2 1.2305000000000001e+00 1.6339878643470165e+01 5.8900453098868288e+00 0 0 0
158 2 1.2305000000000001e+00 1.4919019630994494e+01 5.8900453098868288e+00 0 0 0
152 2 0.0000000000000000e+00 1.8471167162183658e+01 5.8900453098868288e+00 0 0 0
193 2 1.2305000000000001e+00 2.0602455680897162e+01 5.8900453098868288e+00 0 0 0
195 2 1.2305000000000001e+00 1.9181596668421495e+01 5.8900453098868288e+00 0 0 0
189 2 0.0000000000000000e+00 2.2733744199610655e+01 5.8900453098868288e+00 0 0 0
191 2 0.0000000000000000e+00 2.1312885187134999e+01 5.8900453098868288e+00 0 0 0
234 2 1.2304999999999993e+00 2.3444173705848499e+01 5.8900453098868288e+00 0 0 0
412 2 0.0000000000000000e+00 2.8417180249513345e+00 8.9199252631466397e+00 0 0 0
413 2 0.0000000000000000e+00 0.0000000000000000e+00 8.9199252631466397e+00 0 0 0
414 2 1.2305000000000001e+00 7.1042950623783474e-01 8.9199252631466397e+00 0 0 0
418 2 1.2305000000000001e+00 2.1312885187134998e+00 8.9199252631466397e+00 0 0 0
1885 1 3.8579842367648076e-01 1.5461792645280112e-01 1.1947750228402178e+01 1 -2 0
416 2 0.0000000000000000e+00 4.2625770374269996e+00 8.9199252631466397e+00 0 0 0
417 2 1.2305000000000001e+00 4.9730065436648339e+00 8.9199252631466397e+00 0 0 0
425 2 1.2305000000000001e+00 6.3938655561404980e+00 8.9199252631466397e+00 0 0 0
960 1 6.4543648529486652e-01 4.8475919795196258e+00 1.1443064571166646e+01 0 -1 -1
1052 1 3.4760195786659581e-01 9.6934253715170868e+00 1.1257242410703974e+01 2 3 1
415 2 0.0000000000000000e+00 7.1042950623783341e+00 8.9199252631466397e+00 0 0 0
423 2 0.0000000000000000e+00 8.5251540748539991e+00 8.9199252631466397e+00 0 0 0
424 2 1.2305000000000001e+00 9.2355835810918343e+00 8.9199252631466397e+00 0 0 0
3943 1 1.6810607759196765e+00 7.2028843881128353e+00 1.2003327779084405e+01 -1 3 0
422 2 0.0000000000000000e+00 1.1366872099805333e+01 8.9199252631466397e+00 0 0 0
434 2 0.0000000000000000e+00 1.2787731112280996e+01 8.9199252631466397e+00 0 0 0
435 2 1.2305000000000001e+00 1.3498160618518829e+01 8.9199252631466397e+00 0 0 0
436 2 1.2305000000000001e+00 1.0656442593567498e+01 8.9199252631466397e+00 0 0 0
958 1 1.5692025400756582e+00 1.2291492237146297e+01 1.1511843898469131e+01 0 -3 0
433 2 0.0000000000000000e+00 1.5629449137232333e+01 8.9199252631466397e+00 0 0 0
449 2 0.0000000000000000e+00 1.7050308149707998e+01 8.9199252631466397e+00 0 0 0
451 2 1.2305000000000001e+00 1.4919019630994494e+01 8.9199252631466397e+00 0 0 0
2869 1 3.6789927124411076e-01 1.4659722664288930e+01 1.1639148834494366e+01 4 -1 0
964 1 1.4420092916213416e+00 1.7314315400437433e+01 1.1741309120879604e+01 1 -1 0
3893 1 1.7201582906326526e-01 1.9777809408257770e+01 1.1487374795705543e+01 1 0 -1
448 2 0.0000000000000000e+00 1.9892026174659328e+01 8.9199252631466397e+00 0 0 0
450 2 1.2305000000000001e+00 1.7760737655945832e+01 8.9199252631466397e+00 0 0 0
470 2 1.2305000000000001e+00 1.9181596668421495e+01 8.9199252631466397e+00 0 0 0
3809 1 1.4859792261028488e+00 2.2368841240436332e+01 1.1354969824003090e+01 3 1 1
467 2 0.0000000000000000e+00 2.4154603212086325e+01 8.9199252631466397e+00 0 0 0
468 2 0.0000000000000000e+00 2.1312885187134999e+01 8.9199252631466397e+00 0 0 0
469 2 1.2304999999999993e+00 2.2023314693372832e+01 8.9199252631466397e+00 0 0 0
490 2 1.2304999999999993e+00 2.3444173705848499e+01 8.9199252631466397e+00 0 0 0
3083 1 5.1226402592324916e-01 2.4920234440346695e-01 1.4816340712465255e+01 2 1 0
989 1 7.9063887952762724e-01 4.6412200370663239e+00 1.4675108581349644e+01 1 3 0
1983 1 4.9885067653236381e-01 9.4590257296024376e+00 1.4983623091899632e+01 -2 2 -2
2072 1 1.4973546967061446e+00 1.2057597961424381e+01 1.4556179230177738e+01 0 -1 0
4013 1 6.1887029464826970e-01 1.4759088246495763e+01 1.4771189660826471e+01 0 1 0
1863 1 3.1608291383712128e-01 1.9570856590220483e+01 1.4278244242050928e+01 0 -6 -1
1893 1 1.4173849609389877e+00 2.2143107580075888e+01 1.4715275993980466e+01 -1 0 0
1865 1 5.0532258019659174e-02 2.4424678202476915e+01 1.4342887190676883e+01 1 -1 -1
4012 1 1.1777316297973552e+00 3.3562372997235207e-01 1.7602704229166029e+01 4 -2 0
3101 1 9.0113562819580495e-01 4.9195790123224725e+00 1.7579950076314987e+01 2 2 0
2075 1 1.1302801581225015e+00 9.3839365776598012e+00 1.7829573747061296e+01 -1 2 -1
21 1 1.4046490565453460e+00 1.3781918710465286e+01 1.7562478024235347e+01 4 1 0
1986 1 1.0557975818285241e+00 1.8332129661611372e+01 1.7421094088534126e+01 2 2 -1
1984 1 1.4988405370180944e+00 2.2810354273219396e+01 1.7429655155915334e+01 2 -1 0
865 1 3.6037557122980957e-02 1.5870171156247258e+01 2.2229694080059147e+01 3 -3 0
3009 1 1.3264536499976931e+00 5.2975116937033917e-01 2.5632073257484187e+01 2 -1 0
1842 1 1.1079583745022663e+00 4.8275985862525905e+00 2.5458759814947221e+01 3 -3 0
3045 1 9.1518667503208517e-01 9.5415972637828617e+00 2.5807400146018651e+01 1 -2 0
3898 1 1.1444568524914980e+00 1.4073085705995540e+01 2.5587499080719034e+01 0 -2 0
2093 1 1.1566854745732749e+00 1.8325571431044150e+01 2.5765432668324827e+01 -1 -1 0
1005 1 1.2780895847652043e+00 2.2888380152437069e+01 2.6011307197845028e+01 2 1 0
1130 2 0.0000000000000000e+00 2.5575462224561992e+01 2.8601653566323915e+00 0 0 0
1132 2 1.2305000000000001e+00 2.6285891730799833e+01 2.8601653566323915e+00 0 0 0
1140 2 1.2305000000000010e+00 2.7706750743275496e+01 2.8601653566323915e+00 0 0 0
1128 2 0.0000000000000000e+00 2.8417180249513333e+01 2.8601653566323915e+00 0 0 0
1136 2 0.0000000000000000e+00 2.9838039261988989e+01 2.8601653566323915e+00 0 0 0
1138 2 1.2304999999999993e+00 3.0548468768226829e+01 2.8601653566323915e+00 0 0 0
1134 2 0.0000000000000000e+00 3.2679757286940330e+01 2.8601653566323915e+00 0 0 0
1150 2 0.0000000000000000e+00 3.4100616299415996e+01 2.8601653566323915e+00 0 0 0
1152 2 1.2305000000000010e+00 3.4811045805653833e+01 2.8601653566323915e+00 0 0 0
1154 2 1.2304999999999993e+00 3.1969327780702493e+01 2.8601653566323915e+00 0 0 0
1148 2 0.0000000000000000e+00 3.6942334324367337e+01 2.8601653566323915e+00 0 0 0
1172 2 0.0000000000000000e+00 3.8363193336842990e+01 2.8601653566323915e+00 0 0 0
1176 2 1.2304999999999993e+00 3.6231904818129486e+01 2.8601653566323915e+00 0 0 0
1170 2 0.0000000000000000e+00 4.1204911361794323e+01 2.8601653566323915e+00 0 0 0
1174 2 1.2305000000000010e+00 3.9073622843080841e+01 2.8601653566323915e+00 0 0 0
1206 2 1.2305000000000010e+00 4.0494481855556494e+01 2.8601653566323915e+00 0 0 0
1200 2 0.0000000000000000e+00 4.5467488399221331e+01 2.8601653566323915e+00 0 0 0
1202 2 0.0000000000000000e+00 4.2625770374269997e+01 2.8601653566323915e+00 0 0 0
1204 2 1.2304999999999993e+00 4.3336199880507827e+01 2.8601653566323915e+00 0 0 0
1243 2 1.2304999999999993e+00 4.4757058892983494e+01 2.8601653566323915e+00 0 0 0
1239 2 0.0000000000000000e+00 4.6888347411696998e+01 2.8601653566323915e+00 0 0 0
1241 2 1.2305000000000010e+00 4.7598776917934813e+01 2.8601653566323915e+00 0 0 0
1129 2 0.0000000000000000e+00 2.6996321237037659e+01 5.8900453098868288e+00 0 0 0
1131 2 0.0000000000000000e+00 2.5575462224561992e+01 5.8900453098868288e+00 0 0 0
1133 2 1.2305000000000001e+00 2.4865032718324155e+01 5.8900453098868288e+00 0 0 0
1141 2 1.2305000000000010e+00 2.7706750743275496e+01 5.8900453098868288e+00 0 0 0
1135 2 0.0000000000000000e+00 3.1258898274464656e+01 5.8900453098868288e+00 0 0 0
1137 2 0.0000000000000000e+00 2.9838039261988989e+01 5.8900453098868288e+00 0 0 0
1139 2 1.2304999999999993e+00 2.9127609755751163e+01 5.8900453098868288e+00 0 0 0
1151 2 0.0000000000000000e+00 3.4100616299415996e+01 5.8900453098868288e+00 0 0 0
1153 2 1.2304999999999993e+00 3.3390186793178160e+01 5.8900453098868288e+00 0 0 0
1155 2 1.2304999999999993e+00 3.1969327780702493e+01 5.8900453098868288e+00 0 0 0
1149 2 0.0000000000000000e+00 3.5521475311891649e+01 5.8900453098868288e+00 0 0 0
1173 2 0.0000000000000000e+00 3.8363193336842990e+01 5.8900453098868288e+00 0 0 0
1175 2 1.2304999999999993e+00 3.7652763830605153e+01 5.8900453098868288e+00 0 0 0
1177 2 1.2304999999999993e+00 3.6231904818129486e+01 5.8900453098868288e+00 0 0 0
1171 2 0.0000000000000000e+00 3.9784052349318657e+01 5.8900453098868288e+00 0 0 0
1205 2 1.2305000000000010e+00 4.1915340868032160e+01 5.8900453098868288e+00 0 0 0
1207 2 1.2305000000000010e+00 4.0494481855556494e+01 5.8900453098868288e+00 0 0 0
1201 2 0.0000000000000000e+00 4.4046629386745657e+01 5.8900453098868288e+00 0 0 0
1203 2 0.0000000000000000e+00 4.2625770374269997e+01 5.8900453098868288e+00 0 0 0
1244 2 1.2304999999999993e+00 4.4757058892983494e+01 5.8900453098868288e+00 0 0 0
1238 2 0.0000000000000000e+00 4.8309206424172650e+01 5.8900453098868288e+00 0 0 0
1240 2 0.0000000000000000e+00 4.6888347411696998e+01 5.8900453098868288e+00 0 0 0
1242 2 1.2304999999999993e+00 4.6177917905459147e+01 5.8900453098868288e+00 0 0 0
1444 2 0.0000000000000000e+00 2.5575462224561992e+01 8.9199252631466397e+00 0 0 0
1445 2 1.2305000000000001e+00 2.6285891730799833e+01 8.9199252631466397e+00 0 0 0
1449 2 1.2305000000000010e+00 2.7706750743275496e+01 8.9199252631466397e+00 0 0 0
3062 1 1.1603619248240151e+00 2.7364982771777477e+01 1.1556328258879031e+01 1 0 0
1443 2 0.0000000000000000e+00 2.8417180249513333e+01 8.9199252631466397e+00 0 0 0
1447 2 0.0000000000000000e+00 2.9838039261988989e+01 8.9199252631466397e+00 0 0 0
1448 2 1.2304999999999993e+00 3.0548468768226829e+01 8.9199252631466397e+00 0 0 0
1446 2 0.0000000000000000e+00 3.2679757286940330e+01 8.9199252631466397e+00 0 0 0
1454 2 0.0000000000000000e+00 3.4100616299415996e+01 8.9199252631466397e+00 0 0 0
1455 2 1.2305000000000010e+00 3.4811045805653833e+01 8.9199252631466397e+00 0 0 0
1456 2 1.2304999999999993e+00 3.1969327780702493e+01 8.9199252631466397e+00 0 0 0
2939 1 1.0539752713691830e+00 3.2146859025845714e+01 1.1650788919954909e+01 -4 -3 -1
1453 2 0.0000000000000000e+00 3.6942334324367337e+01 8.9199252631466397e+00 0 0 0
1465 2 0.0000000000000000e+00 3.8363193336842990e+01 8.9199252631466397e+00 0 0 0
1467 2 1.2304999999999993e+00 3.6231904818129486e+01 8.9199252631466397e+00 0 0 0
1988 1 1.3629440679220537e+00 3.6807685991466023e+01 1.1934854219512605e+01 -2 -2 -1
1464 2 0.0000000000000000e+00 4.1204911361794323e+01 8.9199252631466397e+00 0 0 0
1466 2 1.2305000000000010e+00 3.9073622843080841e+01 8.9199252631466397e+00 0 0 0
1482 2 1.2305000000000010e+00 4.0494481855556494e+01 8.9199252631466397e+00 0 0 0
906 1 1.3569179059588177e+00 4.1697140159236447e+01 1.1765581875299512e+01 -1 -1 0
3038 1 3.2142044478577464e-01 4.4124332123354428e+01 1.1416020997503701e+01 6 -4 0
1479 2 0.0000000000000000e+00 4.5467488399221331e+01 8.9199252631466397e+00 0 0 0
1480 2 0.0000000000000000e+00 4.2625770374269997e+01 8.9199252631466397e+00 0 0 0
1481 2 1.2304999999999993e+00 4.3336199880507827e+01 8.9199252631466397e+00 0 0 0
1500 2 1.2304999999999993e+00 4.4757058892983494e+01 8.9199252631466397e+00 0 0 0
1498 2 0.0000000000000000e+00 4.6888347411696998e+01 8.9199252631466397e+00 0 0 0
1499 2 1.2305000000000010e+00 4.7598776917934813e+01 8.9199252631466397e+00 0 0 0
2918 1 1.4642096328544258e+00 4.6537247742775932e+01 1.1770575232445527e+01 0 -2 0
2114 1 1.2480632998108578e+00 2.6978607661309500e+01 1.4861134787161312e+01 -2 1 0
3948 1 7.4655493784220539e-02 2.9251542959393269e+01 1.4220759096584837e+01 -1 -3 0
2010 1 1.3351151871086251e+00 3.1969223671809704e+01 1.4671304609868674e+01 0 0 0
1921 1 5.6637439203015560e-03 3.4346336675287041e+01 1.4237817604444910e+01 0 1 0
1943 1 1.5199059969247688e+00 3.6952343763559035e+01 1.4948469252598160e+01 1 2 -1
1075 1 1.2721517396269562e+00 4.2007966381136086e+01 1.4786355044116489e+01 -3 -2 0
3091 1 3.1926215047729867e-01 4.4492008199530055e+01 1.4637930513462187e+01 1 0 1
993 1 1.1280990869378409e+00 2.6883429231188963e+01 1.7475272391548430e+01 5 -3 0
1047 1 9.1138230869073755e-01 3.1460817504292578e+01 1.7384481067717047e+01 1 -1 -1
3881 1 1.5215388785650574e+00 3.6106309441774158e+01 1.7454652773675697e+01 1 -4 0
2882 1 7.2925193605853567e-01 4.0349951239727204e+01 1.7247666706626475e+01 3 1 0
2872 1 1.1010883494333223e+00 4.4992359352034285e+01 1.7382392739482221e+01 0 -2 0
855 1 1.0980390655177739e-01 2.5029995655343580e+01 2.2349898451094603e+01 2 -2 0
790 1 2.7293400410608371e-01 2.9468596510897992e+01 2.2043710510402633e+01 1 2 0
2060 1 1.3523309361359992e-01 4.2779757423795793e+01 2.2343651311260331e+01 2 -3 1
1972 1 3.5576036925164520e-02 2.5155375814359875e+01 2.5119802087077282e+01 -1 -1 -1
876 1 1.0671671964397704e+00 3.1293936433296224e+01 2.5330883470496040e+01 1 -3 0
2113 1 1.2233045128952877e+00 3.5916087240398191e+01 2.5167997213236298e+01 2 -3 1
832 1 1.3460694006869769e+00 4.0465570623514076e+01 2.5370582498442722e+01 1 0 0
3811 1 1.3321635364616808e+00 4.5188555995107919e+01 2.5628768116759232e+01 2 1 0
2951 1 8.8077360953851519e-02 4.2910608148952385e+01 2.5143679328663488e+01 1 -1 0
1823 1 1.5998674392588338e-01 4.7247776540571330e+01 2.4664288564343423e+01 -1 0 0
96 2 2.4610000000000003e+00 2.8417180249513345e+00 2.8601653566323915e+00 0 0 0
98 2 2.4610000000000003e+00 0.0000000000000000e+00 2.8601653566323915e+00 0 0 0
111 2 2.4610000000000003e+00 4.2625770374269996e+00 2.8601653566323915e+00 0 0 0
109 2 2.4610000000000003e+00 7.1042950623783341e+00 2.8601653566323915e+00 0 0 0
132 2 2.4610000000000003e+00 8.5251540748539991e+00 2.8601653566323915e+00 0 0 0
130 2 2.4610000000000003e+00 1.1366872099805333e+01 2.8601653566323915e+00 0 0 0
161 2 2.4610000000000003e+00 1.2787731112280996e+01 2.8601653566323915e+00 0 0 0
159 2 2.4610000000000003e+00 1.5629449137232328e+01 2.8601653566323915e+00 0 0 0
198 2 2.4610000000000003e+00 1.7050308149707998e+01 2.8601653566323915e+00 0 0 0
196 2 2.4610000000000003e+00 1.9892026174659328e+01 2.8601653566323915e+00 0 0 0
235 2 2.4610000000000003e+00 2.4154603212086325e+01 2.8601653566323915e+00 0 0 0
237 2 2.4610000000000003e+00 2.1312885187134995e+01 2.8601653566323915e+00 0 0 0
97 2 2.4610000000000003e+00 1.4208590124756650e+00 5.8900453098868288e+00 0 0 0
99 2 2.4610000000000003e+00 0.0000000000000000e+00 5.8900453098868288e+00 0 0 0
110 2 2.4610000000000003e+00 5.6834360499026637e+00 5.8900453098868288e+00 0 0 0
112 2 2.4610000000000003e+00 4.2625770374269996e+00 5.8900453098868288e+00 0 0 0
131 2 2.4610000000000003e+00 9.9460130873296642e+00 5.8900453098868288e+00 0 0 0
133 2 2.4610000000000003e+00 8.5251540748539991e+00 5.8900453098868288e+00 0 0 0
162 2 2.4610000000000003e+00 1.2787731112280996e+01 5.8900453098868288e+00 0 0 0
160 2 2.4610000000000003e+00 1.4208590124756663e+01 5.8900453098868288e+00 0 0 0
199 2 2.4610000000000003e+00 1.7050308149707998e+01 5.8900453098868288e+00 0 0 0
197 2 2.4610000000000003e+00 1.8471167162183658e+01 5.8900453098868288e+00 0 0 0
236 2 2.4610000000000003e+00 2.2733744199610655e+01 5.8900453098868288e+00 0 0 0
238 2 2.4610000000000003e+00 2.1312885187134995e+01 5.8900453098868288e+00 0 0 0
419 2 2.4610000000000003e+00 2.8417180249513345e+00 8.9199252631466397e+00 0 0 0
420 2 2.4610000000000003e+00 0.0000000000000000e+00 8.9199252631466397e+00 0 0 0
2996 1 1.9539293434232847e+00 2.3653583326594370e+00 1.1081637090474196e+01 1 4 0
427 2 2.4610000000000003e+00 4.2625770374269996e+00 8.9199252631466397e+00 0 0 0
426 2 2.4610000000000003e+00 7.1042950623783341e+00 8.9199252631466397e+00 0 0 0
438 2 2.4610000000000003e+00 8.5251540748539991e+00 8.9199252631466397e+00 0 0 0
437 2 2.4610000000000003e+00 1.1366872099805333e+01 8.9199252631466397e+00 0 0 0
453 2 2.4610000000000003e+00 1.2787731112280996e+01 8.9199252631466397e+00 0 0 0
452 2 2.4610000000000003e+00 1.5629449137232328e+01 8.9199252631466397e+00 0 0 0
472 2 2.4610000000000003e+00 1.7050308149707998e+01 8.9199252631466397e+00 0 0 0
471 2 2.4610000000000003e+00 1.9892026174659328e+01 8.9199252631466397e+00 0 0 0
491 2 2.4610000000000003e+00 2.4154603212086325e+01 8.9199252631466397e+00 0 0 0
492 2 2.4610000000000003e+00 2.1312885187134995e+01 8.9199252631466397e+00 0 0 0
1878 1 2.0964416235034902e+00 2.4049426036330375e+00 1.4272448349022504e+01 -1 -1 0
987 1 2.0589420921124759e+00 7.1826465684926291e+00 1.4847443304093645e+01 -2 2 -1
2979 1 1.8065089136151069e+00 1.7346111911217665e+01 1.4876217339256346e+01 -3 1 -1
1811 1 2.1848307771512094e+00 2.5542805440956746e+00 1.8627725282848701e+01 3 -6 1
2865 1 2.3942237890778273e+00 7.0449144803926638e+00 1.8684763231203334e+01 -4 0 -1
836 1 2.4959453746989437e+00 1.1772463767883002e+01 1.8582690421002397e+01 1 0 1
4005 1 2.5890866264460604e+00 1.6097047276010723e+01 1.8222295456804908e+01 0 -2 0
3870 1 2.6296941254614019e+00 2.0669100590008824e+01 1.8667167262241918e+01 0 2 1
3067 1 2.3382973769940687e+00 2.3730247801525501e+00 2.1326342390298919e+01 0 -2 0
3877 1 2.2817166815381604e+00 7.0306711024757744e+00 2.1308687925813253e+01 -1 -1 0
1861 1 2.5603841890579728e+00 1.1474582525187673e+01 2.1196687838372895e+01 -2 0 0
3829 1 2.8434095921885594e+00 1.5931734250425746e+01 2.1086753917170128e+01 1 2 0
3876 1 2.5302892232500165e+00 2.0459258405273232e+01 2.1327379405193362e+01 0 2 0
1144 2 2.4610000000000003e+00 2.5575462224561992e+01 2.8601653566323915e+00 0 0 0
1142 2 2.4610000000000003e+00 2.8417180249513326e+01 2.8601653566323915e+00 0 0 0
1158 2 2.4610000000000003e+00 2.9838039261988989e+01 2.8601653566323915e+00 0 0 0
1156 2 2.4610000000000003e+00 3.2679757286940337e+01 2.8601653566323915e+00 0 0 0
1180 2 2.4609999999999985e+00 3.4100616299415996e+01 2.8601653566323915e+00 0 0 0
1178 2 2.4610000000000021e+00 3.6942334324367337e+01 2.8601653566323915e+00 0 0 0
1210 2 2.4610000000000003e+00 3.8363193336842990e+01 2.8601653566323915e+00 0 0 0
1208 2 2.4610000000000003e+00 4.1204911361794323e+01 2.8601653566323915e+00 0 0 0
1245 2 2.4610000000000003e+00 4.5467488399221331e+01 2.8601653566323915e+00 0 0 0
1247 2 2.4610000000000003e+00 4.2625770374269997e+01 2.8601653566323915e+00 0 0 0
1284 2 2.4609999999999985e+00 4.6888347411696998e+01 2.8601653566323915e+00 0 0 0
1143 2 2.4610000000000003e+00 2.6996321237037659e+01 5.8900453098868288e+00 0 0 0
1145 2 2.4610000000000003e+00 2.5575462224561992e+01 5.8900453098868288e+00 0 0 0
1157 2 2.4609999999999985e+00 3.1258898274464656e+01 5.8900453098868288e+00 0 0 0
1159 2 2.4610000000000003e+00 2.9838039261988989e+01 5.8900453098868288e+00 0 0 0
1181 2 2.4609999999999985e+00 3.4100616299415996e+01 5.8900453098868288e+00 0 0 0
1179 2 2.4609999999999985e+00 3.5521475311891663e+01 5.8900453098868288e+00 0 0 0
1211 2 2.4610000000000003e+00 3.8363193336842990e+01 5.8900453098868288e+00 0 0 0
1209 2 2.4610000000000003e+00 3.9784052349318657e+01 5.8900453098868288e+00 0 0 0
1246 2 2.4610000000000003e+00 4.4046629386745657e+01 5.8900453098868288e+00 0 0 0
1248 2 2.4610000000000003e+00 4.2625770374269997e+01 5.8900453098868288e+00 0 0 0
1283 2 2.4609999999999985e+00 4.8309206424172650e+01 5.8900453098868288e+00 0 0 0
1285 2 2.4609999999999985e+00 4.6888347411696998e+01 5.8900453098868288e+00 0 0 0
1451 2 2.4610000000000003e+00 2.5575462224561992e+01 8.9199252631466397e+00 0 0 0
1450 2 2.4610000000000003e+00 2.8417180249513326e+01 8.9199252631466397e+00 0 0 0
1458 2 2.4610000000000003e+00 2.9838039261988989e+01 8.9199252631466397e+00 0 0 0
1457 2 2.4610000000000003e+00 3.2679757286940337e+01 8.9199252631466397e+00 0 0 0
1469 2 2.4609999999999985e+00 3.4100616299415996e+01 8.9199252631466397e+00 0 0 0
1468 2 2.4610000000000021e+00 3.6942334324367337e+01 8.9199252631466397e+00 0 0 0
1484 2 2.4610000000000003e+00 3.8363193336842990e+01 8.9199252631466397e+00 0 0 0
1483 2 2.4610000000000003e+00 4.1204911361794323e+01 8.9199252631466397e+00 0 0 0
1501 2 2.4610000000000003e+00 4.5467488399221331e+01 8.9199252631466397e+00 0 0 0
1502 2 2.4610000000000003e+00 4.2625770374269997e+01 8.9199252631466397e+00 0 0 0
1520 2 2.4609999999999985e+00 4.6888347411696998e+01 8.9199252631466397e+00 0 0 0
1024 1 1.9068652982088401e+00 4.6776142230864636e+01 1.4486208009821183e+01 -1 -2 0
1919 1 2.5569061760871064e+00 2.4870812724552522e+01 1.8470845758471249e+01 0 -1 1
2033 1 2.5044469595768208e+00 2.9173084722058409e+01 1.7936462112811810e+01 1 -6 0
1016 1 2.2660720327849071e+00 3.3530626576722838e+01 1.8445102636084727e+01 -3 -1 -1
794 1 2.8211325634315716e+00 3.8440147023783403e+01 1.8235783734515877e+01 -1 1 0
2029 1 2.1548243472497020e+00 4.2789287799136218e+01 1.8506818669063293e+01 3 0 0
782 1 2.7514795479201259e+00 4.7069181826602801e+01 1.8387095888875749e+01 0 0 1
924 1 2.7023596725872432e+00 2.4978044787724542e+01 2.1291349172606971e+01 1 -1 0
3025 1 2.6668872666355803e+00 2.9225209579007991e+01 2.0997372634862110e+01 2 0 -1
2823 1 2.1531576940708010e+00 3.3903549482383937e+01 2.1162689130120427e+01 1 -3 -1
4051 1 2.5603157713859805e+00 3.8488646963418624e+01 2.1016416704099633e+01 0 -2 0
1798 1 2.6290772486472735e+00 4.2651836375991060e+01 2.1158588830337557e+01 1 1 0
1855 1 2.4157671881881178e+00 4.6900053308045550e+01 2.1233514095372342e+01 0 2 0
3968 1 1.7093770389587282e+00 2.7098177112036936e+01 2.5824245376332463e+01 0 -1 0
100 2 3.6915000000000004e+00 7.1042950623783474e-01 2.8601653566323915e+00 0 0 0
115 2 3.6914999999999996e+00 2.1312885187134998e+00 2.8601653566323915e+00 0 0 0
117 2 4.9220000000000006e+00 2.8417180249513332e+00 2.8601653566323915e+00 0 0 0
119 2 4.9220000000000006e+00 0.0000000000000000e+00 2.8601653566323915e+00 0 0 0
113 2 3.6914999999999996e+00 4.9730065436648339e+00 2.8601653566323915e+00 0 0 0
136 2 3.6914999999999996e+00 6.3938655561404980e+00 2.8601653566323915e+00 0 0 0
140 2 4.9220000000000006e+00 4.2625770374269978e+00 2.8601653566323915e+00 0 0 0
134 2 3.6915000000000004e+00 9.2355835810918343e+00 2.8601653566323915e+00 0 0 0
138 2 4.9220000000000006e+00 7.1042950623783341e+00 2.8601653566323915e+00 0 0 0
169 2 4.9220000000000006e+00 8.5251540748539991e+00 2.8601653566323915e+00 0 0 0
163 2 3.6915000000000004e+00 1.3498160618518829e+01 2.8601653566323915e+00 0 0 0
165 2 3.6914999999999996e+00 1.0656442593567499e+01 2.8601653566323915e+00 0 0 0
167 2 4.9220000000000006e+00 1.1366872099805333e+01 2.8601653566323915e+00 0 0 0
206 2 4.9220000000000006e+00 1.2787731112280996e+01 2.8601653566323915e+00 0 0 0
202 2 3.6915000000000004e+00 1.4919019630994494e+01 2.8601653566323915e+00 0 0 0
204 2 4.9220000000000006e+00 1.5629449137232333e+01 2.8601653566323915e+00 0 0 0
245 2 4.9220000000000006e+00 1.7050308149707998e+01 2.8601653566323915e+00 0 0 0
200 2 3.6914999999999996e+00 1.7760737655945832e+01 2.8601653566323915e+00 0 0 0
241 2 3.6914999999999996e+00 1.9181596668421495e+01 2.8601653566323915e+00 0 0 0
243 2 4.9220000000000006e+00 1.9892026174659328e+01 2.8601653566323915e+00 0 0 0
239 2 3.6914999999999996e+00 2.2023314693372832e+01 2.8601653566323915e+00 0 0 0
280 2 3.6915000000000004e+00 2.3444173705848499e+01 2.8601653566323915e+00 0 0 0
282 2 4.9220000000000006e+00 2.4154603212086325e+01 2.8601653566323915e+00 0 0 0
284 2 4.9220000000000006e+00 2.1312885187134995e+01 2.8601653566323915e+00 0 0 0
116 2 3.6914999999999996e+00 2.1312885187134998e+00 5.8900453098868288e+00 0 0 0
118 2 4.9220000000000006e+00 1.4208590124756650e+00 5.8900453098868288e+00 0 0 0
120 2 4.9220000000000006e+00 0.0000000000000000e+00 5.8900453098868288e+00 0 0 0
114 2 3.6914999999999996e+00 3.5521475311891644e+00 5.8900453098868288e+00 0 0 0
137 2 3.6914999999999996e+00 6.3938655561404980e+00 5.8900453098868288e+00 0 0 0
139 2 4.9220000000000006e+00 5.6834360499026637e+00 5.8900453098868288e+00 0 0 0
141 2 4.9220000000000006e+00 4.2625770374269978e+00 5.8900453098868288e+00 0 0 0
135 2 3.6914999999999996e+00 7.8147245686161639e+00 5.8900453098868288e+00 0 0 0
168 2 4.9220000000000006e+00 9.9460130873296642e+00 5.8900453098868288e+00 0 0 0
170 2 4.9220000000000006e+00 8.5251540748539991e+00 5.8900453098868288e+00 0 0 0
164 2 3.6914999999999996e+00 1.2077301606043163e+01 5.8900453098868288e+00 0 0 0
166 2 3.6914999999999996e+00 1.0656442593567499e+01 5.8900453098868288e+00 0 0 0
207 2 4.9220000000000006e+00 1.2787731112280996e+01 5.8900453098868288e+00 0 0 0
201 2 3.6915000000000004e+00 1.6339878643470165e+01 5.8900453098868288e+00 0 0 0
203 2 3.6915000000000004e+00 1.4919019630994494e+01 5.8900453098868288e+00 0 0 0
205 2 4.9220000000000006e+00 1.4208590124756663e+01 5.8900453098868288e+00 0 0 0
246 2 4.9220000000000006e+00 1.7050308149707998e+01 5.8900453098868288e+00 0 0 0
240 2 3.6915000000000004e+00 2.0602455680897162e+01 5.8900453098868288e+00 0 0 0
242 2 3.6914999999999996e+00 1.9181596668421495e+01 5.8900453098868288e+00 0 0 0
244 2 4.9220000000000006e+00 1.8471167162183658e+01 5.8900453098868288e+00 0 0 0
281 2 3.6915000000000004e+00 2.3444173705848499e+01 5.8900453098868288e+00 0 0 0
283 2 4.9220000000000006e+00 2.2733744199610655e+01 5.8900453098868288e+00 0 0 0
285 2 4.9220000000000006e+00 2.1312885187134995e+01 5.8900453098868288e+00 0 0 0
421 2 3.6915000000000004e+00 7.1042950623783474e-01 8.9199252631466397e+00 0 0 0
429 2 3.6914999999999996e+00 2.1312885187134998e+00 8.9199252631466397e+00 0 0 0
430 2 4.9220000000000006e+00 2.8417180249513332e+00 8.9199252631466397e+00 0 0 0
431 2 4.9220000000000006e+00 0.0000000000000000e+00 8.9199252631466397e+00 0 0 0
3841 1 4.9501297896542322e+00 2.2107282288208139e+00 1.1186738927372030e+01 -1 5 1
428 2 3.6914999999999996e+00 4.9730065436648339e+00 8.9199252631466397e+00 0 0 0
440 2 3.6914999999999996e+00 6.3938655561404980e+00 8.9199252631466397e+00 0 0 0
442 2 4.9220000000000006e+00 4.2625770374269978e+00 8.9199252631466397e+00 0 0 0
439 2 3.6915000000000004e+00 9.2355835810918343e+00 8.9199252631466397e+00 0 0 0
441 2 4.9220000000000006e+00 7.1042950623783341e+00 8.9199252631466397e+00 0 0 0
457 2 4.9220000000000006e+00 8.5251540748539991e+00 8.9199252631466397e+00 0 0 0
1066 1 4.5031535729154779e+00 7.3928792666525940e+00 1.1585154027818438e+01 4 1 0
454 2 3.6915000000000004e+00 1.3498160618518829e+01 8.9199252631466397e+00 0 0 0
455 2 3.6914999999999996e+00 1.0656442593567499e+01 8.9199252631466397e+00 0 0 0
456 2 4.9220000000000006e+00 1.1366872099805333e+01 8.9199252631466397e+00 0 0 0
476 2 4.9220000000000006e+00 1.2787731112280996e+01 8.9199252631466397e+00 0 0 0
996 1 4.3141000461260344e+00 1.2501711935783584e+01 1.1798853030322755e+01 3 1 -1
474 2 3.6915000000000004e+00 1.4919019630994494e+01 8.9199252631466397e+00 0 0 0
475 2 4.9220000000000006e+00 1.5629449137232333e+01 8.9199252631466397e+00 0 0 0
496 2 4.9220000000000006e+00 1.7050308149707998e+01 8.9199252631466397e+00 0 0 0
927 1 4.1652856920270915e+00 1.7580653307182718e+01 1.1801874230714745e+01 -2 0 0
473 2 3.6914999999999996e+00 1.7760737655945832e+01 8.9199252631466397e+00 0 0 0