LAMMPS data file via write_data, version 16 Mar 2018, timestep = 100000

4065 atoms
2 atom types

0.0000000000000000e+00 4.9219999999999999e+01 xlo xhi
0.0000000000000000e+00 4.9019635930410494e+01 ylo yhi
2.0010230507102253e+00 2.5839809195574297e+01 zlo zhi

Masses

1 18.015
2 12.01

Atoms # atomic

83 2 0.0000000000000000e+00 2.8417180249513345e+00 3.4369587300493833e+00 0 0 0
85 2 0.0000000000000000e+00 0.0000000000000000e+00 3.4369587300493833e+00 0 0 0
87 2 1.2305000000000001e+00 7.1042950623783474e-01 3.4369587300493833e+00 0 0 0
94 2 1.2305000000000001e+00 2.1312885187134998e+00 3.4369587300493833e+00 0 0 0
90 2 0.0000000000000000e+00 4.2625770374269996e+00 3.4369587300493833e+00 0 0 0
92 2 1.2305000000000001e+00 4.9730065436648339e+00 3.4369587300493833e+00 0 0 0
107 2 1.2305000000000001e+00 6.3938655561404980e+00 3.4369587300493833e+00 0 0 0
88 2 0.0000000000000000e+00 7.1042950623783341e+00 3.4369587300493833e+00 0 0 0
103 2 0.0000000000000000e+00 8.5251540748539991e+00 3.4369587300493833e+00 0 0 0
105 2 1.2305000000000001e+00 9.2355835810918343e+00 3.4369587300493833e+00 0 0 0
101 2 0.0000000000000000e+00 1.1366872099805333e+01 3.4369587300493833e+00 0 0 0
124 2 0.0000000000000000e+00 1.2787731112280996e+01 3.4369587300493833e+00 0 0 0
126 2 1.2305000000000001e+00 1.3498160618518829e+01 3.4369587300493833e+00 0 0 0
128 2 1.2305000000000001e+00 1.0656442593567498e+01 3.4369587300493833e+00 0 0 0
122 2 0.0000000000000000e+00 1.5629449137232333e+01 3.4369587300493833e+00 0 0 0
153 2 0.0000000000000000e+00 1.7050308149707998e+01 3.4369587300493833e+00 0 0 0
157 2 1.2305000000000001e+00 1.4919019630994494e+01 3.4369587300493833e+00 0 0 0
151 2 0.0000000000000000e+00 1.9892026174659328e+01 3.4369587300493833e+00 0 0 0
155 2 1.2305000000000001e+00 1.7760737655945832e+01 3.4369587300493833e+00 0 0 0
194 2 1.2305000000000001e+00 1.9181596668421495e+01 3.4369587300493833e+00 0 0 0
188 2 0.0000000000000000e+00 2.4154603212086325e+01 3.4369587300493833e+00 0 0 0
190 2 0.0000000000000000e+00 2.1312885187134999e+01 3.4369587300493833e+00 0 0 0
192 2 1.2304999999999993e+00 2.2023314693372832e+01 3.4369587300493833e+00 0 0 0
233 2 1.2304999999999993e+00 2.3444173705848499e+01 3.4369587300493833e+00 0 0 0
84 2 0.0000000000000000e+00 1.4208590124756650e+00 6.3088300887277811e+00 0 0 0
86 2 0.0000000000000000e+00 0.0000000000000000e+00 6.3088300887277811e+00 0 0 0
95 2 1.2305000000000001e+00 2.1312885187134998e+00 6.3088300887277811e+00 0 0 0
89 2 0.0000000000000000e+00 5.6834360499026637e+00 6.3088300887277811e+00 0 0 0
91 2 0.0000000000000000e+00 4.2625770374269996e+00 6.3088300887277811e+00 0 0 0
93 2 1.2305000000000001e+00 3.5521475311891644e+00 6.3088300887277811e+00 0 0 0
108 2 1.2305000000000001e+00 6.3938655561404980e+00 6.3088300887277811e+00 0 0 0
102 2 0.0000000000000000e+00 9.9460130873296642e+00 6.3088300887277811e+00 0 0 0
104 2 0.0000000000000000e+00 8.5251540748539991e+00 6.3088300887277811e+00 0 0 0
106 2 1.2305000000000001e+00 7.8147245686161639e+00 6.3088300887277811e+00 0 0 0
125 2 0.0000000000000000e+00 1.2787731112280996e+01 6.3088300887277811e+00 0 0 0
127 2 1.2305000000000001e+00 1.2077301606043163e+01 6.3088300887277811e+00 0 0 0
129 2 1.2305000000000001e+00 1.0656442593567498e+01 6.3088300887277811e+00 0 0 0
123 2 0.0000000000000000e+00 1.4208590124756663e+01 6.3088300887277811e+00 0 0 0
154 2 0.0000000000000000e+00 1.7050308149707998e+01 6.3088300887277811e+00 0 0 0
156 2 1.2305000000000001e+00 1.6339878643470165e+01 6.3088300887277811e+00 0 0 0
158 2 1.2305000000000001e+00 1.4919019630994494e+01 6.3088300887277811e+00 0 0 0
152 2 0.0000000000000000e+00 1.8471167162183658e+01 6.3088300887277811e+00 0 0 0
193 2 1.2305000000000001e+00 2.0602455680897162e+01 6.3088300887277811e+00 0 0 0
195 2 1.2305000000000001e+00 1.9181596668421495e+01 6.3088300887277811e+00 0 0 0
189 2 0.0000000000000000e+00 2.2733744199610655e+01 6.3088300887277811e+00 0 0 0
191 2 0.0000000000000000e+00 2.1312885187134999e+01 6.3088300887277811e+00 0 0 0
234 2 1.2304999999999993e+00 2.3444173705848499e+01 6.3088300887277811e+00 0 0 0
412 2 0.0000000000000000e+00 2.8417180249513345e+00 9.1807014474053883e+00 0 0 0
413 2 0.0000000000000000e+00 0.0000000000000000e+00 9.1807014474053883e+00 0 0 0
414 2 1.2305000000000001e+00 7.1042950623783474e-01 9.1807014474053883e+00 0 0 0
418 2 1.2305000000000001e+00 2.1312885187134998e+00 9.1807014474053883e+00 0 0 0
416 2 0.0000000000000000e+00 4.2625770374269996e+00 9.1807014474053883e+00 0 0 0
417 2 1.2305000000000001e+00 4.9730065436648339e+00 9.1807014474053883e+00 0 0 0
425 2 1.2305000000000001e+00 6.3938655561404980e+00 9.1807014474053883e+00 0 0 0
43 1 3.0953029825797396e-01 3.3778646268711654e+00 1.9015804094566256e+01 1 0 1
415 2 0.0000000000000000e+00 7.1042950623783341e+00 9.1807014474053883e+00 0 0 0
423 2 0.0000000000000000e+00 8.5251540748539991e+00 9.1807014474053883e+00 0 0 0
424 2 1.2305000000000001e+00 9.2355835810918343e+00 9.1807014474053883e+00 0 0 0
422 2 0.0000000000000000e+00 1.1366872099805333e+01 9.1807014474053883e+00 0 0 0
434 2 0.0000000000000000e+00 1.2787731112280996e+01 9.1807014474053883e+00 0 0 0
435 2 1.2305000000000001e+00 1.3498160618518829e+01 9.1807014474053883e+00 0 0 0
436 2 1.2305000000000001e+00 1.0656442593567498e+01 9.1807014474053883e+00 0 0 0
433 2 0.0000000000000000e+00 1.5629449137232333e+01 9.1807014474053883e+00 0 0 0
449 2 0.0000000000000000e+00 1.7050308149707998e+01 9.1807014474053883e+00 0 0 0
451 2 1.2305000000000001e+00 1.4919019630994494e+01 9.1807014474053883e+00 0 0 0
2040 1 8.7456801117520055e-01 1.2414133761824038e+01 2.3897664516651410e+01 0 -1 -1
448 2 0.0000000000000000e+00 1.9892026174659328e+01 9.1807014474053883e+00 0 0 0
450 2 1.2305000000000001e+00 1.7760737655945832e+01 9.1807014474053883e+00 0 0 0
470 2 1.2305000000000001e+00 1.9181596668421495e+01 9.1807014474053883e+00 0 0 0
467 2 0.0000000000000000e+00 2.4154603212086325e+01 9.1807014474053883e+00 0 0 0
468 2 0.0000000000000000e+00 2.1312885187134999e+01 9.1807014474053883e+00 0 0 0
469 2 1.2304999999999993e+00 2.2023314693372832e+01 9.1807014474053883e+00 0 0 0
490 2 1.2304999999999993e+00 2.3444173705848499e+01 9.1807014474053883e+00 0 0 0
1016 1 5.8102802243043561e-01 1.8958412243986519e+01 2.1698935196412897e+01 0 1 -1
3931 1 3.9273789225347994e-01 1.4770002145963669e+01 2.0931755394373262e+01 -1 0 0
822 1 1.3369156671344549e+00 6.5874284870474433e+00 2.4692376705821800e+01 1 1 1
2881 1 7.1773897877959214e-01 1.8948536328020605e+01 2.4502144027468226e+01 1 1 0
4013 1 6.6784047291821513e-01 1.2447693464265569e+01 1.1506979897837891e+01 0 0 0
3098 1 1.8503371336043239e-01 1.3843824077557720e+00 2.1461956666205353e+01 0 1 -1
3071 1 1.2051169799497943e+00 4.3957210062570438e+00 2.2006367702849410e+01 0 1 -1
3043 1 1.0980802458459542e+00 2.3132690941529766e+01 2.4458588134766202e+01 0 0 -1
2831 1 5.9055797597020265e-01 2.0729844798038236e+01 1.7859790200634620e+01 1 -1 0
2035 1 1.5890487473064714e+00 7.3793170915878711e-02 1.9439577430200139e+01 0 1 0
2822 1 1.5418111546663569e+00 7.6187347571899782e+00 1.7157652754160068e+01 0 0 0
2999 1 3.8378092284847004e-01 1.1986829899620080e+01 2.1406257970172931e+01 1 0 -1
2860 1 1.3985282111328481e+00 7.8002759000171484e-01 2.4229029053035227e+01 0 0 -1
2122 1 9.3648301493700492e-01 2.2266769267031162e+01 2.1600645719771848e+01 1 1 0
1989 1 9.4284022662105549e-01 3.6095537457263522e+00 2.4641171855040447e+01 0 1 -1
2873 1 1.2685079766513447e+00 2.2826251500528915e+01 1.6128080148781621e+01 1 0 0
2900 1 1.5597472616485475e+00 9.1493183534771205e+00 2.1584491864040501e+01 -1 -1 0
2950 1 1.5533272731162304e+00 2.1793403257567259e+00 1.5156043347137365e+01 0 1 1
1063 1 1.6774676118996674e+00 1.1698597092708072e+01 1.4515376018343272e+01 1 1 0
1865 1 1.4975289554529394e+00 1.6340272781344801e+01 2.4885520545033437e+01 1 -1 -1
1130 2 0.0000000000000000e+00 2.5575462224561992e+01 3.4369587300493833e+00 0 0 0
1132 2 1.2305000000000001e+00 2.6285891730799833e+01 3.4369587300493833e+00 0 0 0
1140 2 1.2305000000000010e+00 2.7706750743275496e+01 3.4369587300493833e+00 0 0 0
1128 2 0.0000000000000000e+00 2.8417180249513333e+01 3.4369587300493833e+00 0 0 0
1136 2 0.0000000000000000e+00 2.9838039261988989e+01 3.4369587300493833e+00 0 0 0
1138 2 1.2304999999999993e+00 3.0548468768226829e+01 3.4369587300493833e+00 0 0 0
1134 2 0.0000000000000000e+00 3.2679757286940330e+01 3.4369587300493833e+00 0 0 0
1150 2 0.0000000000000000e+00 3.4100616299415996e+01 3.4369587300493833e+00 0 0 0
1152 2 1.2305000000000010e+00 3.4811045805653833e+01 3.4369587300493833e+00 0 0 0
1154 2 1.2304999999999993e+00 3.1969327780702493e+01 3.4369587300493833e+00 0 0 0
1148 2 0.0000000000000000e+00 3.6942334324367337e+01 3.4369587300493833e+00 0 0 0
1172 2 0.0000000000000000e+00 3.8363193336842990e+01 3.4369587300493833e+00 0 0 0
1176 2 1.2304999999999993e+00 3.6231904818129486e+01 3.4369587300493833e+00 0 0 0
1170 2 0.0000000000000000e+00 4.1204911361794323e+01 3.4369587300493833e+00 0 0 0
1174 2 1.2305000000000010e+00 3.9073622843080841e+01 3.4369587300493833e+00 0 0 0
1206 2 1.2305000000000010e+00 4.0494481855556494e+01 3.4369587300493833e+00 0 0 0
1200 2 0.0000000000000000e+00 4.5467488399221331e+01 3.4369587300493833e+00 0 0 0
1202 2 0.0000000000000000e+00 4.2625770374269997e+01 3.4369587300493833e+00 0 0 0
1204 2 1.2304999999999993e+00 4.3336199880507827e+01 3.4369587300493833e+00 0 0 0
1243 2 1.2304999999999993e+00 4.4757058892983494e+01 3.4369587300493833e+00 0 0 0
1239 2 0.0000000000000000e+00 4.6888347411696998e+01 3.4369587300493833e+00 0 0 0
1241 2 1.2305000000000010e+00 4.7598776917934813e+01 3.4369587300493833e+00 0 0 0
1129 2 0.0000000000000000e+00 2.6996321237037659e+01 6.3088300887277811e+00 0 0 0
1131 2 0.0000000000000000e+00 2.5575462224561992e+01 6.3088300887277811e+00 0 0 0
1133 2 1.2305000000000001e+00 2.4865032718324155e+01 6.3088300887277811e+00 0 0 0
1141 2 1.2305000000000010e+00 2.7706750743275496e+01 6.3088300887277811e+00 0 0 0
1135 2 0.0000000000000000e+00 3.1258898274464656e+01 6.3088300887277811e+00 0 0 0
1137 2 0.0000000000000000e+00 2.9838039261988989e+01 6.3088300887277811e+00 0 0 0
1139 2 1.2304999999999993e+00 2.9127609755751163e+01 6.3088300887277811e+00 0 0 0
1151 2 0.0000000000000000e+00 3.4100616299415996e+01 6.3088300887277811e+00 0 0 0
1153 2 1.2304999999999993e+00 3.3390186793178160e+01 6.3088300887277811e+00 0 0 0
1155 2 1.2304999999999993e+00 3.1969327780702493e+01 6.3088300887277811e+00 0 0 0
1149 2 0.0000000000000000e+00 3.5521475311891649e+01 6.3088300887277811e+00 0 0 0
1173 2 0.0000000000000000e+00 3.8363193336842990e+01 6.3088300887277811e+00 0 0 0
1175 2 1.2304999999999993e+00 3.7652763830605153e+01 6.3088300887277811e+00 0 0 0
1177 2 1.2304999999999993e+00 3.6231904818129486e+01 6.3088300887277811e+00 0 0 0
1171 2 0.0000000000000000e+00 3.9784052349318657e+01 6.3088300887277811e+00 0 0 0
1205 2 1.2305000000000010e+00 4.1915340868032160e+01 6.3088300887277811e+00 0 0 0
1207 2 1.2305000000000010e+00 4.0494481855556494e+01 6.3088300887277811e+00 0 0 0
1201 2 0.0000000000000000e+00 4.4046629386745657e+01 6.3088300887277811e+00 0 0 0
1203 2 0.0000000000000000e+00 4.2625770374269997e+01 6.3088300887277811e+00 0 0 0
1244 2 1.2304999999999993e+00 4.4757058892983494e+01 6.3088300887277811e+00 0 0 0
1238 2 0.0000000000000000e+00 4.8309206424172650e+01 6.3088300887277811e+00 0 0 0
1240 2 0.0000000000000000e+00 4.6888347411696998e+01 6.3088300887277811e+00 0 0 0
1242 2 1.2304999999999993e+00 4.6177917905459147e+01 6.3088300887277811e+00 0 0 0
1444 2 0.0000000000000000e+00 2.5575462224561992e+01 9.1807014474053883e+00 0 0 0
1445 2 1.2305000000000001e+00 2.6285891730799833e+01 9.1807014474053883e+00 0 0 0
1449 2 1.2305000000000010e+00 2.7706750743275496e+01 9.1807014474053883e+00 0 0 0
1443 2 0.0000000000000000e+00 2.8417180249513333e+01 9.1807014474053883e+00 0 0 0
1447 2 0.0000000000000000e+00 2.9838039261988989e+01 9.1807014474053883e+00 0 0 0
1448 2 1.2304999999999993e+00 3.0548468768226829e+01 9.1807014474053883e+00 0 0 0
1446 2 0.0000000000000000e+00 3.2679757286940330e+01 9.1807014474053883e+00 0 0 0
1454 2 0.0000000000000000e+00 3.4100616299415996e+01 9.1807014474053883e+00 0 0 0
1455 2 1.2305000000000010e+00 3.4811045805653833e+01 9.1807014474053883e+00 0 0 0
1456 2 1.2304999999999993e+00 3.1969327780702493e+01 9.1807014474053883e+00 0 0 0
3992 1 5.3749408297529966e-01 3.8834107482979157e+01 1.3478782110794668e+01 1 0 0
1453 2 0.0000000000000000e+00 3.6942334324367337e+01 9.1807014474053883e+00 0 0 0
1465 2 0.0000000000000000e+00 3.8363193336842990e+01 9.1807014474053883e+00 0 0 0
1467 2 1.2304999999999993e+00 3.6231904818129486e+01 9.1807014474053883e+00 0 0 0
1464 2 0.0000000000000000e+00 4.1204911361794323e+01 9.1807014474053883e+00 0 0 0
1466 2 1.2305000000000010e+00 3.9073622843080841e+01 9.1807014474053883e+00 0 0 0
1482 2 1.2305000000000010e+00 4.0494481855556494e+01 9.1807014474053883e+00 0 0 0
1479 2 0.0000000000000000e+00 4.5467488399221331e+01 9.1807014474053883e+00 0 0 0
1480 2 0.0000000000000000e+00 4.2625770374269997e+01 9.1807014474053883e+00 0 0 0
1481 2 1.2304999999999993e+00 4.3336199880507827e+01 9.1807014474053883e+00 0 0 0
1500 2 1.2304999999999993e+00 4.4757058892983494e+01 9.1807014474053883e+00 0 0 0
3943 1 3.6669469137180577e-01 4.3098853844316018e+01 1.5095495530800081e+01 0 1 0
1498 2 0.0000000000000000e+00 4.6888347411696998e+01 9.1807014474053883e+00 0 0 0
1499 2 1.2305000000000010e+00 4.7598776917934813e+01 9.1807014474053883e+00 0 0 0
3823 1 8.8292383690797205e-01 3.0134312674139640e+01 1.1941897228995668e+01 2 0 1
3045 1 2.9434363658968177e-01 3.1818143854920258e+01 1.5236860675848460e+01 1 0 0
3989 1 6.9165114947849576e-02 2.9278699934630524e+01 2.2470333183607607e+01 0 0 0
3896 1 1.0615135519031504e+00 3.3533832961598982e+01 2.4852353013458391e+01 0 0 0
1074 1 1.4262643571493547e+00 3.8569089056601982e+01 2.4622449669300543e+01 1 1 0
794 1 1.2961598185028094e+00 2.7075281640240838e+01 2.0862416037008444e+01 1 0 0
4063 1 1.2859876847241003e+00 3.0679077267417920e+01 1.9213283138382423e+01 1 0 -1
3824 1 1.8351296625157953e-01 4.6694387385218249e+01 1.4825380013888269e+01 0 0 -1
3976 1 4.2933006050461303e-01 2.7417699763083988e+01 1.1843132797055663e+01 -1 0 0
2880 1 1.3631194881279696e+00 3.4463924046731215e+01 1.9506176205845286e+01 2 -1 -1
801 1 8.4633478458423872e-01 2.7223519848123580e+01 2.4452010730829457e+01 1 0 0
2077 1 2.1274082445633605e-01 2.7010731706097616e+01 1.6705325719888478e+01 1 0 1
785 1 9.7830358136756723e-01 4.6571870021765854e+01 2.0132200535715249e+01 0 -1 -1
1873 1 7.0779190658153179e-01 3.7435269271030172e+01 2.0198106402467978e+01 1 0 -1
2032 1 1.4209127361778933e+00 3.1731824335249897e+01 2.1614663068113501e+01 0 0 0
1868 1 1.9886831290093779e-01 4.2704988756260036e+01 1.8325374253052757e+01 0 0 0
1936 1 1.1828196661118859e-01 3.4550094860728983e+01 2.2230053422470981e+01 1 -1 0
1090 1 6.2053257554893981e-01 3.8996569206248061e+01 1.6566149482751300e+01 0 0 0
3143 1 1.3749404838397816e+00 2.4993489430571071e+01 1.8329194465310160e+01 1 1 1
1825 1 8.9419189428141976e-02 4.3664702318105981e+01 1.1782048942887480e+01 0 -1 -1
96 2 2.4610000000000003e+00 2.8417180249513345e+00 3.4369587300493833e+00 0 0 0
98 2 2.4610000000000003e+00 0.0000000000000000e+00 3.4369587300493833e+00 0 0 0
111 2 2.4610000000000003e+00 4.2625770374269996e+00 3.4369587300493833e+00 0 0 0
109 2 2.4610000000000003e+00 7.1042950623783341e+00 3.4369587300493833e+00 0 0 0
132 2 2.4610000000000003e+00 8.5251540748539991e+00 3.4369587300493833e+00 0 0 0
130 2 2.4610000000000003e+00 1.1366872099805333e+01 3.4369587300493833e+00 0 0 0
161 2 2.4610000000000003e+00 1.2787731112280996e+01 3.4369587300493833e+00 0 0 0
159 2 2.4610000000000003e+00 1.5629449137232328e+01 3.4369587300493833e+00 0 0 0
198 2 2.4610000000000003e+00 1.7050308149707998e+01 3.4369587300493833e+00 0 0 0
196 2 2.4610000000000003e+00 1.9892026174659328e+01 3.4369587300493833e+00 0 0 0
235 2 2.4610000000000003e+00 2.4154603212086325e+01 3.4369587300493833e+00 0 0 0
237 2 2.4610000000000003e+00 2.1312885187134995e+01 3.4369587300493833e+00 0 0 0
97 2 2.4610000000000003e+00 1.4208590124756650e+00 6.3088300887277811e+00 0 0 0
99 2 2.4610000000000003e+00 0.0000000000000000e+00 6.3088300887277811e+00 0 0 0
110 2 2.4610000000000003e+00 5.6834360499026637e+00 6.3088300887277811e+00 0 0 0
112 2 2.4610000000000003e+00 4.2625770374269996e+00 6.3088300887277811e+00 0 0 0
131 2 2.4610000000000003e+00 9.9460130873296642e+00 6.3088300887277811e+00 0 0 0
133 2 2.4610000000000003e+00 8.5251540748539991e+00 6.3088300887277811e+00 0 0 0
162 2 2.4610000000000003e+00 1.2787731112280996e+01 6.3088300887277811e+00 0 0 0
160 2 2.4610000000000003e+00 1.4208590124756663e+01 6.3088300887277811e+00 0 0 0
199 2 2.4610000000000003e+00 1.7050308149707998e+01 6.3088300887277811e+00 0 0 0
197 2 2.4610000000000003e+00 1.8471167162183658e+01 6.3088300887277811e+00 0 0 0
236 2 2.4610000000000003e+00 2.2733744199610655e+01 6.3088300887277811e+00 0 0 0
238 2 2.4610000000000003e+00 2.1312885187134995e+01 6.3088300887277811e+00 0 0 0
419 2 2.4610000000000003e+00 2.8417180249513345e+00 9.1807014474053883e+00 0 0 0
420 2 2.4610000000000003e+00 0.0000000000000000e+00 9.1807014474053883e+00 0 0 0
4018 1 2.2939316774916603e+00 1.7573683900639754e+01 1.1704822593779806e+01 1 0 -1
427 2 2.4610000000000003e+00 4.2625770374269996e+00 9.1807014474053883e+00 0 0 0
426 2 2.4610000000000003e+00 7.1042950623783341e+00 9.1807014474053883e+00 0 0 0
438 2 2.4610000000000003e+00 8.5251540748539991e+00 9.1807014474053883e+00 0 0 0
2057 1 3.2530719844438605e+00 2.0347571649763431e+01 2.1514039936667366e+01 0 1 0
1125 1 3.0724220288264736e+00 1.1142890260146949e+01 1.1961354958303660e+01 2 1 0
437 2 2.4610000000000003e+00 1.1366872099805333e+01 9.1807014474053883e+00 0 0 0
453 2 2.4610000000000003e+00 1.2787731112280996e+01 9.1807014474053883e+00 0 0 0
452 2 2.4610000000000003e+00 1.5629449137232328e+01 9.1807014474053883e+00 0 0 0
472 2 2.4610000000000003e+00 1.7050308149707998e+01 9.1807014474053883e+00 0 0 0
1027 1 1.8372309101661692e+00 2.7241014017287997e+00 1.2345705526993067e+01 0 -1 -1
471 2 2.4610000000000003e+00 1.9892026174659328e+01 9.1807014474053883e+00 0 0 0
491 2 2.4610000000000003e+00 2.4154603212086325e+01 9.1807014474053883e+00 0 0 0
492 2 2.4610000000000003e+00 2.1312885187134995e+01 9.1807014474053883e+00 0 0 0
2123 1 2.5594253100864379e+00 2.1938262880103800e+01 1.2069014866323728e+01 1 0 0
3040 1 2.3659708409366753e+00 1.4897248202962531e+01 1.7650225915360352e+01 1 0 -1
892 1 2.4904239898890053e+00 1.4527134204248085e+01 1.4779421273943848e+01 1 0 0
2017 1 2.7654080117132578e+00 1.4697530690462671e+01 1.1777247058866086e+01 0 0 -1
1871 1 2.6397637476092255e+00 9.3223088153947220e+00 2.4448920860840055e+01 0 1 0
978 1 3.2339827175517204e+00 1.3420291367237191e+01 2.0308777478414854e+01 0 0 -1
1018 1 2.0192466191199618e+00 8.2866887198810559e+00 1.2037068328658204e+01 2 2 1
1791 1 2.0823827985696366e+00 1.7064455191551094e+01 2.0576172782620908e+01 0 1 0
3898 1 2.4643224648422266e+00 5.3836049684190703e+00 1.4870117124466502e+01 0 1 0
61 1 2.2324779296502433e+00 2.0681755580783054e+01 1.4490320581004683e+01 1 0 -1
1926 1 1.9572975985482832e+00 5.4605948660126300e+00 1.1789305083171698e+01 0 0 1
2971 1 3.2845854850387899e+00 1.0008985479579053e+01 1.5964854505113095e+01 0 1 -1
3827 1 2.5637121305596215e+00 3.4817484668152852e+00 1.7434964913292891e+01 0 0 0
3036 1 2.5237328505051351e+00 1.7415705979215403e+01 1.4626518142767130e+01 1 1 0
3092 1 2.7869970452721220e+00 2.0902092312145413e+01 2.4339740657397648e+01 1 1 0
2852 1 2.8921663681869378e+00 6.8199461027102366e+00 2.2093863979877312e+01 1 0 0
2034 1 2.2629749851741501e+00 1.7569330297433879e+01 1.7582315036347278e+01 2 0 -1
1144 2 2.4610000000000003e+00 2.5575462224561992e+01 3.4369587300493833e+00 0 0 0
1142 2 2.4610000000000003e+00 2.8417180249513326e+01 3.4369587300493833e+00 0 0 0
1158 2 2.4610000000000003e+00 2.9838039261988989e+01 3.4369587300493833e+00 0 0 0
1156 2 2.4610000000000003e+00 3.2679757286940337e+01 3.4369587300493833e+00 0 0 0
1180 2 2.4609999999999985e+00 3.4100616299415996e+01 3.4369587300493833e+00 0 0 0
1178 2 2.4610000000000021e+00 3.6942334324367337e+01 3.4369587300493833e+00 0 0 0
1210 2 2.4610000000000003e+00 3.8363193336842990e+01 3.4369587300493833e+00 0 0 0
1208 2 2.4610000000000003e+00 4.1204911361794323e+01 3.4369587300493833e+00 0 0 0
1245 2 2.4610000000000003e+00 4.5467488399221331e+01 3.4369587300493833e+00 0 0 0
1247 2 2.4610000000000003e+00 4.2625770374269997e+01 3.4369587300493833e+00 0 0 0
1284 2 2.4609999999999985e+00 4.6888347411696998e+01 3.4369587300493833e+00 0 0 0
1143 2 2.4610000000000003e+00 2.6996321237037659e+01 6.3088300887277811e+00 0 0 0
1145 2 2.4610000000000003e+00 2.5575462224561992e+01 6.3088300887277811e+00 0 0 0
1157 2 2.4609999999999985e+00 3.1258898274464656e+01 6.3088300887277811e+00 0 0 0
1159 2 2.4610000000000003e+00 2.9838039261988989e+01 6.3088300887277811e+00 0 0 0
1181 2 2.4609999999999985e+00 3.4100616299415996e+01 6.3088300887277811e+00 0 0 0
1179 2 2.4609999999999985e+00 3.5521475311891663e+01 6.3088300887277811e+00 0 0 0
1211 2 2.4610000000000003e+00 3.8363193336842990e+01 6.3088300887277811e+00 0 0 0
1209 2 2.4610000000000003e+00 3.9784052349318657e+01 6.3088300887277811e+00 0 0 0
1246 2 2.4610000000000003e+00 4.4046629386745657e+01 6.3088300887277811e+00 0 0 0
1248 2 2.4610000000000003e+00 4.2625770374269997e+01 6.3088300887277811e+00 0 0 0
1283 2 2.4609999999999985e+00 4.8309206424172650e+01 6.3088300887277811e+00 0 0 0
1285 2 2.4609999999999985e+00 4.6888347411696998e+01 6.3088300887277811e+00 0 0 0
1451 2 2.4610000000000003e+00 2.5575462224561992e+01 9.1807014474053883e+00 0 0 0
1450 2 2.4610000000000003e+00 2.8417180249513326e+01 9.1807014474053883e+00 0 0 0
1458 2 2.4610000000000003e+00 2.9838039261988989e+01 9.1807014474053883e+00 0 0 0
2987 1 2.8879620107428896e+00 4.0246226021829052e+01 1.7582723412797399e+01 1 0 0
1457 2 2.4610000000000003e+00 3.2679757286940337e+01 9.1807014474053883e+00 0 0 0
1469 2 2.4609999999999985e+00 3.4100616299415996e+01 9.1807014474053883e+00 0 0 0
1098 1 1.8331130721591908e+00 3.6432635240748297e+01 1.4267615977577890e+01 0 0 1
1468 2 2.4610000000000021e+00 3.6942334324367337e+01 9.1807014474053883e+00 0 0 0
1484 2 2.4610000000000003e+00 3.8363193336842990e+01 9.1807014474053883e+00 0 0 0
1483 2 2.4610000000000003e+00 4.1204911361794323e+01 9.1807014474053883e+00 0 0 0
3942 1 2.7782264456194903e+00 2.5156094084908375e+01 2.3778193676102575e+01 -1 0 0
1501 2 2.4610000000000003e+00 4.5467488399221331e+01 9.1807014474053883e+00 0 0 0
1502 2 2.4610000000000003e+00 4.2625770374269997e+01 9.1807014474053883e+00 0 0 0
933 1 3.0986960256744522e+00 2.6196601257022515e+01 1.1734465654615750e+01 1 1 0
1520 2 2.4609999999999985e+00 4.6888347411696998e+01 9.1807014474053883e+00 0 0 0
1058 1 2.2055397751094139e+00 2.5723776778312541e+01 1.4574634385845197e+01 -1 0 -1
3132 1 2.6253507109846104e+00 4.2512678565946111e+01 1.1845024112873769e+01 1 -1 0
825 1 2.8138634014134625e+00 3.0839359131339037e+01 2.4403603472465129e+01 1 -1 0
812 1 2.4173191958245899e+00 3.4934413506222981e+01 1.1867197855008598e+01 0 0 -1
1935 1 3.0362100730055053e+00 4.2961876052174787e+01 1.7520584657328627e+01 1 0 0
954 1 2.8053272972279406e+00 4.7022470714427939e+01 1.4772040356277145e+01 0 1 0
977 1 2.4664356618373406e+00 4.7173858606166640e+01 1.1776529807931210e+01 0 -1 -1
3957 1 3.1745660999766265e+00 3.0816641690642680e+01 1.5129700859365689e+01 -1 1 -1
3822 1 2.1556949325127568e+00 3.9676530082552411e+01 2.2129209133680391e+01 0 0 0
3840 1 1.8089600205940972e+00 4.4956775294869516e+01 2.4368399038526640e+01 0 0 0
1892 1 2.8797830875960235e+00 3.9725077328436768e+01 1.1618716109910585e+01 1 0 0
1831 1 2.1665916539049963e+00 4.4117589752160995e+01 2.1749579799021085e+01 0 -1 1
966 1 2.8766022497634771e+00 4.7509402184774082e+01 2.4819353427876379e+01 2 -1 0
1049 1 3.2980691920158818e+00 2.8257289426342066e+01 2.4720822230733411e+01 1 0 0
2073 1 3.2911217222655798e+00 4.2841148928833761e+01 1.4719010663685316e+01 1 -1 0
1082 1 1.8013762930593014e+00 4.1806147513992087e+01 2.4763298885294027e+01 1 0 0
1955 1 2.8062682499739648e+00 2.4528075058961775e+01 2.1060950896793514e+01 0 1 1
100 2 3.6915000000000004e+00 7.1042950623783474e-01 3.4369587300493833e+00 0 0 0
115 2 3.6914999999999996e+00 2.1312885187134998e+00 3.4369587300493833e+00 0 0 0
117 2 4.9220000000000006e+00 2.8417180249513332e+00 3.4369587300493833e+00 0 0 0
119 2 4.9220000000000006e+00 0.0000000000000000e+00 3.4369587300493833e+00 0 0 0
113 2 3.6914999999999996e+00 4.9730065436648339e+00 3.4369587300493833e+00 0 0 0
136 2 3.6914999999999996e+00 6.3938655561404980e+00 3.4369587300493833e+00 0 0 0
140 2 4.9220000000000006e+00 4.2625770374269978e+00 3.4369587300493833e+00 0 0 0
134 2 3.6915000000000004e+00 9.2355835810918343e+00 3.4369587300493833e+00 0 0 0
138 2 4.9220000000000006e+00 7.1042950623783341e+00 3.4369587300493833e+00 0 0 0
169 2 4.9220000000000006e+00 8.5251540748539991e+00 3.4369587300493833e+00 0 0 0
163 2 3.6915000000000004e+00 1.3498160618518829e+01 3.4369587300493833e+00 0 0 0
165 2 3.6914999999999996e+00 1.0656442593567499e+01 3.4369587300493833e+00 0 0 0
167 2 4.9220000000000006e+00 1.1366872099805333e+01 3.4369587300493833e+00 0 0 0
206 2 4.9220000000000006e+00 1.2787731112280996e+01 3.4369587300493833e+00 0 0 0
202 2 3.6915000000000004e+00 1.4919019630994494e+01 3.4369587300493833e+00 0 0 0
204 2 4.9220000000000006e+00 1.5629449137232333e+01 3.4369587300493833e+00 0 0 0
245 2 4.9220000000000006e+00 1.7050308149707998e+01 3.4369587300493833e+00 0 0 0
200 2 3.6914999999999996e+00 1.7760737655945832e+01 3.4369587300493833e+00 0 0 0
241 2 3.6914999999999996e+00 1.9181596668421495e+01 3.4369587300493833e+00 0 0 0
243 2 4.9220000000000006e+00 1.9892026174659328e+01 3.4369587300493833e+00 0 0 0
239 2 3.6914999999999996e+00 2.2023314693372832e+01 3.4369587300493833e+00 0 0 0
280 2 3.6915000000000004e+00 2.3444173705848499e+01 3.4369587300493833e+00 0 0 0
282 2 4.9220000000000006e+00 2.4154603212086325e+01 3.4369587300493833e+00 0 0 0
284 2 4.9220000000000006e+00 2.1312885187134995e+01 3.4369587300493833e+00 0 0 0
116 2 3.6914999999999996e+00 2.1312885187134998e+00 6.3088300887277811e+00 0 0 0
118 2 4.9220000000000006e+00 1.4208590124756650e+00 6.3088300887277811e+00 0 0 0
120 2 4.9220000000000006e+00 0.0000000000000000e+00 6.3088300887277811e+00 0 0 0
114 2 3.6914999999999996e+00 3.5521475311891644e+00 6.3088300887277811e+00 0 0 0
137 2 3.6914999999999996e+00 6.3938655561404980e+00 6.3088300887277811e+00 0 0 0
139 2 4.9220000000000006e+00 5.6834360499026637e+00 6.3088300887277811e+00 0 0 0
141 2 4.9220000000000006e+00 4.2625770374269978e+00 6.3088300887277811e+00 0 0 0
135 2 3.6914999999999996e+00 7.8147245686161639e+00 6.3088300887277811e+00 0 0 0
168 2 4.9220000000000006e+00 9.9460130873296642e+00 6.3088300887277811e+00 0 0 0
170 2 4.9220000000000006e+00 8.5251540748539991e+00 6.3088300887277811e+00 0 0 0
164 2 3.6914999999999996e+00 1.2077301606043163e+01 6.3088300887277811e+00 0 0 0
166 2 3.6914999999999996e+00 1.0656442593567499e+01 6.3088300887277811e+00 0 0 0
207 2 4.9220000000000006e+00 1.2787731112280996e+01 6.3088300887277811e+00 0 0 0
201 2 3.6915000000000004e+00 1.6339878643470165e+01 6.3088300887277811e+00 0 0 0
203 2 3.6915000000000004e+00 1.4919019630994494e+01 6.3088300887277811e+00 0 0 0
205 2 4.9220000000000006e+00 1.4208590124756663e+01 6.3088300887277811e+00 0 0 0
246 2 4.9220000000000006e+00 1.7050308149707998e+01 6.3088300887277811e+00 0 0 0
240 2 3.6915000000000004e+00 2.0602455680897162e+01 6.3088300887277811e+00 0 0 0
242 2 3.6914999999999996e+00 1.9181596668421495e+01 6.3088300887277811e+00 0 0 0
244 2 4.9220000000000006e+00 1.8471167162183658e+01 6.3088300887277811e+00 0 0 0
281 2 3.6915000000000004e+00 2.3444173705848499e+01 6.3088300887277811e+00 0 0 0
283 2 4.9220000000000006e+00 2.2733744199610655e+01 6.3088300887277811e+00 0 0 0
285 2 4.9220000000000006e+00 2.1312885187134995e+01 6.3088300887277811e+00 0 0 0
421 2 3.6915000000000004e+00 7.1042950623783474e-01 9.1807014474053883e+00 0 0 0
429 2 3.6914999999999996e+00 2.1312885187134998e+00 9.1807014474053883e+00 0 0 0
430 2 4.9220000000000006e+00 2.8417180249513332e+00 9.1807014474053883e+00 0 0 0
431 2 4.9220000000000006e+00 0.0000000000000000e+00 9.1807014474053883e+00 0 0 0
428 2 3.6914999999999996e+00 4.9730065436648339e+00 9.1807014474053883e+00 0 0 0
440 2 3.6914999999999996e+00 6.3938655561404980e+00 9.1807014474053883e+00 0 0 0
442 2 4.9220000000000006e+00 4.2625770374269978e+00 9.1807014474053883e+00 0 0 0
439 2 3.6915000000000004e+00 9.2355835810918343e+00 9.1807014474053883e+00 0 0 0
441 2 4.9220000000000006e+00 7.1042950623783341e+00 9.1807014474053883e+00 0 0 0
457 2 4.9220000000000006e+00 8.5251540748539991e+00 9.1807014474053883e+00 0 0 0
454 2 3.6915000000000004e+00 1.3498160618518829e+01 9.1807014474053883e+00 0 0 0
455 2 3.6914999999999996e+00 1.0656442593567499e+01 9.1807014474053883e+00 0 0 0
456 2 4.9220000000000006e+00 1.1366872099805333e+01 9.1807014474053883e+00 0 0 0
476 2 4.9220000000000006e+00 1.2787731112280996e+01 9.1807014474053883e+00 0 0 0
3031 1 3.5067414612185939e+00 1.2257328743642587e+01 2.5039469419151388e+01 0 0 0
474 2 3.6915000000000004e+00 1.4919019630994494e+01 9.1807014474053883e+00 0 0 0
475 2 4.9220000000000006e+00 1.5629449137232333e+01 9.1807014474053883e+00 0 0 0
496 2 4.9220000000000006e+00 1.7050308149707998e+01 9.1807014474053883e+00 0 0 0
473 2 3.6914999999999996e+00 1.7760737655945832e+01 9.1807014474053883e+00 0 0 0
494 2 3.6914999999999996e+00 1.9181596668421495e+01 9.1807014474053883e+00 0 0 0
495 2 4.9220000000000006e+00 1.9892026174659328e+01 9.1807014474053883e+00 0 0 0
2956 1 3.4408372553684115e+00 4.1539315001775690e-01 1.6000418364482080e+01 0 1 -1
1038 1 3.5546043589184371e+00 7.0367709381666421e-01 1.1671259268438222e+01 0 1 0