LAMMPS data file via write_data, version 16 Mar 2018, timestep = 100000

6489 atoms
2 atom types

0.0000000000000000e+00 4.9219999999999999e+01 xlo xhi
0.0000000000000000e+00 4.9019635930410494e+01 ylo yhi
1.9820445756166940e+00 5.8079955424382732e+01 zlo zhi

Masses

1 18.015
2 12.01

Atoms # atomic

1790 1 1.7369222521302443e+00 2.9273966208012823e+00 3.4093527697627568e+00 1 -1 0
3058 1 7.3544791625217849e+00 8.6783743674422631e+00 8.8152867197872062e+00 1 0 0
3613 1 1.8567202045316447e+00 1.5224812358754290e+01 4.5412227056886696e+00 1 0 0
5158 1 4.9125746724809840e+00 1.2147643353935154e+01 1.0454276738894007e+01 1 1 0
5250 1 4.4259083771240295e+00 8.9555050513599588e-01 1.0593572063009626e+01 2 0 0
1525 1 5.2142023058569622e+00 2.4741978110249736e+00 4.2645409776424081e+00 1 1 0
381 1 2.8169910696950278e+00 1.1914228412659806e+01 8.2341161349748280e+00 1 0 0
1775 1 8.5497816075724593e+00 1.0163832288747448e+01 1.0870850577417693e+01 0 0 1
6283 1 3.0948788971533752e+00 1.4711336849280613e+01 7.2748589440015987e+00 0 0 1
6313 1 5.5780696503623322e+00 6.6167166676064459e+00 3.1320191061009428e+00 1 1 1
1304 1 7.9810823239796385e+00 1.2722806430661807e+01 1.0602280236722626e+01 1 1 1
217 1 3.2481055002606247e+00 7.2104814750802759e-01 7.5612838160162834e+00 1 0 0
3200 1 5.9039397651387260e+00 4.8909066487335915e+00 5.1661720632520511e+00 1 1 1
1349 1 8.4491624808236381e+00 2.5183299215902952e+00 1.0814842709903830e+01 0 0 0
1328 1 2.9984836566044191e+00 6.9275141405592455e-01 4.7302831187348167e+00 0 0 1
2157 1 2.1906088873349208e+00 8.6904490402179899e+00 5.4114552009188355e+00 1 2 1
1385 1 3.4009212477780197e+00 8.2017447058582302e+00 2.8250427544605556e+00 1 0 1
5139 1 2.0699535079199399e-01 1.3062169361397984e+01 7.0410403671394537e+00 1 1 0
4775 1 4.0791716246588701e+00 1.5057000097506869e+01 2.7333064066168125e+00 1 1 1
5442 1 8.5482274773842519e+00 7.9424313941467659e+00 3.1928112401032909e+00 1 0 0
4739 1 8.3141545897064191e+00 1.0391417038156861e+01 4.8314653871645969e+00 1 1 0
2017 1 4.1356181017452842e-01 4.4475656007615827e+00 5.1962956946171133e+00 0 -1 1
420 1 7.0396959035473055e+00 1.2467658457723530e+01 3.1285678112683266e+00 1 0 0
3520 1 2.3215559583938439e-01 6.5422973068526957e-01 2.7774028820801453e+00 1 0 0
6396 1 5.6944565991733622e+00 1.4377818431044263e+01 5.0988322449965695e+00 0 -1 0
2 1 5.4158298989878011e+00 1.5205303210367862e+01 9.0011513285978495e+00 1 1 1
5384 1 8.4276214791542952e+00 1.4361507241882324e+01 5.7140438278606425e+00 1 0 0
4522 1 6.1319556095231187e+00 7.3633459540090884e-01 7.8334079783737822e+00 0 1 1
6338 1 1.4608560011362426e+00 2.5550369487644868e+00 8.5954782599577477e+00 1 1 0
2032 1 6.7175704626765755e+00 1.0591794703133612e+01 7.0496783593976895e+00 1 0 0
3563 1 7.1208549462415283e+00 3.2721362601548938e+00 8.3768289716782007e+00 1 0 0
5412 1 7.3236892910186855e+00 8.5354440755511152e-01 5.0982450405988100e+00 0 0 1
288 1 6.8906119094927050e+00 1.3047391885717516e+01 7.9603927862923456e+00 0 0 1
1688 1 4.2825054900922099e+00 3.6644013061747458e+00 9.0686269357541676e+00 1 1 0
5271 1 3.8989850121181995e+00 5.5581370376433226e+00 7.1228071243253845e+00 0 0 0
1701 1 8.6335961811339583e+00 3.9188799763931965e+00 6.1408420546601983e+00 0 0 0
3206 1 9.8025592573511595e+00 6.4630546293669910e+00 5.1176735872181869e+00 1 0 0
5403 1 4.5371100166862366e+00 7.7228836028944725e+00 8.5456523147955039e+00 1 1 0
5183 1 3.9094373549511894e+00 1.0126130724960227e+01 6.8537807556980130e+00 1 0 1
1772 1 1.4539621105269092e+00 6.5382598310008788e+00 6.5754635453271879e+00 1 1 1
5077 1 4.2124658751402757e+00 1.1684908482897347e+01 4.5436784768620679e+00 1 -1 1
3294 1 1.8303313211156261e-01 1.0937097430394724e+01 5.4079822151620416e+00 1 1 0
1478 1 2.4002268789932817e+00 1.1331630131879988e+01 2.4307512806986944e+00 0 0 1
4558 1 2.7726781618923491e-01 2.3128181744586520e+00 1.1264976573860940e+01 1 0 1
3446 1 1.7798789862057613e+00 2.4543100914595968e+00 1.3844715388297899e+01 1 0 1
363 1 3.4953228675602457e+00 4.7887640458985183e+00 1.5071618810942725e+01 0 1 0
4604 1 7.3406789593359019e+00 6.6969530853274968e+00 1.6521837174419545e+01 0 0 1
6458 1 5.8003731132543077e+00 4.1969707363248414e+00 1.3851945216859995e+01 1 0 1
1440 1 7.1547157327716588e+00 3.3982376296536825e+00 1.6115835333757381e+01 0 0 1
63 1 9.6004584618554532e+00 3.2080018643933195e+00 1.4575789782468105e+01 1 0 1
3333 1 3.1733020246741699e+00 4.4954309111571407e+00 1.1556562922497900e+01 0 1 0
1718 1 5.9446786401035254e+00 1.2399871755270409e+01 1.8138802734343827e+01 0 0 0
4665 1 6.6937545988373790e+00 6.3023061791966493e+00 1.2281611330841514e+01 1 0 1
6416 1 1.2867038215826949e+00 8.2767287796426761e+00 1.2476195419087146e+01 1 1 0
1948 1 6.5699069954942955e+00 1.6238712418528110e+00 1.2461275322571439e+01 0 1 0
6478 1 6.6167887857774055e+00 5.0833934097656126e+00 1.8705512166793415e+01 0 0 1
6336 1 3.1207753255315035e-01 4.4925784322219453e-01 1.8391886135414875e+01 0 2 1
4573 1 8.8088143901117579e+00 1.4862077440401393e+01 2.0218081592657310e+01 1 0 0
3012 1 7.2159687062700089e+00 1.4693285594508971e+01 1.7811195191571102e+01 0 0 1
2020 1 5.2640697819113429e+00 9.8773305744037536e+00 1.2505157565751158e+01 1 0 0
431 1 7.7950431386696719e+00 9.7696820355465750e+00 1.3563821489925688e+01 2 1 0
1952 1 7.2880997300604546e+00 8.2817596353207645e-01 1.7306212478844376e+01 1 1 0
3255 1 4.1759834777805231e+00 1.0077742894568138e+00 1.4379525909712333e+01 1 0 1
1301 1 3.8367830978074435e+00 7.4890649545006855e+00 1.1370474052967097e+01 0 0 1
3469 1 3.7073329127140489e+00 1.4496792148303772e+01 1.4201061652227025e+01 2 0 1
3120 1 4.1165700000949706e-01 1.2576361890450981e+01 1.2163702271084032e+01 0 0 1
5008 1 2.2021385512481930e+00 1.2554827918701978e+01 2.0491895050511015e+01 0 0 0
3545 1 8.5144658514190095e+00 1.4485275981089769e+01 1.5128830281442282e+01 1 0 0
1601 1 8.4640308295537832e+00 7.4841815737244861e+00 1.4015304322453062e+01 0 0 1
4767 1 2.1106473648025230e+00 4.4897558594282554e+00 1.9622062486948376e+01 0 0 1
4796 1 3.9994997904234104e+00 4.4354914803353349e+00 1.7611534736983756e+01 1 2 0
305 1 9.3732077881836080e+00 4.5810388380349991e+00 1.2108738383159308e+01 1 1 0
5050 1 4.3895112276612673e+00 1.7134040473448700e+00 1.6997296879239780e+01 0 0 0
400 1 2.3678485340735818e+00 7.5102191323912013e+00 1.5061271165317795e+01 1 1 0
145 1 4.3694325203648926e-01 1.0516938486519567e+01 1.4062480120457193e+01 1 0 0
3419 1 4.1997761368126882e+00 1.0122172820807783e+01 1.5305890407813662e+01 1 -1 0
1800 1 3.5673159061089179e+00 9.0975560411433491e+00 1.9695823638667573e+01 1 0 1
4737 1 2.9629261708933661e+00 1.3676624049548275e+01 1.1627276356596049e+01 1 1 1
5321 1 8.8337482782994368e+00 1.2413849303102507e+00 1.9762711401328737e+01 1 1 0
5136 1 2.2485504156516347e+00 1.4027989357833015e+01 1.8016708344063556e+01 1 0 0
5199 1 1.4717210877330416e+00 1.0682010225695034e+01 1.6367029608905426e+01 0 0 0
3575 1 8.5363336233947451e-01 1.0150377611862462e+01 1.9993269935781839e+01 0 0 0
3477 1 5.4888432404543499e+00 9.3294914088937464e+00 1.7591651729873888e+01 1 -1 0
430 1 8.3712278083376894e+00 9.0193415002177986e+00 1.8268186747352740e+01 0 0 0
3466 1 9.4255196594445696e+00 1.1649012706897150e+01 1.5092818405442149e+01 1 -1 0
1574 1 4.0809248350875107e+00 1.2802744572293404e+01 1.6313880451436084e+01 1 1 1
5319 1 8.4221647839450409e+00 1.4943311579498292e+01 1.2223977962730590e+01 0 -1 0
5012 1 5.9549050443359530e-01 2.5074985181726865e+00 1.6560050600411198e+01 0 1 0
165 1 3.4911034738265183e+00 1.7831018637187572e+00 2.4279945650953419e+01 1 0 0
418 1 9.0450339784690847e-01 2.9873292679237601e-01 2.4162443712010209e+01 2 0 0
3249 1 3.1011298489374471e-02 4.6055467312585963e+00 2.4206110848169470e+01 1 0 0
1650 1 4.5544596131617654e+00 4.2911630298925578e+00 2.4303029207814326e+01 1 1 1
697 2 6.1524999999999990e+00 1.3498160618518829e+01 2.6871787262295719e+01 0 0 0
2039 1 5.4350365201807738e-01 8.2014946934845678e+00 2.1832633918111927e+01 1 1 0
695 2 4.9220000000000006e+00 1.2787731112280996e+01 2.6871787262295719e+01 0 0 0
2873 1 2.6123578438199822e+00 6.1641767455723624e+00 2.3812813699307743e+01 0 -1 1
4528 1 5.3428410195509901e+00 3.7505647717763768e+00 2.1747189680609775e+01 0 0 1
258 1 6.9869751192561900e+00 1.6465252214508628e+00 2.2029588273543034e+01 0 1 0
5151 1 6.7535833149456366e+00 1.5443532188602560e+01 2.1925320789386806e+01 0 0 0
1884 1 5.9629795948653790e+00 7.0086945153596876e+00 2.4254146985106040e+01 1 0 0
5268 1 8.7885228671609372e+00 1.5138666102668918e+01 2.3793884299451211e+01 1 0 0
785 2 8.6135000000000002e+00 1.4919019630994494e+01 2.6871787262295719e+01 0 0 0
1928 1 4.4009154261407373e+00 9.5417055346950423e+00 2.4572414471663812e+01 0 1 0
361 1 1.8881432516700805e+00 1.5423482584151872e+01 2.3928536993759359e+01 0 0 0
1998 1 4.7898168553415541e+00 1.4407405885874910e+01 2.3953250358943666e+01 1 0 0
6228 1 2.8834226638468170e+00 1.2175067361472779e+01 2.3268894812699390e+01 -1 1 1
4947 1 8.6141054702984530e+00 2.4357605092630341e+00 2.4140102314369997e+01 0 1 0
4953 1 1.6509963039473170e+00 9.0002045552223535e+00 2.4527966660791030e+01 1 0 0
2004 1 4.9496212381487421e+00 1.0002690790067003e+01 2.1852995098297903e+01 0 0 0
1710 1 7.9967599830617973e+00 9.0455096574751881e+00 2.4159347856126310e+01 -1 0 0
3581 1 5.8960806185442820e+00 1.2077014441915454e+01 2.4635886085125385e+01 1 -1 0
740 2 7.3829999999999991e+00 1.5629449137232333e+01 2.6871787262295719e+01 0 0 0
4878 1 8.0429349463557092e+00 5.4220315413848370e+00 2.1463494954335136e+01 1 0 1
501 1 8.3224171931866859e+00 8.4501862024620458e+00 2.1143961490226108e+01 1 0 0
5052 1 5.5795415780071371e+00 6.9019854157466591e+00 2.1426774240142379e+01 0 1 0
317 1 2.7248933034135074e+00 6.7048864316495225e+00 2.1162800040329554e+01 1 0 0
1750 1 5.5291295585836819e-01 2.2254676174647998e+00 2.2337922747921219e+01 -1 1 0
1566 1 5.5237199152174785e+00 1.2823014741253100e+01 2.1066126466148670e+01 0 0 0
1784 1 2.9059435126580500e+00 2.0096958389402908e+00 2.0838487137082247e+01 0 0 0
693 2 4.9220000000000006e+00 1.5629449137232333e+01 2.6871787262295719e+01 0 0 0
572 2 0.0000000000000000e+00 2.8417180249513345e+00 2.6871787262295719e+01 0 0 0
574 2 0.0000000000000000e+00 0.0000000000000000e+00 2.6871787262295719e+01 0 0 0
576 2 1.2305000000000001e+00 7.1042950623783474e-01 2.6871787262295719e+01 0 0 0
583 2 1.2305000000000001e+00 2.1312885187134998e+00 2.6871787262295719e+01 0 0 0
585 2 2.4610000000000003e+00 2.8417180249513345e+00 2.6871787262295719e+01 0 0 0
587 2 2.4610000000000003e+00 0.0000000000000000e+00 2.6871787262295719e+01 0 0 0
589 2 3.6915000000000004e+00 7.1042950623783474e-01 2.6871787262295719e+01 0 0 0
604 2 3.6914999999999996e+00 2.1312885187134998e+00 2.6871787262295719e+01 0 0 0
606 2 4.9220000000000006e+00 2.8417180249513332e+00 2.6871787262295719e+01 0 0 0
608 2 4.9220000000000006e+00 0.0000000000000000e+00 2.6871787262295719e+01 0 0 0
610 2 6.1524999999999999e+00 7.1042950623783407e-01 2.6871787262295719e+01 0 0 0
633 2 6.1524999999999999e+00 2.1312885187134989e+00 2.6871787262295719e+01 0 0 0
635 2 7.3829999999999991e+00 2.8417180249513345e+00 2.6871787262295719e+01 0 0 0
637 2 7.3829999999999991e+00 0.0000000000000000e+00 2.6871787262295719e+01 0 0 0
639 2 8.6134999999999984e+00 7.1042950623783407e-01 2.6871787262295719e+01 0 0 0
670 2 8.6134999999999984e+00 2.1312885187135002e+00 2.6871787262295719e+01 0 0 0
579 2 0.0000000000000000e+00 4.2625770374269996e+00 2.6871787262295719e+01 0 0 0
581 2 1.2305000000000001e+00 4.9730065436648339e+00 2.6871787262295719e+01 0 0 0
596 2 1.2305000000000001e+00 6.3938655561404980e+00 2.6871787262295719e+01 0 0 0
600 2 2.4610000000000003e+00 4.2625770374269996e+00 2.6871787262295719e+01 0 0 0
602 2 3.6914999999999996e+00 4.9730065436648339e+00 2.6871787262295719e+01 0 0 0
625 2 3.6914999999999996e+00 6.3938655561404980e+00 2.6871787262295719e+01 0 0 0
577 2 0.0000000000000000e+00 7.1042950623783341e+00 2.6871787262295719e+01 0 0 0
598 2 2.4610000000000003e+00 7.1042950623783341e+00 2.6871787262295719e+01 0 0 0
629 2 4.9220000000000006e+00 4.2625770374269978e+00 2.6871787262295719e+01 0 0 0
631 2 6.1524999999999999e+00 4.9730065436648339e+00 2.6871787262295719e+01 0 0 0
662 2 6.1524999999999999e+00 6.3938655561404980e+00 2.6871787262295719e+01 0 0 0
666 2 7.3829999999999991e+00 4.2625770374269996e+00 2.6871787262295719e+01 0 0 0
668 2 8.6135000000000002e+00 4.9730065436648339e+00 2.6871787262295719e+01 0 0 0
707 2 8.6135000000000002e+00 6.3938655561404980e+00 2.6871787262295719e+01 0 0 0
627 2 4.9220000000000006e+00 7.1042950623783341e+00 2.6871787262295719e+01 0 0 0
664 2 7.3830000000000009e+00 7.1042950623783341e+00 2.6871787262295719e+01 0 0 0
592 2 0.0000000000000000e+00 8.5251540748539991e+00 2.6871787262295719e+01 0 0 0
594 2 1.2305000000000001e+00 9.2355835810918343e+00 2.6871787262295719e+01 0 0 0
621 2 2.4610000000000003e+00 8.5251540748539991e+00 2.6871787262295719e+01 0 0 0
623 2 3.6915000000000004e+00 9.2355835810918343e+00 2.6871787262295719e+01 0 0 0
590 2 0.0000000000000000e+00 1.1366872099805333e+01 2.6871787262295719e+01 0 0 0
617 2 1.2305000000000001e+00 1.0656442593567498e+01 2.6871787262295719e+01 0 0 0
619 2 2.4610000000000003e+00 1.1366872099805333e+01 2.6871787262295719e+01 0 0 0
654 2 3.6914999999999996e+00 1.0656442593567499e+01 2.6871787262295719e+01 0 0 0
658 2 4.9220000000000006e+00 8.5251540748539991e+00 2.6871787262295719e+01 0 0 0
660 2 6.1524999999999999e+00 9.2355835810918343e+00 2.6871787262295719e+01 0 0 0
703 2 7.3830000000000009e+00 8.5251540748539991e+00 2.6871787262295719e+01 0 0 0
705 2 8.6134999999999984e+00 9.2355835810918343e+00 2.6871787262295719e+01 0 0 0
656 2 4.9220000000000006e+00 1.1366872099805333e+01 2.6871787262295719e+01 0 0 0
699 2 6.1524999999999999e+00 1.0656442593567499e+01 2.6871787262295719e+01 0 0 0
701 2 7.3829999999999991e+00 1.1366872099805333e+01 2.6871787262295719e+01 0 0 0
746 2 8.6134999999999984e+00 1.0656442593567498e+01 2.6871787262295719e+01 0 0 0
646 2 1.2305000000000001e+00 1.4919019630994494e+01 2.6871787262295719e+01 0 0 0
691 2 3.6915000000000004e+00 1.4919019630994494e+01 2.6871787262295719e+01 0 0 0
648 2 2.4610000000000003e+00 1.5629449137232328e+01 2.6871787262295719e+01 0 0 0
613 2 0.0000000000000000e+00 1.2787731112280996e+01 2.6871787262295719e+01 0 0 0
615 2 1.2305000000000001e+00 1.3498160618518829e+01 2.6871787262295719e+01 0 0 0
650 2 2.4610000000000003e+00 1.2787731112280996e+01 2.6871787262295719e+01 0 0 0
652 2 3.6915000000000004e+00 1.3498160618518829e+01 2.6871787262295719e+01 0 0 0
611 2 0.0000000000000000e+00 1.5629449137232333e+01 2.6871787262295719e+01 0 0 0
742 2 7.3829999999999991e+00 1.2787731112280996e+01 2.6871787262295719e+01 0 0 0
744 2 8.6135000000000002e+00 1.3498160618518835e+01 2.6871787262295719e+01 0 0 0
738 2 6.1524999999999990e+00 1.4919019630994494e+01 2.6871787262295719e+01 0 0 0
234 1 8.8804859076789331e+00 1.2136633915808352e+01 2.4018147476757552e+01 0 0 0
4810 1 8.0370118170838829e+00 1.1408338771687781e+01 2.1725130727665061e+01 1 0 1
1789 1 8.5214861151188632e+00 5.6805922326524092e+00 2.4219997742866020e+01 0 1 0
573 2 0.0000000000000000e+00 1.4208590124756650e+00 3.0031000000000027e+01 0 0 0
575 2 0.0000000000000000e+00 0.0000000000000000e+00 3.0031000000000027e+01 0 0 0
584 2 1.2305000000000001e+00 2.1312885187134998e+00 3.0031000000000027e+01 0 0 0
586 2 2.4610000000000003e+00 1.4208590124756650e+00 3.0031000000000027e+01 0 0 0
588 2 2.4610000000000003e+00 0.0000000000000000e+00 3.0031000000000027e+01 0 0 0
605 2 3.6914999999999996e+00 2.1312885187134998e+00 3.0031000000000027e+01 0 0 0
582 2 1.2305000000000001e+00 3.5521475311891644e+00 3.0031000000000027e+01 0 0 0
603 2 3.6914999999999996e+00 3.5521475311891644e+00 3.0031000000000027e+01 0 0 0
901 2 0.0000000000000000e+00 2.8417180249513345e+00 3.3190212737702304e+01 0 0 0
902 2 0.0000000000000000e+00 0.0000000000000000e+00 3.3190212737702304e+01 0 0 0
903 2 1.2305000000000001e+00 7.1042950623783474e-01 3.3190212737702304e+01 0 0 0
907 2 1.2305000000000001e+00 2.1312885187134998e+00 3.3190212737702304e+01 0 0 0
908 2 2.4610000000000003e+00 2.8417180249513345e+00 3.3190212737702304e+01 0 0 0
909 2 2.4610000000000003e+00 0.0000000000000000e+00 3.3190212737702304e+01 0 0 0
910 2 3.6915000000000004e+00 7.1042950623783474e-01 3.3190212737702304e+01 0 0 0
918 2 3.6914999999999996e+00 2.1312885187134998e+00 3.3190212737702304e+01 0 0 0
607 2 4.9220000000000006e+00 1.4208590124756650e+00 3.0031000000000027e+01 0 0 0
609 2 4.9220000000000006e+00 0.0000000000000000e+00 3.0031000000000027e+01 0 0 0
634 2 6.1524999999999999e+00 2.1312885187134989e+00 3.0031000000000027e+01 0 0 0
636 2 7.3829999999999991e+00 1.4208590124756659e+00 3.0031000000000027e+01 0 0 0
638 2 7.3829999999999991e+00 0.0000000000000000e+00 3.0031000000000027e+01 0 0 0
671 2 8.6134999999999984e+00 2.1312885187135002e+00 3.0031000000000027e+01 0 0 0
632 2 6.1524999999999999e+00 3.5521475311891644e+00 3.0031000000000027e+01 0 0 0
669 2 8.6134999999999984e+00 3.5521475311891657e+00 3.0031000000000027e+01 0 0 0
919 2 4.9220000000000006e+00 2.8417180249513332e+00 3.3190212737702304e+01 0 0 0
920 2 4.9220000000000006e+00 0.0000000000000000e+00 3.3190212737702304e+01 0 0 0
921 2 6.1524999999999999e+00 7.1042950623783407e-01 3.3190212737702304e+01 0 0 0
933 2 6.1524999999999999e+00 2.1312885187134989e+00 3.3190212737702304e+01 0 0 0
934 2 7.3829999999999991e+00 2.8417180249513345e+00 3.3190212737702304e+01 0 0 0
935 2 7.3829999999999991e+00 0.0000000000000000e+00 3.3190212737702304e+01 0 0 0
936 2 8.6134999999999984e+00 7.1042950623783407e-01 3.3190212737702304e+01 0 0 0
952 2 8.6134999999999984e+00 2.1312885187135002e+00 3.3190212737702304e+01 0 0 0
578 2 0.0000000000000000e+00 5.6834360499026637e+00 3.0031000000000027e+01 0 0 0
580 2 0.0000000000000000e+00 4.2625770374269996e+00 3.0031000000000027e+01 0 0 0
597 2 1.2305000000000001e+00 6.3938655561404980e+00 3.0031000000000027e+01 0 0 0
599 2 2.4610000000000003e+00 5.6834360499026637e+00 3.0031000000000027e+01 0 0 0
601 2 2.4610000000000003e+00 4.2625770374269996e+00 3.0031000000000027e+01 0 0 0
626 2 3.6914999999999996e+00 6.3938655561404980e+00 3.0031000000000027e+01 0 0 0
595 2 1.2305000000000001e+00 7.8147245686161639e+00 3.0031000000000027e+01 0 0 0
624 2 3.6914999999999996e+00 7.8147245686161639e+00 3.0031000000000027e+01 0 0 0
905 2 0.0000000000000000e+00 4.2625770374269996e+00 3.3190212737702304e+01 0 0 0
906 2 1.2305000000000001e+00 4.9730065436648339e+00 3.3190212737702304e+01 0 0 0
914 2 1.2305000000000001e+00 6.3938655561404980e+00 3.3190212737702304e+01 0 0 0
916 2 2.4610000000000003e+00 4.2625770374269996e+00 3.3190212737702304e+01 0 0 0
917 2 3.6914999999999996e+00 4.9730065436648339e+00 3.3190212737702304e+01 0 0 0
929 2 3.6914999999999996e+00 6.3938655561404980e+00 3.3190212737702304e+01 0 0 0
904 2 0.0000000000000000e+00 7.1042950623783341e+00 3.3190212737702304e+01 0 0 0
915 2 2.4610000000000003e+00 7.1042950623783341e+00 3.3190212737702304e+01 0 0 0
628 2 4.9220000000000006e+00 5.6834360499026637e+00 3.0031000000000027e+01 0 0 0
630 2 4.9220000000000006e+00 4.2625770374269978e+00 3.0031000000000027e+01 0 0 0
663 2 6.1524999999999999e+00 6.3938655561404980e+00 3.0031000000000027e+01 0 0 0
665 2 7.3829999999999991e+00 5.6834360499026637e+00 3.0031000000000027e+01 0 0 0
667 2 7.3829999999999991e+00 4.2625770374269996e+00 3.0031000000000027e+01 0 0 0
708 2 8.6135000000000002e+00 6.3938655561404980e+00 3.0031000000000027e+01 0 0 0
661 2 6.1524999999999999e+00 7.8147245686161639e+00 3.0031000000000027e+01 0 0 0
706 2 8.6135000000000002e+00 7.8147245686161639e+00 3.0031000000000027e+01 0 0 0
931 2 4.9220000000000006e+00 4.2625770374269978e+00 3.3190212737702304e+01 0 0 0
932 2 6.1524999999999999e+00 4.9730065436648339e+00 3.3190212737702304e+01 0 0 0
948 2 6.1524999999999999e+00 6.3938655561404980e+00 3.3190212737702304e+01 0 0 0
950 2 7.3829999999999991e+00 4.2625770374269996e+00 3.3190212737702304e+01 0 0 0
951 2 8.6135000000000002e+00 4.9730065436648339e+00 3.3190212737702304e+01 0 0 0
971 2 8.6135000000000002e+00 6.3938655561404980e+00 3.3190212737702304e+01 0 0 0
930 2 4.9220000000000006e+00 7.1042950623783341e+00 3.3190212737702304e+01 0 0 0
949 2 7.3830000000000009e+00 7.1042950623783341e+00 3.3190212737702304e+01 0 0 0
591 2 0.0000000000000000e+00 9.9460130873296642e+00 3.0031000000000027e+01 0 0 0
593 2 0.0000000000000000e+00 8.5251540748539991e+00 3.0031000000000027e+01 0 0 0
620 2 2.4610000000000003e+00 9.9460130873296642e+00 3.0031000000000027e+01 0 0 0
622 2 2.4610000000000003e+00 8.5251540748539991e+00 3.0031000000000027e+01 0 0 0
616 2 1.2305000000000001e+00 1.2077301606043163e+01 3.0031000000000027e+01 0 0 0
618 2 1.2305000000000001e+00 1.0656442593567498e+01 3.0031000000000027e+01 0 0 0
653 2 3.6914999999999996e+00 1.2077301606043163e+01 3.0031000000000027e+01 0 0 0
655 2 3.6914999999999996e+00 1.0656442593567499e+01 3.0031000000000027e+01 0 0 0
912 2 0.0000000000000000e+00 8.5251540748539991e+00 3.3190212737702304e+01 0 0 0
913 2 1.2305000000000001e+00 9.2355835810918343e+00 3.3190212737702304e+01 0 0 0
927 2 2.4610000000000003e+00 8.5251540748539991e+00 3.3190212737702304e+01 0 0 0
928 2 3.6915000000000004e+00 9.2355835810918343e+00 3.3190212737702304e+01 0 0 0
911 2 0.0000000000000000e+00 1.1366872099805333e+01 3.3190212737702304e+01 0 0 0
925 2 1.2305000000000001e+00 1.0656442593567498e+01 3.3190212737702304e+01 0 0 0
926 2 2.4610000000000003e+00 1.1366872099805333e+01 3.3190212737702304e+01 0 0 0
944 2 3.6914999999999996e+00 1.0656442593567499e+01 3.3190212737702304e+01 0 0 0
657 2 4.9220000000000006e+00 9.9460130873296642e+00 3.0031000000000027e+01 0 0 0
659 2 4.9220000000000006e+00 8.5251540748539991e+00 3.0031000000000027e+01 0 0 0
702 2 7.3830000000000009e+00 9.9460130873296642e+00 3.0031000000000027e+01 0 0 0
704 2 7.3830000000000009e+00 8.5251540748539991e+00 3.0031000000000027e+01 0 0 0
698 2 6.1524999999999999e+00 1.2077301606043163e+01 3.0031000000000027e+01 0 0 0
700 2 6.1524999999999999e+00 1.0656442593567499e+01 3.0031000000000027e+01 0 0 0
745 2 8.6135000000000002e+00 1.2077301606043163e+01 3.0031000000000027e+01 0 0 0
747 2 8.6134999999999984e+00 1.0656442593567498e+01 3.0031000000000027e+01 0 0 0
946 2 4.9220000000000006e+00 8.5251540748539991e+00 3.3190212737702304e+01 0 0 0
947 2 6.1524999999999999e+00 9.2355835810918343e+00 3.3190212737702304e+01 0 0 0
969 2 7.3830000000000009e+00 8.5251540748539991e+00 3.3190212737702304e+01 0 0 0
970 2 8.6134999999999984e+00 9.2355835810918343e+00 3.3190212737702304e+01 0 0 0
945 2 4.9220000000000006e+00 1.1366872099805333e+01 3.3190212737702304e+01 0 0 0
967 2 6.1524999999999999e+00 1.0656442593567499e+01 3.3190212737702304e+01 0 0 0
968 2 7.3829999999999991e+00 1.1366872099805333e+01 3.3190212737702304e+01 0 0 0
991 2 8.6134999999999984e+00 1.0656442593567498e+01 3.3190212737702304e+01 0 0 0
614 2 0.0000000000000000e+00 1.2787731112280996e+01 3.0031000000000027e+01 0 0 0
651 2 2.4610000000000003e+00 1.2787731112280996e+01 3.0031000000000027e+01 0 0 0
612 2 0.0000000000000000e+00 1.4208590124756663e+01 3.0031000000000027e+01 0 0 0
647 2 1.2305000000000001e+00 1.4919019630994494e+01 3.0031000000000027e+01 0 0 0
649 2 2.4610000000000003e+00 1.4208590124756663e+01 3.0031000000000027e+01 0 0 0
692 2 3.6915000000000004e+00 1.4919019630994494e+01 3.0031000000000027e+01 0 0 0
923 2 0.0000000000000000e+00 1.2787731112280996e+01 3.3190212737702304e+01 0 0 0
924 2 1.2305000000000001e+00 1.3498160618518829e+01 3.3190212737702304e+01 0 0 0
942 2 2.4610000000000003e+00 1.2787731112280996e+01 3.3190212737702304e+01 0 0 0
943 2 3.6915000000000004e+00 1.3498160618518829e+01 3.3190212737702304e+01 0 0 0
922 2 0.0000000000000000e+00 1.5629449137232333e+01 3.3190212737702304e+01 0 0 0
940 2 1.2305000000000001e+00 1.4919019630994494e+01 3.3190212737702304e+01 0 0 0
941 2 2.4610000000000003e+00 1.5629449137232328e+01 3.3190212737702304e+01 0 0 0
963 2 3.6915000000000004e+00 1.4919019630994494e+01 3.3190212737702304e+01 0 0 0
696 2 4.9220000000000006e+00 1.2787731112280996e+01 3.0031000000000027e+01 0 0 0
743 2 7.3829999999999991e+00 1.2787731112280996e+01 3.0031000000000027e+01 0 0 0
694 2 4.9220000000000006e+00 1.4208590124756663e+01 3.0031000000000027e+01 0 0 0
739 2 6.1524999999999990e+00 1.4919019630994494e+01 3.0031000000000027e+01 0 0 0
741 2 7.3830000000000009e+00 1.4208590124756663e+01 3.0031000000000027e+01 0 0 0
786 2 8.6135000000000002e+00 1.4919019630994494e+01 3.0031000000000027e+01 0 0 0
965 2 4.9220000000000006e+00 1.2787731112280996e+01 3.3190212737702304e+01 0 0 0
966 2 6.1524999999999990e+00 1.3498160618518829e+01 3.3190212737702304e+01 0 0 0
989 2 7.3829999999999991e+00 1.2787731112280996e+01 3.3190212737702304e+01 0 0 0
990 2 8.6135000000000002e+00 1.3498160618518835e+01 3.3190212737702304e+01 0 0 0
964 2 4.9220000000000006e+00 1.5629449137232333e+01 3.3190212737702304e+01 0 0 0
987 2 6.1524999999999990e+00 1.4919019630994494e+01 3.3190212737702304e+01 0 0 0
988 2 7.3829999999999991e+00 1.5629449137232333e+01 3.3190212737702304e+01 0 0 0
1011 2 8.6135000000000002e+00 1.4919019630994494e+01 3.3190212737702304e+01 0 0 0
4981 1 3.9109216421928359e+00 8.4555322945929871e-03 3.6603998742807264e+01 1 1 -1
3408 1 8.3352306674063215e+00 5.1530964555114931e+00 3.9162805221816342e+01 0 -1 -1
1315 1 6.1033983450205573e+00 2.8765488588873223e+00 3.8778652925009908e+01 0 1 0
1591 1 5.3797425872863478e+00 2.3194641588492022e+00 3.6025413212244544e+01 0 0 0
4829 1 6.7042772493360445e+00 1.3060031098910347e+01 3.6178263061399647e+01 0 0 0
6282 1 1.2335988672371700e+00 7.1783951684369129e-01 3.5536487566650734e+01 1 1 0
3074 1 5.3659941334633876e+00 1.5451445492992686e+01 3.9188419591931691e+01 1 0 0
1727 1 3.4040725626339539e+00 4.3248145083643434e+00 3.5937287286419945e+01 0 0 -1
1379 1 1.2449874394319034e+00 6.1689741471244552e+00 3.6482418002835701e+01 0 1 0
1394 1 7.8374845652972231e+00 4.9247368744943669e+00 3.6299031465196990e+01 0 2 -1
3795 1 5.4645223015525932e+00 6.2378579672808003e+00 3.5814212759613568e+01 1 0 0
2206 1 5.8116193776094587e+00 7.8540055224798389e+00 3.8040196434991643e+01 0 1 0
2124 1 2.6182102252264685e+00 1.3772505343863367e+01 3.6139097094222109e+01 -1 1 0
2879 1 9.3493237483937435e+00 1.4222550296703908e+01 3.6128165623961465e+01 0 1 0
547 1 8.1350333897914506e-01 9.0445906521919124e+00 3.5921824603883024e+01 0 1 0
3199 1 1.9152981202106212e+00 9.1583040552924153e+00 3.8564967748325330e+01 1 -1 -1
1407 1 6.4539993331484098e+00 1.2385070885684224e+01 3.8972241785167284e+01 0 0 0
2933 1 5.0433275091834533e+00 1.5268219052226145e+01 3.6276269824126203e+01 0 1 0
4747 1 4.4520387466878564e+00 1.0424154050118927e+01 3.7893274376950970e+01 1 0 -1
1389 1 6.7697219350552720e+00 1.0190295603172755e+01 3.6031305795948271e+01 0 1 -1
3376 1 1.6084395569575403e+00 1.7251557218546552e+00 3.8495938638359803e+01 0 0 -1
3096 1 2.8593628426827475e+00 1.1040057454168670e+01 3.5789914329354687e+01 0 -1 0
3672 1 2.8965293339625000e+00 4.2198905263782551e+00 3.8902816554078044e+01 1 0 0
1354 1 8.2942770150857879e+00 2.2892093000774794e+00 3.5804639551534763e+01 0 1 0
5399 1 8.7129272811337337e+00 7.7234791415126036e+00 3.8603824546173129e+01 0 1 -1
1487 1 9.5917285425757939e+00 2.4492785895084688e+00 3.8451326244727554e+01 -1 0 0
2991 1 9.5726470665919248e+00 9.1155826323164320e+00 3.6302508901292327e+01 0 0 0
1261 1 9.3482240897665001e+00 1.2687214208480762e+01 3.8335395169654419e+01 0 0 0
3790 1 1.8748777306961051e+00 1.3198095465350676e+01 3.8943133441428159e+01 0 1 0
3287 1 3.0914715496353051e-01 5.3618602610158392e+00 3.9108353210822386e+01 1 0 -1
4552 1 5.0900351754859434e+00 4.4867806951705974e-01 4.1204064226892953e+01 1 0 0
5438 1 7.6104026753231997e+00 7.1269359182233316e-01 4.0108748812290401e+01 0 0 0
3746 1 1.6447792322840040e+00 1.8531611054160388e+00 4.2480104949278200e+01 0 0 0
2978 1 7.4790535719264861e+00 2.5253483468297979e+00 4.2830903315790380e+01 0 1 0
4663 1 4.0691685390119066e+00 1.3030048067945843e+01 4.0558343981135039e+01 0 1 0
1490 1 4.3734952922457833e+00 3.2749880612363946e+00 4.1415954487713094e+01 0 0 0
6445 1 3.6930639666274363e+00 6.4936775729680916e+00 4.4052077846741113e+01 1 2 -1
3106 1 8.6324452026467693e+00 6.7029542001007263e+00 4.5398312825645434e+01 1 -1 0
1260 1 7.1460375984182196e+00 5.0068420831159992e+00 4.1727165661037688e+01 1 1 0
4525 1 5.1062477182668893e+00 6.9082965939272016e+00 4.1801618569075131e+01 0 1 0
4868 1 1.5829959212761797e+00 4.7721223265888479e+00 4.3051744692667086e+01 0 0 -1
1481 1 3.5363291975989739e+00 1.1077006127580610e+01 4.2867363819807920e+01 0 0 0
6100 1 7.2235641837235889e+00 1.1202340854527533e+01 4.1501578742927180e+01 0 1 0
3068 1 5.4512634573929288e+00 9.3413706440426427e+00 4.2571687746144647e+01 0 0 0
3274 1 7.5783122920921100e+00 1.2414643973085173e+01 4.5720206020522909e+01 0 0 -1
567 1 1.2602954673120028e+00 9.4744047172065518e+00 4.2151813902569316e+01 1 0 0
4684 1 4.3049786172746396e+00 1.5490358502372807e+01 4.2166753170428692e+01 1 -1 -1
3755 1 4.6360004194143043e+00 1.4560639444407936e+01 4.4830511915370764e+01 0 0 0
4676 1 7.0811556659246095e+00 1.3558529005923910e+01 4.3332001111935242e+01 1 0 0
1542 1 1.4576895632159217e-01 5.3229393249991475e+00 4.5295583911873180e+01 0 0 0
3499 1 6.2947333837284347e+00 6.4977721540213293e+00 4.7408004694807232e+01 1 0 -1
5122 1 1.0778128576672175e+00 1.1426954084022849e+00 4.7372601314278896e+01 0 0 -1
3209 1 1.7504777922409638e+00 1.9512563043728620e-01 4.4800505358484315e+01 -1 1 0
3611 1 5.5168358348708590e+00 1.0878062887724061e+01 4.6826335626861137e+01 0 1 0
5047 1 1.5410279773466967e-01 8.0521600630359842e+00 4.4722572873151094e+01 1 0 -1
3193 1 8.5789315865455951e+00 1.0272575197807816e+01 4.4541084006009683e+01 1 1 0
5402 1 7.3068745134251021e+00 1.5301392845555499e+00 4.7177410535839499e+01 0 1 0
1334 1 5.7996030059820489e+00 2.2361523482878183e+00 4.4903362774307155e+01 0 2 0