LAMMPS data file via write_data, version 16 Mar 2018, timestep = 6000000

6489 atoms
2 atom types

0.0000000000000000e+00 4.9219999999999999e+01 xlo xhi
0.0000000000000000e+00 4.9019635930410494e+01 ylo yhi
8.2320161231888989e-01 5.9238798387678557e+01 zlo zhi

Masses

1 18.015
2 12.01

Atoms # atomic

4814 1 3.4315384739976431e+00 3.0608076046022328e+00 3.2765913546030547e+00 2 4 0
166 1 2.5486273384259452e+00 6.8789592063273297e-01 2.3573173156972507e+00 2 0 0
2862 1 7.2874249013518551e+00 5.8578869831952296e-01 3.0800316180058638e+00 3 1 0
42 1 6.0437187101789940e+00 3.0156147517924001e+00 2.4209364444708932e+00 -1 2 1
3318 1 8.2452935551679740e+00 7.7610157968422078e+00 1.0434123698097583e+01 1 2 0
408 1 2.0259625568497315e+00 5.3328717583102572e+00 2.1339090029223584e+00 1 3 0
5246 1 2.8110659246459817e+00 7.7075471114118113e+00 3.3074714047573854e+00 0 2 0
1296 1 7.3586932567272245e-01 7.5413152883971497e+00 1.0543035838400701e+01 -3 0 0
6469 1 6.9153906294287815e+00 5.5213950954184403e+00 2.9483155678637551e+00 0 2 1
1410 1 5.4747601702081408e+00 7.6472864531754086e+00 2.2623905987429254e+00 0 1 1
5049 1 1.7584512828116678e+00 9.8550281279251113e+00 2.1509301813927886e+00 1 -3 1
3225 1 6.4552630342584791e+00 1.0227954277705413e+01 3.1634549185581404e+00 1 1 0
5242 1 9.1748906692123526e+00 1.0101673106891747e+01 2.3895906409452090e+00 -3 -1 0
1719 1 2.6541021052273708e+00 1.2536114558964471e+01 3.0013386858936086e+00 2 0 0
1486 1 1.2943449700108003e+00 1.5039738609843173e+01 2.3175301135779600e+00 0 -2 1
168 1 5.2741167348227309e+00 1.2358017094580738e+01 1.9332341013054350e+00 -1 -2 1
6143 1 6.0034787656838784e+00 1.4883539421037161e+01 3.1713906606261220e+00 -1 2 0
3091 1 8.6616508332331339e+00 1.4876058164411132e+01 2.1624238477517554e+00 1 1 1
4548 1 3.5081864701753021e+00 3.1469482214075088e+00 6.1087672017534906e+00 3 3 1
6099 1 2.2325443258202715e+00 6.1341738044384508e-01 6.6429901792396038e+00 -1 2 1
6396 1 2.2069431231338315e+00 5.1908013387254170e-01 9.4598905622683098e+00 -3 -1 0
6249 1 1.2298485497659526e+00 1.4458241989030146e+01 6.7097346015964847e+00 2 0 0
5375 1 7.1766851195651151e+00 5.9402366382670224e-01 5.8899573369656855e+00 -3 1 0
24 1 5.9569996928436924e+00 3.0639623280883028e+00 6.7000026225295208e+00 -2 0 0
1816 1 6.0412295529824194e+00 3.0175141007116197e+00 9.4035294413129638e+00 -1 -3 0
3335 1 9.0369828178945610e+00 1.4833110573114656e+01 6.6665383430580389e+00 4 -4 1
4935 1 9.1989694572524598e+00 5.3161418035845740e+00 6.6938983110244639e+00 1 1 1
4748 1 5.2570449134259203e+00 1.2497651306095891e+01 6.4003993171795983e+00 1 -2 1
2884 1 3.1455476584356861e+00 7.6708708649812980e+00 6.1211233320819733e+00 1 4 1
3086 1 1.9771627035003900e+00 5.3373166831128422e+00 7.0186269811224546e+00 2 0 1
1447 1 2.0334251242895522e+00 5.1998391599189207e+00 9.8191193269595409e+00 3 1 1
5187 1 6.4478588142179545e+00 1.4920519828507580e+01 5.8605434380378361e+00 0 3 0
2944 1 6.5691464487139966e+00 5.5457732694067925e+00 5.7729361581685952e+00 3 2 1
245 1 9.5306907382202244e+00 5.4534182112227478e+00 2.2748235450741285e+00 0 0 0
5277 1 5.6869646737282942e+00 8.0763897233439614e+00 6.6873650709222430e+00 1 1 0
5068 1 5.6508015546767787e+00 7.6222418430672958e+00 9.3237064847151121e+00 -1 0 0
4920 1 8.7839078583327144e+00 1.4937506667405815e+01 9.3228611177888077e+00 0 -1 0
341 1 2.6179008586594814e+00 1.2287221369112624e+01 5.8713148084845965e+00 -3 2 0
4838 1 1.5005156073141523e+00 1.0080512898929950e+01 9.1823170502960938e+00 2 -1 1
1492 1 1.6543851129901719e+00 9.8762805319847669e+00 6.5957165336295898e+00 0 -2 1
539 1 5.3173222799393018e+00 1.2418407102114671e+01 9.1003286225814808e+00 1 1 1
26 1 6.9106880143149576e+00 1.0435167216402769e+01 5.8752802073079096e+00 -1 0 0
4840 1 9.4374510692535640e+00 1.0168666568836009e+01 6.7541895445805515e+00 0 0 1
3214 1 9.3870589391500889e+00 1.0209735656910544e+01 9.4965289527346215e+00 1 2 1
2006 1 1.0465995447914191e+00 1.4630514879200696e+01 9.6368712885379484e+00 1 3 0
3561 1 9.2201358600291528e+00 5.1926402048035643e+00 9.5786741393362451e+00 1 1 0
271 1 8.4508211161627482e+00 2.7576501885282774e+00 1.0327649528106340e+01 0 1 0
506 1 4.6690516904561443e+00 5.2154255866155284e+00 1.0097231725128720e+01 1 -1 0
3030 1 6.1114191969397913e-01 2.6446992348960237e+00 1.0280144268502665e+01 3 1 1
5148 1 3.6163390862439879e+00 1.4580092163166505e+01 1.0121995216351475e+01 0 2 0
1270 1 4.7660220412263286e+00 5.5803556694017509e-01 1.0436313157924584e+01 -1 -3 1
5117 1 8.0055922841953038e+00 1.2486623770749439e+01 1.0144443853711451e+01 3 -1 0
4756 1 3.9895750231319078e+00 9.9240084980590613e+00 1.0096870820651045e+01 -1 2 1
2906 1 9.5885970902303015e+00 5.5049471385853899e-01 9.1875534943691370e+00 0 1 1
4689 1 2.9427027320409138e-02 7.5297698240428601e-01 3.3211246763367281e+00 -1 1 1
1783 1 3.6947580399349661e-01 1.2175264929651462e+01 1.0531855745122160e+01 4 4 0
1533 1 1.0249629921097525e+00 2.9343248833724367e+00 1.3130106189784916e+01 1 1 1
5114 1 2.3682364454679665e+00 6.7444829805392525e-01 1.4122700986875985e+01 2 0 0
1517 1 9.2766513036708833e+00 5.7607263960908748e+00 1.4102906564442829e+01 1 0 0
5233 1 4.8980231007322210e+00 5.8616718617169228e-01 1.3146905863236313e+01 -1 1 0
3602 1 5.7708972916071017e+00 3.1492143529732721e+00 1.4108856306451553e+01 1 -2 0
5344 1 8.3744508438994849e+00 3.3796444812163848e+00 1.3132584265555039e+01 1 0 1
1795 1 1.9173083298809066e+00 5.3117949633784791e+00 1.4171759305653298e+01 3 3 0
5341 1 4.6116154157969973e+00 5.4008791835364347e+00 1.3063368022349861e+01 -1 -1 0
4714 1 6.2270756044262987e-01 7.5830478762885010e+00 1.3052234611653541e+01 2 1 1
1613 1 8.0972265981396685e+00 8.0228949721866023e+00 1.3046295859238086e+01 1 3 1
5071 1 5.5982141561012053e+00 7.8282501474444501e+00 1.3866139744383407e+01 0 2 0
1922 1 1.3702490124070597e+00 1.4549041197591071e+01 1.6839611000981630e+01 -2 1 0
5389 1 1.6909516507869868e+00 9.9304790251800874e+00 1.4001521510320133e+01 1 0 0
551 1 4.2112798242102940e+00 1.0076474170915819e+01 1.2959741230819986e+01 1 -3 1
1760 1 9.2722816688062384e+00 1.0076775728953374e+01 1.7181869032450781e+01 -1 1 1
1300 1 6.6063242053029674e+00 1.0035167207521882e+01 1.7541217359878789e+01 -1 0 0
22 1 9.2137140847637902e+00 1.0205341126647017e+01 1.4319134854489931e+01 4 -1 0
6477 1 1.2357967966097243e+00 1.4683799694263930e+01 1.4179036771372290e+01 -1 0 1
4546 1 3.9369957941123435e+00 1.4653711268712094e+01 1.2956312815422372e+01 0 2 1
4791 1 6.2608760594236781e+00 1.4775392607609684e+01 1.7588227669924279e+01 0 -1 1
465 1 5.1311201148079277e+00 1.2374654896367964e+01 1.3928407307245495e+01 0 1 0
401 1 7.7189812574608769e+00 1.2325465330257957e+01 1.3141325988363317e+01 0 -1 1
1532 1 8.5721652058406406e+00 1.4863130810661826e+01 1.4236658787763046e+01 1 -2 1
277 1 2.8215784734449865e+00 1.2341324839673295e+01 1.7470258174043003e+01 3 0 0
6378 1 8.8402769153314846e+00 1.5074676508364096e+01 1.6903588926341662e+01 3 0 0
1946 1 2.2430683411130370e+00 7.0469280820778668e-01 1.6791724696709441e+01 0 0 1
6237 1 3.3773115277201833e+00 2.9985187274451905e+00 1.7829848324178684e+01 0 -2 1
136 1 7.1980892918631545e+00 1.1180923671840606e+00 1.7762521484785260e+01 1 -3 0
4994 1 5.8782851979122892e+00 3.4811424170366916e+00 1.6874507150925268e+01 1 -1 1
101 1 9.7719364316610928e+00 1.2260720996294499e+00 1.3936222774186451e+01 0 6 1
5134 1 1.8687170629535523e+00 5.0171368788390707e+00 1.6860500995973847e+01 4 2 0
4984 1 3.1002589656169253e+00 7.4090705608224567e+00 1.7647050504614576e+01 1 1 0
1637 1 5.7156794549842713e+00 7.7790877982135926e+00 1.6437734459304590e+01 0 0 0
3464 1 6.8686315211204114e+00 5.6951372197064645e+00 1.7936811554844997e+01 1 0 0
3291 1 5.3236554022850022e+00 1.2483883850186787e+01 1.6562293608374020e+01 4 3 0
3492 1 1.9266496225251017e+00 9.8642238920348042e+00 1.6862338207575188e+01 1 -1 1
5014 1 3.7138938325313542e-01 1.2298106472442466e+01 1.3419710276227606e+01 -1 1 0
1771 1 9.5381658431664338e+00 8.4844471031062885e-01 1.6787500632559155e+01 -1 0 0
6210 1 9.3583518510225723e+00 5.2738569729809877e+00 1.6943814537174983e+01 1 3 1
4520 1 2.8122475334136783e+00 1.2483336947501272e+01 2.0012773657714948e+01 0 -1 1
5127 1 7.1763080785605626e-01 3.1222420589191979e+00 2.1909161818336639e+01 -2 -1 0
4908 1 4.7251167364621791e+00 7.2205802576753175e-01 2.1499985362205248e+01 -1 0 0
742 2 7.3829999999999991e+00 1.2787731112280996e+01 2.6741264346365508e+01 0 0 0
4669 1 3.3966139400537205e+00 2.9324148524998264e+00 2.0676675772227288e+01 0 -2 1
5390 1 6.6377341502315135e+00 7.9790859109353141e-01 2.3915657160598919e+01 0 0 1
6114 1 8.3671324138564138e+00 3.4209343564421735e+00 2.1447647625234332e+01 1 0 1
3783 1 7.7508071059616910e+00 3.3276602717429955e+00 2.4057853624780222e+01 1 0 1
744 2 8.6135000000000002e+00 1.3498160618518835e+01 2.6741264346365508e+01 0 0 0
5260 1 4.3584606581711777e-01 1.1683287373283525e+01 2.3847005531201841e+01 1 1 0
1543 1 4.3302445745079980e+00 5.3538987513407967e+00 2.1678494057591401e+01 0 0 0
1747 1 2.7852931446270661e+00 7.5483825142950511e+00 2.0438996748082882e+01 2 -2 0
6377 1 6.0359519662002441e+00 5.3833077983031883e+00 2.4388900345686640e+01 0 1 1
230 1 7.1632149117362358e+00 7.7322745329386322e+00 2.4253790486319588e+01 0 -3 1
3363 1 7.6706945547373353e+00 7.9514583962066379e+00 2.1473294812064143e+01 3 3 1
740 2 7.3829999999999991e+00 1.5629449137232333e+01 2.6741264346365508e+01 0 0 0
5303 1 2.9042036133415117e-01 2.0174339356949855e+00 2.4321762169051755e+01 3 2 0
4490 1 6.1669586387284099e+00 1.5200302627500133e+01 2.0467404681153255e+01 -1 2 1
1870 1 4.0869261672596222e+00 1.0232611264783269e+01 2.1482082123094443e+01 0 -2 1
3682 1 3.2281433294342738e+00 1.1946361330802466e+01 2.3844179402798396e+01 0 2 1
738 2 6.1524999999999990e+00 1.4919019630994494e+01 2.6741264346365508e+01 0 0 0
5446 1 5.6192740217402974e+00 1.0210774446587402e+01 2.4243945829887835e+01 1 0 1
785 2 8.6135000000000002e+00 1.4919019630994494e+01 2.6741264346365508e+01 0 0 0
3427 1 3.0890013633162541e+00 1.4928478302063757e+01 2.0770568595104091e+01 0 2 0
2192 1 3.3060088634817633e+00 1.4715053243161611e+01 2.3917757974955734e+01 2 -2 1
693 2 4.9220000000000006e+00 1.5629449137232333e+01 2.6741264346365508e+01 0 0 0
4637 1 7.4017379393000491e+00 1.2543919525766491e+01 2.3879330347469701e+01 1 1 1
3198 1 7.4120567909965347e+00 1.2846092951320953e+01 2.1251601185305137e+01 2 -1 0
6293 1 6.0817631279978217e+00 1.5100581830793297e+01 2.3531968662155172e+01 0 0 0
3453 1 2.6579885112323742e-01 1.2273379161701554e+01 2.1076187942333597e+01 -1 -1 0
572 2 0.0000000000000000e+00 2.8417180249513345e+00 2.6741264346365508e+01 0 0 0
574 2 0.0000000000000000e+00 0.0000000000000000e+00 2.6741264346365508e+01 0 0 0
576 2 1.2305000000000001e+00 7.1042950623783474e-01 2.6741264346365508e+01 0 0 0
583 2 1.2305000000000001e+00 2.1312885187134998e+00 2.6741264346365508e+01 0 0 0
585 2 2.4610000000000003e+00 2.8417180249513345e+00 2.6741264346365508e+01 0 0 0
587 2 2.4610000000000003e+00 0.0000000000000000e+00 2.6741264346365508e+01 0 0 0
589 2 3.6915000000000004e+00 7.1042950623783474e-01 2.6741264346365508e+01 0 0 0
604 2 3.6914999999999996e+00 2.1312885187134998e+00 2.6741264346365508e+01 0 0 0
606 2 4.9220000000000006e+00 2.8417180249513332e+00 2.6741264346365508e+01 0 0 0
608 2 4.9220000000000006e+00 0.0000000000000000e+00 2.6741264346365508e+01 0 0 0
610 2 6.1524999999999999e+00 7.1042950623783407e-01 2.6741264346365508e+01 0 0 0
633 2 6.1524999999999999e+00 2.1312885187134989e+00 2.6741264346365508e+01 0 0 0
635 2 7.3829999999999991e+00 2.8417180249513345e+00 2.6741264346365508e+01 0 0 0
637 2 7.3829999999999991e+00 0.0000000000000000e+00 2.6741264346365508e+01 0 0 0
639 2 8.6134999999999984e+00 7.1042950623783407e-01 2.6741264346365508e+01 0 0 0
670 2 8.6134999999999984e+00 2.1312885187135002e+00 2.6741264346365508e+01 0 0 0
579 2 0.0000000000000000e+00 4.2625770374269996e+00 2.6741264346365508e+01 0 0 0
581 2 1.2305000000000001e+00 4.9730065436648339e+00 2.6741264346365508e+01 0 0 0
596 2 1.2305000000000001e+00 6.3938655561404980e+00 2.6741264346365508e+01 0 0 0
600 2 2.4610000000000003e+00 4.2625770374269996e+00 2.6741264346365508e+01 0 0 0
602 2 3.6914999999999996e+00 4.9730065436648339e+00 2.6741264346365508e+01 0 0 0
625 2 3.6914999999999996e+00 6.3938655561404980e+00 2.6741264346365508e+01 0 0 0
577 2 0.0000000000000000e+00 7.1042950623783341e+00 2.6741264346365508e+01 0 0 0
598 2 2.4610000000000003e+00 7.1042950623783341e+00 2.6741264346365508e+01 0 0 0
629 2 4.9220000000000006e+00 4.2625770374269978e+00 2.6741264346365508e+01 0 0 0
631 2 6.1524999999999999e+00 4.9730065436648339e+00 2.6741264346365508e+01 0 0 0
662 2 6.1524999999999999e+00 6.3938655561404980e+00 2.6741264346365508e+01 0 0 0
666 2 7.3829999999999991e+00 4.2625770374269996e+00 2.6741264346365508e+01 0 0 0
668 2 8.6135000000000002e+00 4.9730065436648339e+00 2.6741264346365508e+01 0 0 0
707 2 8.6135000000000002e+00 6.3938655561404980e+00 2.6741264346365508e+01 0 0 0
627 2 4.9220000000000006e+00 7.1042950623783341e+00 2.6741264346365508e+01 0 0 0
664 2 7.3830000000000009e+00 7.1042950623783341e+00 2.6741264346365508e+01 0 0 0
592 2 0.0000000000000000e+00 8.5251540748539991e+00 2.6741264346365508e+01 0 0 0
594 2 1.2305000000000001e+00 9.2355835810918343e+00 2.6741264346365508e+01 0 0 0
621 2 2.4610000000000003e+00 8.5251540748539991e+00 2.6741264346365508e+01 0 0 0
623 2 3.6915000000000004e+00 9.2355835810918343e+00 2.6741264346365508e+01 0 0 0
590 2 0.0000000000000000e+00 1.1366872099805333e+01 2.6741264346365508e+01 0 0 0
617 2 1.2305000000000001e+00 1.0656442593567498e+01 2.6741264346365508e+01 0 0 0
619 2 2.4610000000000003e+00 1.1366872099805333e+01 2.6741264346365508e+01 0 0 0
654 2 3.6914999999999996e+00 1.0656442593567499e+01 2.6741264346365508e+01 0 0 0
658 2 4.9220000000000006e+00 8.5251540748539991e+00 2.6741264346365508e+01 0 0 0
660 2 6.1524999999999999e+00 9.2355835810918343e+00 2.6741264346365508e+01 0 0 0
703 2 7.3830000000000009e+00 8.5251540748539991e+00 2.6741264346365508e+01 0 0 0
705 2 8.6134999999999984e+00 9.2355835810918343e+00 2.6741264346365508e+01 0 0 0
656 2 4.9220000000000006e+00 1.1366872099805333e+01 2.6741264346365508e+01 0 0 0
699 2 6.1524999999999999e+00 1.0656442593567499e+01 2.6741264346365508e+01 0 0 0
701 2 7.3829999999999991e+00 1.1366872099805333e+01 2.6741264346365508e+01 0 0 0
746 2 8.6134999999999984e+00 1.0656442593567498e+01 2.6741264346365508e+01 0 0 0
650 2 2.4610000000000003e+00 1.2787731112280996e+01 2.6741264346365508e+01 0 0 0
646 2 1.2305000000000001e+00 1.4919019630994494e+01 2.6741264346365508e+01 0 0 0
611 2 0.0000000000000000e+00 1.5629449137232333e+01 2.6741264346365508e+01 0 0 0
691 2 3.6915000000000004e+00 1.4919019630994494e+01 2.6741264346365508e+01 0 0 0
652 2 3.6915000000000004e+00 1.3498160618518829e+01 2.6741264346365508e+01 0 0 0
615 2 1.2305000000000001e+00 1.3498160618518829e+01 2.6741264346365508e+01 0 0 0
613 2 0.0000000000000000e+00 1.2787731112280996e+01 2.6741264346365508e+01 0 0 0
648 2 2.4610000000000003e+00 1.5629449137232328e+01 2.6741264346365508e+01 0 0 0
695 2 4.9220000000000006e+00 1.2787731112280996e+01 2.6741264346365508e+01 0 0 0
697 2 6.1524999999999990e+00 1.3498160618518829e+01 2.6741264346365508e+01 0 0 0
2926 1 1.6760113210130539e-01 7.6763368876510372e+00 2.1605898387003322e+01 1 -2 1
44 1 9.1592973281923185e-01 1.6333291112829333e+01 2.1114004050495321e+01 4 4 0
5157 1 6.8756273798422125e+00 5.6626087547442996e+00 2.0516118634453310e+01 1 1 0
1278 1 6.7633323249552291e-02 7.8927651178332547e-01 2.0578617614107515e+01 2 3 0
3657 1 7.3777725385776645e+00 8.1696984471935663e-01 2.0429995891363685e+01 0 0 0
6319 1 6.5275141645764014e+00 1.0239017609911205e+01 2.0299833777996867e+01 -1 0 1
573 2 0.0000000000000000e+00 1.4208590124756650e+00 3.0030999999999040e+01 0 0 0
575 2 0.0000000000000000e+00 0.0000000000000000e+00 3.0030999999999040e+01 0 0 0
584 2 1.2305000000000001e+00 2.1312885187134998e+00 3.0030999999999040e+01 0 0 0
586 2 2.4610000000000003e+00 1.4208590124756650e+00 3.0030999999999040e+01 0 0 0
588 2 2.4610000000000003e+00 0.0000000000000000e+00 3.0030999999999040e+01 0 0 0
605 2 3.6914999999999996e+00 2.1312885187134998e+00 3.0030999999999040e+01 0 0 0
582 2 1.2305000000000001e+00 3.5521475311891644e+00 3.0030999999999040e+01 0 0 0
603 2 3.6914999999999996e+00 3.5521475311891644e+00 3.0030999999999040e+01 0 0 0
901 2 0.0000000000000000e+00 2.8417180249513345e+00 3.3320735653603840e+01 0 0 0
902 2 0.0000000000000000e+00 0.0000000000000000e+00 3.3320735653603840e+01 0 0 0
903 2 1.2305000000000001e+00 7.1042950623783474e-01 3.3320735653603840e+01 0 0 0
907 2 1.2305000000000001e+00 2.1312885187134998e+00 3.3320735653603840e+01 0 0 0
908 2 2.4610000000000003e+00 2.8417180249513345e+00 3.3320735653603840e+01 0 0 0
909 2 2.4610000000000003e+00 0.0000000000000000e+00 3.3320735653603840e+01 0 0 0
910 2 3.6915000000000004e+00 7.1042950623783474e-01 3.3320735653603840e+01 0 0 0
918 2 3.6914999999999996e+00 2.1312885187134998e+00 3.3320735653603840e+01 0 0 0
607 2 4.9220000000000006e+00 1.4208590124756650e+00 3.0030999999999040e+01 0 0 0
609 2 4.9220000000000006e+00 0.0000000000000000e+00 3.0030999999999040e+01 0 0 0
634 2 6.1524999999999999e+00 2.1312885187134989e+00 3.0030999999999040e+01 0 0 0
636 2 7.3829999999999991e+00 1.4208590124756659e+00 3.0030999999999040e+01 0 0 0
638 2 7.3829999999999991e+00 0.0000000000000000e+00 3.0030999999999040e+01 0 0 0
671 2 8.6134999999999984e+00 2.1312885187135002e+00 3.0030999999999040e+01 0 0 0
632 2 6.1524999999999999e+00 3.5521475311891644e+00 3.0030999999999040e+01 0 0 0
669 2 8.6134999999999984e+00 3.5521475311891657e+00 3.0030999999999040e+01 0 0 0
919 2 4.9220000000000006e+00 2.8417180249513332e+00 3.3320735653603840e+01 0 0 0
920 2 4.9220000000000006e+00 0.0000000000000000e+00 3.3320735653603840e+01 0 0 0
921 2 6.1524999999999999e+00 7.1042950623783407e-01 3.3320735653603840e+01 0 0 0
933 2 6.1524999999999999e+00 2.1312885187134989e+00 3.3320735653603840e+01 0 0 0
934 2 7.3829999999999991e+00 2.8417180249513345e+00 3.3320735653603840e+01 0 0 0
935 2 7.3829999999999991e+00 0.0000000000000000e+00 3.3320735653603840e+01 0 0 0
936 2 8.6134999999999984e+00 7.1042950623783407e-01 3.3320735653603840e+01 0 0 0
952 2 8.6134999999999984e+00 2.1312885187135002e+00 3.3320735653603840e+01 0 0 0
578 2 0.0000000000000000e+00 5.6834360499026637e+00 3.0030999999999040e+01 0 0 0
580 2 0.0000000000000000e+00 4.2625770374269996e+00 3.0030999999999040e+01 0 0 0
597 2 1.2305000000000001e+00 6.3938655561404980e+00 3.0030999999999040e+01 0 0 0
599 2 2.4610000000000003e+00 5.6834360499026637e+00 3.0030999999999040e+01 0 0 0
601 2 2.4610000000000003e+00 4.2625770374269996e+00 3.0030999999999040e+01 0 0 0
626 2 3.6914999999999996e+00 6.3938655561404980e+00 3.0030999999999040e+01 0 0 0
595 2 1.2305000000000001e+00 7.8147245686161639e+00 3.0030999999999040e+01 0 0 0
624 2 3.6914999999999996e+00 7.8147245686161639e+00 3.0030999999999040e+01 0 0 0
905 2 0.0000000000000000e+00 4.2625770374269996e+00 3.3320735653603840e+01 0 0 0
906 2 1.2305000000000001e+00 4.9730065436648339e+00 3.3320735653603840e+01 0 0 0
914 2 1.2305000000000001e+00 6.3938655561404980e+00 3.3320735653603840e+01 0 0 0
916 2 2.4610000000000003e+00 4.2625770374269996e+00 3.3320735653603840e+01 0 0 0
917 2 3.6914999999999996e+00 4.9730065436648339e+00 3.3320735653603840e+01 0 0 0
929 2 3.6914999999999996e+00 6.3938655561404980e+00 3.3320735653603840e+01 0 0 0
904 2 0.0000000000000000e+00 7.1042950623783341e+00 3.3320735653603840e+01 0 0 0
915 2 2.4610000000000003e+00 7.1042950623783341e+00 3.3320735653603840e+01 0 0 0
628 2 4.9220000000000006e+00 5.6834360499026637e+00 3.0030999999999040e+01 0 0 0
630 2 4.9220000000000006e+00 4.2625770374269978e+00 3.0030999999999040e+01 0 0 0
663 2 6.1524999999999999e+00 6.3938655561404980e+00 3.0030999999999040e+01 0 0 0
665 2 7.3829999999999991e+00 5.6834360499026637e+00 3.0030999999999040e+01 0 0 0
667 2 7.3829999999999991e+00 4.2625770374269996e+00 3.0030999999999040e+01 0 0 0
708 2 8.6135000000000002e+00 6.3938655561404980e+00 3.0030999999999040e+01 0 0 0
661 2 6.1524999999999999e+00 7.8147245686161639e+00 3.0030999999999040e+01 0 0 0
706 2 8.6135000000000002e+00 7.8147245686161639e+00 3.0030999999999040e+01 0 0 0
931 2 4.9220000000000006e+00 4.2625770374269978e+00 3.3320735653603840e+01 0 0 0
932 2 6.1524999999999999e+00 4.9730065436648339e+00 3.3320735653603840e+01 0 0 0
948 2 6.1524999999999999e+00 6.3938655561404980e+00 3.3320735653603840e+01 0 0 0
950 2 7.3829999999999991e+00 4.2625770374269996e+00 3.3320735653603840e+01 0 0 0
951 2 8.6135000000000002e+00 4.9730065436648339e+00 3.3320735653603840e+01 0 0 0
971 2 8.6135000000000002e+00 6.3938655561404980e+00 3.3320735653603840e+01 0 0 0
930 2 4.9220000000000006e+00 7.1042950623783341e+00 3.3320735653603840e+01 0 0 0
949 2 7.3830000000000009e+00 7.1042950623783341e+00 3.3320735653603840e+01 0 0 0
591 2 0.0000000000000000e+00 9.9460130873296642e+00 3.0030999999999040e+01 0 0 0
593 2 0.0000000000000000e+00 8.5251540748539991e+00 3.0030999999999040e+01 0 0 0
620 2 2.4610000000000003e+00 9.9460130873296642e+00 3.0030999999999040e+01 0 0 0
622 2 2.4610000000000003e+00 8.5251540748539991e+00 3.0030999999999040e+01 0 0 0
616 2 1.2305000000000001e+00 1.2077301606043163e+01 3.0030999999999040e+01 0 0 0
618 2 1.2305000000000001e+00 1.0656442593567498e+01 3.0030999999999040e+01 0 0 0
653 2 3.6914999999999996e+00 1.2077301606043163e+01 3.0030999999999040e+01 0 0 0
655 2 3.6914999999999996e+00 1.0656442593567499e+01 3.0030999999999040e+01 0 0 0
912 2 0.0000000000000000e+00 8.5251540748539991e+00 3.3320735653603840e+01 0 0 0
913 2 1.2305000000000001e+00 9.2355835810918343e+00 3.3320735653603840e+01 0 0 0
927 2 2.4610000000000003e+00 8.5251540748539991e+00 3.3320735653603840e+01 0 0 0
928 2 3.6915000000000004e+00 9.2355835810918343e+00 3.3320735653603840e+01 0 0 0
911 2 0.0000000000000000e+00 1.1366872099805333e+01 3.3320735653603840e+01 0 0 0
925 2 1.2305000000000001e+00 1.0656442593567498e+01 3.3320735653603840e+01 0 0 0
926 2 2.4610000000000003e+00 1.1366872099805333e+01 3.3320735653603840e+01 0 0 0
944 2 3.6914999999999996e+00 1.0656442593567499e+01 3.3320735653603840e+01 0 0 0
657 2 4.9220000000000006e+00 9.9460130873296642e+00 3.0030999999999040e+01 0 0 0
659 2 4.9220000000000006e+00 8.5251540748539991e+00 3.0030999999999040e+01 0 0 0
702 2 7.3830000000000009e+00 9.9460130873296642e+00 3.0030999999999040e+01 0 0 0
704 2 7.3830000000000009e+00 8.5251540748539991e+00 3.0030999999999040e+01 0 0 0
698 2 6.1524999999999999e+00 1.2077301606043163e+01 3.0030999999999040e+01 0 0 0
700 2 6.1524999999999999e+00 1.0656442593567499e+01 3.0030999999999040e+01 0 0 0
745 2 8.6135000000000002e+00 1.2077301606043163e+01 3.0030999999999040e+01 0 0 0
747 2 8.6134999999999984e+00 1.0656442593567498e+01 3.0030999999999040e+01 0 0 0
946 2 4.9220000000000006e+00 8.5251540748539991e+00 3.3320735653603840e+01 0 0 0
947 2 6.1524999999999999e+00 9.2355835810918343e+00 3.3320735653603840e+01 0 0 0
969 2 7.3830000000000009e+00 8.5251540748539991e+00 3.3320735653603840e+01 0 0 0
970 2 8.6134999999999984e+00 9.2355835810918343e+00 3.3320735653603840e+01 0 0 0
945 2 4.9220000000000006e+00 1.1366872099805333e+01 3.3320735653603840e+01 0 0 0
967 2 6.1524999999999999e+00 1.0656442593567499e+01 3.3320735653603840e+01 0 0 0
968 2 7.3829999999999991e+00 1.1366872099805333e+01 3.3320735653603840e+01 0 0 0
991 2 8.6134999999999984e+00 1.0656442593567498e+01 3.3320735653603840e+01 0 0 0
614 2 0.0000000000000000e+00 1.2787731112280996e+01 3.0030999999999040e+01 0 0 0
651 2 2.4610000000000003e+00 1.2787731112280996e+01 3.0030999999999040e+01 0 0 0
612 2 0.0000000000000000e+00 1.4208590124756663e+01 3.0030999999999040e+01 0 0 0
647 2 1.2305000000000001e+00 1.4919019630994494e+01 3.0030999999999040e+01 0 0 0
649 2 2.4610000000000003e+00 1.4208590124756663e+01 3.0030999999999040e+01 0 0 0
692 2 3.6915000000000004e+00 1.4919019630994494e+01 3.0030999999999040e+01 0 0 0
923 2 0.0000000000000000e+00 1.2787731112280996e+01 3.3320735653603840e+01 0 0 0
924 2 1.2305000000000001e+00 1.3498160618518829e+01 3.3320735653603840e+01 0 0 0
942 2 2.4610000000000003e+00 1.2787731112280996e+01 3.3320735653603840e+01 0 0 0
943 2 3.6915000000000004e+00 1.3498160618518829e+01 3.3320735653603840e+01 0 0 0
922 2 0.0000000000000000e+00 1.5629449137232333e+01 3.3320735653603840e+01 0 0 0
940 2 1.2305000000000001e+00 1.4919019630994494e+01 3.3320735653603840e+01 0 0 0
941 2 2.4610000000000003e+00 1.5629449137232328e+01 3.3320735653603840e+01 0 0 0
963 2 3.6915000000000004e+00 1.4919019630994494e+01 3.3320735653603840e+01 0 0 0
696 2 4.9220000000000006e+00 1.2787731112280996e+01 3.0030999999999040e+01 0 0 0
743 2 7.3829999999999991e+00 1.2787731112280996e+01 3.0030999999999040e+01 0 0 0
694 2 4.9220000000000006e+00 1.4208590124756663e+01 3.0030999999999040e+01 0 0 0
739 2 6.1524999999999990e+00 1.4919019630994494e+01 3.0030999999999040e+01 0 0 0
741 2 7.3830000000000009e+00 1.4208590124756663e+01 3.0030999999999040e+01 0 0 0
786 2 8.6135000000000002e+00 1.4919019630994494e+01 3.0030999999999040e+01 0 0 0
965 2 4.9220000000000006e+00 1.2787731112280996e+01 3.3320735653603840e+01 0 0 0
966 2 6.1524999999999990e+00 1.3498160618518829e+01 3.3320735653603840e+01 0 0 0
989 2 7.3829999999999991e+00 1.2787731112280996e+01 3.3320735653603840e+01 0 0 0
990 2 8.6135000000000002e+00 1.3498160618518835e+01 3.3320735653603840e+01 0 0 0
964 2 4.9220000000000006e+00 1.5629449137232333e+01 3.3320735653603840e+01 0 0 0
987 2 6.1524999999999990e+00 1.4919019630994494e+01 3.3320735653603840e+01 0 0 0
988 2 7.3829999999999991e+00 1.5629449137232333e+01 3.3320735653603840e+01 0 0 0
1011 2 8.6135000000000002e+00 1.4919019630994494e+01 3.3320735653603840e+01 0 0 0
1710 1 3.6976008277779107e+00 3.5644357614377511e+00 3.6423720818196678e+01 -3 1 -1
1896 1 3.5322800068541893e+00 3.2689215987983982e+00 3.9231639552657334e+01 -1 2 0
1386 1 2.6836794388834408e+00 9.4000046605449294e-01 3.5720295006367685e+01 0 -1 0
450 1 7.9409319745171132e+00 9.6221903451552471e-01 3.8817055268463612e+01 0 1 -1
3584 1 6.7352807468697762e+00 1.5153982202598518e+01 3.9172786156923046e+01 0 1 -1
187 1 6.2781079855808892e+00 3.4293492992257741e+00 3.5977224421187046e+01 2 0 0
6208 1 7.7606608029270090e+00 9.9766364179171974e-01 3.5871586582752023e+01 1 -1 0
3178 1 9.8076082117988292e+00 1.5017946535064979e+01 3.6644677728092979e+01 0 -2 0
1954 1 1.9397181107729751e+00 5.6247436257294181e+00 3.5899952188706166e+01 1 -3 -1
6321 1 3.3349886415469143e+00 7.8937392208276220e+00 3.8925906477409598e+01 2 -2 0
1468 1 3.4474809175830106e+00 7.7097640809881600e+00 3.6269442484543653e+01 0 -3 0
4590 1 5.8381327211998864e+00 1.2775480352989224e+01 3.5609382434990373e+01 2 2 0
4985 1 7.0902005171368261e+00 5.9341437824871317e+00 3.9019653350292636e+01 -1 -1 0
3016 1 7.3600506272471371e+00 5.9451176400260639e+00 3.6466281399590976e+01 -1 2 0
3261 1 5.9905958416520679e+00 8.0344374221954684e+00 3.5529317370813885e+01 2 -1 0
4845 1 7.0444202905701365e+00 1.5117304747185585e+01 3.6286713554879270e+01 0 0 -1
4638 1 2.0305934821414513e+00 1.0123538078805730e+01 3.6019315344360614e+01 2 -2 0
4652 1 3.2322755631448445e+00 1.2641996696654614e+01 3.9252156236961213e+01 2 1 0
1962 1 7.2640477918616524e+00 1.0835141351869126e+01 3.6381597844158399e+01 0 0 -1
1477 1 6.3548042367407103e+00 3.4283691001942063e+00 3.9330955333931094e+01 2 2 0
1992 1 3.2589016985720756e+00 1.2602366487459760e+01 3.6378468826486220e+01 -1 1 -1
3267 1 1.7008418304032193e+00 1.4896193972117628e+01 3.5859709967399091e+01 0 -1 0
6373 1 1.5709221142854251e+00 1.4750265654197065e+01 3.9653376241805468e+01 1 0 0
3594 1 1.8430237891552841e+00 1.0131823687852179e+01 3.9379654714345641e+01 -1 -1 -1
1515 1 7.2092642737838242e+00 1.0444164985018666e+01 3.8952394040038392e+01 1 0 0
2098 1 9.5525886278645977e+00 1.5320720740598574e+01 3.9726520718019366e+01 -1 -1 -1
4888 1 3.4748386015618240e+00 3.1719031118173877e+00 4.3554252774226143e+01 2 -3 -1
2119 1 2.6454161081612706e+00 5.8995242533562753e-01 4.2332413301397203e+01 1 -1 -1
6374 1 6.1501945422656172e+00 8.1356521452051442e+00 3.9986683215463920e+01 2 -1 -1
6265 1 7.5543946812915905e+00 1.1455833796871773e+00 4.3136624879167293e+01 2 0 0
1268 1 6.0789278465901511e+00 3.4674989099251450e+00 4.2204914243755475e+01 0 0 0
1544 1 5.2207481175520041e+00 1.2733198401617553e+01 4.7090422547935056e+01 -1 -1 -1
6296 1 2.3094120228175017e+00 5.4437777863904584e+00 4.2704540208895466e+01 1 2 0
5189 1 3.3153712902085180e+00 8.0189120268625018e+00 4.3649930600826174e+01 2 -2 -1
3491 1 7.3431522028691694e+00 6.0442595443412408e+00 4.3204349286810306e+01 3 0 -1
418 1 6.0132257331612964e+00 8.3686895107706061e+00 4.2598937198535694e+01 3 0 -1
537 1 9.4702412773092401e+00 1.0400214667375016e+01 4.6791715322784462e+01 2 -2 -1
3583 1 1.6579915099618814e+00 9.7753000641512475e+00 4.2242116709356154e+01 0 -1 -1
78 1 6.5796372202072178e+00 1.5066311344974533e+01 4.6362723372735211e+01 1 0 -1
3688 1 7.1146816914943383e+00 1.0946816937268132e+01 4.3641467215198695e+01 -2 -1 0
3714 1 9.7276856893366688e+00 5.8892188250154813e+00 4.7042104105724398e+01 -1 -1 0
6194 1 2.7962987055537236e+00 1.2201382359779421e+01 4.3075778776632980e+01 1 1 0
2178 1 1.4016677178800683e+00 1.4734779656103111e+01 4.2292375457689808e+01 -1 3 0
4792 1 9.0584487415774859e+00 1.5634128361404716e+01 4.2375600981281565e+01 1 -1 0
3074 1 5.5066181335927995e+00 1.2786245917405806e+01 4.2779470900091297e+01 0 0 0
3057 1 6.3112221101648318e+00 1.5358324705628865e+01 4.3413638148406775e+01 -2 0 0
3530 1 1.4520250825923318e+00 1.4781072251487798e+01 4.6852481799111892e+01 -3 0 -1
4691 1 2.8701572408112721e+00 6.5545944357733021e-01 4.6855249697268476e+01 4 0 0
5098 1 3.5306321430860748e+00 3.2668707751764559e+00 4.6292417320481604e+01 -1 0 0
5264 1 7.2881572202479736e+00 8.4838430007133425e-01 4.5782329736312519e+01 -1 3 -1