
# Create simulation box and atoms

read_data data.ML_graphite_m500atm_240K
  orthogonal box = (0 0 2.16312) to (49.22 49.0196 57.8989)
  5 by 3 by 6 MPI processor grid
  reading atoms ...
  6489 atoms
  reading velocities ...
  6489 velocities
group water type 1
3729 atoms in group water
group graphite type 2
2760 atoms in group graphite

# Define potential

pair_style sw
pair_coeff * * MLC_e.sw mW C


# Fix graphite atoms in place

fix 5 graphite setforce 0.0 0.0 0.0
velocity graphite set 0.0 0.0 0.0


# Equilibration of molecular water

# Add velocity/set timestep

velocity	    water create ${TEMP} ${SEED} rot yes dist gaussian
velocity	    water create 240 ${SEED} rot yes dist gaussian
velocity	    water create 240 4360 rot yes dist gaussian
timestep	    5.0

# Define output

compute			1 water msd
compute			3 water temp
thermo	    	50
thermo_style	custom step temp press vol etotal ke pe c_1[4] c_3

# Neighbor lists

neigh_modify    delay 0 every 1 check yes

# Set fixes

fix             1 water momentum 10 linear 1 1 1 rescale
fix             2 water nve
fix             3 water temp/csvr ${TEMP} ${TEMP} 500.0 ${SEED}
fix             3 water temp/csvr 240 ${TEMP} 500.0 ${SEED}
fix             3 water temp/csvr 240 240 500.0 ${SEED}
fix             3 water temp/csvr 240 240 500.0 4360
fix             4 water press/berendsen z ${PRES} ${PRES} 1000.0 modulus 20000
fix             4 water press/berendsen z -500 ${PRES} 1000.0 modulus 20000
fix             4 water press/berendsen z -500 -500 1000.0 modulus 20000

# Run 0.5 ns equilibration

dump		    1 all atom 2000 ${DIR}/eq.${NAME}-${TEMP}.dump
dump		    1 all atom 2000 run_1/eq.${NAME}-${TEMP}.dump
dump		    1 all atom 2000 run_1/eq.het_freeze_1-${TEMP}.dump
dump		    1 all atom 2000 run_1/eq.het_freeze_1-240.dump

reset_timestep  0

run	            100000
Neighbor list info ...
  update every 1 steps, delay 0 steps, check yes
  max neighbors/atom: 2000, page size: 100000
  master list distance cutoff = 6.67472
  ghost atom cutoff = 6.67472
  binsize = 3.33736, bins = 15 15 17
  1 neighbor lists, perpetual/occasional/extra = 1 0 0
  (1) pair sw, perpetual
      attributes: full, newton on
      pair build: full/bin/atomonly
      stencil: full/bin/3d
      bin: standard
Per MPI rank memory allocation (min/avg/max) = 4.071 | 4.223 | 4.502 Mbytes
Step Temp Press Volume TotEng KinEng PotEng c_1[4] c_3 
       0    137.90382   -585.46729    134476.24   -35583.071    2666.9904   -38250.061            0          240 
      50    136.89257    -553.0737    134578.08   -35620.969    2647.4333   -38268.403   0.51339342    238.24008 
     100    138.48691   -540.44801    134639.66   -35653.463     2678.267    -38331.73   0.83174431    241.01477 
     150    135.87844   -591.80821    134618.58   -35715.009    2627.8205    -38342.83    1.0262315    236.47514 
     200    132.76291   -776.17881    134620.16     -35790.1    2567.5677   -38357.667    1.2324054    231.05304 
     250    134.28534   -490.05797    134658.71   -35756.243    2597.0106   -38353.254    1.4005933    233.70259 
     300    138.28261   -438.71522    134720.09   -35710.304    2674.3159    -38384.62    1.5530398    240.65921 
     350    133.39009   -549.18808     134658.4   -35731.288     2579.697   -38310.985    1.7382726    232.14455 
     400    138.78783   -576.23117    134665.44   -35719.589    2684.0867   -38403.676    1.8630662    241.53848 
     450    137.74894   -950.62313    134652.23   -35694.271     2663.995   -38358.266    2.0370299    239.73045 
     500    135.67643    -818.4769    134564.96   -35713.115    2623.9138   -38337.029    2.2005514    236.12358 
     550    139.11897     -595.141    134550.64   -35657.688    2690.4908   -38348.179    2.3834547    242.11478 
     600    135.98108   -833.62077    134521.48   -35630.126    2629.8055   -38259.932    2.5924873    236.65377 
     650    136.80122    -1001.466    134391.25   -35692.546    2645.6666   -38338.213    2.7243457    238.08109 
     700    138.36789   -1040.8044    134387.61   -35662.654    2675.9652    -38338.62    2.8993288    240.80764 
     750    140.43497   -635.20292    134330.16   -35611.495    2715.9414   -38327.437    3.0475657    244.40506 
     800    137.11248   -981.45819    134338.54   -35544.509    2651.6862   -38196.196    3.2475477     238.6228 
     850    136.21717   -737.79336    134282.18   -35582.035    2634.3714   -38216.406    3.4376436    237.06465 
     900    138.34251   -1162.8536    134315.79    -35628.63    2675.4744   -38304.104    3.6305771    240.76347 
     950    140.48413   -1076.5772    134207.65   -35591.006    2716.8923   -38307.899    3.8559068    244.49063 
    1000    136.27957   -851.31588    134138.67   -35605.345    2635.5781   -38240.923    4.0716405    237.17324 
    1050    140.55882   -490.07225    134155.99   -35640.378    2718.3368   -38358.715    4.2881375    244.62062 
    1100    136.58559   -637.96349    134276.77   -35667.977    2641.4965   -38309.473     4.517492    237.70583 
    1150      138.883   -558.55429    134365.42   -35610.913    2685.9272    -38296.84    4.7457373    241.70411 
    1200     137.2429   -487.16071    134367.23   -35638.075    2654.2085   -38292.284    4.9338357    238.84977 
    1250    137.85868   -848.11026    134360.31   -35626.425    2666.1173   -38292.542    5.1389632    239.92143 
    1300     137.2676   -748.04106    134350.41   -35641.051    2654.6862   -38295.738     5.384326    238.89276 
    1350    138.17107   -908.84355    134318.07   -35662.722    2672.1588   -38334.881    5.5822211    240.46511 
    1400    134.61381   -703.59141    134300.81   -35733.147    2603.3632    -38336.51    5.7685216    234.27425 
    1450    135.40462   -648.10356     134369.1   -35683.564     2618.657   -38302.221     5.976812    235.65052 
    1500    136.97737   -725.44006    134388.96   -35688.722    2649.0733   -38337.795    6.1434327    238.38766 
    1550    135.39893   -545.83897     134410.3    -35680.42     2618.547   -38298.967    6.1902956    235.64063 
    1600    136.96344   -733.33664    134455.43   -35675.097    2648.8039   -38323.901     6.298194    238.36342 
    1650    135.65062   -751.87381    134495.37   -35702.222    2623.4145   -38325.637    6.5091267    236.07865 
    1700    138.47202   -792.51741    134593.98   -35618.594    2677.9791   -38296.573     6.621963    240.98886 
    1750    139.31897   -746.05522    134641.05   -35635.654    2694.3585   -38330.013    6.7577396    242.46284 
    1800    136.90259   -706.67063    134651.93   -35633.234    2647.6271   -38280.861    7.0249413    238.25752 
    1850    134.14788   -725.40296    134648.39    -35679.69    2594.3524   -38274.043      7.22856    233.46338 
    1900    138.63228    -559.1947    134715.62   -35688.746    2681.0783   -38369.825    7.3079371    241.26776 
    1950    139.53889   -908.88584    134727.48   -35660.925    2698.6117   -38359.536     7.496522    242.84557 
    2000    139.40899    -603.0117    134775.51   -35680.767    2696.0995   -38376.867    7.6709517    242.61951 
    2050    136.16014   -597.08681    134822.03   -35694.657    2633.2684   -38327.926    7.8217735    236.96539 
    2100    135.71162   -721.66121     134702.8   -35690.751    2624.5943   -38315.345    8.0046447    236.18482 
    2150    137.35044   -815.04471    134626.87   -35662.099    2656.2882   -38318.387    8.1837197    239.03693 
    2200    139.60321    -602.6901     134638.7   -35640.407    2699.8557   -38340.263    8.4337116    242.95752 
    2250    139.72805    -590.0005    134612.06   -35627.144      2702.27   -38329.414      8.66551    243.17478 
    2300    140.20797   -697.44326    134653.59   -35644.166    2711.5515   -38355.717    8.8784224    244.01001 
    2350     139.1128   -693.52939    134732.89   -35613.415    2690.3714   -38303.786    9.0684888    242.10404 
    2400    138.12827   -627.07488    134819.53   -35623.017    2671.3311   -38294.348    9.2039403    240.39062 
    2450    139.02109   -427.91517     134882.2   -35661.506    2688.5978   -38350.104    9.3453938    241.94443 
    2500    137.25449   -716.66527    134905.46   -35652.598    2654.4326    -38307.03    9.6464546    238.86993 
    2550    136.05263   -660.34225    134897.95   -35755.781    2631.1893   -38386.971    9.9420536     236.7783 
    2600    135.59862   -949.68106    134814.04   -35730.069    2622.4089   -38352.478    10.198331    235.98815 
    2650     135.9129   -633.43372    134739.67   -35733.415    2628.4869   -38361.902    10.349091    236.53511 
    2700    136.56188   -793.55606    134777.23   -35670.266    2641.0379   -38311.304    10.526918    237.66456 
    2750    137.47136   -683.26745       134764   -35705.381    2658.6268   -38364.008      10.7653    239.24737 
    2800     138.0209   -586.84037    134770.55   -35687.462    2669.2546   -38356.716    10.852369    240.20376 
    2850    136.50183   -776.20026    134839.66   -35740.506    2639.8766   -38380.383    10.977453    237.56006 
    2900    136.31912   -644.93937     134884.1   -35755.138    2636.3429   -38391.481    11.142474    237.24207 
    2950    137.30316   -885.63722    134907.33   -35707.533    2655.3738   -38362.907    11.315223    238.95464 
    3000    137.27939   -643.19495    134941.04   -35750.711    2654.9141   -38405.625    11.326478    238.91327 
    3050    138.03968   -855.24324    135010.88   -35722.981    2669.6179   -38392.598    11.512003    240.23644 
    3100    134.21041   -674.14577    135047.91   -35736.429    2595.5617   -38331.991     11.79152     233.5722 
    3150    137.42199   -617.17575    135093.74   -35721.774    2657.6719   -38379.446    12.048222    239.16144 
    3200    140.91378   -706.45524     135046.8   -35663.897    2725.2014   -38389.098    12.319176    245.23836 
    3250    139.19514     -868.487    135071.87   -35660.587    2691.9638   -38352.551    12.490552    242.24734 
    3300    138.40276   -687.74964    135091.48   -35653.648    2676.6395   -38330.288    12.651792    240.86832 
    3350    139.46006     -785.523    135148.36   -35607.043    2697.0873    -38304.13     12.80151     242.7084 
    3400    139.90744   -833.73668    135136.43    -35653.77    2705.7394   -38359.509    12.957861    243.48699 
    3450    139.48744   -643.65997    135146.43   -35585.841    2697.6168   -38283.458    13.210749    242.75604 
    3500    137.26478   -758.31448    135127.65   -35608.326    2654.6317   -38262.958     13.41741    238.88786 
    3550    140.94363   -679.78649     135189.3   -35620.923    2725.7788   -38346.702    13.514271    245.29031 
    3600    137.13426   -521.10585    135300.81   -35633.658    2652.1074   -38285.766    13.662221     238.6607 
    3650    138.55296   -655.58455     135391.3   -35666.458    2679.5444   -38346.002    13.952832    241.12973 
    3700    139.23281   -645.90124    135485.51   -35616.921    2692.6924   -38309.613    14.179518     242.3129 
    3750    136.81962   -892.35286    135405.53   -35667.449    2646.0224   -38313.471    14.354695    238.11312 
    3800    139.60304   -568.60821    135317.15   -35657.364    2699.8524   -38357.216    14.568698    242.95723 
    3850    135.19862   -723.72249    135265.05   -35671.398    2614.6731   -38286.071    14.851236    235.29201 
    3900    139.39147   -598.44243    135383.23   -35615.722    2695.7607   -38311.483    15.097758    242.58901 
    3950    141.22111   -711.18458    135453.33   -35607.402     2731.145   -38338.547    15.386665    245.77321 
    4000    134.97075   -776.50407    135453.01    -35685.94    2610.2663   -38296.207    15.473752    234.89545 
    4050    138.23875    -833.2366    135414.69   -35658.383    2673.4678    -38331.85    15.567176     240.5829 
    4100    135.97368   -779.25021    135321.63     -35660.4    2629.6623   -38290.062    15.765595    236.64088 
    4150    139.79199   -902.24389    135330.16   -35636.089    2703.5066   -38339.596    15.975094    243.28606 
    4200    137.91261   -877.78309     135271.5   -35660.313    2667.1604   -38327.473    16.177881     240.0153 
    4250    137.28867   -747.55318    135230.21    -35637.97    2655.0936   -38293.063    16.323201    238.92942 
    4300    135.97301   -954.98164    135203.47   -35645.305    2629.6494   -38274.954     16.44685    236.63972 
    4350    139.84707   -864.33318    135000.07   -35617.462    2704.5718   -38322.034    16.589248    243.38191 
    4400    139.95415    -644.5329    134954.67    -35606.93    2706.6426   -38313.573    16.825892    243.56827 
    4450    137.85768   -291.12208    134974.65   -35618.384    2666.0981   -38284.482       17.001     239.9197 
    4500    137.01172   -721.37713    134995.64    -35676.51    2649.7375   -38326.247    17.191502    238.44743 
    4550    137.52812   -638.25266    135002.17   -35679.621    2659.7244   -38339.345    17.407763    239.34614 
    4600    137.66366   -823.56681    135039.13   -35683.592    2662.3457   -38345.937    17.695467    239.58203 
    4650    137.65589   -564.19837    135044.33   -35671.483    2662.1954   -38333.678     17.91619     239.5685 
    4700    139.28638   -497.24151    135222.78   -35657.358    2693.7284   -38351.086    18.142177    242.40613 
    4750     137.0157   -757.27421    135226.58   -35655.763    2649.8145   -38305.577    18.492832    238.45436 
    4800    135.52217   -627.73873    135196.35   -35675.834    2620.9305   -38296.765    18.732194    235.85511 
    4850    136.14363   -734.31219    135247.04   -35659.528    2632.9492   -38292.477    18.922857    236.93667 
    4900     137.7857   -809.91728    135268.23   -35629.369     2664.706   -38294.075    19.266455    239.79443 
    4950    135.71302   -831.36704    135230.23   -35708.412    2624.6213   -38333.033       19.529    236.18724 
    5000    136.85794   -684.41562    135251.77   -35720.821    2646.7635   -38367.584    19.726335     238.1798 
    5050    136.76395   -826.13811    135249.02   -35766.111    2644.9457   -38411.057    19.850583    238.01623 
    5100    137.47382   -682.02681    135272.04    -35738.61    2658.6743   -38397.284    19.903451    239.25164 
    5150    136.40017    -835.1618    135232.44   -35711.312    2637.9106   -38349.223    20.026729    237.38313 
    5200    139.58335    -572.3426    135308.84   -35698.795    2699.4716   -38398.267    20.251375    242.92296 
    5250    137.58941   -554.28652    135362.56   -35732.278    2660.9097   -38393.187     20.53573    239.45281 
    5300     137.1067   -680.80666    135444.82   -35757.593    2651.5744   -38409.168    20.862739    238.61273 
    5350    137.28099   -836.06688    135468.26   -35835.692    2654.9452   -38490.637    21.056079    238.91606 
    5400    135.65792   -684.36534    135517.33   -35775.485    2623.5557    -38399.04     21.36861    236.09135 
    5450    135.42492   -576.11736    135586.96   -35749.442    2619.0497   -38368.492    21.544422    235.68586 
    5500    137.54709   -632.05447    135682.07   -35764.493    2660.0913   -38424.584    21.762431    239.37916 
    5550    140.24375    -655.3036    135812.32   -35707.225    2712.2433   -38419.468    21.932346    244.07227 
    5600    137.08648   -736.63781    135846.11   -35698.734    2651.1835   -38349.918    22.170226    238.57755 
    5650    137.56868   -836.44955    135779.18   -35707.024    2660.5088   -38367.533    22.294781    239.41673 
    5700    140.29997   -800.53714    135824.67   -35683.029    2713.3307    -38396.36    22.559262    244.17012 
    5750    137.09102   -827.72874    135817.16    -35725.95    2651.2711   -38377.221    22.800888    238.58544 
    5800    138.78744   -637.15608    135735.19    -35736.09    2684.0792   -38420.169    23.118599     241.5378 
    5850    139.65728   -942.19344    135704.56   -35657.928    2700.9013    -38358.83    23.432648    243.05161 
    5900    138.60552    -967.8397    135676.51   -35688.059    2680.5608    -38368.62    23.540267    241.22119 
    5950    137.95362   -1017.1995    135612.61   -35677.987    2667.9535    -38345.94    23.699951    240.08667 
    6000    138.36468   -605.82485    135587.51   -35694.615    2675.9031   -38370.518    23.702274    240.80204 
    6050    137.41917   -624.87614    135643.06   -35714.449    2657.6174   -38372.067    23.784881    239.15653 
    6100    138.19142   -540.61634    135713.56   -35685.626    2672.5523   -38358.179    24.001196    240.50052 
    6150    137.22425   -585.17453    135781.11   -35688.049    2653.8478   -38341.897    24.177512    238.81731 
    6200    135.99847   -526.88976    135795.26   -35665.332    2630.1418   -38295.474    24.243287    236.68403 
    6250     136.4747   -907.73596    135766.33   -35700.884    2639.3519   -38340.235    24.302205    237.51284 
    6300    134.66146   -797.07594    135718.52    -35714.08    2604.2847   -38318.364    24.441601    234.35718 
    6350    135.70332   -877.70436       135629   -35683.778    2624.4338   -38308.212    24.457177    236.17037 
    6400    138.52435   -920.16806    135539.09   -35670.939    2678.9911    -38349.93     24.64371    241.07994 
    6450    137.13764   -759.15257    135429.38   -35627.155    2652.1727   -38279.327    24.935905    238.66658 
    6500    137.78895   -761.09692    135342.65     -35659.8    2664.7687   -38324.569    25.186614    239.80008 
    6550    139.82463   -628.68292    135325.86   -35616.285    2704.1379   -38320.423    25.481336    243.34287 
    6600    137.64949   -705.89482    135248.28   -35656.554    2662.0716   -38318.625    25.598524    239.55737 
    6650    139.45303   -723.91393    135261.45   -35622.583    2696.9513   -38319.534    25.817924    242.69616 
    6700    139.07311   -694.71542    135295.17   -35629.492    2689.6039   -38319.096    25.997576    242.03497 
    6750    137.50614   -734.04945    135328.32   -35628.976    2659.2994   -38288.275    26.001796     239.3079 
    6800    137.48488   -705.56649    135386.13   -35619.097    2658.8882   -38277.985    26.208808    239.27089 
    6850    138.64302   -726.41638    135443.57   -35625.863    2681.2861   -38307.149    26.374126    241.28646 
    6900    139.11375   -830.11918    135386.11   -35665.159    2690.3898   -38355.549    26.547584    242.10569 
    6950    136.46723   -856.78365    135348.28   -35618.282    2639.2074    -38257.49    26.861856    237.49984 
    7000    138.38771   -921.05087    135331.39   -35605.024    2676.3485   -38281.372    27.018745    240.84213 
    7050    139.70626   -837.75252    135300.64   -35614.823    2701.8486   -38316.671    27.191327    243.13686 
    7100    138.28772   -1111.6192    135175.41   -35601.059    2674.4147   -38275.474    27.270474    240.66811 
    7150    139.72495   -974.15958    135086.78    -35563.19      2702.21     -38265.4     27.52487    243.16938 
    7200    138.43783   -618.92754    135115.57   -35568.609    2677.3179   -38245.927    27.821436    240.92936 
    7250    139.99987   -746.43801    135075.15   -35584.166    2707.5269   -38291.693    28.004973    243.64784 
    7300    137.42843   -598.98491    135104.13    -35572.46    2657.7965   -38230.257    28.274667    239.17265 
    7350    138.25655    -569.9841    135147.53   -35600.249     2673.812   -38274.061    28.412146    240.61387 
    7400    135.90482   -659.28374    135232.53     -35624.3    2628.3307    -38252.63    28.530995    236.52105 
    7450    138.48344   -692.82591    135268.48   -35539.555    2678.1998   -38217.755    28.810452    241.00873 
    7500    139.84619   -835.38518    135253.82   -35497.034    2704.5547   -38201.588    28.994134    243.38038 
    7550    139.10298    -865.0771    135173.75   -35554.591    2690.1814   -38244.772    29.086082    242.08694 
    7600    139.09233   -612.68245    135188.36   -35668.879    2689.9755   -38358.854    29.143303    242.06841 
    7650    140.88059    -830.9575    135248.24   -35663.206    2724.5596   -38387.765    29.116031     245.1806 
    7700    137.95388   -810.95491    135200.83   -35674.993    2667.9584   -38342.952    29.070684    240.08712 
    7750    140.02963   -659.52176    135158.15    -35710.22    2708.1023   -38418.322    29.121131    243.69963 
    7800    138.03515    -685.6776     135161.5   -35717.942    2669.5301   -38387.472    29.388431    240.22855 
    7850    137.37882   -562.65714    135126.75    -35716.59     2656.837   -38373.427    29.451321    239.08631 
    7900     135.8406   -650.32162    135194.96   -35732.364    2627.0887   -38359.453     29.44175    236.40929 
    7950    137.06325   -640.15171    135225.04   -35706.127    2650.7342   -38356.861    29.361166    238.53712 
    8000    137.70251   -553.30685    135263.68   -35662.425    2663.0972   -38325.522    29.332049    239.64965 
    8050    141.10002   -932.36567    135327.17   -35677.794    2728.8033   -38406.597    29.255437    245.56249 
    8100    135.72598   -763.06953    135317.74   -35708.061     2624.872   -38332.933    29.426044     236.2098 
    8150      137.982   -865.06282    135249.77   -35636.965    2668.5023   -38305.467    29.410285    240.13606 
    8200    137.84449   -865.05221    135197.85   -35657.248     2665.843   -38323.091    29.503691    239.89675 
    8250    136.66327   -764.10698    135111.42   -35661.977    2642.9987   -38304.976    29.868973    237.84101 
    8300    133.86776   -689.13359    135118.84   -35598.415     2588.935    -38187.35    30.272245    232.97587 
    8350     135.8736   -634.62601    135102.86   -35680.795    2627.7269   -38308.522    30.592598    236.46672 
    8400    133.96638   -755.93503    135121.74   -35707.998    2590.8422    -38298.84     30.90384     233.1475 
    8450    137.93362    -669.5229    135090.44   -35662.455    2667.5667   -38330.022    31.011794    240.05186 
    8500    136.85678    -552.8279    135169.35    -35663.99    2646.7412   -38310.732    31.095007    238.17779 
    8550    138.38651   -765.83711    135203.88     -35639.2    2676.3254   -38315.526    31.281551    240.84005 
    8600    136.92397   -718.76271    135204.98   -35681.951    2648.0405   -38329.992    31.516981    238.29472 
    8650    135.85067   -577.60791    135266.78   -35756.972    2627.2834   -38384.256    31.818028    236.42681 
    8700    136.68548   -795.80147    135223.63   -35743.309    2643.4282   -38386.737    31.884776    237.87966 
    8750     134.9972   -707.09001    135269.85    -35723.34    2610.7778   -38334.118    32.207853    234.94148 
    8800    138.55613   -667.35763    135321.25   -35658.703    2679.6057   -38338.309    32.425419    241.13524 
    8850     138.5412   -570.74408    135289.56   -35625.354     2679.317   -38304.671    32.636545    241.10926 
    8900    137.69441   -741.33096    135281.85   -35658.524    2662.9403   -38321.465    32.839957    239.63554 
    8950     138.6134   -651.09767    135326.37   -35664.428    2680.7133   -38345.142    33.046494    241.23491 
    9000    137.12132   -561.74166    135347.97   -35689.106    2651.8572   -38340.963    33.260684    238.63818 
    9050    137.70167   -710.27624    135355.19   -35605.357    2663.0808   -38268.437    33.459126    239.64818 
    9100    138.67513   -547.69975    135306.32   -35622.541     2681.907   -38304.448    33.652787    241.34233 
    9150    138.98849    -738.1663    135296.29   -35598.221    2687.9673   -38286.189     34.14326    241.88769 
    9200    136.29174   -597.79279    135268.88   -35590.613    2635.8135   -38226.426    34.402206    237.19442 
    9250    136.88133   -841.95175    135364.48   -35644.045    2647.2158   -38291.261    34.628022    238.22051 
    9300    140.89046   -850.95381    135357.05   -35590.928    2724.7505   -38315.678    34.725048    245.19778 
    9350    139.22383    -717.9873    135389.95   -35571.698    2692.5186   -38264.217    34.813541    242.29727 
    9400    139.70151   -632.93828     135364.1   -35580.766    2701.7568   -38282.522    34.854693     243.1286 
    9450    140.63576   -604.63977    135367.56   -35613.271    2719.8247   -38333.096    34.834514    244.75451 
    9500    136.16223   -737.84884    135376.76   -35693.207    2633.3089   -38326.516    34.756983    236.96904 
    9550    135.00566   -733.16899    135322.59    -35733.32    2610.9414   -38344.262    34.796795    234.95621 
    9600    137.48348   -517.73112    135314.33   -35662.247    2658.8612   -38321.109    34.916738    239.26846 
    9650    141.63074   -649.06457    135396.91   -35653.731    2739.0671   -38392.798    35.142395    246.48612 
    9700    136.06728   -751.91951     135377.3   -35729.829    2631.4726   -38361.302    35.337623    236.80378 
    9750    138.70464   -732.01804    135452.71   -35711.413    2682.4779   -38393.891    35.424843    241.39371 
    9800    141.91064   -613.32219    135447.38   -35649.392    2744.4801   -38393.872    35.525189    246.97323 
    9850    138.31434   -744.26722    135429.29   -35671.753    2674.9295   -38346.682    35.830427    240.71444 
    9900    137.31623   -732.84045    135477.41   -35736.522    2655.6267   -38392.149    36.082616     238.9774 
    9950    136.67895   -909.36561    135381.26   -35750.321    2643.3019   -38393.623    36.399796     237.8683 
   10000    138.60732   -654.44206     135312.8   -35765.891    2680.5957   -38446.487    36.487041    241.22433 
   10050    139.42559   -761.67988    135274.15   -35772.553    2696.4206   -38468.974    36.798095     242.6484 
   10100    138.48626   -965.34529    135161.87   -35729.156    2678.2544    -38407.41    36.859409    241.01364 
   10150    138.48281   -575.11357    135066.14   -35767.075    2678.1878   -38445.263    36.970397    241.00764 
   10200    138.46839   -652.27649    135022.85   -35740.661    2677.9087    -38418.57    37.183263    240.98253 
   10250    137.80899   -703.67992    135013.41   -35752.344    2665.1563     -38417.5    37.382529    239.83495 
   10300    138.48376   -772.93016    135097.84   -35752.711    2678.2061   -38430.917    37.572764    241.00929 
   10350    140.37626   -761.53173    135160.76   -35729.413    2714.8061    -38444.22    37.593094    244.30289 
   10400    138.30187    -835.3952    135178.76   -35748.772    2674.6884    -38423.46    37.844645    240.69274 
   10450    138.36587   -852.66217    135230.88   -35764.643    2675.9261   -38440.569    38.222466    240.80412 
   10500    138.44938   -947.32448    135166.27   -35759.207    2677.5412   -38436.748    38.478063    240.94946 
   10550    136.49121   -886.11954    135147.32   -35720.171    2639.6712   -38359.842    38.518569    237.54157 
   10600    137.28894     -549.923    135206.74   -35703.446    2655.0989   -38358.545    38.432114     238.9299 
   10650    137.91126   -822.03065    135269.32   -35660.842    2667.1341   -38327.976    38.609894    240.01294 
   10700    138.94651   -857.52957    135239.27   -35605.353    2687.1554   -38292.509    39.033784    241.81463 
   10750    138.99818   -547.78535    135247.48   -35600.592    2688.1547   -38288.746    39.099808    241.90456 
   10800    138.84448   -1028.1199    135257.13   -35621.684    2685.1822   -38306.866    39.010371    241.63707 
   10850    139.89208   -897.08256    135180.81   -35611.276    2705.4424   -38316.719     39.10646    243.46026 
   10900    139.17491   -739.97865    135058.64   -35572.056    2691.5725   -38263.628     39.09929    242.21212 
   10950    138.75741   -751.46786    135015.01   -35600.662    2683.4984    -38284.16    39.243135    241.48554 
   11000    136.55082   -671.69702    135055.89   -35667.264     2640.824   -38308.088    39.385002    237.64531 
   11050    136.93016   -433.98181    135064.19   -35665.069    2648.1601   -38313.229    39.724713    238.30548 
   11100    137.27497     -607.658    135127.71   -35714.446    2654.8287   -38369.275    39.847574    238.90558 
   11150    138.26166   -610.66127    135207.29   -35736.746    2673.9108   -38410.657    40.042229    240.62277 
   11200    138.48538   -905.06341    135215.32   -35696.671    2678.2374   -38374.909    40.197853    241.01211 
   11250    141.76168   -847.56277     135178.9   -35614.264    2741.5994   -38355.864    40.365672      246.714 
   11300    137.09325   -1049.2161    135124.21   -35631.082    2651.3142   -38282.396    40.626749    238.58932 
   11350    140.83197   -1011.1281    135148.33   -35626.052    2723.6192   -38349.671    40.734044    245.09597 
   11400    140.75799   -669.79372    135105.22   -35678.785    2722.1886   -38400.974     40.78059    244.96724 
   11450    137.32916   -791.15597    135138.74   -35683.344    2655.8767    -38339.22    40.881427    238.99989 
   11500    137.78074   -725.08123    135163.43   -35744.088    2664.6101   -38408.698    40.833038     239.7858 
   11550    137.11841   -805.50816    135013.51   -35756.192     2651.801   -38407.993    40.888196    238.63312 
   11600    135.41318   -763.43245    134983.54   -35693.092    2618.8226   -38311.915    41.061206    235.66543 
   11650     141.7818   -573.60381    135003.12   -35660.868    2741.9884   -38402.857     41.31197    246.74901 
   11700    140.21208   -722.58538       135093    -35625.79    2711.6309   -38337.421    41.605269    244.01716 
   11750     137.2498   -655.07599     135180.4   -35625.868     2654.342    -38280.21    41.683257    238.86178 
   11800    139.11503   -551.47345    135296.84     -35580.2    2690.4145   -38270.615    41.680499    242.10792 
   11850    137.88022   -716.30871    135340.65   -35536.068    2666.5339   -38202.602    42.078654    239.95892 
   11900    142.63246   -582.89267    135328.51   -35562.178    2758.4397   -38320.617    42.156223    248.22945 
   11950    139.77896   -720.79313    135360.44   -35598.276    2703.2545   -38301.531    42.345403    243.26338 
   12000    138.24827   -793.84849    135427.07   -35689.509    2673.6518   -38363.161     42.54404    240.59946 
   12050    137.72881   -635.17463       135388   -35634.224    2663.6058    -38297.83    42.562357    239.69543 
   12100    135.78292   -893.82477    135419.23   -35674.581    2625.9732   -38300.554    42.696795     236.3089 
   12150    139.71963   -723.74965    135371.39     -35647.8    2702.1072   -38349.907    42.997164    243.16013 
   12200    135.32722   -540.05695    135386.99   -35670.244    2617.1601   -38287.404    43.031446    235.51582 
   12250    138.23459   -832.62622    135315.61   -35715.631    2673.3872   -38389.018    43.104442    240.57565 
   12300    136.23032   -751.83181    135304.47   -35740.428    2634.6257   -38375.054    43.074041    237.08753 
   12350    135.80294   -620.17885    135385.56   -35734.135    2626.3603   -38360.496    43.109495    236.34374 
   12400    138.20257   -540.60724    135422.66   -35730.732     2672.768     -38403.5    43.482396    240.51992 
   12450    134.68648   -735.74716    135440.66   -35691.574    2604.7686   -38296.343    43.606781    234.40072 
   12500    138.05475   -794.15277    135472.49    -35735.22    2669.9092   -38405.129    43.714089    240.26266 
   12550    140.41081   -852.24306    135421.26   -35740.706    2715.4743    -38456.18    43.815214    244.36302 
   12600    137.55542   -733.07843    135361.59   -35763.277    2660.2525    -38423.53    44.193589    239.39366 
   12650    136.10992   -707.20943    135403.42   -35730.405    2632.2971   -38362.702     44.61674    236.87799 
   12700    137.85758   -798.33569    135431.56   -35713.793    2666.0961   -38379.889    44.895782    239.91952 
   12750    138.20037   -931.32716    135393.19   -35691.058    2672.7254   -38363.784    45.202346    240.51609 
   12800    139.97825   -656.64817     135436.3   -35684.809    2707.1088   -38391.918    45.345863    243.61022 
   12850    138.47313   -786.02669    135450.67   -35743.486    2678.0004   -38421.487    45.429557    240.99078 
   12900    135.59988   -887.05942    135477.13   -35796.933    2622.4333   -38419.367    45.625424    235.99035 
   12950    138.37623   -977.69078    135389.95   -35779.402    2676.1266   -38455.528    45.705021    240.82216 
   13000    138.18831   -843.00965    135410.98   -35769.532    2672.4922   -38442.024    45.782052     240.4951 
   13050    138.33938   -821.04929    135397.31   -35741.359    2675.4139   -38416.773    45.984517    240.75802 
   13100    137.37567   -758.28152    135389.36   -35727.619    2656.7761   -38384.395    46.040733    239.08083 
   13150     137.7265   -617.52908    135454.72   -35706.796    2663.5611   -38370.357    46.143911     239.6914 
   13200    140.47019   -879.78158    135463.65   -35721.072    2716.6227   -38437.695    46.406368    244.46636 
   13250    136.10257   -895.09273    135402.99   -35748.673    2632.1551   -38380.828    46.607139    236.86521 
   13300    138.20614   -659.76246    135385.79   -35786.141     2672.837   -38458.978    46.696408    240.52613 
   13350    137.22104   -681.06862    135431.59   -35804.842    2653.7858   -38458.628    46.919552    238.81173 
   13400     135.2859   -775.92662     135381.8   -35835.707     2616.361   -38452.068    47.217466    235.44391 
   13450    135.19618   -379.17038    135439.17   -35847.305    2614.6259   -38461.931    47.556787    235.28777 
   13500    135.26588   -755.27963    135507.99   -35824.958    2615.9739   -38440.932    47.827842    235.40907 
   13550     138.4387   -758.46184    135541.83   -35748.148    2677.3347   -38425.483    48.079015    240.93088 
   13600    136.43638   -546.15788    135535.94   -35709.734    2638.6107   -38348.344    48.261038    237.44614 
   13650    139.82039   -775.23529       135583    -35779.62    2704.0559   -38483.676    48.493108    243.33549 
   13700    136.19058   -710.36889    135572.59   -35822.055    2633.8572   -38455.912    48.482782    237.01838 
   13750    136.86781   -934.24886    135530.44   -35788.269    2646.9544   -38435.224    48.624842    238.19698 
   13800    138.79763   -587.97675    135531.85   -35773.403    2684.2762   -38457.679    48.758908    241.55554 
   13850     136.6481   -800.50613     135593.4   -35773.497    2642.7053   -38416.202     48.90595     237.8146 
   13900    136.31908   -582.73617    135624.05   -35770.965    2636.3422   -38407.307    48.951809      237.242 
   13950    135.35311   -744.32716    135634.45    -35795.72    2617.6609   -38413.381    49.045424    235.56089 
   14000    134.65236   -793.60709    135576.79   -35828.414    2604.1087   -38432.523    49.154688    234.34134 
   14050    135.70599   -623.71715    135520.88   -35833.687    2624.4854   -38458.173     49.22691    236.17502 
   14100    136.15239   -823.75259    135539.49   -35809.576    2633.1185   -38442.695     49.54957     236.9519 
   14150    136.65233   -775.11659    135511.87   -35823.149    2642.7872   -38465.936    49.631049    237.82198 
   14200    137.98984   -658.69697    135537.98    -35857.33     2668.654   -38525.984    49.455547    240.14971 
   14250    137.65604   -761.81015    135566.61   -35786.132    2662.1983   -38448.331    49.742707    239.56877 
   14300    137.71855   -757.00309    135514.19   -35783.096    2663.4072   -38446.503    50.043139    239.67756 
   14350    136.30956   -950.33494    135462.83   -35761.087    2636.1581   -38397.245    50.071951    237.22543 
   14400    136.27201   -881.37558    135337.51   -35775.744    2635.4319   -38411.176    50.003245    237.16008 
   14450    137.65961   -859.71672    135226.31   -35805.136    2662.2674   -38467.403    50.181487    239.57499 
   14500    133.11069   -665.42713       135170   -35850.475    2574.2936   -38424.769    50.353664     231.6583 
   14550    134.25545   -496.57875    135174.61   -35842.429    2596.4326   -38438.862    50.392913    233.65058 
   14600     137.0989   -907.26561    135204.15   -35805.549    2651.4236   -38456.972    50.465816    238.59916 
   14650    134.55994   -835.88777    135270.81   -35791.305    2602.3213   -38393.626    50.894974    234.18049 
   14700    136.49074   -724.31166    135259.74   -35762.469     2639.662   -38402.131    51.005501    237.54075 
   14750    136.78947   -866.41146     135339.5   -35764.379    2645.4394   -38409.818    50.955616    238.06064 
   14800    137.62497   -882.10451    135336.27   -35794.421    2661.5976   -38456.019    50.886368    239.51471 
   14850    136.18569   -865.90967    135370.72   -35764.245    2633.7625   -38398.007    50.935882    237.00985 
   14900    136.52608   -942.82892    135395.28   -35804.374    2640.3455   -38444.719    51.175369    237.60226 
   14950     136.6278    -768.5678    135379.01   -35813.587    2642.3127     -38455.9    51.316631    237.77928 
   15000    137.38874   -830.53078    135421.26   -35771.909     2657.029   -38428.938    51.196684    239.10359 
   15050    138.70226   -729.21767    135500.69   -35774.352    2682.4318   -38456.783    51.334356    241.38956 
   15100    136.55077    -628.5701     135556.6    -35837.37     2640.823   -38478.193    51.577199    237.64522 
   15150    138.56729   -760.67601    135609.27   -35796.638    2679.8215   -38476.459     51.78317    241.15467 
   15200    135.70461   -664.76468    135548.33   -35850.171    2624.4587    -38474.63    51.861562    236.17262 
   15250    137.48996    -498.5103    135597.87   -35791.183    2658.9865   -38450.169    52.091942    239.27974 
   15300    139.24306   -592.73474    135644.51   -35745.412    2692.8905   -38438.303    52.454288    242.33073 
   15350    136.69493   -655.40329    135685.68   -35737.921    2643.6111   -38381.532    52.521729    237.89612 
   15400    136.41488   -630.47649    135722.35   -35754.012     2638.195   -38392.207    52.770087    237.40873 
   15450    137.54715   -666.13251    135779.36   -35747.195    2660.0924   -38407.288     52.77834    239.37926 
   15500    137.55159    -701.6469    135749.96   -35739.232    2660.1783   -38399.411    52.837712    239.38699 
   15550     136.4603    -1012.716    135636.88    -35700.89    2639.0734   -38339.963    52.989148    237.48778 
   15600     137.2959   -768.29204    135486.91   -35699.415    2655.2335   -38354.648    52.991722    238.94201 
   15650    135.65882   -578.16645    135510.19   -35677.277    2623.5731    -38300.85    53.212362    236.09292 
   15700    139.22676   -674.03011    135491.86   -35660.848    2692.5752   -38353.423    53.319481    242.30236 
   15750    137.20469   -742.37801    135522.78   -35668.563    2653.4695   -38322.032     53.45552    238.78327 
   15800    139.10346   -731.31002    135482.42    -35681.92    2690.1907    -38372.11    53.685136    242.08778 
   15850    136.34685   -874.35003    135416.74   -35677.136    2636.8793   -38314.015    53.747281    237.29033 
   15900    138.77415   -516.63588    135391.29   -35667.964     2683.822   -38351.786    53.985351    241.51467 
   15950    138.56208   -755.20449    135455.56   -35639.063    2679.7207   -38318.784    54.191481    241.14559 
   16000    138.63392   -898.26588     135356.9   -35663.132    2681.1102   -38344.242    54.152591    241.27063 
   16050    138.39805   -686.06742    135186.99   -35661.717    2676.5485   -38338.266    54.212576    240.86013 
   16100    139.15295   -574.70293    135155.73   -35620.851    2691.1479   -38311.999     54.47524    242.17392 
   16150     138.8344   -863.19898    135098.88   -35631.157    2684.9873   -38316.144    54.752412    241.61953 
   16200    142.59071   -533.75543    135070.81   -35614.832    2757.6325   -38372.464    54.848905     248.1568 
   16250    139.99246   -755.00601    135082.71   -35622.682    2707.3836   -38330.065    55.014032    243.63495 
   16300    135.10608   -614.66271    135127.96   -35693.059    2612.8834   -38305.943    55.063333    235.13096 
   16350    137.56132   -865.74068    135210.44   -35693.348    2660.3666   -38353.715    55.116122    239.40393 
   16400     139.9298   -649.23237    135248.48   -35649.776    2706.1717   -38355.947    55.179695    243.52589 
   16450    138.04295   -762.23876    135263.85   -35619.449    2669.6811    -38289.13    55.359797    240.24214 
   16500    141.10171   -596.81982     135241.9   -35631.336    2728.8359   -38360.172    55.624676    245.56542 
   16550    136.98477   -691.56217    135273.69   -35687.074    2649.2164   -38336.291    55.738155    238.40054 
   16600    135.00731   -681.98713    135211.12   -35692.254    2610.9734   -38303.227    55.871686    234.95908 
   16650     136.3343   -696.65513     135174.9   -35758.619    2636.6366   -38395.256    55.936994    237.26849 
   16700    134.62297   -506.42005    135214.28   -35778.723    2603.5402   -38382.263    56.024699    234.29018 
   16750    135.25951   -914.73981    135192.65   -35774.433    2615.8507   -38390.284    56.137371    235.39799 
   16800    135.56957   -729.78764    135162.23   -35705.108    2621.8472   -38326.955    56.286467     235.9376 
   16850    136.22422   -678.03519    135155.69   -35700.162    2634.5076    -38334.67    56.648722    237.07691 
   16900    134.79299   -815.93464    135135.15   -35654.599    2606.8284   -38261.428    56.776623    234.58608 
   16950     135.9437   -522.19915     135148.7   -35712.137    2629.0826    -38341.22    56.894954    236.58871 
   17000    139.46126   -562.35611    135154.31   -35705.275    2697.1103   -38402.385    56.958268    242.71047 
   17050     135.9116   -742.50799    135006.06   -35702.051    2628.4619   -38330.513    57.059749    236.53286 
   17100    138.92554   -568.75026     134957.5   -35684.224    2686.7498   -38370.974    57.142203    241.77813 
   17150    138.08097   -661.45468    134886.21   -35726.714    2670.4163   -38397.131    57.356359    240.30829 
   17200    139.64403   -614.58893    134910.55    -35693.35    2700.6452   -38393.995    57.586342    243.02856 
   17250    136.77231   -518.39468    134980.29   -35662.498    2645.1074   -38307.605    57.891646    238.03077 
   17300    136.68703   -755.54065    134999.57   -35645.289    2643.4582   -38288.747    57.945956    237.88236 
   17350    139.48389   -758.98982    135035.59   -35609.977    2697.5481   -38307.525    58.125564    242.74986 
   17400    141.89138   -943.52256    135060.74   -35607.902    2744.1077    -38352.01    58.436725    246.93972 
   17450    141.24019    -584.2766    135048.31    -35621.35    2731.5141   -38352.864    58.933266    245.80643 
   17500    138.60891   -427.57389    135161.47   -35682.238    2680.6265   -38362.864    59.181223     241.2271 
   17550    139.25126   -667.20628    135267.71   -35714.206    2693.0492   -38407.255    59.590074    242.34501 
   17600    135.35836   -698.38274    135334.89   -35696.169    2617.7625   -38313.931      59.5831    235.57003 
   17650    137.54329   -746.68538    135368.28   -35719.096    2660.0179   -38379.114    59.739732    239.37256 
   17700    138.38739   -861.62102    135408.39   -35739.553    2676.3422   -38415.895     59.95277    240.84157 
   17750    141.11068    -540.5561    135523.37   -35727.226    2729.0093   -38456.235    60.041311    245.58102 
   17800    138.89106   -660.94994    135635.66    -35753.75     2686.083   -38439.833    60.304674    241.71813 
   17850    138.26114   -604.48333    135682.67   -35759.584    2673.9007   -38433.485    60.684204    240.62185 
   17900    137.23957   -994.75206    135664.17   -35731.173    2654.1441   -38385.317    60.883535    238.84398 
   17950     138.3965   -661.50178    135583.38   -35778.241    2676.5184    -38454.76    61.142618    240.85742 
   18000    137.74153   -769.80448    135522.97   -35746.574    2663.8516   -38410.426    61.443407    239.71755 
   18050    135.97803   -563.20228    135573.93   -35752.137    2629.7465   -38381.884    61.684043    236.64846 
   18100     136.1559    -476.8592    135569.86   -35735.337    2633.1864   -38368.524    61.598816    236.95802 
   18150    138.37117   -567.78916    135674.81    -35773.57    2676.0287   -38449.598    61.818134    240.81335 
   18200    137.92784   -662.97842     135620.5   -35783.981    2667.4548   -38451.436     61.92851     240.0418 
   18250    139.26072   -682.47076    135586.01   -35711.877    2693.2321   -38405.109     62.05805    242.36147 
   18300    137.69864   -764.68052    135542.92   -35686.271    2663.0222   -38349.294    62.166721    239.64291 
   18350    139.83079   -749.98395    135562.94   -35671.294    2704.2569   -38375.551    62.214247    243.35358 
   18400    140.43595   -861.45181    135498.39   -35657.033    2715.9604   -38372.994    62.529433    244.40677 
   18450    138.09739   -460.48393    135474.91   -35700.938    2670.7338   -38371.672     62.55746    240.33687 
   18500     139.3759   -711.82591    135539.98    -35704.92    2695.4597   -38400.379    62.801338    242.56193 
   18550    139.78908   -1028.0463    135467.61   -35701.169    2703.4503   -38404.619    62.924726      243.281 
   18600    138.59558   -679.82698    135441.28   -35650.641    2680.3685    -38331.01    63.116796    241.20389 
   18650    138.49434   -739.56674    135473.06   -35644.217    2678.4107   -38322.628    63.050142     241.0277 
   18700    139.96925   -823.67219    135503.89   -35647.855    2706.9348    -38354.79    62.961666    243.59456 
   18750    139.18179    -731.3918    135442.32   -35683.152    2691.7057   -38374.857    63.142341    242.22411 
   18800     139.0698   -637.46955    135429.69    -35727.33    2689.5398    -38416.87    62.963154     242.0292 
   18850     136.5258   -830.24114     135404.1   -35714.438      2640.34   -38354.778    63.172309    237.60176 
   18900    137.84047   -761.47794    135347.23   -35768.325    2665.7652   -38434.091    63.348054    239.88975 
   18950    137.38013   -945.73785    135332.81   -35777.848    2656.8624    -38434.71    63.775384    239.08859 
   19000    136.59359   -743.48709    135278.07    -35801.34    2641.6511   -38442.991    63.754233    237.71974 
   19050    137.92332    -662.3035     135275.8   -35817.219    2667.3674   -38484.587    63.827967    240.03393 
   19100     137.5071   -595.97913    135302.24   -35771.155    2659.3179   -38430.472    64.051576    239.30956 
   19150    135.95611    -894.2811    135310.95   -35745.367    2629.3226   -38374.689    64.185964    236.61032 
   19200    135.35703   -830.36854    135387.85    -35829.26    2617.7366   -38446.996    64.361938     235.5677 
   19250    136.81279   -782.68515    135331.11   -35804.026    2645.8903   -38449.916    64.372929    238.10122 
   19300    136.66936   -781.57084    135218.12   -35798.272    2643.1165   -38441.388    64.617059    237.85161 
   19350    138.06228   -742.06691    135156.28   -35812.819    2670.0549   -38482.874    64.635834    240.27578 
   19400    135.71465    -659.4501    135203.06   -35820.585    2624.6528   -38445.237    64.745774    236.19008 
   19450    137.99888   -509.72221    135238.69   -35797.875    2668.8288   -38466.704    64.755369    240.16544 
   19500    136.91988   -875.22616     135346.4   -35787.178    2647.9614    -38435.14     64.94902     238.2876 
   19550    137.90345   -604.74118     135341.7   -35761.161    2666.9832   -38428.144    64.998757    239.99935 
   19600    137.73471   -756.07396    135381.54   -35747.142    2663.7198   -38410.862    64.875781    239.70568 
   19650    137.89764    -615.7267     135466.5   -35768.935    2666.8708   -38435.806    65.096809    239.98924 
   19700    139.11351   -792.47581    135438.93   -35708.364    2690.3852   -38398.749    65.210003    242.10528 
   19750    139.53769   -895.78785    135356.81   -35695.758    2698.5885   -38394.346    65.411822    242.84348 
   19800     139.0063   -587.04492    135347.51   -35688.639    2688.3118    -38376.95    65.425535    241.91869 
   19850    139.72444   -673.97901    135360.97   -35694.114    2702.2002   -38396.314    65.471691     243.1685 
   19900    138.75791   -635.46271    135464.92   -35686.137    2683.5081   -38369.645    65.490529    241.48641 
   19950     140.1791   -604.73126    135416.83   -35705.667     2710.993    -38416.66    65.678448    243.95976 
   20000    139.21649   -514.68495    135493.28   -35681.478    2692.3767   -38373.855    65.387395     242.2845 
   20050    137.76913    -537.3342    135601.71   -35667.798    2664.3855   -38332.184    65.457658    239.76559 
   20100    140.24146    -762.5452    135656.23   -35708.871    2712.1991    -38421.07    65.534366    244.06829 
   20150    142.88658   -800.52092    135657.33   -35654.834    2763.3543   -38418.188     65.93037    248.67171 
   20200    136.89234   -771.66548    135594.79   -35720.604    2647.4288   -38368.033    66.136232    238.23967 
   20250    136.12267   -1000.4699    135611.71   -35743.784    2632.5438   -38376.328    66.358066    236.90019 
   20300    134.92076   -876.59355    135632.25   -35811.248    2609.2993   -38420.547    66.638203    234.80844 
   20350    137.45738   -617.92121    135614.43   -35787.292    2658.3563   -38445.648    67.038589    239.22303 
   20400    138.41221   -730.30656     135638.6   -35704.538    2676.8224   -38381.361    67.232644    240.88477 
   20450    141.91974   -653.75614    135689.76   -35741.892    2744.6562   -38486.548    67.481615    246.98907 
   20500    140.90425    -826.4655    135711.99   -35732.209     2725.017   -38457.226    67.647004    245.22177 
   20550    139.26267   -647.85384    135725.71   -35721.821    2693.2697   -38415.091    67.826564    242.36486 
   20600    139.30897   -564.83039    135844.16   -35739.075    2694.1653   -38433.241    67.928579    242.44544 
   20650    140.77187   -800.05597    135869.52    -35706.21    2722.4571   -38428.667    68.109672     244.9914 
   20700    138.12412   -876.38344    135803.25     -35716.6    2671.2508   -38387.851    68.139574    240.38339 
   20750    137.85543   -807.65713    135832.56   -35721.846    2666.0545   -38387.901    68.440643    239.91578 
   20800    139.08718   -897.95268    135927.74   -35761.552     2689.876   -38451.428    68.748953    242.05946 
   20850    134.63357   -856.65699    135919.09       -35759    2603.7453   -38362.745    69.025247    234.30864 
   20900    134.34742    -771.3677    135996.78   -35807.744    2598.2113   -38405.955    69.146859    233.81064 
   20950    135.43943   -927.08503     135893.1   -35782.168    2619.3302   -38401.498    69.336394     235.7111 
   21000    137.91101   -843.82642    135777.94   -35765.078    2667.1294   -38432.207    69.395176    240.01251 
   21050    137.76082   -833.33885     135759.3   -35789.419    2664.2247   -38453.644    69.586032    239.75112 
   21100    136.32277   -875.38516    135667.11    -35784.49    2636.4137   -38420.903    69.518993    237.24843 
   21150    138.03606   -716.02726    135688.43   -35773.903    2669.5477   -38443.451    69.487038    240.23014 
   21200    136.98706    -691.0445    135728.03   -35748.845    2649.2607   -38398.106    69.741512    238.40452 
   21250    136.51181   -968.16119     135836.1   -35722.834    2640.0696   -38362.904    69.710127    237.57743 
   21300    138.43201    -917.8503    135873.75   -35765.536    2677.2052   -38442.741    69.785502    240.91923 
   21350    136.44832   -706.53311    135901.41   -35767.113    2638.8418   -38405.955    69.920808    237.46693 
   21400    138.69931   -518.39781    135927.16   -35805.239    2682.3747   -38487.614     69.95037    241.38442 
   21450    139.20541   -775.24444    135903.78   -35775.745    2692.1625   -38467.908    70.114665    242.26521 
   21500    139.00608   -694.57267     135927.6   -35748.902    2688.3075    -38437.21    70.225354    241.91831 
   21550    138.06865   -563.84209    135971.05   -35793.212    2670.1781    -38463.39    70.239649    240.28686 
   21600     138.1432     -567.495    136022.95   -35769.829    2671.6198   -38441.449    70.524131     240.4166 
   21650    138.55949   -772.56529    136040.46   -35824.026    2679.6706   -38503.696    70.525475    241.14108 
   21700    136.16527   -866.99224    135990.46   -35813.282    2633.3676   -38446.649    70.566608    236.97432 
   21750    139.70994   -765.36135    135938.61   -35762.314    2701.9197   -38464.233    70.419664    243.14326 
   21800    137.23434   -801.71553    135947.76   -35763.757    2654.0429     -38417.8    70.528875    238.83487 
   21850    135.62545   -850.58432    135932.07   -35780.872    2622.9278     -38403.8     70.73896    236.03485 
   21900    138.38646   -848.40643    135891.49   -35790.096    2676.3244   -38466.421    70.804484    240.83996 
   21950    135.70932   -783.79234    135959.48   -35788.745    2624.5498   -38413.295    70.894399    236.18082 
   22000    138.34742    -734.1406    136054.71   -35778.468    2675.5693   -38454.037    70.993812    240.77201 
   22050    136.83342   -621.08303    136077.07   -35850.972    2646.2894   -38497.262    70.953107    238.13713 
   22100    135.81151   -551.80474    136068.05   -35829.863    2626.5262   -38456.389     70.84005    236.35866 
   22150    135.62313   -505.61262    136191.13   -35795.999    2622.8829   -38418.882    71.051446    236.03081 
   22200    138.55182   -652.89334    136293.28   -35762.485    2679.5224   -38442.007    71.155595    241.12774 
   22250    136.03765   -638.41568    136377.43   -35799.806    2630.8994   -38430.705    71.354808    236.75221 
   22300    136.94999   -885.23966    136320.73   -35826.995    2648.5437   -38475.538    71.557265       238.34 
   22350    136.16631   -639.24789    136290.63   -35884.486    2633.3878   -38517.874    71.386483    236.97613 
   22400    135.56583   -550.96908    136372.65   -35876.469    2621.7748   -38498.244    71.493523    235.93109 
   22450    135.53866   -813.28636     136345.5   -35849.939    2621.2493   -38471.188    71.662177    235.88381 
   22500    137.42146   -817.00942    136416.61   -35753.043    2657.6618   -38410.705    71.746478    239.16053 
   22550    137.31104   -907.56079    136379.24   -35744.196    2655.5262   -38399.723    71.946835    238.96835 
   22600    139.59432   -838.09969    136424.67   -35704.871    2699.6838   -38404.555    72.176233    242.94205 
   22650    140.73886   -726.91945    136336.94   -35692.141    2721.8185   -38413.959    72.282364    244.93393 
   22700    135.53042   -732.11814    136355.44    -35771.15    2621.0899   -38392.239     72.20401    235.86946 
   22750    135.02942   -927.37156    136343.46   -35733.387     2611.401   -38344.788    72.293101    234.99756 
   22800    134.13608   -609.14524    136260.29   -35811.457    2594.1241   -38405.581    72.238225    233.44283 
   22850    134.07247   -961.98928    136285.16   -35838.008    2592.8939   -38430.902    72.319558    233.33213 
   22900     135.6075   -787.66367    136335.49   -35868.889    2622.5807    -38491.47    72.733448    236.00362 
   22950    136.32964    -913.7159    136298.58   -35824.078    2636.5464   -38460.625    72.891091    237.26037 
   23000    138.87864   -824.13144    136296.37   -35804.152    2685.8429   -38489.995    73.128309    241.69653 
   23050      135.451   -835.81523    136247.33   -35757.805    2619.5541    -38377.36    73.259823    235.73125 
   23100    139.47801   -587.81162    136214.31   -35727.951    2697.4344   -38425.385    73.460294    242.73963 
   23150    137.84766   -821.24185    136128.12   -35786.197    2665.9043   -38452.101     73.65899    239.90226 
   23200    138.01381   -878.76442    136049.45   -35777.595    2669.1175   -38446.713    73.716007    240.19142 
   23250    137.50031   -923.12027    136042.67   -35792.885    2659.1867   -38452.072    73.661757    239.29776 
   23300    137.73282   -809.85312    135982.48    -35795.96    2663.6832   -38459.643    73.737241    239.70239 
   23350    137.92332   -818.35418    135944.25   -35751.829    2667.3674   -38419.196    73.934237    240.03393 
   23400    138.45993   -736.23783    135892.81   -35767.152    2677.7451   -38444.897    74.300794    240.96781 
   23450    141.40184   -654.09275    135835.85   -35757.904    2734.6403   -38492.545    74.222669    246.08775 
   23500    136.14454   -701.99495    135884.16   -35822.444    2632.9668   -38455.411    74.282556    236.93825 
   23550    136.66758   -619.79802    135875.54   -35844.371     2643.082   -38487.454    74.360305    237.84851 
   23600    135.02144   -779.88887    135947.82    -35853.82    2611.2466   -38465.066    74.476575    234.98367 
   23650    137.27598   -765.90075    135990.82   -35793.793    2654.8483   -38448.641    74.524383    238.90734 
   23700    136.81231    -803.2041    136004.05   -35798.432     2645.881   -38444.313    74.642281    238.10039 
   23750    140.41852   -846.80988    136007.59   -35722.385    2715.6233   -38438.008    74.772762    244.37643 
   23800    139.29084    -780.1483    136044.04   -35710.198    2693.8145   -38404.012    74.899761    242.41388 
   23850     140.5137   -729.06106    135996.04   -35659.568     2717.464   -38377.032    75.295676    244.54208 
   23900    140.80576   -743.43866    135886.81   -35698.953    2723.1124   -38422.065    75.292186    245.05037 
   23950    138.68029   -824.29203     135739.8   -35697.455    2682.0069   -38379.462    75.302792    241.35133 
   24000    135.68625   -962.82685    135676.26   -35771.059    2624.1036   -38395.162     75.38596    236.14066 
   24050    136.00133   -839.80615    135627.91   -35861.207    2630.1971   -38491.404    75.440326    236.68901 
   24100    134.91739   -690.23679    135592.91   -35839.089    2609.2342   -38448.323    75.440697    234.80258 
   24150    136.51803   -927.07695    135555.68   -35873.927    2640.1898   -38514.117    75.382065    237.58824 
   24200    137.78565   -802.52511    135571.43   -35852.139    2664.7049   -38516.844    75.347243    239.79434 
   24250    136.73268   -504.61897    135591.82   -35834.372    2644.3411   -38478.713    75.380644    237.96181 
   24300    135.00105   -504.88632    135676.59   -35774.585    2610.8522   -38385.437    75.568582    234.94818 
   24350    136.19057   -730.72257    135735.58   -35802.701    2633.8569   -38436.558    75.608463    237.01835 
   24400    137.31036   -730.01047    135731.46   -35795.048    2655.5131   -38450.561    75.911516    238.96717 
   24450    137.92976   -758.55104     135701.9   -35801.302    2667.4919   -38468.794    76.135402    240.04514 
   24500    135.04117   -811.44389    135643.14   -35790.125    2611.6282   -38401.753    76.293607    235.01801 
   24550    133.80839   -726.06826    135650.82   -35816.333    2587.7867    -38404.12    76.370311    232.87253 
   24600    134.31376   -615.57591    135686.75   -35786.303    2597.5604   -38383.864    76.562826    233.75206 
   24650     135.8658   -802.90561    135712.36   -35757.581    2627.5761   -38385.157     76.70596    236.45315 
   24700    137.74547    -773.1874     135769.7   -35741.239     2663.928   -38405.167    76.847333    239.72442 
   24750     136.7281   -740.14044    135713.59   -35747.369    2644.2524   -38391.621    77.021239    237.95383 
   24800    138.74385   -920.04882    135705.82   -35713.991    2683.2362   -38397.227    77.019441    241.46194 
   24850    140.93607   -699.97616    135616.59   -35706.961    2725.6324   -38432.594    77.118266    245.27714 
   24900    139.24904     -1048.42    135529.16   -35744.932    2693.0063   -38437.938    77.227223    242.34115 
   24950    134.82029    -640.6537    135533.75   -35796.561    2607.3565   -38403.917    77.409714     234.6336 
   25000    136.98002   -762.88611    135489.29   -35745.498    2649.1244   -38394.622    77.528882    238.39226 
   25050    136.90686   -635.16864    135413.29   -35745.889    2647.7096   -38393.599    77.515675    238.26494 
   25100    142.04612    -717.6504    135418.13   -35764.077    2747.1002   -38511.177    77.626663    247.20901 
   25150    134.02408   -379.19226    135438.58   -35819.321     2591.958   -38411.279    77.731511    233.24791 
   25200    138.41158   -655.03936    135489.29   -35740.207    2676.8101   -38417.017    77.959941    240.88367 
   25250    138.74522      -432.71    135583.95   -35737.372    2683.2626   -38420.635    78.192056    241.46432 
   25300    138.36736   -678.16314    135629.77    -35693.28     2675.955   -38369.235      78.3372    240.80672 
   25350    143.68282   -579.23559    135631.71   -35690.844    2778.7533   -38469.597    78.167143    250.05744 
   25400    141.52988   -732.35928    135658.33    -35716.13    2737.1165   -38453.246    78.284946    246.31058 
   25450    137.85842   -808.08929    135636.06   -35740.183    2666.1123   -38406.295    78.573855    239.92098 
   25500    137.42736   -387.49837    135608.64   -35727.068    2657.7759   -38384.844    78.468027     239.1708 
   25550    136.98133   -878.98588    135672.59   -35772.175    2649.1498   -38421.325    78.349343    238.39454 
   25600    138.11536   -627.82021    135672.62   -35765.704    2671.0813   -38436.785    78.539003    240.36814 
   25650    140.65083   -646.15135    135701.74   -35727.347     2720.116   -38447.463     78.50406    244.78073 
   25700    137.93573   -853.33211    135705.49   -35757.717    2667.6075   -38425.325     78.52427    240.05554 
   25750    138.30792    -542.5187    135722.94   -35775.035    2674.8054   -38449.841    78.695112    240.70327 
   25800    136.27714   -630.72072    135751.22   -35824.109    2635.5311    -38459.64    78.903407    237.16901 
   25850    133.50709   -695.86106     135731.5   -35845.324    2581.9597   -38427.284    79.135785    232.34817 
   25900    137.71024   -948.83606    135681.63   -35829.818    2663.2466   -38493.064    79.228378     239.6631 
   25950    135.14962   -1041.9743    135514.21   -35862.552    2613.7255   -38476.277    79.175375    235.20674 
   26000    134.22916   -1048.1777     135425.3   -35828.139    2595.9243   -38424.063    79.266726    233.60483 
   26050    136.32506   -542.56067    135397.99   -35837.153    2636.4579   -38473.611    79.379306    237.25241 
   26100    137.20534   -642.59289    135442.06   -35833.021    2653.4821   -38486.503    79.716126     238.7844 
   26150    140.29824   -666.80906    135513.63    -35761.44    2713.2971   -38474.737    79.881944     244.1671 
   26200    139.73353   -734.94497    135595.01   -35742.587     2702.376   -38444.963    79.905591    243.18432 
   26250    138.50383   -809.42964    135651.54   -35757.326    2678.5942    -38435.92    79.846216    241.04422 
   26300    139.20849   -689.61185    135645.55   -35813.092     2692.222   -38505.314    79.944529    242.27057 
   26350    136.09247   -687.50717    135702.85   -35793.197    2631.9596   -38425.157    80.119877    236.84762 
   26400    139.81006   -573.45943    135762.39   -35809.406     2703.856   -38513.262    80.348353     243.3175 
   26450    136.84189   -693.10772    135783.96   -35836.297    2646.4531    -38482.75    80.403462    238.15187 
   26500    138.88709   -893.95788    135834.27   -35797.208    2686.0062   -38483.214      80.6613    241.71121 
   26550    139.21166   -801.33559    135830.24   -35828.021    2692.2833   -38520.304    80.852884    242.27608 
   26600     138.5144   -747.74781    135769.41   -35831.847    2678.7986   -38510.645    80.865562    241.06261 
   26650    137.28528   -622.91038    135825.04   -35828.725    2655.0282   -38483.753    80.813901    238.92353 
   26700    134.41702   -866.17417    135903.39   -35877.563    2599.5574   -38477.121    81.020367    233.93177 
   26750    135.75924   -648.80884    135891.09   -35903.134    2625.5152    -38528.65    81.272672    236.26769 
   26800    137.59308   -703.95962     135902.2    -35912.99    2660.9807   -38573.971     81.19613     239.4592 
   26850    135.73774   -1021.8271     135844.6     -35864.7    2625.0994     -38489.8     81.56517    236.23027 
   26900     137.9553   -764.12437       135815   -35847.096    2667.9859   -38515.082    81.603889    240.08959 
   26950    137.41222   -692.38698    135766.07       -35794    2657.4831   -38451.483    81.711969    239.14445 
   27000    137.28883   -577.28692    135794.02   -35867.891    2655.0968   -38522.988    81.945163    238.92971 
   27050    136.49778   -571.39108    135793.98   -35855.611    2639.7982   -38495.409    82.215961      237.553 
   27100    136.31229   -657.55908    135805.24    -35853.46    2636.2109   -38489.671    82.405049    237.23018 
   27150    135.58658   -579.00667    135795.47   -35870.349     2622.176   -38492.525    82.406289     235.9672 
   27200    135.62311   -811.51936    135640.98   -35915.856    2622.8826   -38538.739    82.622605    236.03078 
   27250    134.93618   -661.40656       135668   -35876.383    2609.5976    -38485.98     82.41415    234.83528 
   27300    137.40917   -938.43331    135638.02   -35893.172     2657.424   -38550.596    82.419186    239.13913 
   27350    136.49631   -807.00597     135578.3   -35877.751    2639.7697    -38517.52    82.473805    237.55044 
   27400    138.63379   -699.83168       135530   -35798.926    2681.1076   -38480.033    82.752323    241.27039 
   27450    140.87846   -896.69197    135398.15     -35800.3    2724.5183   -38524.818    82.781948    245.17688 
   27500     138.3948   -685.69418     135319.6    -35795.08    2676.4856   -38471.566    82.733112    240.85447 
   27550    138.94639   -626.13679    135205.77   -35805.024    2687.1531   -38492.177    82.729726    241.81443 
   27600    138.31224   -521.35539    135253.55   -35788.025     2674.889   -38462.914    83.279968    240.71079 
   27650    136.46487   -705.93621     135263.2   -35785.217    2639.1618   -38424.379    83.456114    237.49574 
   27700    140.26798   -499.29355    135277.12    -35753.15     2712.712   -38465.862    83.766322    244.11445 
   27750    139.52198    -478.5362    135351.74   -35806.435    2698.2847    -38504.72    83.932669    242.81615 
   27800    139.41707   -735.51425    135369.05   -35826.536    2696.2559   -38522.792    84.093507    242.63358 
   27850    137.35109   -643.50244    135365.65   -35829.418    2656.3009   -38485.719    83.978118    239.03806 
   27900    136.42897   -535.74022     135397.2   -35826.023    2638.4674    -38464.49    84.145688    237.43325 
   27950    136.21084   -691.32463    135388.82   -35884.981    2634.2489    -38519.23    84.184597    237.05363 
   28000    137.70779   -567.19524    135406.01   -35875.202    2663.1991   -38538.401    84.290948    239.65883 
   28050    136.59173   -559.92855    135402.87    -35907.36    2641.6151   -38548.975    84.494911     237.7165 
   28100     135.3087   -911.78927    135359.29   -35875.293     2616.802   -38492.095    84.549471     235.4836 
   28150    140.40503   -708.34396    135332.14    -35814.32    2715.3624   -38529.682    84.411476    244.35296 
   28200    140.25155   -652.42356    135401.08   -35815.144    2712.3941   -38527.538    84.598784    244.08584 
   28250    137.14268   -732.26936    135444.81   -35837.875    2652.2702   -38490.145    84.461746    238.67534 
   28300    137.12528   -831.77179    135514.56   -35801.728    2651.9337   -38453.661      84.5877    238.64507 
   28350    137.32466   -647.14859    135514.48   -35837.996    2655.7897   -38493.786     84.81088    238.99207 
   28400    138.19676   -780.26002    135541.13   -35854.765    2672.6557    -38527.42    84.916117    240.50982 
   28450    133.69945   -552.82484    135497.13   -35900.708    2585.6799   -38486.388    85.219477    232.68294 
   28500    137.07011   -613.82447    135500.95   -35889.075    2650.8667   -38539.942    85.371065    238.54905 
   28550    136.33063    -438.2464    135460.89   -35874.158    2636.5657   -38510.724    85.625165    237.26211 
   28600     137.1781   -707.39934    135458.14   -35892.443    2652.9552   -38545.398    85.907222    238.73699 
   28650    137.96138   -623.08816    135516.85    -35850.24    2668.1035   -38518.343    86.213834    240.10017 
   28700    135.73207    -712.9998     135542.3   -35845.469    2624.9897   -38470.459    86.572756     236.2204 
   28750    137.86957   -793.92743    135546.59   -35871.934    2666.3279   -38538.262    86.820684    239.94038 
   28800    138.13271   -589.98248    135552.99    -35836.04    2671.4169   -38507.457    87.041856    240.39834 
   28850    136.19127   -638.87043    135576.62   -35811.681    2633.8704   -38445.551    87.327469    237.01957 
   28900    137.44394   -741.44822     135635.8    -35823.85    2658.0964   -38481.946    87.547066    239.19964 
   28950    136.72228   -791.87036    135638.59   -35773.241      2644.14   -38417.381    87.646951    237.94372 
   29000    136.27642   -775.76328    135666.29   -35735.402    2635.5172   -38370.919    87.807042    237.16775 
   29050    137.29168   -755.43464    135648.06   -35772.964    2655.1518   -38428.116    87.702031    238.93466 
   29100    140.39395   -948.45212    135691.73   -35736.591    2715.1482   -38451.739    87.971945    244.33368 
   29150    137.77485   -981.15366    135626.43   -35778.006    2664.4961   -38442.502    88.005666    239.77555 
   29200    133.40794   -674.54827    135542.21   -35840.149    2580.0424   -38420.192     87.87681    232.17563 
   29250    138.99097   -871.11253    135541.18   -35778.129    2688.0152   -38466.144    87.977086    241.89201 
   29300    137.48424   -659.26774    135673.17   -35765.236    2658.8759   -38424.111    87.852571    239.26978 
   29350    136.61958   -722.42255    135719.67   -35761.102    2642.1537   -38403.256    87.857139    237.76497 
   29400    137.28253   -840.32222    135658.45   -35754.784     2654.975   -38409.759    87.892633    238.91875 
   29450    135.16599   -706.60824    135576.77   -35816.361     2614.042   -38430.403    88.073864    235.23522 
   29500    137.49331   -757.86116    135546.09   -35769.168    2659.0512    -38428.22    88.248897    239.28556 
   29550     137.3525   -774.91042    135545.64    -35769.12    2656.3281   -38425.449    88.286049    239.04052 
   29600    138.79819   -737.13981    135504.69   -35778.838    2684.2869   -38463.125    88.319768     241.5565 
   29650    138.02079   -673.43052    135380.62    -35750.45    2669.2525   -38419.703      88.1946    240.20357 
   29700    137.67307   -843.25242    135356.71   -35777.817    2662.5277   -38440.345    88.202848    239.59841 
   29750    132.78802   -829.05846    135272.54   -35804.973    2568.0534   -38373.026    88.181645    231.09675 
   29800    136.61144   -734.07497     135218.7   -35816.136    2641.9963   -38458.132    88.241197    237.75081 
   29850    137.14993    -571.6566    135225.83   -35752.527    2652.4105   -38404.937    88.489437    238.68797 
   29900    139.89798   -648.24724    135263.17   -35752.047    2705.5563   -38457.603    88.645532    243.47051 
   29950     140.4462   -611.65424    135281.41   -35718.028    2716.1586   -38434.187    88.640086    244.42461 
   30000    142.11676   -878.37807    135276.42    -35681.33    2748.4665   -38429.797    88.840508    247.33196 
   30050    137.25744   -683.18236    135321.87   -35709.193    2654.4897   -38363.683    88.889715    238.87508 
   30100     138.4455   -791.62408     135396.4   -35722.196    2677.4661   -38399.662    89.173389     240.9427 
   30150     137.1133   -572.96653    135418.93   -35733.011    2651.7021   -38384.713    89.401911    238.62422 
   30200    139.62729   -722.76426    135443.59   -35725.202    2700.3214   -38425.523     89.56809    242.99943 
   30250    137.78485   -657.60462    135465.81   -35771.995    2664.6895   -38436.684    89.587675    239.79295 
   30300    135.72202   -845.00172    135476.79   -35773.259    2624.7954   -38398.055    89.804775    236.20292 
   30350    136.28903   -594.24328    135445.84   -35791.596    2635.7611   -38427.357    89.654951    237.18971 
   30400    138.65706   -828.31859     135476.8   -35792.778    2681.5576   -38474.336    89.923317    241.31089 
   30450    138.63999   -734.56041    135559.33   -35824.478    2681.2275   -38505.705    90.086366    241.28119 
   30500    138.60274   -751.31767    135666.46   -35836.543    2680.5071    -38517.05    90.176647    241.21636 
   30550    137.36631   -800.90698    135709.47    -35803.75    2656.5951   -38460.346    90.373146    239.06454 
   30600     138.5434   -608.16762    135718.74   -35785.934    2679.3594   -38465.293    90.620666    241.11308 
   30650    136.13155   -504.27257    135723.21   -35821.257    2632.7154   -38453.973    91.071879    236.91563 
   30700    137.30427   -838.02949    135764.25   -35800.706    2655.3953   -38456.101    91.104448    238.95657 
   30750    141.33039    -911.4256     135755.1   -35752.966    2733.2585   -38486.224    91.257201    245.96341 
   30800    140.97824   -661.40244    135793.36   -35747.386    2726.4481   -38473.834    91.294014    245.35055 
   30850    141.33881    -559.8466    135858.82   -35742.427    2733.4212   -38475.849    91.648709    245.97805 
   30900    138.11321   -804.53777    135888.34   -35784.504    2671.0399   -38455.544    91.689927    240.36441 
   30950    135.93723   -655.97268    135909.21   -35874.349    2628.9574   -38503.306    91.937454    236.57745 
   31000    137.40084   -698.66138    135897.01   -35901.888     2657.263   -38559.151    92.048963    239.12465 
   31050    134.61004   -925.29699    135907.33   -35868.462    2603.2903   -38471.752     91.99319    234.26769 
   31100    137.90085   -653.94822    135866.08   -35906.141    2666.9329   -38573.074    92.109819    239.99483 
   31150    139.99787   -590.87747    135876.13   -35846.142    2707.4881    -38553.63    92.347614    243.64436 
   31200    138.35977   -766.67449    135871.27   -35852.022    2675.8081    -38527.83    92.533382     240.7935 
   31250    136.10408   -605.93795    135891.86   -35913.677    2632.1842   -38545.861    92.575992    236.86783 
   31300     138.3685   -654.71851    136021.21    -35861.95    2675.9769   -38537.927    92.464895    240.80869 
   31350    136.89459   -752.98543    136007.56   -35854.339    2647.4723   -38501.811    92.376461    238.24359 
   31400    135.63023   -662.17839     135950.2   -35863.376    2623.0202   -38486.396    92.497054    236.04316 
   31450    133.69788   -546.49857    135919.44   -35912.379    2585.6496   -38498.029    92.605329    232.68022 
   31500    137.34466   -637.42469    135916.47   -35929.081    2656.1764   -38585.258     92.72266    239.02686 
   31550    136.47226    -897.9037    135925.34   -35894.104    2639.3046   -38533.409    92.826114    237.50859 
   31600    137.49924   -741.58378    135921.31   -35909.998    2659.1659   -38569.164    92.995364    239.29589 
   31650    137.51216   -677.14038    135910.89    -35897.07    2659.4158   -38556.486    92.909509    239.31838 
   31700    135.66632   -663.43851    135943.95    -35883.64    2623.7183   -38507.358    92.966311    236.10598 
   31750    138.50506   -572.64776     135888.6   -35868.725    2678.6181   -38547.343    93.031226    241.04637 
   31800    137.21931   -669.94459    135837.88   -35882.726    2653.7523   -38536.478    93.353854    238.80872 
   31850    139.48577   -764.77419    135914.64    -35850.63    2697.5845   -38548.214    93.515649    242.75313 
   31900    136.14064   -965.91425    135900.53   -35877.917    2632.8914   -38510.809    93.720483    236.93146 
   31950     140.3059   -735.74571    135822.38   -35855.808    2713.4454   -38569.254    93.837034    244.18045 
   32000    140.72251   -893.47583    135783.17   -35803.736    2721.5024   -38525.238    93.822308    244.90549 
   32050    137.71938   -594.25672    135823.59   -35824.205    2663.4233   -38487.628    94.148812      239.679 
   32100    135.55652   -789.89097    135866.29   -35852.039    2621.5947   -38473.634    94.068999    235.91488 
   32150    135.56735   -604.99053    135790.54    -35847.07    2621.8043   -38468.874    94.224954    235.93374 
   32200    136.82724   -778.62626    135761.17   -35819.399    2646.1699   -38465.569    94.471289    238.12638 
   32250    137.64635   -765.82988    135692.39   -35838.893    2662.0109   -38500.904    94.617837     239.5519 
   32300    136.48482   -620.82099    135643.49   -35887.354    2639.5475   -38526.902    94.784216    237.53044 
   32350    138.23689   -617.97459     135613.6   -35882.886    2673.4317   -38556.317    95.004478    240.57965 
   32400     140.8652   -638.27563    135606.08   -35846.998    2724.2619    -38571.26    95.276128    245.15381 
   32450    139.07034   -565.06433    135587.88   -35861.912    2689.5502   -38551.462    95.277274    242.03014 
   32500    136.89508   -640.04531     135575.3   -35809.886    2647.4818   -38457.367    95.328419    238.24444 
   32550    137.11068   -746.28611    135558.54   -35794.084    2651.6514   -38445.736     95.54725    238.61966 
   32600    137.06123   -612.84395    135541.32   -35794.484     2650.695   -38445.179    95.870057     238.5336 
   32650    138.27678   -551.30285    135645.97   -35794.244    2674.2031   -38468.447    95.930972    240.64907 
   32700    137.66767   -630.78182    135693.44   -35790.317    2662.4234    -38452.74    96.284831    239.58902 
   32750    139.51805   -615.89672    135672.08   -35787.162    2698.2088   -38485.371    96.094705    242.80932 
   32800    136.42412   -795.90119    135680.18   -35776.749    2638.3736   -38415.122    96.168872     237.4248 
   32850    138.50212    -733.0492    135655.43   -35761.687    2678.5612   -38440.248    96.295473    241.04125 
   32900    138.09494   -723.12631    135585.39    -35818.84    2670.6864   -38489.527     96.04583    240.33261 
   32950     137.2762   -530.49399    135630.63   -35753.195    2654.8524   -38408.047    96.093081    238.90772 
   33000    139.00119   -296.95492    135739.32   -35750.674    2688.2129   -38438.887    96.305027     241.9098 
   33050    139.12564   -476.38472    135840.84   -35763.207    2690.6196   -38453.826    96.419986    242.12637 
   33100    141.52859   -603.83234    135930.76    -35732.74    2737.0915   -38469.831    96.848526    246.30833 
   33150    137.79195    -879.0424    135938.57   -35798.401    2664.8269   -38463.228    96.855746    239.80531 
   33200    138.41745   -761.46976    135954.16   -35806.125    2676.9236   -38483.049    96.987738    240.89388 
   33250    140.37647    -980.1264    135923.54   -35795.332    2714.8101   -38510.143    97.082124    244.30325 
   33300    140.05438   -834.50193    135847.92   -35822.644     2708.581   -38531.225    96.921601     243.7427 
   33350    139.00531     -856.739    135779.13   -35833.475    2688.2925   -38521.768      97.0193    241.91696 
   33400    136.27819   -942.83182    135584.13   -35905.634    2635.5515   -38541.186    97.106365    237.17084 
   33450    138.34424   -906.68745    135377.59   -35958.927    2675.5079   -38634.434    97.313479    240.76648 
   33500    136.38378   -868.97454       135319   -35918.646    2637.5935   -38556.239    97.342499     237.3546 
   33550    138.71138   -627.38064    135275.45   -35909.176    2682.6082   -38591.784    97.308144    241.40543 
   33600    136.55295   -509.55768    135255.77   -35885.408    2640.8652   -38526.273    97.584612    237.64902 
   33650     137.0756   -566.10364    135335.52   -35914.551    2650.9729   -38565.524    97.659657     238.5586 
   33700    136.33893   -745.65036    135311.18    -35914.93    2636.7262   -38551.656     97.69199    237.27655 
   33750    133.52324   -969.15337    135211.53   -35958.373    2582.2721   -38540.645    97.977569    232.37628 
   33800    133.76414    -769.0443    135239.38   -35937.286    2586.9311   -38524.217    98.191077    232.79554 
   33850    137.61464   -813.14493    135234.98   -35852.354    2661.3978   -38513.751    98.327432    239.49673 
   33900    137.51349   -586.63992    135145.06   -35791.346    2659.4416   -38450.788    98.130559    239.32069 
   33950    139.55159   -409.64198    135130.29   -35797.374    2698.8574   -38496.231    98.019239    242.86769 
[...]
   92000    137.69533    -713.1139    135232.38   -35681.615    2662.9583   -38344.574    283.50754    239.63716 
   92050    139.20725   -1044.1797    135125.03   -35628.202    2692.1981     -38320.4    283.32223    242.26842 
   92100    137.36924   -731.70327    135096.31   -35657.554    2656.6519   -38314.206    283.51042    239.06965 
   92150    138.94949   -662.32229    135118.94   -35631.273    2687.2131   -38318.486    283.80006    241.81983 
   92200    135.76957   -689.70541    135233.65   -35654.251    2625.7149   -38279.966    283.68112    236.28566 
   92250    141.45002   -770.88421    135284.42   -35707.752     2735.572   -38443.324    283.89651    246.17159 
   92300    137.50504   -662.48397    135215.09   -35700.133    2659.2782   -38359.411    283.78538    239.30599 
   92350    138.97312   -613.39327    135280.03   -35752.125    2687.6701   -38439.796    283.97129    241.86095 
   92400    137.86998    -533.8116    135331.84   -35752.902    2666.3359   -38419.238    284.23639     239.9411 
   92450    136.82394   -856.51726    135314.31    -35729.17    2646.1061   -38375.276    284.23563    238.12064 
   92500    139.42109   -806.72605    135281.39   -35696.822    2696.3336   -38393.156    284.09373    242.64057 
   92550    137.77187   -777.83311    135269.18   -35710.419    2664.4385   -38374.857    284.30304    239.77036 
   92600      138.344   -923.47906    135340.25   -35707.499    2675.5032   -38383.003    284.15329    240.76606 
   92650    137.64126   -970.57438     135267.2   -35715.399    2661.9125   -38377.312     284.5965    239.54304 
   92700    137.02758   -858.38642    135281.84   -35773.694    2650.0442   -38423.738    285.08346    238.47503 
   92750    138.07181   -872.91706    135277.17   -35740.579    2670.2392   -38410.818    285.10123    240.29236 
   92800    134.52296   -837.01435     135256.8   -35774.718    2601.6062   -38376.324    285.01456    234.11614 
   92850    137.49959   -783.82746    135198.16   -35779.605    2659.1727   -38438.778    285.06638     239.2965 
   92900    136.69625   -837.34744    135152.78   -35735.555    2643.6365   -38379.192    285.20375    237.89841 
   92950    139.92386   -656.42388    135047.88   -35722.188    2706.0569   -38428.245    285.04627    243.51556 
   93000    137.42727   -677.85256    134993.46   -35696.154     2657.774   -38353.928    285.33669    239.17063 
   93050    137.89914   -667.42362    134945.73   -35715.588    2666.8998   -38382.488    285.15226    239.99185 
   93100    137.86861   -723.16672     134881.3    -35726.57    2666.3094    -38392.88    285.17924    239.93872 
   93150    134.17102   -614.24269    134931.55   -35754.087    2594.7999   -38348.887    285.07008    233.50364 
   93200    139.49509    -342.3831     134994.8   -35732.311    2697.7646   -38430.075    285.45533    242.76935 
   93250    136.41188   -669.22181    135066.39   -35775.637     2638.137   -38413.774    285.73925    237.40351 
   93300    137.07053    -781.5444    135062.96   -35766.234    2650.8749   -38417.109    285.52066    238.54978 
   93350    135.63177   -817.54607    135046.93   -35795.831    2623.0499   -38418.881    285.62639    236.04584 
   93400    135.53734   -696.17457    135061.33   -35847.803    2621.2239   -38469.027    285.55626    235.88151 
   93450    138.74989   -519.84871    135107.54   -35771.373     2683.353   -38454.726    286.11845    241.47246 
   93500    138.26169   -552.54299     135095.3   -35731.273    2673.9113   -38405.185    285.90847    240.62281 
   93550    138.14398   -689.95517    135042.64   -35681.546     2671.635   -38353.181    285.88279    240.41796 
   93600    137.27207   -696.78146    134993.57   -35741.366    2654.7727   -38396.138    285.44643    238.90054 
   93650    139.23549    -656.3948    134930.03    -35717.92    2692.7441   -38410.664    285.41755    242.31755 
   93700    136.50739    -583.7712       134883   -35729.065    2639.9841   -38369.049    285.66232    237.56973 
   93750    137.47876   -483.79188    134921.01   -35718.937    2658.7699   -38377.707     286.1404    239.26024 
   93800    137.62899   -620.16124    135009.75   -35673.874    2661.6753   -38335.549    286.61813     239.5217 
   93850    139.24602   -627.61364    135106.77   -35647.308    2692.9478   -38340.255    286.64845    242.33589 
   93900    137.94327   -632.17212    135188.58   -35567.276    2667.7532   -38235.029    287.01436    240.06865 
   93950    139.57944   -830.33957    135136.03   -35621.312     2699.396   -38320.707    287.12848    242.91615 
   94000     139.1478   -728.77693    135121.49   -35651.634    2691.0482   -38342.682     287.6681    242.16495 
   94050    137.13751   -589.99596    135141.24   -35664.474    2652.1703   -38316.645    287.93539    238.66636 
   94100    136.54974   -488.81262    135243.92   -35692.484    2640.8031   -38333.287    288.33263    237.64343 
   94150    138.51109    -705.3761    135303.75   -35698.297    2678.7346   -38377.032    288.76373    241.05685 
   94200    136.58008   -737.49993    135223.47   -35706.658    2641.3899   -38348.048    288.80092    237.69624 
   94250    136.46937   -714.94027    135257.03   -35693.441    2639.2488    -38332.69     289.0693    237.50356 
   94300    135.45516    -904.5496     135257.7    -35718.04    2619.6344   -38337.674    289.43733    235.73848 
   94350    137.57823   -771.03051     135196.1   -35751.142    2660.6936   -38411.835    289.70071    239.43336 
   94400    134.88312   -662.63995    135193.24   -35747.854    2608.5715   -38356.426     290.0252    234.74294 
   94450    138.29002   -661.61194    135204.28   -35737.581    2674.4592    -38412.04    290.47622    240.67211 
   94500    137.69347   -658.31297    135212.85   -35741.247    2662.9224   -38404.169    290.46357    239.63392 
   94550    136.57408   -694.42766    135233.56   -35705.029    2641.2737   -38346.303    290.57571    237.68578 
   94600    136.44935   -698.38621    135243.84   -35723.985    2638.8616   -38362.846    290.09405    237.46872 
   94650    138.21913   -427.05477    135289.76   -35666.912    2673.0883   -38340.001    290.12068    240.54875 
   94700    137.60365   -605.59603    135295.03   -35673.576    2661.1852   -38334.761    289.88929     239.4776 
   94750    138.44408   -724.92574    135285.15   -35669.709    2677.4386   -38347.148    290.50548    240.94023 
   94800    134.68151   -805.27908    135167.48   -35684.175    2604.6725   -38288.847    290.35877    234.39208 
   94850     137.1388   -655.93136    135069.01   -35643.582    2652.1953   -38295.777    290.80225    238.66861 
   94900    136.85755   -687.61563    135016.88   -35678.634    2646.7561    -38325.39    290.95955    238.17913 
   94950    136.72859   -1019.0611     134955.8   -35723.676    2644.2619   -38367.938    290.93959    237.95469 
   95000    135.96763   -592.13873    134913.83   -35741.513    2629.5453   -38371.059    290.76799    236.63035 
   95050    135.54584   -602.15671    134949.45   -35711.395    2621.3882   -38332.784    291.08023     235.8963 
   95100    137.83168   -723.78332    134958.44   -35669.247    2665.5951   -38334.842    291.43647    239.87444 
   95150     136.5187   -683.02076    134953.37   -35666.956    2640.2029   -38307.158    291.65892    237.58942 
   95200    137.31603   -665.58817    134912.63   -35685.727    2655.6228    -38341.35    291.73146    238.97705 
   95250     140.4169   -542.88968    135002.83   -35653.408    2715.5921       -38369    291.97402    244.37362 
   95300    135.95903   -782.31533    135060.94   -35661.235    2629.3791   -38290.614    292.08933     236.6154 
   95350     137.7508   -727.84613    135095.52   -35641.798    2664.0311   -38305.829    292.46832     239.7337 
   95400    137.17106   -716.86485    135089.71    -35727.32    2652.8191   -38380.139    292.54635    238.72474 
   95450    135.09237   -651.16284    135119.54   -35717.202    2612.6184   -38329.821    292.38027    235.10712 
   95500    138.50324    -881.1705    135055.13   -35721.928    2678.5829   -38400.511     292.4118     241.0432 
   95550    135.59623   -653.68078    134995.61   -35725.381    2622.3627   -38347.744    292.30957      235.984 
   95600    138.99791   -772.78765    134997.49   -35753.161    2688.1495    -38441.31    292.18611    241.90409 
   95650    136.83788   -815.89696     134914.9   -35803.861    2646.3756   -38450.237    292.40546     238.1449 
   95700    136.21278   -874.63987    134876.87   -35803.922    2634.2865   -38438.209    292.29785    237.05701 
   95750    136.57427   -652.95638    134799.16   -35792.169    2641.2775   -38433.447     292.4549    237.68612 
   95800    136.83913   -323.92407    134827.71    -35760.88    2646.3997   -38407.279    292.04897    238.14706 
   95850    138.69915   -790.59026    134933.94   -35707.473    2682.3716   -38389.845    292.23364    241.38414 
   95900    137.71757   -821.16676    134936.88   -35719.569    2663.3883   -38382.957    292.26744    239.67585 
   95950    136.48082   -360.08476    135022.57   -35660.141    2639.4702   -38299.612    292.34621    237.52348 
   96000    138.88089   -489.24361    135187.99   -35620.388    2685.8864   -38306.274    292.72143    241.70044 
   96050    138.83092   -630.85833    135181.48   -35643.531      2684.92   -38328.451    293.21505    241.61347 
   96100    137.00452   -779.87398    135201.04   -35623.255    2649.5983   -38272.853    293.78483     238.4349 
   96150    140.58457   -574.98427     135187.6   -35602.103    2718.8346   -38320.937    294.36166    244.66542 
   96200    139.27028   -769.34822     135256.3   -35571.048     2693.417   -38264.465     294.7626     242.3781 
   96250    138.24185   -559.59288    135257.58   -35547.131    2673.5276   -38220.658    294.68578    240.58828 
   96300    138.45667   -920.67744    135133.05    -35571.51    2677.6822   -38249.192    294.78225    240.96215 
   96350    135.32494   -662.67824    135102.06   -35612.583     2617.116   -38229.699    294.80617    235.51185 
   96400    140.45041   -841.49278    135125.87   -35567.367      2716.24   -38283.608    294.87508    244.43193 
   96450    138.94007   -750.40939    135158.92    -35533.06    2687.0309   -38220.091    295.07222    241.80343 
   96500    140.18627   -589.00786    135217.23   -35561.078    2711.1317    -38272.21    295.85954    243.97224 
   96550    136.92006   -699.83607    135222.87   -35665.509    2647.9649   -38313.474    295.80067    238.28791 
   96600    139.24769   -689.06216    135200.26   -35653.516      2692.98   -38346.496    295.72316    242.33878 
   96650    138.60121   -608.04245    135290.31   -35709.264    2680.4776   -38389.742    296.25069     241.2137 
   96700    136.81389   -797.44198     135270.7   -35727.401    2645.9117   -38373.313    296.46611    238.10315 
   96750    137.65179   -1025.1637    135178.43    -35694.86    2662.1163   -38356.976    296.51018    239.56139 
   96800    138.10498   -838.44835    135069.57   -35694.152    2670.8806   -38365.032    296.50445    240.35008 
   96850    140.18208   -698.81169    135073.74   -35640.221    2711.0508   -38351.271    296.35555    243.96496 
   96900    139.87841   -776.38204    135084.15   -35633.494    2705.1778   -38338.672    296.23913    243.43645 
   96950    138.32052   -827.14946    135091.46   -35644.895    2675.0492   -38319.945    296.69639     240.7252 
   97000    139.38581   -637.03497    135077.71   -35559.773    2695.6513   -38255.424    296.96567    242.57917 
   97050    136.15875   -537.79784    135026.83   -35614.749    2633.2416   -38247.991    296.99555    236.96298 
   97100    136.71893   -687.56085    135054.63   -35623.432    2644.0751   -38267.507     297.4476    237.93788 
   97150    139.16054   -813.08129    135056.88    -35602.44    2691.2946   -38293.735     297.5027    242.18711 
   97200    134.52956   -629.68921    135103.95   -35643.354    2601.7339   -38245.087    297.33828    234.12763 
   97250    134.95478   -701.56007    135176.66   -35624.002    2609.9574   -38233.959    297.59513    234.86766 
   97300    138.15364   -904.20381    135171.24   -35580.675    2671.8217   -38252.497    298.18036    240.43477 
   97350    139.33651   -728.68983    135200.99   -35553.693    2694.6979   -38248.391    298.34374    242.49338 
   97400    143.08223   -749.31869    135206.69   -35544.227    2767.1382   -38311.365    299.05626    249.01221 
   97450    141.86773   -866.75445    135247.91   -35558.328    2743.6503   -38301.979    299.97476    246.89856 
   97500    137.11102   -873.80543    135207.13   -35620.107    2651.6579   -38271.765     300.5691    238.62024 
   97550    138.81119   -850.08545    135098.86   -35594.635    2684.5385   -38279.174    300.80876    241.57914 
   97600     143.2484   -671.63437    135025.66   -35565.708    2770.3517    -38336.06     300.7937    249.30139 
   97650    138.57915    -751.6608    135059.16   -35588.203    2680.0508   -38268.254    300.92831     241.1753 
   97700    139.26081   -833.71628    135109.21   -35573.506    2693.2338    -38266.74    300.91854    242.36162 
   97750    143.60496   -732.30372    135136.34   -35572.748    2777.2474   -38349.996    301.48283    249.92193 
   97800    139.43348    -796.5758    135162.28   -35534.871    2696.5733   -38231.444     301.2394    242.66214 
   97850    138.29678   -932.07597    135236.28   -35565.814      2674.59   -38240.404    301.03883    240.68388 
   97900    140.75756   -716.67252     135211.7   -35546.805    2722.1802   -38268.985    300.86597    244.96648 
   97950    137.24549   -778.47662    135165.89   -35623.234    2654.2586   -38277.493    301.15691    238.85428 
   98000    140.99642   -917.60742    135152.63   -35641.016    2726.7996   -38367.815    301.32515    245.38218 
   98050     139.6072   -717.29162    135130.98   -35699.023    2699.9328   -38398.956    301.66674    242.96446 
   98100    136.07257   -727.57504    135130.45   -35711.278    2631.5748   -38342.853    301.86717    236.81299 
   98150    137.13739   -980.80686    135063.65   -35738.448     2652.168   -38390.616    301.94543    238.66615 
   98200    137.24135   -820.30368    135039.88   -35708.729    2654.1785   -38362.907    302.27259    238.84707 
   98250    135.16759   -684.82827    134995.44   -35724.973    2614.0731   -38339.046    302.24854    235.23802 
   98300    136.94164   -752.55961    135057.32   -35682.209    2648.3823   -38330.592    302.48708    238.32547 
   98350    140.60958   -492.62862    135020.68   -35654.458    2719.3183   -38373.776    302.41054    244.70894 
   98400    139.07156   -571.19204    135085.72   -35647.434    2689.5737   -38337.008    302.78361    242.03226 
   98450    138.50402   -721.23229     135073.4   -35635.896    2678.5979   -38314.494     303.1591    241.04455 
   98500    137.48048   -800.77458       135156   -35689.957    2658.8031    -38348.76    303.26486    239.26324 
   98550     140.7352   -663.26965    135160.77   -35648.562    2721.7479    -38370.31    303.40076    244.92758 
   98600    138.25188   -639.89149    135240.05   -35684.396    2673.7215   -38358.118    303.26141    240.60573 
   98650    140.15561   -838.12336    135223.59   -35634.516    2710.5389   -38345.055    303.73316    243.91889 
   98700    138.96598   -657.60647    135196.88   -35643.545     2687.532   -38331.077    303.88059    241.84852 
   98750    138.85748   -811.28257    135216.53    -35623.89    2685.4336   -38309.323    303.70143    241.65969 
   98800    139.55235   -560.01327    135162.91   -35585.094     2698.872   -38283.966    303.53111      242.869 
   98850    136.61538   -691.77829    135155.75   -35587.691    2642.0726   -38229.764    303.91047    237.75767 
   98900    139.86309   -631.12481    135223.14   -35605.098    2704.8816    -38309.98    304.29526     243.4098 
   98950     140.7424   -558.36578     135279.3   -35602.513    2721.8871     -38324.4    304.70932     244.9401 
   99000    136.47106   -405.44211    135310.02   -35631.955    2639.2814   -38271.236    304.63736    237.50649 
   99050    138.53627   -685.55111    135392.32   -35653.993    2679.2215   -38333.214    304.70103    241.10067 
   99100    139.53772   -833.77755    135333.26   -35607.138    2698.5891   -38305.728    304.69013    242.84354 
   99150    138.13858   -514.91585    135373.77   -35642.162    2671.5305   -38313.692    304.97692    240.40856 
   99200    141.11643    -686.8723    135339.23   -35605.633    2729.1206   -38334.754    305.43347    245.59104 
   99250    138.65941   -583.08403    135326.12   -35626.056     2681.603   -38307.659    305.98757    241.31498 
   99300    139.31512    -738.7168    135338.36   -35667.138    2694.2842   -38361.422     306.0075    242.45615 
   99350    137.55407   -599.52014    135285.79   -35708.375    2660.2264   -38368.602     305.6369    239.39131 
   99400    137.82303   -843.26069    135329.57   -35699.598     2665.428   -38365.026    305.56569     239.8594 
   99450    136.04943   -996.40102    135323.85   -35678.126    2631.1273   -38309.254     305.5773    236.77272 
   99500    139.36136   -769.52684    135301.84   -35643.002    2695.1784   -38338.181    305.38654    242.53661 
   99550    138.74769   -812.26429    135351.48   -35665.332    2683.3104   -38348.642     305.2596    241.46862 
   99600    136.41411   -755.84286    135285.41   -35647.762      2638.18   -38285.942    305.39516    237.40738 
   99650    136.41688   -714.95858    135179.48   -35636.059    2638.2337   -38274.293    305.11215    237.41221 
   99700    138.47536   -507.52172    135153.69   -35615.368    2678.0437   -38293.411    305.59759    240.99468 
   99750    139.01445   -534.58224    135163.58   -35612.174    2688.4693   -38300.643    305.60276    241.93287 
   99800    140.22651   -1034.2372    135152.57    -35606.89    2711.9099     -38318.8    305.93263    244.04227 
   99850    138.16689   -441.61218     135201.1   -35580.534    2672.0779   -38252.612     306.3281    240.45783 
   99900    138.54695   -683.04452    135232.14   -35628.534    2679.4282   -38307.963     307.0064    241.11927 
   99950    133.66784   -464.51257    135333.04   -35618.257    2585.0687   -38203.326    307.22079    232.62794 
  100000    138.10092   -818.95698    135350.04   -35633.728    2670.8021    -38304.53    307.72281    240.34301 
Loop time of 56.4346 on 90 procs for 100000 steps with 6489 atoms

Performance: 765.488 ns/day, 0.031 hours/ns, 1771.962 timesteps/s
97.2% CPU use with 90 MPI tasks x no OpenMP threads

MPI task timing breakdown:
Section |  min time  |  avg time  |  max time  |%varavg| %total
---------------------------------------------------------------
Pair    | 7.1989     | 18.061     | 39.66      | 305.0 | 32.00
Neigh   | 0.57027    | 1.3224     | 3.3291     |  82.1 |  2.34
Comm    | 4.4499     | 19.288     | 42.919     | 315.8 | 34.18
Output  | 0.14819    | 0.1513     | 0.16073    |   0.5 |  0.27
Modify  | 3.5764     | 16.807     | 39.346     | 381.2 | 29.78
Other   |            | 0.8048     |            |       |  1.43

Nlocal:    72.1 ave 158 max 43 min
Histogram: 58 2 0 5 10 0 0 0 1 14
Nghost:    720.311 ave 1057 max 448 min
Histogram: 30 0 0 12 18 0 0 0 15 15
Neighs:    0 ave 0 max 0 min
Histogram: 90 0 0 0 0 0 0 0 0 0
FullNghs:  5777.91 ave 18866 max 1599 min
Histogram: 60 0 0 0 15 0 0 0 0 15

Total # of neighbors = 520012
Ave neighs/atom = 80.1375
Neighbor list builds = 5980
Dangerous builds = 0

write_data		${DIR}/data.eq-${NAME}-${TEMP}
write_data		run_1/data.eq-${NAME}-${TEMP}
write_data		run_1/data.eq-het_freeze_1-${TEMP}
write_data		run_1/data.eq-het_freeze_1-240
undump          1

reset_timestep  0

unfix           2
unfix           3
unfix           4


################################################
#######         Run Simulation         #########
################################################

log				${DIR}/log.run_${NAME}
log				run_1/log.run_${NAME}
log				run_1/log.run_het_freeze_1
