LAMMPS data file via write_data, version 16 Mar 2018, timestep = 100000

5031 atoms
2 atom types

0.0000000000000000e+00 4.9219999999999999e+01 xlo xhi
0.0000000000000000e+00 4.9019635930410494e+01 ylo yhi
1.0982693170399500e+00 3.8901730682962480e+01 zlo zhi

Masses

1 18.015
2 12.01

Atoms # atomic

140 2 0.0000000000000000e+00 2.8417180249513345e+00 3.1217761619746547e+00 0 0 0
142 2 0.0000000000000000e+00 0.0000000000000000e+00 3.1217761619746547e+00 0 0 0
144 2 1.2305000000000001e+00 7.1042950623783474e-01 3.1217761619746547e+00 0 0 0
151 2 1.2305000000000001e+00 2.1312885187134998e+00 3.1217761619746547e+00 0 0 0
153 2 2.4610000000000003e+00 2.8417180249513345e+00 3.1217761619746547e+00 0 0 0
155 2 2.4610000000000003e+00 0.0000000000000000e+00 3.1217761619746547e+00 0 0 0
157 2 3.6915000000000004e+00 7.1042950623783474e-01 3.1217761619746547e+00 0 0 0
172 2 3.6914999999999996e+00 2.1312885187134998e+00 3.1217761619746547e+00 0 0 0
174 2 4.9220000000000006e+00 2.8417180249513332e+00 3.1217761619746547e+00 0 0 0
176 2 4.9220000000000006e+00 0.0000000000000000e+00 3.1217761619746547e+00 0 0 0
178 2 6.1524999999999999e+00 7.1042950623783407e-01 3.1217761619746547e+00 0 0 0
201 2 6.1524999999999999e+00 2.1312885187134989e+00 3.1217761619746547e+00 0 0 0
203 2 7.3829999999999991e+00 2.8417180249513345e+00 3.1217761619746547e+00 0 0 0
205 2 7.3829999999999991e+00 0.0000000000000000e+00 3.1217761619746547e+00 0 0 0
207 2 8.6134999999999984e+00 7.1042950623783407e-01 3.1217761619746547e+00 0 0 0
238 2 8.6134999999999984e+00 2.1312885187135002e+00 3.1217761619746547e+00 0 0 0
147 2 0.0000000000000000e+00 4.2625770374269996e+00 3.1217761619746547e+00 0 0 0
149 2 1.2305000000000001e+00 4.9730065436648339e+00 3.1217761619746547e+00 0 0 0
164 2 1.2305000000000001e+00 6.3938655561404980e+00 3.1217761619746547e+00 0 0 0
168 2 2.4610000000000003e+00 4.2625770374269996e+00 3.1217761619746547e+00 0 0 0
170 2 3.6914999999999996e+00 4.9730065436648339e+00 3.1217761619746547e+00 0 0 0
193 2 3.6914999999999996e+00 6.3938655561404980e+00 3.1217761619746547e+00 0 0 0
145 2 0.0000000000000000e+00 7.1042950623783341e+00 3.1217761619746547e+00 0 0 0
166 2 2.4610000000000003e+00 7.1042950623783341e+00 3.1217761619746547e+00 0 0 0
197 2 4.9220000000000006e+00 4.2625770374269978e+00 3.1217761619746547e+00 0 0 0
199 2 6.1524999999999999e+00 4.9730065436648339e+00 3.1217761619746547e+00 0 0 0
230 2 6.1524999999999999e+00 6.3938655561404980e+00 3.1217761619746547e+00 0 0 0
234 2 7.3829999999999991e+00 4.2625770374269996e+00 3.1217761619746547e+00 0 0 0
236 2 8.6135000000000002e+00 4.9730065436648339e+00 3.1217761619746547e+00 0 0 0
275 2 8.6135000000000002e+00 6.3938655561404980e+00 3.1217761619746547e+00 0 0 0
195 2 4.9220000000000006e+00 7.1042950623783341e+00 3.1217761619746547e+00 0 0 0
232 2 7.3830000000000009e+00 7.1042950623783341e+00 3.1217761619746547e+00 0 0 0
160 2 0.0000000000000000e+00 8.5251540748539991e+00 3.1217761619746547e+00 0 0 0
162 2 1.2305000000000001e+00 9.2355835810918343e+00 3.1217761619746547e+00 0 0 0
189 2 2.4610000000000003e+00 8.5251540748539991e+00 3.1217761619746547e+00 0 0 0
191 2 3.6915000000000004e+00 9.2355835810918343e+00 3.1217761619746547e+00 0 0 0
158 2 0.0000000000000000e+00 1.1366872099805333e+01 3.1217761619746547e+00 0 0 0
185 2 1.2305000000000001e+00 1.0656442593567498e+01 3.1217761619746547e+00 0 0 0
187 2 2.4610000000000003e+00 1.1366872099805333e+01 3.1217761619746547e+00 0 0 0
222 2 3.6914999999999996e+00 1.0656442593567499e+01 3.1217761619746547e+00 0 0 0
226 2 4.9220000000000006e+00 8.5251540748539991e+00 3.1217761619746547e+00 0 0 0
228 2 6.1524999999999999e+00 9.2355835810918343e+00 3.1217761619746547e+00 0 0 0
271 2 7.3830000000000009e+00 8.5251540748539991e+00 3.1217761619746547e+00 0 0 0
273 2 8.6134999999999984e+00 9.2355835810918343e+00 3.1217761619746547e+00 0 0 0
224 2 4.9220000000000006e+00 1.1366872099805333e+01 3.1217761619746547e+00 0 0 0
267 2 6.1524999999999999e+00 1.0656442593567499e+01 3.1217761619746547e+00 0 0 0
269 2 7.3829999999999991e+00 1.1366872099805333e+01 3.1217761619746547e+00 0 0 0
314 2 8.6134999999999984e+00 1.0656442593567498e+01 3.1217761619746547e+00 0 0 0
141 2 0.0000000000000000e+00 1.4208590124756650e+00 6.2113118686131861e+00 0 0 0
143 2 0.0000000000000000e+00 0.0000000000000000e+00 6.2113118686131861e+00 0 0 0
152 2 1.2305000000000001e+00 2.1312885187134998e+00 6.2113118686131861e+00 0 0 0
154 2 2.4610000000000003e+00 1.4208590124756650e+00 6.2113118686131861e+00 0 0 0
156 2 2.4610000000000003e+00 0.0000000000000000e+00 6.2113118686131861e+00 0 0 0
173 2 3.6914999999999996e+00 2.1312885187134998e+00 6.2113118686131861e+00 0 0 0
150 2 1.2305000000000001e+00 3.5521475311891644e+00 6.2113118686131861e+00 0 0 0
171 2 3.6914999999999996e+00 3.5521475311891644e+00 6.2113118686131861e+00 0 0 0
469 2 0.0000000000000000e+00 2.8417180249513345e+00 9.3008475752516340e+00 0 0 0
470 2 0.0000000000000000e+00 0.0000000000000000e+00 9.3008475752516340e+00 0 0 0
471 2 1.2305000000000001e+00 7.1042950623783474e-01 9.3008475752516340e+00 0 0 0
475 2 1.2305000000000001e+00 2.1312885187134998e+00 9.3008475752516340e+00 0 0 0
476 2 2.4610000000000003e+00 2.8417180249513345e+00 9.3008475752516340e+00 0 0 0
477 2 2.4610000000000003e+00 0.0000000000000000e+00 9.3008475752516340e+00 0 0 0
478 2 3.6915000000000004e+00 7.1042950623783474e-01 9.3008475752516340e+00 0 0 0
486 2 3.6914999999999996e+00 2.1312885187134998e+00 9.3008475752516340e+00 0 0 0
175 2 4.9220000000000006e+00 1.4208590124756650e+00 6.2113118686131861e+00 0 0 0
177 2 4.9220000000000006e+00 0.0000000000000000e+00 6.2113118686131861e+00 0 0 0
202 2 6.1524999999999999e+00 2.1312885187134989e+00 6.2113118686131861e+00 0 0 0
204 2 7.3829999999999991e+00 1.4208590124756659e+00 6.2113118686131861e+00 0 0 0
206 2 7.3829999999999991e+00 0.0000000000000000e+00 6.2113118686131861e+00 0 0 0
239 2 8.6134999999999984e+00 2.1312885187135002e+00 6.2113118686131861e+00 0 0 0
200 2 6.1524999999999999e+00 3.5521475311891644e+00 6.2113118686131861e+00 0 0 0
237 2 8.6134999999999984e+00 3.5521475311891657e+00 6.2113118686131861e+00 0 0 0
487 2 4.9220000000000006e+00 2.8417180249513332e+00 9.3008475752516340e+00 0 0 0
488 2 4.9220000000000006e+00 0.0000000000000000e+00 9.3008475752516340e+00 0 0 0
489 2 6.1524999999999999e+00 7.1042950623783407e-01 9.3008475752516340e+00 0 0 0
501 2 6.1524999999999999e+00 2.1312885187134989e+00 9.3008475752516340e+00 0 0 0
502 2 7.3829999999999991e+00 2.8417180249513345e+00 9.3008475752516340e+00 0 0 0
503 2 7.3829999999999991e+00 0.0000000000000000e+00 9.3008475752516340e+00 0 0 0
504 2 8.6134999999999984e+00 7.1042950623783407e-01 9.3008475752516340e+00 0 0 0
520 2 8.6134999999999984e+00 2.1312885187135002e+00 9.3008475752516340e+00 0 0 0
146 2 0.0000000000000000e+00 5.6834360499026637e+00 6.2113118686131861e+00 0 0 0
148 2 0.0000000000000000e+00 4.2625770374269996e+00 6.2113118686131861e+00 0 0 0
165 2 1.2305000000000001e+00 6.3938655561404980e+00 6.2113118686131861e+00 0 0 0
167 2 2.4610000000000003e+00 5.6834360499026637e+00 6.2113118686131861e+00 0 0 0
169 2 2.4610000000000003e+00 4.2625770374269996e+00 6.2113118686131861e+00 0 0 0
194 2 3.6914999999999996e+00 6.3938655561404980e+00 6.2113118686131861e+00 0 0 0
163 2 1.2305000000000001e+00 7.8147245686161639e+00 6.2113118686131861e+00 0 0 0
192 2 3.6914999999999996e+00 7.8147245686161639e+00 6.2113118686131861e+00 0 0 0
473 2 0.0000000000000000e+00 4.2625770374269996e+00 9.3008475752516340e+00 0 0 0
474 2 1.2305000000000001e+00 4.9730065436648339e+00 9.3008475752516340e+00 0 0 0
482 2 1.2305000000000001e+00 6.3938655561404980e+00 9.3008475752516340e+00 0 0 0
484 2 2.4610000000000003e+00 4.2625770374269996e+00 9.3008475752516340e+00 0 0 0
485 2 3.6914999999999996e+00 4.9730065436648339e+00 9.3008475752516340e+00 0 0 0
497 2 3.6914999999999996e+00 6.3938655561404980e+00 9.3008475752516340e+00 0 0 0
472 2 0.0000000000000000e+00 7.1042950623783341e+00 9.3008475752516340e+00 0 0 0
483 2 2.4610000000000003e+00 7.1042950623783341e+00 9.3008475752516340e+00 0 0 0
196 2 4.9220000000000006e+00 5.6834360499026637e+00 6.2113118686131861e+00 0 0 0
198 2 4.9220000000000006e+00 4.2625770374269978e+00 6.2113118686131861e+00 0 0 0
231 2 6.1524999999999999e+00 6.3938655561404980e+00 6.2113118686131861e+00 0 0 0
233 2 7.3829999999999991e+00 5.6834360499026637e+00 6.2113118686131861e+00 0 0 0
235 2 7.3829999999999991e+00 4.2625770374269996e+00 6.2113118686131861e+00 0 0 0
276 2 8.6135000000000002e+00 6.3938655561404980e+00 6.2113118686131861e+00 0 0 0
229 2 6.1524999999999999e+00 7.8147245686161639e+00 6.2113118686131861e+00 0 0 0
274 2 8.6135000000000002e+00 7.8147245686161639e+00 6.2113118686131861e+00 0 0 0
499 2 4.9220000000000006e+00 4.2625770374269978e+00 9.3008475752516340e+00 0 0 0
500 2 6.1524999999999999e+00 4.9730065436648339e+00 9.3008475752516340e+00 0 0 0
516 2 6.1524999999999999e+00 6.3938655561404980e+00 9.3008475752516340e+00 0 0 0
518 2 7.3829999999999991e+00 4.2625770374269996e+00 9.3008475752516340e+00 0 0 0
519 2 8.6135000000000002e+00 4.9730065436648339e+00 9.3008475752516340e+00 0 0 0
539 2 8.6135000000000002e+00 6.3938655561404980e+00 9.3008475752516340e+00 0 0 0
498 2 4.9220000000000006e+00 7.1042950623783341e+00 9.3008475752516340e+00 0 0 0
517 2 7.3830000000000009e+00 7.1042950623783341e+00 9.3008475752516340e+00 0 0 0
159 2 0.0000000000000000e+00 9.9460130873296642e+00 6.2113118686131861e+00 0 0 0
161 2 0.0000000000000000e+00 8.5251540748539991e+00 6.2113118686131861e+00 0 0 0
188 2 2.4610000000000003e+00 9.9460130873296642e+00 6.2113118686131861e+00 0 0 0
190 2 2.4610000000000003e+00 8.5251540748539991e+00 6.2113118686131861e+00 0 0 0
184 2 1.2305000000000001e+00 1.2077301606043163e+01 6.2113118686131861e+00 0 0 0
186 2 1.2305000000000001e+00 1.0656442593567498e+01 6.2113118686131861e+00 0 0 0
221 2 3.6914999999999996e+00 1.2077301606043163e+01 6.2113118686131861e+00 0 0 0
223 2 3.6914999999999996e+00 1.0656442593567499e+01 6.2113118686131861e+00 0 0 0
480 2 0.0000000000000000e+00 8.5251540748539991e+00 9.3008475752516340e+00 0 0 0
481 2 1.2305000000000001e+00 9.2355835810918343e+00 9.3008475752516340e+00 0 0 0
495 2 2.4610000000000003e+00 8.5251540748539991e+00 9.3008475752516340e+00 0 0 0
496 2 3.6915000000000004e+00 9.2355835810918343e+00 9.3008475752516340e+00 0 0 0
479 2 0.0000000000000000e+00 1.1366872099805333e+01 9.3008475752516340e+00 0 0 0
493 2 1.2305000000000001e+00 1.0656442593567498e+01 9.3008475752516340e+00 0 0 0
494 2 2.4610000000000003e+00 1.1366872099805333e+01 9.3008475752516340e+00 0 0 0
512 2 3.6914999999999996e+00 1.0656442593567499e+01 9.3008475752516340e+00 0 0 0
513 2 4.9220000000000006e+00 1.1366872099805333e+01 9.3008475752516340e+00 0 0 0
535 2 6.1524999999999999e+00 1.0656442593567499e+01 9.3008475752516340e+00 0 0 0
536 2 7.3829999999999991e+00 1.1366872099805333e+01 9.3008475752516340e+00 0 0 0
559 2 8.6134999999999984e+00 1.0656442593567498e+01 9.3008475752516340e+00 0 0 0
225 2 4.9220000000000006e+00 9.9460130873296642e+00 6.2113118686131861e+00 0 0 0
227 2 4.9220000000000006e+00 8.5251540748539991e+00 6.2113118686131861e+00 0 0 0
270 2 7.3830000000000009e+00 9.9460130873296642e+00 6.2113118686131861e+00 0 0 0
272 2 7.3830000000000009e+00 8.5251540748539991e+00 6.2113118686131861e+00 0 0 0
266 2 6.1524999999999999e+00 1.2077301606043163e+01 6.2113118686131861e+00 0 0 0
268 2 6.1524999999999999e+00 1.0656442593567499e+01 6.2113118686131861e+00 0 0 0
313 2 8.6135000000000002e+00 1.2077301606043163e+01 6.2113118686131861e+00 0 0 0
315 2 8.6134999999999984e+00 1.0656442593567498e+01 6.2113118686131861e+00 0 0 0
514 2 4.9220000000000006e+00 8.5251540748539991e+00 9.3008475752516340e+00 0 0 0
515 2 6.1524999999999999e+00 9.2355835810918343e+00 9.3008475752516340e+00 0 0 0
537 2 7.3830000000000009e+00 8.5251540748539991e+00 9.3008475752516340e+00 0 0 0
538 2 8.6134999999999984e+00 9.2355835810918343e+00 9.3008475752516340e+00 0 0 0
2331 1 2.3633712344233229e+00 3.2690442091922716e+00 1.1660484273588132e+01 0 1 0
2388 1 3.4648492786259939e+00 1.1034121982645527e+01 1.8998230645207567e+01 0 0 0
1510 1 7.2975674387889162e+00 1.0025563457904261e+00 1.9705566990819023e+01 1 0 -1
941 1 7.9899209491223599e+00 1.7389640518469724e+00 1.2119150403049115e+01 1 1 1
2636 1 4.0952526361569443e+00 3.5022755043168790e+00 1.4851886446135806e+01 1 0 0
2459 1 4.3612633993141072e+00 1.6472521374164570e+00 1.2489211828944230e+01 0 1 0
4086 1 8.5828200149193563e+00 1.1129744396076534e+01 1.5602106211495782e+01 -1 0 0
2545 1 3.2198185943104161e+00 5.3398275876701300e+00 1.3077600481008393e+01 0 1 0
4910 1 3.0471315756696904e+00 7.3120744787969985e+00 1.5062613441789948e+01 0 0 0
4137 1 7.3819614863216101e+00 6.5072469278640801e+00 1.5115788246789746e+01 -1 1 0
1736 1 5.9914875885641523e+00 3.8477345780874819e+00 1.1867163964039269e+01 0 0 0
1744 1 7.3360822515459452e+00 6.3796638069059606e+00 1.2373508910465688e+01 1 1 0
723 1 3.0782776444176561e+00 9.6637878955292393e+00 1.3110846887238294e+01 0 0 0
1653 1 5.5625608654228020e-01 8.7350574893773434e+00 1.2221979586350315e+01 1 1 0
658 1 1.0441475374167237e+00 1.0419084672212236e+01 1.5650632850097008e+01 0 0 0
4917 1 7.1152445508543583e-01 8.7345519138980343e+00 1.8281358485569310e+01 1 0 -1
1717 1 4.6861335659851804e+00 7.3004016786719319e+00 1.1990554037870538e+01 1 0 0
1648 1 5.1822840741659162e+00 1.0696306287290957e+01 1.1846006723115648e+01 0 1 0
1566 1 2.1403598289241423e+00 2.0996953541043166e+00 1.8014820777397340e+01 0 -1 -1
3337 1 5.0965177154763426e+00 7.4820090958991310e+00 1.6587058324887757e+01 0 1 -1
744 1 1.9075901941139564e+00 1.1959957585810290e+00 1.5527111544984431e+01 0 0 0
4879 1 7.7095375679903180e+00 1.8351118560383559e+00 1.5040708920278215e+01 1 1 0
2443 1 6.3989437853511077e+00 3.3492452380138373e+00 1.8693839807236561e+01 0 1 0
902 1 8.1292292066453467e+00 1.1039141582457598e+01 1.2774972671584447e+01 0 0 0
3231 1 6.0800745563333090e+00 1.0188351198749345e+01 1.6731662585794023e+01 0 0 -1
120 1 3.7657717016676688e+00 1.1458581642223056e+01 1.5642777010020794e+01 0 0 0
22 1 1.2750303294207619e+00 6.3413206433997260e+00 1.7137768716381476e+01 0 1 0
2498 1 2.1781845439909708e+00 4.6096905028385020e+00 1.8783930375294688e+01 0 2 -1
4962 1 3.3279085849392853e-01 5.9503181220783290e+00 1.1986211905532523e+01 0 0 0
4842 1 4.6306224854175282e+00 5.8575228070123915e+00 1.8998403022156481e+01 1 0 0
1852 1 6.2440617331127637e+00 4.1689578755530539e+00 1.6118695394374022e+01 2 0 1
3501 1 6.0772922117422947e+00 1.1279390526354803e+01 1.9221739570155432e+01 0 0 0
688 1 9.3804841484438359e+00 7.8893963822456756e+00 1.6298599858468510e+01 0 0 0
660 1 9.0926971120126066e+00 7.4772154562555277e+00 1.8987583589639840e+01 0 -1 1
3992 1 2.9271279357720310e+00 3.1778815037485098e-01 1.9869859962683293e+01 1 0 0
1758 1 9.8326801191074757e+00 1.0578826873908197e+01 1.9571711215416311e+01 2 2 0
4955 1 9.8145369545112331e+00 5.4300107391711876e+00 1.1967463494717443e+01 1 1 0
847 1 3.1578439655056134e+00 3.0657450556009049e+00 2.3789078618228267e+01 0 2 -1
4843 1 3.8395586362035488e+00 6.3909338600489274e-01 2.2562140038371655e+01 0 0 0
4820 1 9.6209234039227383e+00 3.7861005470693629e+00 2.8879238580849965e+01 0 1 0
1855 1 6.8788084966002403e+00 1.1916066892411332e+00 2.2400840172282631e+01 0 2 0
4067 1 1.3658249166103078e+00 4.4167798470302335e+00 2.1681019298121910e+01 1 1 0
3146 1 7.3107436488459578e+00 5.6109968041698277e+00 2.2628829076100452e+01 0 1 0
1010 1 9.6991138208308147e-01 1.0337570974969044e+01 2.6568896448846637e+01 1 1 0
4866 1 4.1258036875299160e+00 6.0064707464133491e+00 2.3416057641475085e+01 2 0 0
4857 1 1.7131900642819096e+00 1.8396872080427049e+00 2.5795186793497884e+01 1 0 0
81 1 2.2579323581953128e+00 9.0640944681366751e+00 2.0569855333153932e+01 0 1 0
4158 1 7.1415821745978008e+00 9.0098266105727856e+00 2.0730913370638927e+01 0 0 0
1638 1 6.7860871917813927e+00 1.1516540053673149e+01 2.9379020643739661e+01 -1 0 0
5012 1 1.9324621791761132e+00 1.0846080646393021e+01 2.2703609443147567e+01 1 1 -1
4248 1 4.7574185277700920e+00 7.4813894369615355e+00 2.0998891250854346e+01 0 0 1
4315 1 7.9110241022897627e+00 9.8762981217492616e+00 2.3197828877427696e+01 1 1 0
3506 1 8.6902683876192786e+00 7.4982657669808352e+00 2.3849511265724644e+01 1 1 0
4164 1 5.7521070789808908e+00 9.7867919514178343e+00 2.4673954961586368e+01 0 0 -1
2506 1 2.9787084066747593e+00 2.9962364369421173e+00 2.7995996144361467e+01 1 0 0
1831 1 8.0528819055592660e+00 3.0237192052285504e+00 2.6572523406339407e+01 1 0 1
2560 1 5.8187061630346184e+00 3.6908497003852623e+00 2.7892565358332686e+01 -1 2 -1
904 1 8.0783138238537937e+00 3.2718334497682982e+00 2.3773306937693970e+01 0 0 0
3152 1 2.2481184551262445e+00 5.5649810041481897e+00 2.7136250974701380e+01 1 0 0
647 1 4.2540631506958917e+00 7.7655233209087378e+00 2.5674613062574419e+01 0 0 0
2522 1 1.2645400423289515e+00 8.5078394646230890e+00 2.4804627997573888e+01 1 0 -1
681 1 5.6885305383326425e+00 6.4406425389636199e+00 2.7734831557508993e+01 2 0 -1
33 1 8.1755874175059802e+00 7.4616106416965131e+00 2.6751317348445035e+01 1 0 -1
3975 1 3.9501339350602587e+00 1.0509771554672156e+01 2.7372613153129851e+01 1 1 -1
3981 1 8.4125737145821162e+00 4.9341056774504706e+00 2.0040620072724334e+01 0 0 0
1011 1 7.5101663115127657e+00 1.0174959166167405e+01 2.7053205629861711e+01 0 1 0
3487 1 4.5461234447572290e+00 1.2143591637247898e+01 2.3289223279802684e+01 1 0 -1
2655 1 9.7721586321905036e+00 6.7953278428405737e+00 2.9036523172994194e+01 -1 0 0
4343 1 7.0897817633228390e+00 1.4812567133741261e-01 2.6842701500108902e+01 1 1 0
2329 1 8.8570385803184493e-02 5.8644535283093022e+00 2.5755032014137164e+01 0 0 0
1551 1 9.1260881758293255e+00 1.2211577149301212e+01 2.6585013792031468e+01 0 1 0
2490 1 9.8421204055661260e+00 1.2051397434400558e+01 2.3980048144953049e+01 1 0 0
4235 1 2.2535463498013377e+00 1.8578713006829670e+00 3.0393252033307316e+01 -1 1 1
4778 1 6.2731212685914963e+00 2.8122345218362810e+00 3.0320786932632792e+01 1 0 0
82 1 1.3573268697982117e+00 6.5331283919017977e+00 3.4625510777690700e+01 1 0 0
3342 1 8.3678738395329777e+00 8.8840189200344284e+00 3.0511485621094234e+01 0 1 0
2383 1 1.5070474401335905e+00 5.9411052644503544e+00 2.9781348758968296e+01 0 0 -1
853 1 3.0381698508068338e+00 1.1712377463899941e+01 3.4306603457895491e+01 1 0 -1
2371 1 6.0443820102532779e+00 7.4243861758656280e+00 3.0432903343835196e+01 0 1 0
2637 1 3.8894283224413568e+00 6.1926826979087988e+00 3.4146116486611675e+01 0 0 0
2465 1 6.6750255366063627e+00 5.0491034761094982e+00 3.1658919968588691e+01 1 1 0
839 1 3.4662375941163135e+00 7.0176312209529881e+00 3.1495019599614825e+01 0 0 0
1000 1 7.3461455625114143e+00 9.8427798533084818e+00 3.4778032422486255e+01 0 -1 1
3208 1 8.4136138340377080e+00 4.5474026099822638e+00 3.4591082337739756e+01 1 -1 1
3287 1 3.2885026490992737e+00 9.7373561452297892e+00 3.2069166960382539e+01 0 1 0
4118 1 6.2470766350127649e+00 9.8423436266014228e+00 3.2377659139641935e+01 1 -1 -1
818 1 9.5141499483591492e+00 7.4551466232819870e+00 3.3063626534044985e+01 -1 1 -1
4964 1 2.1228869184949191e+00 2.3540036927789423e+00 3.7632868621355165e+01 0 1 -1
4285 1 9.3669874385929557e+00 4.9757420168427409e+00 3.1957581757358128e+01 1 1 1
997 1 1.9711783790034025e+00 2.0871484337775157e+00 3.4736273776019090e+01 2 -1 1
3368 1 8.4542265648432924e+00 1.1007162313271717e+00 3.3672570909846058e+01 0 0 0
795 1 6.6077701850481905e+00 1.3716194435301188e+00 3.5713973265454577e+01 1 0 0
4152 1 4.0636665218819984e-01 4.1024051412373623e+00 3.3553875854508604e+01 -1 1 0
742 1 7.2737326726560125e+00 2.6832132783615585e+00 3.8468126550210862e+01 0 0 0
4113 1 6.2930329573267549e+00 1.0207109029362416e+01 3.8495930017178338e+01 -1 1 0
811 1 3.9817842259924103e+00 2.7247503511459468e+00 3.2825519418061717e+01 0 1 -1
1590 1 3.1409326586182420e+00 4.8144894164117575e+00 3.8471232461507739e+01 0 0 -1
1562 1 4.2811671456083200e-01 3.7521081320716063e+00 3.0987246637896416e+01 0 0 -1
678 1 6.1154330046633065e-01 9.8169061252181926e+00 3.1418572947412315e+01 2 0 0
3221 1 1.2208958490441095e+00 1.0630401747672227e+01 3.7969781217746458e+01 0 -1 0
3991 1 5.8493789018804021e+00 4.0114124155369622e+00 3.5081211350506543e+01 2 -1 0
1725 1 6.8695398408824628e+00 7.4192172848440565e+00 3.8447156013731188e+01 1 0 0
3237 1 5.6056805516400310e+00 4.8007947986583055e+00 3.7822515889937527e+01 -1 0 -1
4009 1 2.7718645115663381e+00 8.3352191266186360e+00 3.8089630889721597e+01 -1 1 0
2694 1 8.7291396799827812e+00 1.7101314819275752e+00 3.0473732106307821e+01 1 0 0
3317 1 4.7143006807063035e+00 8.0981041633262603e+00 3.6072562947026789e+01 1 -1 0
2417 1 1.1415081983843134e+00 6.2562234090784647e+00 3.7373764780981702e+01 0 0 0
4974 1 5.2333512203938124e+00 1.1426185086883713e+01 3.5985450280754343e+01 0 1 0
4003 1 3.7381466591134180e+00 1.1329369129400336e+01 3.0055940540759504e+01 2 0 0
959 1 7.8605581804299156e+00 7.0814600868031317e+00 3.5540153040168825e+01 1 1 1
116 1 4.7296881740313201e-01 1.0608093372330812e+01 3.5331629769005225e+01 -1 0 0
4868 1 5.4540874083229465e+00 4.3513938292174842e-01 3.1602943475667644e+01 1 1 0
797 1 9.7206477669175495e+00 7.6173523054486783e+00 3.8299270239754861e+01 0 1 0
2398 1 8.5454763148248052e+00 1.1992495164765520e+01 3.8475364104470813e+01 0 1 0
3507 1 3.8174112636071569e+00 8.6573897207679051e-02 3.8108469516297710e+01 0 1 0
3408 1 4.0011762964315034e+00 1.4828625176848773e-01 3.5454843963959306e+01 0 0 0
4947 1 9.1802031597584435e+00 1.1846619245637184e+01 3.5651013317179533e+01 1 0 -1
2528 1 6.5699213222787343e+00 5.3769238665140051e-02 3.8479681319093203e+01 2 1 -1
181 2 0.0000000000000000e+00 1.2787731112280996e+01 3.1217761619746547e+00 0 0 0
183 2 1.2305000000000001e+00 1.3498160618518829e+01 3.1217761619746547e+00 0 0 0
218 2 2.4610000000000003e+00 1.2787731112280996e+01 3.1217761619746547e+00 0 0 0
220 2 3.6915000000000004e+00 1.3498160618518829e+01 3.1217761619746547e+00 0 0 0
179 2 0.0000000000000000e+00 1.5629449137232333e+01 3.1217761619746547e+00 0 0 0
214 2 1.2305000000000001e+00 1.4919019630994494e+01 3.1217761619746547e+00 0 0 0
216 2 2.4610000000000003e+00 1.5629449137232328e+01 3.1217761619746547e+00 0 0 0
259 2 3.6915000000000004e+00 1.4919019630994494e+01 3.1217761619746547e+00 0 0 0
263 2 4.9220000000000006e+00 1.2787731112280996e+01 3.1217761619746547e+00 0 0 0
265 2 6.1524999999999990e+00 1.3498160618518829e+01 3.1217761619746547e+00 0 0 0
310 2 7.3829999999999991e+00 1.2787731112280996e+01 3.1217761619746547e+00 0 0 0
312 2 8.6135000000000002e+00 1.3498160618518835e+01 3.1217761619746547e+00 0 0 0
261 2 4.9220000000000006e+00 1.5629449137232333e+01 3.1217761619746547e+00 0 0 0
306 2 6.1524999999999990e+00 1.4919019630994494e+01 3.1217761619746547e+00 0 0 0
308 2 7.3829999999999991e+00 1.5629449137232333e+01 3.1217761619746547e+00 0 0 0
353 2 8.6135000000000002e+00 1.4919019630994494e+01 3.1217761619746547e+00 0 0 0
210 2 0.0000000000000000e+00 1.7050308149707998e+01 3.1217761619746547e+00 0 0 0
255 2 2.4610000000000003e+00 1.7050308149707998e+01 3.1217761619746547e+00 0 0 0
208 2 0.0000000000000000e+00 1.9892026174659328e+01 3.1217761619746547e+00 0 0 0
212 2 1.2305000000000001e+00 1.7760737655945832e+01 3.1217761619746547e+00 0 0 0
251 2 1.2305000000000001e+00 1.9181596668421495e+01 3.1217761619746547e+00 0 0 0
253 2 2.4610000000000003e+00 1.9892026174659328e+01 3.1217761619746547e+00 0 0 0
257 2 3.6914999999999996e+00 1.7760737655945832e+01 3.1217761619746547e+00 0 0 0
298 2 3.6914999999999996e+00 1.9181596668421495e+01 3.1217761619746547e+00 0 0 0
302 2 4.9220000000000006e+00 1.7050308149707998e+01 3.1217761619746547e+00 0 0 0
349 2 7.3830000000000009e+00 1.7050308149707998e+01 3.1217761619746547e+00 0 0 0
300 2 4.9220000000000006e+00 1.9892026174659328e+01 3.1217761619746547e+00 0 0 0
304 2 6.1524999999999999e+00 1.7760737655945832e+01 3.1217761619746547e+00 0 0 0
345 2 6.1524999999999999e+00 1.9181596668421495e+01 3.1217761619746547e+00 0 0 0
347 2 7.3829999999999991e+00 1.9892026174659328e+01 3.1217761619746547e+00 0 0 0
351 2 8.6134999999999984e+00 1.7760737655945832e+01 3.1217761619746547e+00 0 0 0
387 2 8.6135000000000002e+00 1.9181596668421495e+01 3.1217761619746547e+00 0 0 0
245 2 0.0000000000000000e+00 2.4154603212086325e+01 3.1217761619746547e+00 0 0 0
247 2 0.0000000000000000e+00 2.1312885187134999e+01 3.1217761619746547e+00 0 0 0
249 2 1.2304999999999993e+00 2.2023314693372832e+01 3.1217761619746547e+00 0 0 0
290 2 1.2304999999999993e+00 2.3444173705848499e+01 3.1217761619746547e+00 0 0 0
292 2 2.4610000000000003e+00 2.4154603212086325e+01 3.1217761619746547e+00 0 0 0
294 2 2.4610000000000003e+00 2.1312885187134995e+01 3.1217761619746547e+00 0 0 0
296 2 3.6914999999999996e+00 2.2023314693372832e+01 3.1217761619746547e+00 0 0 0
337 2 3.6915000000000004e+00 2.3444173705848499e+01 3.1217761619746547e+00 0 0 0
339 2 4.9220000000000006e+00 2.4154603212086325e+01 3.1217761619746547e+00 0 0 0
341 2 4.9220000000000006e+00 2.1312885187134995e+01 3.1217761619746547e+00 0 0 0
343 2 6.1524999999999990e+00 2.2023314693372832e+01 3.1217761619746547e+00 0 0 0
379 2 6.1524999999999999e+00 2.3444173705848499e+01 3.1217761619746547e+00 0 0 0
381 2 7.3830000000000009e+00 2.4154603212086336e+01 3.1217761619746547e+00 0 0 0
383 2 7.3829999999999991e+00 2.1312885187134999e+01 3.1217761619746547e+00 0 0 0
385 2 8.6135000000000002e+00 2.2023314693372832e+01 3.1217761619746547e+00 0 0 0
413 2 8.6134999999999984e+00 2.3444173705848499e+01 3.1217761619746547e+00 0 0 0
182 2 0.0000000000000000e+00 1.2787731112280996e+01 6.2113118686131861e+00 0 0 0
219 2 2.4610000000000003e+00 1.2787731112280996e+01 6.2113118686131861e+00 0 0 0
180 2 0.0000000000000000e+00 1.4208590124756663e+01 6.2113118686131861e+00 0 0 0
215 2 1.2305000000000001e+00 1.4919019630994494e+01 6.2113118686131861e+00 0 0 0
217 2 2.4610000000000003e+00 1.4208590124756663e+01 6.2113118686131861e+00 0 0 0
260 2 3.6915000000000004e+00 1.4919019630994494e+01 6.2113118686131861e+00 0 0 0
491 2 0.0000000000000000e+00 1.2787731112280996e+01 9.3008475752516340e+00 0 0 0
492 2 1.2305000000000001e+00 1.3498160618518829e+01 9.3008475752516340e+00 0 0 0
510 2 2.4610000000000003e+00 1.2787731112280996e+01 9.3008475752516340e+00 0 0 0
511 2 3.6915000000000004e+00 1.3498160618518829e+01 9.3008475752516340e+00 0 0 0
490 2 0.0000000000000000e+00 1.5629449137232333e+01 9.3008475752516340e+00 0 0 0
508 2 1.2305000000000001e+00 1.4919019630994494e+01 9.3008475752516340e+00 0 0 0
509 2 2.4610000000000003e+00 1.5629449137232328e+01 9.3008475752516340e+00 0 0 0
531 2 3.6915000000000004e+00 1.4919019630994494e+01 9.3008475752516340e+00 0 0 0
264 2 4.9220000000000006e+00 1.2787731112280996e+01 6.2113118686131861e+00 0 0 0
311 2 7.3829999999999991e+00 1.2787731112280996e+01 6.2113118686131861e+00 0 0 0
262 2 4.9220000000000006e+00 1.4208590124756663e+01 6.2113118686131861e+00 0 0 0
307 2 6.1524999999999990e+00 1.4919019630994494e+01 6.2113118686131861e+00 0 0 0
309 2 7.3830000000000009e+00 1.4208590124756663e+01 6.2113118686131861e+00 0 0 0
354 2 8.6135000000000002e+00 1.4919019630994494e+01 6.2113118686131861e+00 0 0 0
533 2 4.9220000000000006e+00 1.2787731112280996e+01 9.3008475752516340e+00 0 0 0
534 2 6.1524999999999990e+00 1.3498160618518829e+01 9.3008475752516340e+00 0 0 0
557 2 7.3829999999999991e+00 1.2787731112280996e+01 9.3008475752516340e+00 0 0 0
558 2 8.6135000000000002e+00 1.3498160618518835e+01 9.3008475752516340e+00 0 0 0
532 2 4.9220000000000006e+00 1.5629449137232333e+01 9.3008475752516340e+00 0 0 0
555 2 6.1524999999999990e+00 1.4919019630994494e+01 9.3008475752516340e+00 0 0 0
556 2 7.3829999999999991e+00 1.5629449137232333e+01 9.3008475752516340e+00 0 0 0
579 2 8.6135000000000002e+00 1.4919019630994494e+01 9.3008475752516340e+00 0 0 0
211 2 0.0000000000000000e+00 1.7050308149707998e+01 6.2113118686131861e+00 0 0 0
213 2 1.2305000000000001e+00 1.6339878643470165e+01 6.2113118686131861e+00 0 0 0
256 2 2.4610000000000003e+00 1.7050308149707998e+01 6.2113118686131861e+00 0 0 0
258 2 3.6915000000000004e+00 1.6339878643470165e+01 6.2113118686131861e+00 0 0 0
209 2 0.0000000000000000e+00 1.8471167162183658e+01 6.2113118686131861e+00 0 0 0
252 2 1.2305000000000001e+00 1.9181596668421495e+01 6.2113118686131861e+00 0 0 0
254 2 2.4610000000000003e+00 1.8471167162183658e+01 6.2113118686131861e+00 0 0 0
299 2 3.6914999999999996e+00 1.9181596668421495e+01 6.2113118686131861e+00 0 0 0
506 2 0.0000000000000000e+00 1.7050308149707998e+01 9.3008475752516340e+00 0 0 0
529 2 2.4610000000000003e+00 1.7050308149707998e+01 9.3008475752516340e+00 0 0 0
505 2 0.0000000000000000e+00 1.9892026174659328e+01 9.3008475752516340e+00 0 0 0
507 2 1.2305000000000001e+00 1.7760737655945832e+01 9.3008475752516340e+00 0 0 0
527 2 1.2305000000000001e+00 1.9181596668421495e+01 9.3008475752516340e+00 0 0 0
528 2 2.4610000000000003e+00 1.9892026174659328e+01 9.3008475752516340e+00 0 0 0
530 2 3.6914999999999996e+00 1.7760737655945832e+01 9.3008475752516340e+00 0 0 0
551 2 3.6914999999999996e+00 1.9181596668421495e+01 9.3008475752516340e+00 0 0 0
303 2 4.9220000000000006e+00 1.7050308149707998e+01 6.2113118686131861e+00 0 0 0
305 2 6.1524999999999999e+00 1.6339878643470165e+01 6.2113118686131861e+00 0 0 0
350 2 7.3830000000000009e+00 1.7050308149707998e+01 6.2113118686131861e+00 0 0 0
352 2 8.6134999999999984e+00 1.6339878643470165e+01 6.2113118686131861e+00 0 0 0
301 2 4.9220000000000006e+00 1.8471167162183658e+01 6.2113118686131861e+00 0 0 0
346 2 6.1524999999999999e+00 1.9181596668421495e+01 6.2113118686131861e+00 0 0 0
348 2 7.3829999999999991e+00 1.8471167162183658e+01 6.2113118686131861e+00 0 0 0
388 2 8.6135000000000002e+00 1.9181596668421495e+01 6.2113118686131861e+00 0 0 0
553 2 4.9220000000000006e+00 1.7050308149707998e+01 9.3008475752516340e+00 0 0 0
577 2 7.3830000000000009e+00 1.7050308149707998e+01 9.3008475752516340e+00 0 0 0