LAMMPS data file via write_data, version 16 Mar 2018, timestep = 100000

5021 atoms
2 atom types

0.0000000000000000e+00 4.9219999999999999e+01 xlo xhi
0.0000000000000000e+00 4.9019635930410494e+01 ylo yhi
1.4218620972175913e+00 3.8578137902784427e+01 zlo zhi

Masses

1 18.015
2 12.01

Atoms # atomic

201 2 0.0000000000000000e+00 2.8417180249513345e+00 3.1101328149757785e+00 0 0 0
203 2 0.0000000000000000e+00 0.0000000000000000e+00 3.1101328149757785e+00 0 0 0
205 2 1.2305000000000001e+00 7.1042950623783474e-01 3.1101328149757785e+00 0 0 0
212 2 1.2305000000000001e+00 2.1312885187134998e+00 3.1101328149757785e+00 0 0 0
214 2 2.4610000000000003e+00 2.8417180249513345e+00 3.1101328149757785e+00 0 0 0
216 2 2.4610000000000003e+00 0.0000000000000000e+00 3.1101328149757785e+00 0 0 0
218 2 3.6915000000000004e+00 7.1042950623783474e-01 3.1101328149757785e+00 0 0 0
233 2 3.6914999999999996e+00 2.1312885187134998e+00 3.1101328149757785e+00 0 0 0
235 2 4.9220000000000006e+00 2.8417180249513332e+00 3.1101328149757785e+00 0 0 0
237 2 4.9220000000000006e+00 0.0000000000000000e+00 3.1101328149757785e+00 0 0 0
239 2 6.1524999999999999e+00 7.1042950623783407e-01 3.1101328149757785e+00 0 0 0
262 2 6.1524999999999999e+00 2.1312885187134989e+00 3.1101328149757785e+00 0 0 0
264 2 7.3829999999999991e+00 2.8417180249513345e+00 3.1101328149757785e+00 0 0 0
266 2 7.3829999999999991e+00 0.0000000000000000e+00 3.1101328149757785e+00 0 0 0
268 2 8.6134999999999984e+00 7.1042950623783407e-01 3.1101328149757785e+00 0 0 0
299 2 8.6134999999999984e+00 2.1312885187135002e+00 3.1101328149757785e+00 0 0 0
208 2 0.0000000000000000e+00 4.2625770374269996e+00 3.1101328149757785e+00 0 0 0
210 2 1.2305000000000001e+00 4.9730065436648339e+00 3.1101328149757785e+00 0 0 0
225 2 1.2305000000000001e+00 6.3938655561404980e+00 3.1101328149757785e+00 0 0 0
229 2 2.4610000000000003e+00 4.2625770374269996e+00 3.1101328149757785e+00 0 0 0
231 2 3.6914999999999996e+00 4.9730065436648339e+00 3.1101328149757785e+00 0 0 0
254 2 3.6914999999999996e+00 6.3938655561404980e+00 3.1101328149757785e+00 0 0 0
206 2 0.0000000000000000e+00 7.1042950623783341e+00 3.1101328149757785e+00 0 0 0
227 2 2.4610000000000003e+00 7.1042950623783341e+00 3.1101328149757785e+00 0 0 0
258 2 4.9220000000000006e+00 4.2625770374269978e+00 3.1101328149757785e+00 0 0 0
260 2 6.1524999999999999e+00 4.9730065436648339e+00 3.1101328149757785e+00 0 0 0
291 2 6.1524999999999999e+00 6.3938655561404980e+00 3.1101328149757785e+00 0 0 0
295 2 7.3829999999999991e+00 4.2625770374269996e+00 3.1101328149757785e+00 0 0 0
297 2 8.6135000000000002e+00 4.9730065436648339e+00 3.1101328149757785e+00 0 0 0
336 2 8.6135000000000002e+00 6.3938655561404980e+00 3.1101328149757785e+00 0 0 0
256 2 4.9220000000000006e+00 7.1042950623783341e+00 3.1101328149757785e+00 0 0 0
293 2 7.3830000000000009e+00 7.1042950623783341e+00 3.1101328149757785e+00 0 0 0
221 2 0.0000000000000000e+00 8.5251540748539991e+00 3.1101328149757785e+00 0 0 0
223 2 1.2305000000000001e+00 9.2355835810918343e+00 3.1101328149757785e+00 0 0 0
250 2 2.4610000000000003e+00 8.5251540748539991e+00 3.1101328149757785e+00 0 0 0
252 2 3.6915000000000004e+00 9.2355835810918343e+00 3.1101328149757785e+00 0 0 0
219 2 0.0000000000000000e+00 1.1366872099805333e+01 3.1101328149757785e+00 0 0 0
246 2 1.2305000000000001e+00 1.0656442593567498e+01 3.1101328149757785e+00 0 0 0
248 2 2.4610000000000003e+00 1.1366872099805333e+01 3.1101328149757785e+00 0 0 0
283 2 3.6914999999999996e+00 1.0656442593567499e+01 3.1101328149757785e+00 0 0 0
287 2 4.9220000000000006e+00 8.5251540748539991e+00 3.1101328149757785e+00 0 0 0
289 2 6.1524999999999999e+00 9.2355835810918343e+00 3.1101328149757785e+00 0 0 0
332 2 7.3830000000000009e+00 8.5251540748539991e+00 3.1101328149757785e+00 0 0 0
334 2 8.6134999999999984e+00 9.2355835810918343e+00 3.1101328149757785e+00 0 0 0
285 2 4.9220000000000006e+00 1.1366872099805333e+01 3.1101328149757785e+00 0 0 0
328 2 6.1524999999999999e+00 1.0656442593567499e+01 3.1101328149757785e+00 0 0 0
330 2 7.3829999999999991e+00 1.1366872099805333e+01 3.1101328149757785e+00 0 0 0
375 2 8.6134999999999984e+00 1.0656442593567498e+01 3.1101328149757785e+00 0 0 0
202 2 0.0000000000000000e+00 1.4208590124756650e+00 6.2017998203009794e+00 0 0 0
204 2 0.0000000000000000e+00 0.0000000000000000e+00 6.2017998203009794e+00 0 0 0
213 2 1.2305000000000001e+00 2.1312885187134998e+00 6.2017998203009794e+00 0 0 0
215 2 2.4610000000000003e+00 1.4208590124756650e+00 6.2017998203009794e+00 0 0 0
217 2 2.4610000000000003e+00 0.0000000000000000e+00 6.2017998203009794e+00 0 0 0
234 2 3.6914999999999996e+00 2.1312885187134998e+00 6.2017998203009794e+00 0 0 0
211 2 1.2305000000000001e+00 3.5521475311891644e+00 6.2017998203009794e+00 0 0 0
232 2 3.6914999999999996e+00 3.5521475311891644e+00 6.2017998203009794e+00 0 0 0
530 2 0.0000000000000000e+00 2.8417180249513345e+00 9.2934668256260604e+00 0 0 0
531 2 0.0000000000000000e+00 0.0000000000000000e+00 9.2934668256260604e+00 0 0 0
532 2 1.2305000000000001e+00 7.1042950623783474e-01 9.2934668256260604e+00 0 0 0
536 2 1.2305000000000001e+00 2.1312885187134998e+00 9.2934668256260604e+00 0 0 0
537 2 2.4610000000000003e+00 2.8417180249513345e+00 9.2934668256260604e+00 0 0 0
538 2 2.4610000000000003e+00 0.0000000000000000e+00 9.2934668256260604e+00 0 0 0
539 2 3.6915000000000004e+00 7.1042950623783474e-01 9.2934668256260604e+00 0 0 0
547 2 3.6914999999999996e+00 2.1312885187134998e+00 9.2934668256260604e+00 0 0 0
236 2 4.9220000000000006e+00 1.4208590124756650e+00 6.2017998203009794e+00 0 0 0
238 2 4.9220000000000006e+00 0.0000000000000000e+00 6.2017998203009794e+00 0 0 0
263 2 6.1524999999999999e+00 2.1312885187134989e+00 6.2017998203009794e+00 0 0 0
265 2 7.3829999999999991e+00 1.4208590124756659e+00 6.2017998203009794e+00 0 0 0
267 2 7.3829999999999991e+00 0.0000000000000000e+00 6.2017998203009794e+00 0 0 0
300 2 8.6134999999999984e+00 2.1312885187135002e+00 6.2017998203009794e+00 0 0 0
261 2 6.1524999999999999e+00 3.5521475311891644e+00 6.2017998203009794e+00 0 0 0
298 2 8.6134999999999984e+00 3.5521475311891657e+00 6.2017998203009794e+00 0 0 0
548 2 4.9220000000000006e+00 2.8417180249513332e+00 9.2934668256260604e+00 0 0 0
549 2 4.9220000000000006e+00 0.0000000000000000e+00 9.2934668256260604e+00 0 0 0
550 2 6.1524999999999999e+00 7.1042950623783407e-01 9.2934668256260604e+00 0 0 0
562 2 6.1524999999999999e+00 2.1312885187134989e+00 9.2934668256260604e+00 0 0 0
563 2 7.3829999999999991e+00 2.8417180249513345e+00 9.2934668256260604e+00 0 0 0
564 2 7.3829999999999991e+00 0.0000000000000000e+00 9.2934668256260604e+00 0 0 0
565 2 8.6134999999999984e+00 7.1042950623783407e-01 9.2934668256260604e+00 0 0 0
581 2 8.6134999999999984e+00 2.1312885187135002e+00 9.2934668256260604e+00 0 0 0
207 2 0.0000000000000000e+00 5.6834360499026637e+00 6.2017998203009794e+00 0 0 0
209 2 0.0000000000000000e+00 4.2625770374269996e+00 6.2017998203009794e+00 0 0 0
226 2 1.2305000000000001e+00 6.3938655561404980e+00 6.2017998203009794e+00 0 0 0
228 2 2.4610000000000003e+00 5.6834360499026637e+00 6.2017998203009794e+00 0 0 0
230 2 2.4610000000000003e+00 4.2625770374269996e+00 6.2017998203009794e+00 0 0 0
255 2 3.6914999999999996e+00 6.3938655561404980e+00 6.2017998203009794e+00 0 0 0
224 2 1.2305000000000001e+00 7.8147245686161639e+00 6.2017998203009794e+00 0 0 0
253 2 3.6914999999999996e+00 7.8147245686161639e+00 6.2017998203009794e+00 0 0 0
534 2 0.0000000000000000e+00 4.2625770374269996e+00 9.2934668256260604e+00 0 0 0
535 2 1.2305000000000001e+00 4.9730065436648339e+00 9.2934668256260604e+00 0 0 0
543 2 1.2305000000000001e+00 6.3938655561404980e+00 9.2934668256260604e+00 0 0 0
545 2 2.4610000000000003e+00 4.2625770374269996e+00 9.2934668256260604e+00 0 0 0
546 2 3.6914999999999996e+00 4.9730065436648339e+00 9.2934668256260604e+00 0 0 0
558 2 3.6914999999999996e+00 6.3938655561404980e+00 9.2934668256260604e+00 0 0 0
533 2 0.0000000000000000e+00 7.1042950623783341e+00 9.2934668256260604e+00 0 0 0
544 2 2.4610000000000003e+00 7.1042950623783341e+00 9.2934668256260604e+00 0 0 0
257 2 4.9220000000000006e+00 5.6834360499026637e+00 6.2017998203009794e+00 0 0 0
259 2 4.9220000000000006e+00 4.2625770374269978e+00 6.2017998203009794e+00 0 0 0
292 2 6.1524999999999999e+00 6.3938655561404980e+00 6.2017998203009794e+00 0 0 0
294 2 7.3829999999999991e+00 5.6834360499026637e+00 6.2017998203009794e+00 0 0 0
296 2 7.3829999999999991e+00 4.2625770374269996e+00 6.2017998203009794e+00 0 0 0
337 2 8.6135000000000002e+00 6.3938655561404980e+00 6.2017998203009794e+00 0 0 0
290 2 6.1524999999999999e+00 7.8147245686161639e+00 6.2017998203009794e+00 0 0 0
335 2 8.6135000000000002e+00 7.8147245686161639e+00 6.2017998203009794e+00 0 0 0
560 2 4.9220000000000006e+00 4.2625770374269978e+00 9.2934668256260604e+00 0 0 0
561 2 6.1524999999999999e+00 4.9730065436648339e+00 9.2934668256260604e+00 0 0 0
577 2 6.1524999999999999e+00 6.3938655561404980e+00 9.2934668256260604e+00 0 0 0
579 2 7.3829999999999991e+00 4.2625770374269996e+00 9.2934668256260604e+00 0 0 0
580 2 8.6135000000000002e+00 4.9730065436648339e+00 9.2934668256260604e+00 0 0 0
600 2 8.6135000000000002e+00 6.3938655561404980e+00 9.2934668256260604e+00 0 0 0
559 2 4.9220000000000006e+00 7.1042950623783341e+00 9.2934668256260604e+00 0 0 0
578 2 7.3830000000000009e+00 7.1042950623783341e+00 9.2934668256260604e+00 0 0 0
220 2 0.0000000000000000e+00 9.9460130873296642e+00 6.2017998203009794e+00 0 0 0
222 2 0.0000000000000000e+00 8.5251540748539991e+00 6.2017998203009794e+00 0 0 0
249 2 2.4610000000000003e+00 9.9460130873296642e+00 6.2017998203009794e+00 0 0 0
251 2 2.4610000000000003e+00 8.5251540748539991e+00 6.2017998203009794e+00 0 0 0
245 2 1.2305000000000001e+00 1.2077301606043163e+01 6.2017998203009794e+00 0 0 0
247 2 1.2305000000000001e+00 1.0656442593567498e+01 6.2017998203009794e+00 0 0 0
282 2 3.6914999999999996e+00 1.2077301606043163e+01 6.2017998203009794e+00 0 0 0
284 2 3.6914999999999996e+00 1.0656442593567499e+01 6.2017998203009794e+00 0 0 0
541 2 0.0000000000000000e+00 8.5251540748539991e+00 9.2934668256260604e+00 0 0 0
542 2 1.2305000000000001e+00 9.2355835810918343e+00 9.2934668256260604e+00 0 0 0
556 2 2.4610000000000003e+00 8.5251540748539991e+00 9.2934668256260604e+00 0 0 0
557 2 3.6915000000000004e+00 9.2355835810918343e+00 9.2934668256260604e+00 0 0 0
540 2 0.0000000000000000e+00 1.1366872099805333e+01 9.2934668256260604e+00 0 0 0
554 2 1.2305000000000001e+00 1.0656442593567498e+01 9.2934668256260604e+00 0 0 0
555 2 2.4610000000000003e+00 1.1366872099805333e+01 9.2934668256260604e+00 0 0 0
573 2 3.6914999999999996e+00 1.0656442593567499e+01 9.2934668256260604e+00 0 0 0
286 2 4.9220000000000006e+00 9.9460130873296642e+00 6.2017998203009794e+00 0 0 0
288 2 4.9220000000000006e+00 8.5251540748539991e+00 6.2017998203009794e+00 0 0 0
331 2 7.3830000000000009e+00 9.9460130873296642e+00 6.2017998203009794e+00 0 0 0
333 2 7.3830000000000009e+00 8.5251540748539991e+00 6.2017998203009794e+00 0 0 0
327 2 6.1524999999999999e+00 1.2077301606043163e+01 6.2017998203009794e+00 0 0 0
329 2 6.1524999999999999e+00 1.0656442593567499e+01 6.2017998203009794e+00 0 0 0
374 2 8.6135000000000002e+00 1.2077301606043163e+01 6.2017998203009794e+00 0 0 0
376 2 8.6134999999999984e+00 1.0656442593567498e+01 6.2017998203009794e+00 0 0 0
575 2 4.9220000000000006e+00 8.5251540748539991e+00 9.2934668256260604e+00 0 0 0
576 2 6.1524999999999999e+00 9.2355835810918343e+00 9.2934668256260604e+00 0 0 0
598 2 7.3830000000000009e+00 8.5251540748539991e+00 9.2934668256260604e+00 0 0 0
599 2 8.6134999999999984e+00 9.2355835810918343e+00 9.2934668256260604e+00 0 0 0
574 2 4.9220000000000006e+00 1.1366872099805333e+01 9.2934668256260604e+00 0 0 0
596 2 6.1524999999999999e+00 1.0656442593567499e+01 9.2934668256260604e+00 0 0 0
597 2 7.3829999999999991e+00 1.1366872099805333e+01 9.2934668256260604e+00 0 0 0
620 2 8.6134999999999984e+00 1.0656442593567498e+01 9.2934668256260604e+00 0 0 0
1030 1 2.2282884855608471e+00 5.3279173422126966e+00 1.4809364100360945e+01 0 0 -1
2449 1 5.8155300850379801e+00 1.7686285039765732e+00 1.1719069091516246e+01 0 1 -1
4750 1 3.5544896374522628e+00 1.0772495466083829e+00 1.4938527255642821e+01 0 1 0
3634 1 4.9830421373113420e+00 4.6044542487553386e+00 1.1879296635769437e+01 2 0 -1
2274 1 6.0598928095239648e+00 1.5000972705773405e+00 1.9765803009828311e+01 1 0 0
1146 1 8.2618165561751109e+00 2.1264104093619483e+00 1.4764599068206481e+01 1 1 -1
3780 1 8.8015322879699323e+00 2.0738578022659064e+00 1.1739571536531640e+01 0 0 -1
1258 1 5.5938944755545092e+00 2.9125399470065214e+00 1.4331149787574038e+01 0 0 0
1187 1 2.7977529892142421e+00 1.3845139863029203e+00 1.2269587602111176e+01 1 0 0
4919 1 2.5212728897908012e+00 5.7937624540503734e+00 1.2145844642181036e+01 0 0 -1
3779 1 2.6319958222894111e+00 8.5516068207763851e+00 1.1840706234767991e+01 1 1 0
2480 1 2.2676238654872849e+00 8.2811516218053338e+00 1.4846179075498094e+01 1 1 0
1270 1 5.4909557621080243e+00 9.2594259273883175e+00 1.1900964105877700e+01 0 0 0
1209 1 4.3630248432244318e+00 1.0062190727126870e+01 1.4701722425689724e+01 2 0 0
4664 1 9.2111355148098948e+00 9.4868120687782582e+00 1.9919755678810869e+01 0 0 0
3918 1 6.5493490882895902e+00 6.8872064191635030e+00 1.2692156722103332e+01 1 0 0
1173 1 6.9503088591148403e+00 6.8926142132556558e+00 1.5556623842966113e+01 1 0 -1
9 1 8.8543999944059184e+00 6.7858742174883684e+00 1.1745302064150842e+01 0 0 0
3844 1 4.0081789911138205e-01 6.5078741986252648e+00 1.8522644358742607e+01 1 1 0
2252 1 8.0440529812674821e+00 1.1637164043603486e+01 1.4641068707534936e+01 1 1 0
2333 1 5.0110325708671271e+00 9.0786835355439059e+00 1.9340240992775790e+01 0 0 1
3959 1 9.7412947212531780e+00 7.4801248143844026e+00 1.5451522605722870e+01 1 1 1
4889 1 8.4850922516931906e+00 1.0523098550345949e+01 1.1970148089898437e+01 1 1 0
4935 1 9.1586723708203142e+00 9.8989016711506252e+00 1.7167406861573141e+01 -1 0 0
1263 1 6.8853903245093850e-01 1.2641692356315453e+00 1.6219219571838117e+01 -1 0 0
4675 1 8.2248287002302600e+00 1.1926708201983025e+00 1.7573547290483496e+01 1 1 0
1167 1 4.7053579278865909e+00 4.4044196867710594e+00 1.9161758727039146e+01 0 1 0
2466 1 4.7432554815670249e+00 4.9382529363392171e+00 1.6496479449262942e+01 1 1 0
3875 1 3.2903146764763984e+00 7.5728819127072855e+00 1.7316907930253780e+01 0 1 0
188 1 6.2063412398517821e+00 9.2789432572674624e+00 1.6501030469833573e+01 0 1 0
2316 1 2.5436409620121374e+00 1.0419049861078427e+01 1.7446555597918096e+01 1 1 0
1325 1 5.7394613424822243e+00 1.2237042659889260e+01 1.2538060399575308e+01 0 0 0
2468 1 2.7367306703599126e+00 1.9718764597962615e+00 2.4250202908080709e+01 0 0 -1
3576 1 1.6835214996075436e+00 4.0729741347255910e+00 2.1974745927769206e+01 1 1 0
1248 1 3.4728484107512063e+00 1.0321922859670594e-01 2.2249477291593127e+01 -1 0 1
2639 1 6.0990105265669374e+00 3.3640136670571402e-01 2.2203282089110104e+01 0 0 0
4721 1 6.7621831477377610e+00 2.3271535935688927e+00 2.4143715692232902e+01 0 1 0
1422 1 2.9076284413004863e+00 1.9027655599672675e+00 2.0181517052728797e+01 -1 -1 0
3407 1 2.6293504255132887e+00 6.1549847625766922e+00 2.0104477896974707e+01 1 1 0
139 1 2.0423305038987185e+00 8.6382619830856626e+00 2.3990734461671281e+01 -1 0 1
91 1 3.6793037486114128e+00 7.7546555214223165e+00 2.2206598234833841e+01 0 0 0
5002 1 7.2596986093751221e+00 5.1169468848715542e+00 2.0448736576531314e+01 1 0 -1
1060 1 7.1363453932968079e+00 7.9519072706948322e+00 2.0659957939658465e+01 0 0 0
3561 1 7.8304856061856905e+00 7.9416177338066412e+00 2.3156514668875303e+01 0 0 0
146 1 7.1734259938139182e+00 5.0364679691677470e+00 2.3282176870714661e+01 1 0 1
1026 1 6.5122623279938374e-01 4.7718271920537330e+00 2.4519595966526925e+01 1 0 0
4804 1 9.1947244728317088e+00 1.4203538173847028e+00 2.5529708317810837e+01 1 1 -1
3874 1 7.3788101650744711e+00 1.1073556473591495e+01 2.3920988123747399e+01 0 0 0
4907 1 5.0700921306387166e+00 1.0964077840235637e+01 2.2127401636325644e+01 0 0 0
1094 1 7.9541539099643943e+00 1.1402928508891630e+01 2.7173611561678072e+01 0 0 -1
1255 1 3.2329392000515451e+00 1.1526226365787604e+01 2.4409517106956603e+01 1 1 -1
928 1 4.6797928196135947e+00 3.0024373732304754e+00 2.5905157254388971e+01 1 0 1
4936 1 3.0052159734089350e+00 5.1508886890425689e+00 2.6192379789714778e+01 0 0 0
4884 1 8.5542763907926052e+00 8.1015535855193335e+00 2.7834814723905932e+01 0 -1 0
4937 1 4.1426068530053328e+00 4.9132365657979593e-01 2.7256263207035225e+01 0 1 -1
917 1 2.7847034359928569e+00 1.0634579604129495e+01 2.0180319916081000e+01 0 0 0
2230 1 1.0228832939640708e+00 4.5077184637101606e+00 2.8141068500487620e+01 0 -1 0
3856 1 5.0238437409500314e+00 6.7213189222172502e+00 2.4368659860539811e+01 0 0 0
2569 1 3.1380765114645439e+00 8.1876472901482025e+00 2.6532559108065513e+01 1 0 0
3873 1 3.1860007654217964e-01 9.4132504521922282e+00 2.1618738551032578e+01 1 -1 0
3620 1 6.6948178422504210e+00 8.6857667116078812e+00 2.5892676047029600e+01 0 1 0
1066 1 4.7878287201704239e+00 1.0449926729910059e+01 2.6881091051587120e+01 0 0 0
3878 1 1.0301781066080262e+00 8.9039798623733279e+00 2.8322920438600448e+01 0 1 0
2360 1 1.4256068483891766e+00 7.6331340074523926e-02 2.7295029954394856e+01 1 0 0
3458 1 9.8410854681523272e+00 1.1083820272416352e+01 2.2532444141805676e+01 -1 1 0
1151 1 4.4266492387177090e+00 7.1310937711691569e+00 2.9112228739703234e+01 1 1 -1
4926 1 9.7901664854603965e+00 4.5579027055095551e+00 2.4348582332274709e+01 -1 0 -1
932 1 9.8386392587090761e+00 4.2072173451029409e+00 2.0214348767347364e+01 1 1 -1
3652 1 1.7001009580925843e+00 1.2211852053012819e+01 2.9116364673886640e+01 1 0 -1
4932 1 9.1977339068507771e+00 5.4298225496047454e+00 2.9189910268779677e+01 0 1 -1
3466 1 1.8992909630984705e+00 9.3624016651061903e-01 3.1246061793144438e+01 1 2 0
4631 1 4.4399886061680620e+00 1.1485993074957653e+01 2.9330330698187105e+01 1 0 1
976 1 9.6076116575322352e+00 8.2873635167252537e+00 3.2982202040529351e+01 0 0 -1
1078 1 6.3550742559578595e+00 2.6994059498658323e+00 3.1384479809049576e+01 1 0 0
138 1 1.3544637658654548e+00 1.1091598301255379e+01 3.7647377101616193e+01 1 0 1
2295 1 6.9297932821655817e-01 7.0752701806889267e+00 3.1813497089219052e+01 0 0 0
3794 1 2.8604191893261319e+00 4.2500017595032453e+00 3.3048983691484665e+01 1 0 -1
3681 1 1.9006485235484110e+00 9.3181217520197990e+00 3.0879151460179695e+01 0 1 -1
4800 1 5.5365469126656226e+00 3.7505991869879125e+00 3.4156789543096444e+01 0 1 0
1182 1 8.6845874264280578e+00 1.0256443401553772e+01 3.6483956831226287e+01 0 1 0
3773 1 7.2237672974426612e+00 6.2649060226010453e+00 3.7329208851969156e+01 0 0 0
3696 1 4.9718371784484523e+00 9.2966217452724678e+00 3.1367198097988616e+01 1 1 -1
1039 1 7.3562274756403010e+00 7.5792871807642799e+00 3.4887427888980874e+01 1 1 -1
3524 1 3.5762339700288170e-01 1.1361494374421381e+01 3.1657289041253449e+01 1 0 0
1461 1 4.3517334099441021e+00 1.4921458668629233e+00 2.9787542359907256e+01 0 0 0
943 1 4.8999921613350850e+00 8.6507077576340698e+00 3.4054979779991307e+01 0 0 -1
4731 1 8.9433303545940444e+00 2.8042643084977974e+00 2.9988435141131905e+01 0 1 0
2558 1 1.2928542702538153e+00 2.2898401859443331e+00 3.6796182351770284e+01 1 0 0
3448 1 7.5807696757073888e+00 8.5608501240257393e+00 3.0587426625921388e+01 0 1 0
2331 1 1.6637865281077682e+00 1.9977560096799516e+00 3.3980841393186232e+01 1 1 -1
3974 1 5.9392582161653418e-01 1.0577003325253475e+01 3.4481841034816597e+01 2 0 -1
4735 1 6.6824415323017545e+00 5.9989473796054709e+00 3.0454003362896323e+01 1 0 0
15 1 6.3664859589094389e+00 1.3878918504975912e+00 3.7755460524890161e+01 0 1 0
147 1 5.3656439587272935e+00 4.1108243529684856e+00 3.6944714297505350e+01 1 0 1
2656 1 5.7706315776645711e+00 1.1640923973295099e+00 3.4986481598357166e+01 1 0 1
2470 1 6.0918714913951968e+00 1.2173623075844684e+01 3.1913902659240556e+01 1 0 0
1384 1 2.0756473375332107e+00 7.0608230720223171e+00 3.7461310780267858e+01 1 1 1
4899 1 3.2686048216255266e+00 6.4914230937198756e+00 3.4645472010177002e+01 1 2 0
161 1 2.8733220377074473e+00 4.5238410331939933e+00 3.7894614164495863e+01 0 1 0
187 1 6.2948295007656707e+00 9.0672305084582163e+00 3.7690256290840487e+01 0 0 -1
2486 1 7.7157373417455144e+00 5.2783770859451637e+00 3.3631606621114628e+01 1 1 -1
2339 1 9.0674586361448863e+00 9.1261326292861533e-01 3.4625256057034228e+01 1 1 -1
1377 1 8.0554102512517840e+00 1.0817969211001527e+01 3.3830370521615578e+01 1 0 0
1128 1 3.5327726015587171e+00 9.3080426281918243e+00 3.7536380574753615e+01 0 0 -1
145 1 8.9114460388538319e+00 7.0047284685348665e-01 3.7607216865129061e+01 0 0 0
2561 1 3.3671838197480581e+00 1.0873809701945660e+01 3.5132673462542705e+01 1 0 0
2212 1 2.5037955500558819e+00 5.5326078484556227e+00 3.0485002577814296e+01 0 0 0
1055 1 9.4684430668508597e+00 1.0530526772542153e+01 2.9753448666583118e+01 0 0 0
1441 1 3.3058252173545899e-01 7.6257244691117636e+00 3.4658346462304685e+01 0 3 -1
1193 1 7.0679726583870996e+00 5.3516747947099930e-03 3.2438410710685005e+01 1 2 0
242 2 0.0000000000000000e+00 1.2787731112280996e+01 3.1101328149757785e+00 0 0 0
244 2 1.2305000000000001e+00 1.3498160618518829e+01 3.1101328149757785e+00 0 0 0
279 2 2.4610000000000003e+00 1.2787731112280996e+01 3.1101328149757785e+00 0 0 0
281 2 3.6915000000000004e+00 1.3498160618518829e+01 3.1101328149757785e+00 0 0 0
240 2 0.0000000000000000e+00 1.5629449137232333e+01 3.1101328149757785e+00 0 0 0
275 2 1.2305000000000001e+00 1.4919019630994494e+01 3.1101328149757785e+00 0 0 0
277 2 2.4610000000000003e+00 1.5629449137232328e+01 3.1101328149757785e+00 0 0 0
320 2 3.6915000000000004e+00 1.4919019630994494e+01 3.1101328149757785e+00 0 0 0
324 2 4.9220000000000006e+00 1.2787731112280996e+01 3.1101328149757785e+00 0 0 0
326 2 6.1524999999999990e+00 1.3498160618518829e+01 3.1101328149757785e+00 0 0 0
371 2 7.3829999999999991e+00 1.2787731112280996e+01 3.1101328149757785e+00 0 0 0
373 2 8.6135000000000002e+00 1.3498160618518835e+01 3.1101328149757785e+00 0 0 0
322 2 4.9220000000000006e+00 1.5629449137232333e+01 3.1101328149757785e+00 0 0 0
367 2 6.1524999999999990e+00 1.4919019630994494e+01 3.1101328149757785e+00 0 0 0
369 2 7.3829999999999991e+00 1.5629449137232333e+01 3.1101328149757785e+00 0 0 0
414 2 8.6135000000000002e+00 1.4919019630994494e+01 3.1101328149757785e+00 0 0 0
271 2 0.0000000000000000e+00 1.7050308149707998e+01 3.1101328149757785e+00 0 0 0
316 2 2.4610000000000003e+00 1.7050308149707998e+01 3.1101328149757785e+00 0 0 0
269 2 0.0000000000000000e+00 1.9892026174659328e+01 3.1101328149757785e+00 0 0 0
273 2 1.2305000000000001e+00 1.7760737655945832e+01 3.1101328149757785e+00 0 0 0
312 2 1.2305000000000001e+00 1.9181596668421495e+01 3.1101328149757785e+00 0 0 0
314 2 2.4610000000000003e+00 1.9892026174659328e+01 3.1101328149757785e+00 0 0 0
318 2 3.6914999999999996e+00 1.7760737655945832e+01 3.1101328149757785e+00 0 0 0
359 2 3.6914999999999996e+00 1.9181596668421495e+01 3.1101328149757785e+00 0 0 0
363 2 4.9220000000000006e+00 1.7050308149707998e+01 3.1101328149757785e+00 0 0 0
410 2 7.3830000000000009e+00 1.7050308149707998e+01 3.1101328149757785e+00 0 0 0
361 2 4.9220000000000006e+00 1.9892026174659328e+01 3.1101328149757785e+00 0 0 0
365 2 6.1524999999999999e+00 1.7760737655945832e+01 3.1101328149757785e+00 0 0 0
406 2 6.1524999999999999e+00 1.9181596668421495e+01 3.1101328149757785e+00 0 0 0
408 2 7.3829999999999991e+00 1.9892026174659328e+01 3.1101328149757785e+00 0 0 0
412 2 8.6134999999999984e+00 1.7760737655945832e+01 3.1101328149757785e+00 0 0 0
448 2 8.6135000000000002e+00 1.9181596668421495e+01 3.1101328149757785e+00 0 0 0
306 2 0.0000000000000000e+00 2.4154603212086325e+01 3.1101328149757785e+00 0 0 0
308 2 0.0000000000000000e+00 2.1312885187134999e+01 3.1101328149757785e+00 0 0 0
310 2 1.2304999999999993e+00 2.2023314693372832e+01 3.1101328149757785e+00 0 0 0
351 2 1.2304999999999993e+00 2.3444173705848499e+01 3.1101328149757785e+00 0 0 0
353 2 2.4610000000000003e+00 2.4154603212086325e+01 3.1101328149757785e+00 0 0 0
355 2 2.4610000000000003e+00 2.1312885187134995e+01 3.1101328149757785e+00 0 0 0
357 2 3.6914999999999996e+00 2.2023314693372832e+01 3.1101328149757785e+00 0 0 0
398 2 3.6915000000000004e+00 2.3444173705848499e+01 3.1101328149757785e+00 0 0 0
400 2 4.9220000000000006e+00 2.4154603212086325e+01 3.1101328149757785e+00 0 0 0
402 2 4.9220000000000006e+00 2.1312885187134995e+01 3.1101328149757785e+00 0 0 0
404 2 6.1524999999999990e+00 2.2023314693372832e+01 3.1101328149757785e+00 0 0 0
440 2 6.1524999999999999e+00 2.3444173705848499e+01 3.1101328149757785e+00 0 0 0
442 2 7.3830000000000009e+00 2.4154603212086336e+01 3.1101328149757785e+00 0 0 0
444 2 7.3829999999999991e+00 2.1312885187134999e+01 3.1101328149757785e+00 0 0 0
446 2 8.6135000000000002e+00 2.2023314693372832e+01 3.1101328149757785e+00 0 0 0
474 2 8.6134999999999984e+00 2.3444173705848499e+01 3.1101328149757785e+00 0 0 0
243 2 0.0000000000000000e+00 1.2787731112280996e+01 6.2017998203009794e+00 0 0 0
280 2 2.4610000000000003e+00 1.2787731112280996e+01 6.2017998203009794e+00 0 0 0
241 2 0.0000000000000000e+00 1.4208590124756663e+01 6.2017998203009794e+00 0 0 0
276 2 1.2305000000000001e+00 1.4919019630994494e+01 6.2017998203009794e+00 0 0 0
278 2 2.4610000000000003e+00 1.4208590124756663e+01 6.2017998203009794e+00 0 0 0
321 2 3.6915000000000004e+00 1.4919019630994494e+01 6.2017998203009794e+00 0 0 0
552 2 0.0000000000000000e+00 1.2787731112280996e+01 9.2934668256260604e+00 0 0 0
553 2 1.2305000000000001e+00 1.3498160618518829e+01 9.2934668256260604e+00 0 0 0
571 2 2.4610000000000003e+00 1.2787731112280996e+01 9.2934668256260604e+00 0 0 0
572 2 3.6915000000000004e+00 1.3498160618518829e+01 9.2934668256260604e+00 0 0 0
551 2 0.0000000000000000e+00 1.5629449137232333e+01 9.2934668256260604e+00 0 0 0
569 2 1.2305000000000001e+00 1.4919019630994494e+01 9.2934668256260604e+00 0 0 0
570 2 2.4610000000000003e+00 1.5629449137232328e+01 9.2934668256260604e+00 0 0 0
592 2 3.6915000000000004e+00 1.4919019630994494e+01 9.2934668256260604e+00 0 0 0
325 2 4.9220000000000006e+00 1.2787731112280996e+01 6.2017998203009794e+00 0 0 0
372 2 7.3829999999999991e+00 1.2787731112280996e+01 6.2017998203009794e+00 0 0 0
323 2 4.9220000000000006e+00 1.4208590124756663e+01 6.2017998203009794e+00 0 0 0
368 2 6.1524999999999990e+00 1.4919019630994494e+01 6.2017998203009794e+00 0 0 0
370 2 7.3830000000000009e+00 1.4208590124756663e+01 6.2017998203009794e+00 0 0 0
415 2 8.6135000000000002e+00 1.4919019630994494e+01 6.2017998203009794e+00 0 0 0
594 2 4.9220000000000006e+00 1.2787731112280996e+01 9.2934668256260604e+00 0 0 0
595 2 6.1524999999999990e+00 1.3498160618518829e+01 9.2934668256260604e+00 0 0 0
618 2 7.3829999999999991e+00 1.2787731112280996e+01 9.2934668256260604e+00 0 0 0
619 2 8.6135000000000002e+00 1.3498160618518835e+01 9.2934668256260604e+00 0 0 0
593 2 4.9220000000000006e+00 1.5629449137232333e+01 9.2934668256260604e+00 0 0 0
616 2 6.1524999999999990e+00 1.4919019630994494e+01 9.2934668256260604e+00 0 0 0
617 2 7.3829999999999991e+00 1.5629449137232333e+01 9.2934668256260604e+00 0 0 0
640 2 8.6135000000000002e+00 1.4919019630994494e+01 9.2934668256260604e+00 0 0 0
272 2 0.0000000000000000e+00 1.7050308149707998e+01 6.2017998203009794e+00 0 0 0
274 2 1.2305000000000001e+00 1.6339878643470165e+01 6.2017998203009794e+00 0 0 0
317 2 2.4610000000000003e+00 1.7050308149707998e+01 6.2017998203009794e+00 0 0 0
319 2 3.6915000000000004e+00 1.6339878643470165e+01 6.2017998203009794e+00 0 0 0
270 2 0.0000000000000000e+00 1.8471167162183658e+01 6.2017998203009794e+00 0 0 0
313 2 1.2305000000000001e+00 1.9181596668421495e+01 6.2017998203009794e+00 0 0 0
315 2 2.4610000000000003e+00 1.8471167162183658e+01 6.2017998203009794e+00 0 0 0
360 2 3.6914999999999996e+00 1.9181596668421495e+01 6.2017998203009794e+00 0 0 0
567 2 0.0000000000000000e+00 1.7050308149707998e+01 9.2934668256260604e+00 0 0 0
590 2 2.4610000000000003e+00 1.7050308149707998e+01 9.2934668256260604e+00 0 0 0
566 2 0.0000000000000000e+00 1.9892026174659328e+01 9.2934668256260604e+00 0 0 0
568 2 1.2305000000000001e+00 1.7760737655945832e+01 9.2934668256260604e+00 0 0 0
588 2 1.2305000000000001e+00 1.9181596668421495e+01 9.2934668256260604e+00 0 0 0
589 2 2.4610000000000003e+00 1.9892026174659328e+01 9.2934668256260604e+00 0 0 0
591 2 3.6914999999999996e+00 1.7760737655945832e+01 9.2934668256260604e+00 0 0 0
612 2 3.6914999999999996e+00 1.9181596668421495e+01 9.2934668256260604e+00 0 0 0
364 2 4.9220000000000006e+00 1.7050308149707998e+01 6.2017998203009794e+00 0 0 0
366 2 6.1524999999999999e+00 1.6339878643470165e+01 6.2017998203009794e+00 0 0 0
411 2 7.3830000000000009e+00 1.7050308149707998e+01 6.2017998203009794e+00 0 0 0
413 2 8.6134999999999984e+00 1.6339878643470165e+01 6.2017998203009794e+00 0 0 0
362 2 4.9220000000000006e+00 1.8471167162183658e+01 6.2017998203009794e+00 0 0 0
407 2 6.1524999999999999e+00 1.9181596668421495e+01 6.2017998203009794e+00 0 0 0
409 2 7.3829999999999991e+00 1.8471167162183658e+01 6.2017998203009794e+00 0 0 0
449 2 8.6135000000000002e+00 1.9181596668421495e+01 6.2017998203009794e+00 0 0 0
614 2 4.9220000000000006e+00 1.7050308149707998e+01 9.2934668256260604e+00 0 0 0
638 2 7.3830000000000009e+00 1.7050308149707998e+01 9.2934668256260604e+00 0 0 0
613 2 4.9220000000000006e+00 1.9892026174659328e+01 9.2934668256260604e+00 0 0 0
615 2 6.1524999999999999e+00 1.7760737655945832e+01 9.2934668256260604e+00 0 0 0
636 2 6.1524999999999999e+00 1.9181596668421495e+01 9.2934668256260604e+00 0 0 0
637 2 7.3829999999999991e+00 1.9892026174659328e+01 9.2934668256260604e+00 0 0 0
639 2 8.6134999999999984e+00 1.7760737655945832e+01 9.2934668256260604e+00 0 0 0
657 2 8.6135000000000002e+00 1.9181596668421495e+01 9.2934668256260604e+00 0 0 0
311 2 1.2305000000000001e+00 2.0602455680897162e+01 6.2017998203009794e+00 0 0 0
358 2 3.6915000000000004e+00 2.0602455680897162e+01 6.2017998203009794e+00 0 0 0
307 2 0.0000000000000000e+00 2.2733744199610655e+01 6.2017998203009794e+00 0 0 0