LAMMPS data file via write_data, version 16 Mar 2018, timestep = 100000

6337 atoms
2 atom types

0.0000000000000000e+00 4.9219999999999999e+01 xlo xhi
0.0000000000000000e+00 4.9019635930410494e+01 ylo yhi
2.4890942925659694e+00 5.7572905707429975e+01 zlo zhi

Masses

1 18.015
2 12.01

Atoms # atomic

4487 1 2.9786795355083302e+00 3.1715349709048515e+00 3.6340652407715170e+00 1 0 1
5285 1 8.6217005920052916e+00 8.5629735545922685e+00 5.6696263667878117e+00 -1 0 0
108 1 4.5037657765510062e+00 9.4249641385579217e+00 6.6937632576642647e+00 0 0 0
1610 1 7.2555979156024213e+00 3.4946231175172127e+00 6.8108703841320466e+00 0 0 1
1569 1 1.9467756330856789e+00 5.6345179864389054e+00 4.9759826650406378e+00 0 0 1
1736 1 7.5677504445568280e+00 3.9008026957328510e+00 4.1614717957696072e+00 1 1 0
5183 1 3.7480740814217111e+00 7.0868612787870129e+00 3.1618293383058491e+00 1 0 1
1435 1 3.7957913610816938e+00 9.6307661979439239e+00 4.0714002115959662e+00 0 -1 1
4816 1 6.7363945258420141e+00 7.7833363846107462e+00 3.8647482569536371e+00 1 0 0
1772 1 9.8038687796086368e+00 7.1302958148550033e-02 6.5740284838650229e+00 1 1 1
1531 1 2.8186999244632500e+00 1.3547702701709792e+00 5.5820129128962055e+00 0 1 1
3481 1 4.5507739790683424e+00 9.2178571847056945e-01 8.0068276622511441e+00 0 0 0
3092 1 7.6884742947421918e+00 1.1032714048599350e+00 8.2306361038686511e+00 0 1 1
5038 1 6.7605398313831486e+00 1.5102329865037938e+00 2.7434708905961100e+00 1 1 0
1832 1 3.2206589042269265e+00 6.9662559385255554e+00 7.2888991685470659e+00 1 0 0
1400 1 7.1247792902311389e+00 1.0167180548234677e+01 7.2093019838883770e+00 1 0 1
2006 1 4.8078894466376676e+00 4.0421906599976225e+00 8.2182925635659814e+00 1 0 0
1353 1 8.7525346592070772e+00 6.1076310982387332e+00 2.9182415759355980e+00 1 0 1
202 1 1.1978569615387753e+00 1.0304682601360794e+01 4.1749407059164056e+00 1 1 0
1342 1 2.3884831757637155e+00 3.9730302357846519e+00 7.1492460299453704e+00 0 0 1
1365 1 9.1860051151574158e+00 5.7019355320938345e+00 6.8672624712163417e+00 0 0 1
5041 1 2.5689676617021546e+00 1.1329047779685704e+01 8.0197073365338376e+00 1 -1 0
2928 1 8.6240207312904146e-02 1.1351979473991149e+00 5.8023446032533084e+00 0 1 1
2070 1 5.1157678982395902e+00 1.1734488871370024e+01 2.9297789492186652e+00 1 0 1
4675 1 5.3423031275947146e+00 4.5708362132760856e+00 2.8420171166954584e+00 0 1 1
495 1 6.9651538980101968e+00 9.6193934254039419e+00 1.0120091570236628e+01 0 0 1
6067 1 8.5611015060381561e+00 2.0637818287609400e+00 1.0849514656687518e+01 1 0 1
1801 1 9.0389467491743680e+00 1.1459225955508455e+01 1.1263939002568430e+01 0 1 0
246 1 2.0798947550622757e+00 5.4582088113282605e+00 1.1187799650318246e+01 0 0 0
1597 1 2.7435750520462465e-01 3.7702001620085563e+00 9.6829675732346736e+00 0 0 0
4928 1 7.4893173923278784e+00 6.6251839861160535e+00 1.0941393061427947e+01 1 0 1
4447 1 5.0065196540320871e+00 5.3684414156438534e+00 1.0476323527964452e+01 0 0 1
2956 1 5.5669955096081871e+00 2.1501876672752638e+00 1.0782996700900698e+01 0 1 1
4490 1 1.3954223952736646e+00 8.0641083504869489e+00 1.1282915824766164e+01 1 2 1
8 1 2.5715277385914561e+00 1.0373885368995804e+01 1.2123879539884680e+01 0 1 1
3741 1 9.0403861247317270e+00 8.5606525616255009e+00 1.2509138364694214e+01 -1 0 0
2040 1 2.6549921146052511e+00 1.0484884057266530e+01 1.4876798684207333e+01 0 1 0
2989 1 1.0684232982528401e+00 2.4027693827895975e+00 1.3876211873790313e+01 0 1 1
1654 1 4.3818153050259694e+00 7.7908980827668417e+00 9.9965276984982658e+00 1 0 0
3603 1 5.2788285782289348e+00 3.7174108266508119e+00 1.3090889287731169e+01 0 0 1
3017 1 7.1873659152090568e+00 5.3884498801745440e-01 1.5623304197712720e+01 1 -1 0
42 1 9.2847501777751589e+00 2.4001660847789350e+00 1.5879331225474729e+01 1 0 1
3554 1 4.4564233201710870e+00 1.1346608713703187e+01 1.0044757259179798e+01 1 -1 0
1646 1 2.6435427964620497e+00 4.6196669451760037e+00 1.3695661101162939e+01 0 0 1
4881 1 1.4306761798064462e+00 6.3524916993944300e+00 1.5413500946306108e+01 1 0 1
1970 1 7.6604934759745404e+00 5.4596653199070673e+00 1.3490257656728934e+01 0 0 0
3412 1 9.5922358674093591e+00 3.7066771840660029e+00 1.3159740172779506e+01 1 0 0
6153 1 9.8205382818408591e+00 5.3521959188754833e+00 9.6709416739249825e+00 1 0 1
3352 1 4.9211238131185793e+00 2.1996315389990264e+00 1.5835447242448502e+01 1 0 0
3175 1 8.9633099870123125e+00 9.9951823547472909e+00 1.5015017163820247e+01 1 0 1
5055 1 8.0492242855301708e+00 7.4346577934067977e+00 1.5326983138898376e+01 0 0 0
3056 1 2.7459592744256659e-03 7.5667673991957329e+00 1.3544433680141877e+01 0 0 0
32 1 3.2881585957265824e+00 7.4332341043972661e-01 1.3925891521122590e+01 0 1 1
1887 1 3.3174527253365591e+00 1.6404886147007953e+00 1.8419904110546113e+01 0 0 0
1636 1 4.0610696093924208e+00 8.5180886852935345e+00 2.1611193786071009e+01 1 1 0
1542 1 5.7316874370670288e+00 7.0973536387682143e+00 1.6695526571007939e+01 0 0 1
6250 1 1.2643084933934252e+00 7.2975074579805534e+00 2.1097475125174245e+01 0 1 1
3506 1 2.8813515663167975e+00 4.5968595808648551e+00 1.8397244243708563e+01 0 0 0
417 1 5.7734649705313359e+00 4.1962891617952254e+00 1.7394967465517681e+01 0 0 0
352 1 8.6980280406805122e+00 4.1553937633592781e+00 1.7718184868230374e+01 0 0 1
189 1 6.0072541193417512e+00 8.6495034615631408e+00 1.8941758881739826e+01 1 0 0
1384 1 2.0664109029914233e+00 8.9532617796842029e+00 1.8786316656110493e+01 0 0 1
3650 1 5.7699370477317879e+00 1.2882540079218807e+00 1.9906183464232996e+01 0 0 0
4919 1 7.7028110679513553e+00 1.0460381504879546e+01 1.7464503333858140e+01 0 0 0
408 1 3.7508708581399772e+00 1.1449821096452078e+01 1.8895387551179244e+01 0 0 0
4470 1 7.8707611579499144e+00 1.0907304057122357e+01 2.1283760734024835e+01 1 0 1
2031 1 3.7850524420306786e-01 8.2078337943734092e-01 1.8411768075656965e+01 0 1 0
5 1 9.6889176668466064e+00 6.4656527609530485e+00 2.0492101319254278e+01 -1 0 1
1257 1 4.7248190640441665e+00 1.1661338124801068e+01 2.1564426235954155e+01 0 1 1
2101 1 6.8273448386069902e+00 3.4602580847544702e+00 2.1300466624601331e+01 1 0 0
3101 1 2.1755005339714852e+00 4.6924960817555768e+00 2.1130345597925594e+01 0 0 1
3193 1 2.9543579213301446e-01 4.9963447336979945e+00 1.7722798279899489e+01 1 0 1
2002 1 9.5334978540373925e+00 3.7786753388971834e+00 2.0447537826301168e+01 1 0 0
5032 1 5.1322945024557303e+00 5.7128936661301939e+00 2.1255136103887409e+01 1 1 0
5132 1 7.4440168844264605e+00 7.9192343160811989e+00 2.1260522351754165e+01 1 0 0
537 1 1.4487180266051574e+00 1.1289955057875092e+01 2.1226177292349195e+01 0 0 1
5050 1 3.1177521695136696e+00 8.2694742947406255e+00 1.6321533012383526e+01 1 0 0
1515 1 9.5296484508928767e+00 6.7319327598486138e+00 1.7419470736062650e+01 1 1 1
4933 1 9.6131730178881600e+00 1.0928473243144442e+01 1.9320293853821731e+01 0 0 0
1372 1 5.3540300866618895e-01 1.1765613565274510e+01 1.6373452230656945e+01 1 1 1
681 2 6.1524999999999999e+00 1.0656442593567499e+01 2.6858893445263863e+01 0 0 0
410 1 5.9930260720327508e+00 2.8801703005409522e+00 2.4085817909682177e+01 0 1 0
1554 1 1.4736518926535007e+00 1.1861823485090466e-01 2.4413504735053881e+01 0 0 0
5127 1 2.0294762869958869e+00 4.6516568887545144e+00 2.4066279611866154e+01 0 0 0
728 2 8.6134999999999984e+00 1.0656442593567498e+01 2.6858893445263863e+01 0 0 0
223 1 5.0370686714397728e+00 5.1813943130100677e+00 2.4161364668254539e+01 1 1 0
3272 1 9.5397528496434614e+00 5.6081910571181561e+00 2.3664738475428763e+01 0 0 1
1433 1 3.3875291099305604e+00 9.2239658779001914e+00 2.4502414715823864e+01 1 0 1
354 1 9.0429709373822806e+00 1.1323476129555521e+01 2.3895552186691390e+01 -1 0 0
4918 1 7.0387560455148215e+00 7.0459216123644737e+00 2.4233958296121649e+01 1 -1 0
89 1 6.0199892639022128e+00 9.8536400147753902e+00 2.3889354174462117e+01 0 0 1
554 2 0.0000000000000000e+00 2.8417180249513345e+00 2.6858893445263863e+01 0 0 0
556 2 0.0000000000000000e+00 0.0000000000000000e+00 2.6858893445263863e+01 0 0 0
558 2 1.2305000000000001e+00 7.1042950623783474e-01 2.6858893445263863e+01 0 0 0
565 2 1.2305000000000001e+00 2.1312885187134998e+00 2.6858893445263863e+01 0 0 0
567 2 2.4610000000000003e+00 2.8417180249513345e+00 2.6858893445263863e+01 0 0 0
569 2 2.4610000000000003e+00 0.0000000000000000e+00 2.6858893445263863e+01 0 0 0
571 2 3.6915000000000004e+00 7.1042950623783474e-01 2.6858893445263863e+01 0 0 0
586 2 3.6914999999999996e+00 2.1312885187134998e+00 2.6858893445263863e+01 0 0 0
588 2 4.9220000000000006e+00 2.8417180249513332e+00 2.6858893445263863e+01 0 0 0
590 2 4.9220000000000006e+00 0.0000000000000000e+00 2.6858893445263863e+01 0 0 0
592 2 6.1524999999999999e+00 7.1042950623783407e-01 2.6858893445263863e+01 0 0 0
615 2 6.1524999999999999e+00 2.1312885187134989e+00 2.6858893445263863e+01 0 0 0
617 2 7.3829999999999991e+00 2.8417180249513345e+00 2.6858893445263863e+01 0 0 0
619 2 7.3829999999999991e+00 0.0000000000000000e+00 2.6858893445263863e+01 0 0 0
621 2 8.6134999999999984e+00 7.1042950623783407e-01 2.6858893445263863e+01 0 0 0
652 2 8.6134999999999984e+00 2.1312885187135002e+00 2.6858893445263863e+01 0 0 0
561 2 0.0000000000000000e+00 4.2625770374269996e+00 2.6858893445263863e+01 0 0 0
563 2 1.2305000000000001e+00 4.9730065436648339e+00 2.6858893445263863e+01 0 0 0
578 2 1.2305000000000001e+00 6.3938655561404980e+00 2.6858893445263863e+01 0 0 0
582 2 2.4610000000000003e+00 4.2625770374269996e+00 2.6858893445263863e+01 0 0 0
584 2 3.6914999999999996e+00 4.9730065436648339e+00 2.6858893445263863e+01 0 0 0
607 2 3.6914999999999996e+00 6.3938655561404980e+00 2.6858893445263863e+01 0 0 0
559 2 0.0000000000000000e+00 7.1042950623783341e+00 2.6858893445263863e+01 0 0 0
580 2 2.4610000000000003e+00 7.1042950623783341e+00 2.6858893445263863e+01 0 0 0
611 2 4.9220000000000006e+00 4.2625770374269978e+00 2.6858893445263863e+01 0 0 0
613 2 6.1524999999999999e+00 4.9730065436648339e+00 2.6858893445263863e+01 0 0 0
644 2 6.1524999999999999e+00 6.3938655561404980e+00 2.6858893445263863e+01 0 0 0
648 2 7.3829999999999991e+00 4.2625770374269996e+00 2.6858893445263863e+01 0 0 0
650 2 8.6135000000000002e+00 4.9730065436648339e+00 2.6858893445263863e+01 0 0 0
689 2 8.6135000000000002e+00 6.3938655561404980e+00 2.6858893445263863e+01 0 0 0
609 2 4.9220000000000006e+00 7.1042950623783341e+00 2.6858893445263863e+01 0 0 0
646 2 7.3830000000000009e+00 7.1042950623783341e+00 2.6858893445263863e+01 0 0 0
574 2 0.0000000000000000e+00 8.5251540748539991e+00 2.6858893445263863e+01 0 0 0
576 2 1.2305000000000001e+00 9.2355835810918343e+00 2.6858893445263863e+01 0 0 0
603 2 2.4610000000000003e+00 8.5251540748539991e+00 2.6858893445263863e+01 0 0 0
605 2 3.6915000000000004e+00 9.2355835810918343e+00 2.6858893445263863e+01 0 0 0
572 2 0.0000000000000000e+00 1.1366872099805333e+01 2.6858893445263863e+01 0 0 0
599 2 1.2305000000000001e+00 1.0656442593567498e+01 2.6858893445263863e+01 0 0 0
601 2 2.4610000000000003e+00 1.1366872099805333e+01 2.6858893445263863e+01 0 0 0
636 2 3.6914999999999996e+00 1.0656442593567499e+01 2.6858893445263863e+01 0 0 0
687 2 8.6134999999999984e+00 9.2355835810918343e+00 2.6858893445263863e+01 0 0 0
642 2 6.1524999999999999e+00 9.2355835810918343e+00 2.6858893445263863e+01 0 0 0
685 2 7.3830000000000009e+00 8.5251540748539991e+00 2.6858893445263863e+01 0 0 0
640 2 4.9220000000000006e+00 8.5251540748539991e+00 2.6858893445263863e+01 0 0 0
638 2 4.9220000000000006e+00 1.1366872099805333e+01 2.6858893445263863e+01 0 0 0
683 2 7.3829999999999991e+00 1.1366872099805333e+01 2.6858893445263863e+01 0 0 0
3036 1 1.0879938141717582e+00 7.2791726594958241e+00 2.4268744903400052e+01 0 1 1
1264 1 8.9610240309811093e+00 2.9205668878661388e+00 2.4386637175692972e+01 0 0 1
1777 1 4.3118901089424613e+00 5.5679498224465229e-01 2.4063840488891472e+01 0 0 0
4532 1 8.0656142362559251e+00 1.4777086340055059e-01 2.4117462767277274e+01 0 1 1
3550 1 1.4024432996337148e+00 1.1179408972687918e+01 2.3984901579639878e+01 1 0 0
555 2 0.0000000000000000e+00 1.4208590124756650e+00 3.0030999999998002e+01 0 0 0
557 2 0.0000000000000000e+00 0.0000000000000000e+00 3.0030999999998002e+01 0 0 0
566 2 1.2305000000000001e+00 2.1312885187134998e+00 3.0030999999998002e+01 0 0 0
568 2 2.4610000000000003e+00 1.4208590124756650e+00 3.0030999999998002e+01 0 0 0
570 2 2.4610000000000003e+00 0.0000000000000000e+00 3.0030999999998002e+01 0 0 0
587 2 3.6914999999999996e+00 2.1312885187134998e+00 3.0030999999998002e+01 0 0 0
564 2 1.2305000000000001e+00 3.5521475311891644e+00 3.0030999999998002e+01 0 0 0
585 2 3.6914999999999996e+00 3.5521475311891644e+00 3.0030999999998002e+01 0 0 0
883 2 0.0000000000000000e+00 2.8417180249513345e+00 3.3203106554728862e+01 0 0 0
884 2 0.0000000000000000e+00 0.0000000000000000e+00 3.3203106554728862e+01 0 0 0
885 2 1.2305000000000001e+00 7.1042950623783474e-01 3.3203106554728862e+01 0 0 0
889 2 1.2305000000000001e+00 2.1312885187134998e+00 3.3203106554728862e+01 0 0 0
890 2 2.4610000000000003e+00 2.8417180249513345e+00 3.3203106554728862e+01 0 0 0
891 2 2.4610000000000003e+00 0.0000000000000000e+00 3.3203106554728862e+01 0 0 0
892 2 3.6915000000000004e+00 7.1042950623783474e-01 3.3203106554728862e+01 0 0 0
900 2 3.6914999999999996e+00 2.1312885187134998e+00 3.3203106554728862e+01 0 0 0
589 2 4.9220000000000006e+00 1.4208590124756650e+00 3.0030999999998002e+01 0 0 0
591 2 4.9220000000000006e+00 0.0000000000000000e+00 3.0030999999998002e+01 0 0 0
616 2 6.1524999999999999e+00 2.1312885187134989e+00 3.0030999999998002e+01 0 0 0
618 2 7.3829999999999991e+00 1.4208590124756659e+00 3.0030999999998002e+01 0 0 0
620 2 7.3829999999999991e+00 0.0000000000000000e+00 3.0030999999998002e+01 0 0 0
653 2 8.6134999999999984e+00 2.1312885187135002e+00 3.0030999999998002e+01 0 0 0
614 2 6.1524999999999999e+00 3.5521475311891644e+00 3.0030999999998002e+01 0 0 0
651 2 8.6134999999999984e+00 3.5521475311891657e+00 3.0030999999998002e+01 0 0 0
901 2 4.9220000000000006e+00 2.8417180249513332e+00 3.3203106554728862e+01 0 0 0
902 2 4.9220000000000006e+00 0.0000000000000000e+00 3.3203106554728862e+01 0 0 0
903 2 6.1524999999999999e+00 7.1042950623783407e-01 3.3203106554728862e+01 0 0 0
915 2 6.1524999999999999e+00 2.1312885187134989e+00 3.3203106554728862e+01 0 0 0
916 2 7.3829999999999991e+00 2.8417180249513345e+00 3.3203106554728862e+01 0 0 0
917 2 7.3829999999999991e+00 0.0000000000000000e+00 3.3203106554728862e+01 0 0 0
918 2 8.6134999999999984e+00 7.1042950623783407e-01 3.3203106554728862e+01 0 0 0
934 2 8.6134999999999984e+00 2.1312885187135002e+00 3.3203106554728862e+01 0 0 0
560 2 0.0000000000000000e+00 5.6834360499026637e+00 3.0030999999998002e+01 0 0 0
562 2 0.0000000000000000e+00 4.2625770374269996e+00 3.0030999999998002e+01 0 0 0
579 2 1.2305000000000001e+00 6.3938655561404980e+00 3.0030999999998002e+01 0 0 0
581 2 2.4610000000000003e+00 5.6834360499026637e+00 3.0030999999998002e+01 0 0 0
583 2 2.4610000000000003e+00 4.2625770374269996e+00 3.0030999999998002e+01 0 0 0
608 2 3.6914999999999996e+00 6.3938655561404980e+00 3.0030999999998002e+01 0 0 0
577 2 1.2305000000000001e+00 7.8147245686161639e+00 3.0030999999998002e+01 0 0 0
606 2 3.6914999999999996e+00 7.8147245686161639e+00 3.0030999999998002e+01 0 0 0
887 2 0.0000000000000000e+00 4.2625770374269996e+00 3.3203106554728862e+01 0 0 0
888 2 1.2305000000000001e+00 4.9730065436648339e+00 3.3203106554728862e+01 0 0 0
896 2 1.2305000000000001e+00 6.3938655561404980e+00 3.3203106554728862e+01 0 0 0
898 2 2.4610000000000003e+00 4.2625770374269996e+00 3.3203106554728862e+01 0 0 0
899 2 3.6914999999999996e+00 4.9730065436648339e+00 3.3203106554728862e+01 0 0 0
911 2 3.6914999999999996e+00 6.3938655561404980e+00 3.3203106554728862e+01 0 0 0
886 2 0.0000000000000000e+00 7.1042950623783341e+00 3.3203106554728862e+01 0 0 0
897 2 2.4610000000000003e+00 7.1042950623783341e+00 3.3203106554728862e+01 0 0 0
610 2 4.9220000000000006e+00 5.6834360499026637e+00 3.0030999999998002e+01 0 0 0
612 2 4.9220000000000006e+00 4.2625770374269978e+00 3.0030999999998002e+01 0 0 0
645 2 6.1524999999999999e+00 6.3938655561404980e+00 3.0030999999998002e+01 0 0 0
647 2 7.3829999999999991e+00 5.6834360499026637e+00 3.0030999999998002e+01 0 0 0
649 2 7.3829999999999991e+00 4.2625770374269996e+00 3.0030999999998002e+01 0 0 0
690 2 8.6135000000000002e+00 6.3938655561404980e+00 3.0030999999998002e+01 0 0 0
643 2 6.1524999999999999e+00 7.8147245686161639e+00 3.0030999999998002e+01 0 0 0
688 2 8.6135000000000002e+00 7.8147245686161639e+00 3.0030999999998002e+01 0 0 0
913 2 4.9220000000000006e+00 4.2625770374269978e+00 3.3203106554728862e+01 0 0 0
914 2 6.1524999999999999e+00 4.9730065436648339e+00 3.3203106554728862e+01 0 0 0
930 2 6.1524999999999999e+00 6.3938655561404980e+00 3.3203106554728862e+01 0 0 0
932 2 7.3829999999999991e+00 4.2625770374269996e+00 3.3203106554728862e+01 0 0 0
933 2 8.6135000000000002e+00 4.9730065436648339e+00 3.3203106554728862e+01 0 0 0
953 2 8.6135000000000002e+00 6.3938655561404980e+00 3.3203106554728862e+01 0 0 0
912 2 4.9220000000000006e+00 7.1042950623783341e+00 3.3203106554728862e+01 0 0 0
931 2 7.3830000000000009e+00 7.1042950623783341e+00 3.3203106554728862e+01 0 0 0
573 2 0.0000000000000000e+00 9.9460130873296642e+00 3.0030999999998002e+01 0 0 0
575 2 0.0000000000000000e+00 8.5251540748539991e+00 3.0030999999998002e+01 0 0 0
602 2 2.4610000000000003e+00 9.9460130873296642e+00 3.0030999999998002e+01 0 0 0
604 2 2.4610000000000003e+00 8.5251540748539991e+00 3.0030999999998002e+01 0 0 0
598 2 1.2305000000000001e+00 1.2077301606043163e+01 3.0030999999998002e+01 0 0 0
600 2 1.2305000000000001e+00 1.0656442593567498e+01 3.0030999999998002e+01 0 0 0
635 2 3.6914999999999996e+00 1.2077301606043163e+01 3.0030999999998002e+01 0 0 0
637 2 3.6914999999999996e+00 1.0656442593567499e+01 3.0030999999998002e+01 0 0 0
894 2 0.0000000000000000e+00 8.5251540748539991e+00 3.3203106554728862e+01 0 0 0
895 2 1.2305000000000001e+00 9.2355835810918343e+00 3.3203106554728862e+01 0 0 0
909 2 2.4610000000000003e+00 8.5251540748539991e+00 3.3203106554728862e+01 0 0 0
910 2 3.6915000000000004e+00 9.2355835810918343e+00 3.3203106554728862e+01 0 0 0
893 2 0.0000000000000000e+00 1.1366872099805333e+01 3.3203106554728862e+01 0 0 0
907 2 1.2305000000000001e+00 1.0656442593567498e+01 3.3203106554728862e+01 0 0 0
908 2 2.4610000000000003e+00 1.1366872099805333e+01 3.3203106554728862e+01 0 0 0
926 2 3.6914999999999996e+00 1.0656442593567499e+01 3.3203106554728862e+01 0 0 0
639 2 4.9220000000000006e+00 9.9460130873296642e+00 3.0030999999998002e+01 0 0 0
641 2 4.9220000000000006e+00 8.5251540748539991e+00 3.0030999999998002e+01 0 0 0
684 2 7.3830000000000009e+00 9.9460130873296642e+00 3.0030999999998002e+01 0 0 0
686 2 7.3830000000000009e+00 8.5251540748539991e+00 3.0030999999998002e+01 0 0 0
680 2 6.1524999999999999e+00 1.2077301606043163e+01 3.0030999999998002e+01 0 0 0
682 2 6.1524999999999999e+00 1.0656442593567499e+01 3.0030999999998002e+01 0 0 0
727 2 8.6135000000000002e+00 1.2077301606043163e+01 3.0030999999998002e+01 0 0 0
729 2 8.6134999999999984e+00 1.0656442593567498e+01 3.0030999999998002e+01 0 0 0
928 2 4.9220000000000006e+00 8.5251540748539991e+00 3.3203106554728862e+01 0 0 0
929 2 6.1524999999999999e+00 9.2355835810918343e+00 3.3203106554728862e+01 0 0 0
951 2 7.3830000000000009e+00 8.5251540748539991e+00 3.3203106554728862e+01 0 0 0
952 2 8.6134999999999984e+00 9.2355835810918343e+00 3.3203106554728862e+01 0 0 0
927 2 4.9220000000000006e+00 1.1366872099805333e+01 3.3203106554728862e+01 0 0 0
949 2 6.1524999999999999e+00 1.0656442593567499e+01 3.3203106554728862e+01 0 0 0
950 2 7.3829999999999991e+00 1.1366872099805333e+01 3.3203106554728862e+01 0 0 0
973 2 8.6134999999999984e+00 1.0656442593567498e+01 3.3203106554728862e+01 0 0 0
1840 1 3.5732584747434482e+00 2.1252971330341643e+00 3.5903246091783316e+01 1 1 0
6034 1 7.7323018008121958e-01 1.7536021651075766e+00 3.6366741611795888e+01 1 0 0
1275 1 1.7078141726303679e+00 6.6091901302768710e+00 3.5684530257087275e+01 1 1 0
3699 1 5.6988988715376419e+00 1.0409867459776585e+01 3.6531609124727709e+01 1 0 0
4511 1 3.9404799529818715e+00 5.0717005042619814e+00 3.6173069681878673e+01 1 1 0
2824 1 5.9187461863871649e+00 6.6087282433216332e-01 3.5476474386889620e+01 0 1 -1
5231 1 5.2891317985824173e+00 7.4178620234668537e+00 3.5734065218866860e+01 0 1 0
392 1 2.8634757823796182e+00 9.1680088714193300e+00 3.6225653271719068e+01 1 0 0
6024 1 8.5844062503102432e+00 2.0756210007175238e+00 3.5885319176168423e+01 0 0 0
1599 1 9.6832697587029806e+00 6.6369806338216737e+00 3.6098675694369760e+01 0 0 0
3027 1 1.6810208517096987e+00 1.2209771268226413e+01 3.5700447127108632e+01 1 1 0
405 1 8.5806759424526913e+00 1.1738934521796720e+01 3.6840883439017489e+01 1 0 -1
6247 1 3.9379950006253113e+00 5.0170037743919753e+00 3.9026703212883604e+01 0 -1 -1
5110 1 7.9353338403846632e+00 9.4978290860306505e+00 4.1791776840245518e+01 1 0 -1
1561 1 7.3427815944962793e+00 7.0643723370568319e+00 3.7603071803420335e+01 0 1 0
4936 1 7.4091379903574124e+00 2.5551639931501704e+00 3.8388423080398084e+01 1 1 -1
4441 1 6.4963559688702555e+00 5.2112333758370841e+00 3.9264709914914590e+01 0 1 0
3251 1 1.0334459469828936e+00 5.7136622772526486e+00 3.8445169551336647e+01 1 0 -1
4583 1 7.5906849895093877e+00 9.6211616887151443e+00 3.8825567386802490e+01 0 1 0
1761 1 4.3124731935066274e+00 8.2543404444756110e+00 3.8660925114111762e+01 0 1 0
2112 1 3.9182762562367972e+00 1.1206037220723484e+01 3.9065160264717036e+01 0 0 0
2912 1 1.0810166076745547e+00 1.1033872473011458e+01 3.8300785023444334e+01 1 1 0
1818 1 5.0785284482154918e+00 7.9990103002864965e-01 3.8553005631373622e+01 1 1 -1
6142 1 2.5384025859010468e+00 2.4927627868509621e+00 4.2817196499962222e+01 1 1 0
5084 1 3.3930194772986346e+00 2.4512804048773451e+00 4.0186337426581090e+01 0 1 0
2972 1 1.3375916362793501e+00 9.6280299963127298e+00 4.0983008626206768e+01 0 -1 0
1321 1 6.1494355108920233e+00 1.8690525698037650e+00 4.1634073569370713e+01 0 1 0
177 1 6.5395308663307476e+00 4.1098824443919559e+00 4.3329266946774581e+01 0 0 -1
6069 1 2.5606665608259060e+00 7.0468087107737372e+00 4.1198657035808196e+01 0 1 -1
1545 1 2.3783943895330846e+00 5.3309846438842099e+00 4.3278897782479405e+01 1 1 0
2961 1 5.0159556403732282e+00 8.4954230034609957e+00 4.1652286583176888e+01 0 1 0
5967 1 7.0130260716083761e+00 6.4405535033199568e+00 4.1720969296658282e+01 1 0 0
2829 1 3.8364751382709188e+00 1.1114706309283225e+01 4.2824644478828930e+01 1 0 0
4821 1 9.2949244239639146e+00 1.4088079904456285e+00 4.0174935706724668e+01 1 0 -1
3146 1 8.7672344513366507e-01 1.2901617851079967e+00 3.9217065714515300e+01 0 0 0
4803 1 9.7514985493547410e+00 6.3332655712649091e+00 4.3184046677210631e+01 1 1 -1
3513 1 8.7151108509771706e+00 1.6292002975932793e-01 4.2632122691205538e+01 0 1 -1
2884 1 5.8580683372470055e-01 1.8302109876311756e-01 4.2576795372218129e+01 0 1 0
6008 1 3.5120253259380858e+00 2.2781545466229041e+00 4.6182665096002424e+01 0 0 0
231 1 8.0588774139910424e-01 1.4990519322475706e+00 4.5922446646991091e+01 -1 1 0
2925 1 7.4474594378589964e+00 1.1891956975605413e+00 4.5380037488638948e+01 1 1 -1
39 1 1.2488102142601486e-01 5.6918539725782855e+00 4.7258334060354400e+01 1 0 0
3711 1 9.1405148535179439e+00 4.8793796496117521e+00 4.8964378363677483e+01 0 1 0
1846 1 8.8791378425091629e+00 3.3146279358434323e+00 4.4363387367793393e+01 0 1 -1
3012 1 6.4144574605042939e+00 6.3726563517212087e+00 4.6618190364631729e+01 0 0 -1
3051 1 8.4547076578485676e+00 8.0119684751911144e+00 4.5859259803232476e+01 1 1 0
1290 1 4.3764471208145652e+00 8.3889501469298455e+00 4.6118345055035462e+01 0 1 0
4985 1 2.0584639774666211e+00 6.5475378356888552e+00 4.5666548192091341e+01 -1 1 -1
3743 1 1.3992728995252950e+00 2.1175710849180325e+00 4.8929009037899235e+01 0 1 0
6099 1 1.4212417456770419e+00 1.1812919305109356e+01 4.5363822809362659e+01 1 0 0
373 1 4.8528461979607034e+00 1.4650223078997133e+00 4.8529500670425321e+01 -1 0 -1
1474 1 5.5131868679319105e+00 1.0812791041847396e+01 4.5134998312498709e+01 1 1 0
6307 1 8.2119629138267687e+00 1.0593251749583594e+01 4.4613661986293309e+01 0 0 0
4679 1 7.1241595638434037e+00 3.0119961884769482e+00 4.9635134901132972e+01 1 1 0
3032 1 5.2184859931570662e+00 5.4457836284672423e+00 4.9471229086187520e+01 1 0 0
3696 1 2.7395394569675573e+00 1.0907891876169701e+01 4.9203944270114164e+01 1 0 0
2147 1 1.9432599665729069e+00 9.6259293982484859e+00 4.7148104917025137e+01 1 1 0
6144 1 7.5080887680872141e+00 9.9649930592397240e+00 4.7922400610308415e+01 -1 1 0
4555 1 2.0419432226435838e-01 4.5672156166631925e+00 5.0105207708207800e+01 0 1 0
1394 1 6.2599323744190984e+00 7.9433651339611595e+00 4.9623066422987122e+01 1 0 0
6253 1 5.2433164158578043e+00 1.2005702324813555e+01 4.7866757824723990e+01 1 1 0
4564 1 4.6883998864594529e+00 4.7516824200486401e+00 4.5186347695748097e+01 0 1 -1
6229 1 3.5109930321042890e+00 3.7811519369525159e-01 5.0653248387320232e+01 0 1 0
6081 1 7.8341121229358901e+00 2.7507835949066362e-02 4.9837656546179332e+01 0 1 0
3122 1 4.7123733058012158e+00 5.8766011099359605e-01 4.4238646265194831e+01 1 1 0
5216 1 2.6596092269133895e+00 5.5053991265397189e+00 5.0600714747993266e+01 0 0 0
2894 1 2.0843159964932876e+00 1.9176152100096531e+00 5.2396791816133316e+01 1 0 0
3089 1 4.2878918786221956e+00 9.3629001283548803e+00 5.0975665883359156e+01 0 0 0
1581 1 6.7945234709590459e+00 1.9954555687908513e+00 5.3639920878599995e+01 0 0 0
4870 1 6.0863222965836581e+00 4.0475097040973251e+00 5.1992358553198287e+01 1 0 -1
6255 1 3.3571670903990309e+00 4.0012787626696920e+00 5.3036539236689109e+01 0 0 -1
2854 1 8.2365057396280275e+00 1.1811411253694297e+01 5.2641453495910085e+01 0 0 0
1298 1 8.0123670343054805e+00 7.5565613197011290e+00 5.1678104275322511e+01 0 1 0
118 1 7.6632810337374409e+00 5.7820013733877698e+00 5.3896420369364307e+01 0 0 -1
2906 1 1.0958958872462432e-01 1.0351199582835040e+01 5.6803242286602156e+01 1 0 0
5000 1 7.1608471687188038e+00 9.4959809738707293e+00 5.6952012162793125e+01 1 -1 -1
1804 1 2.1309763125029644e+00 8.1170971320406959e+00 5.2109772195089278e+01 1 0 0
3148 1 9.4032785586195367e+00 2.1880263135522440e+00 5.2802804381301101e+01 1 0 -1
5318 1 5.3505841429201118e+00 1.0986135270542999e+01 5.2679507102629728e+01 0 0 0
3236 1 5.3640249553740071e+00 4.8143668320851010e+00 5.5109232653163176e+01 1 0 0
2116 1 9.5498048388917560e+00 4.5079024127570744e+00 5.5797383985880401e+01 0 1 0
5147 1 4.2457024073459220e+00 1.0333137611357447e+01 5.5357158465379428e+01 1 1 -1
421 1 8.3008310649064434e+00 2.1938769476748603e+00 5.5872897423736120e+01 0 1 0
5969 1 8.9900797694276982e+00 8.1439553038593804e+00 5.5360544500053848e+01 0 1 -1
1310 1 1.9461198355978815e+00 5.9743071047529490e+00 5.4114575750058577e+01 0 0 0
1429 1 4.0352312824626164e+00 7.2552257892389793e+00 5.5267380322644328e+01 0 0 -1
4693 1 5.5594554088062109e-01 2.9782674210082987e+00 5.7156492411751103e+01 1 0 0
4763 1 2.2263017279207653e-01 5.0851516347260317e-01 5.6253174994799906e+01 1 1 0
6109 1 9.5530456992074342e+00 9.5019164556456488e+00 5.2788528636320862e+01 1 0 0
6070 1 4.0812360386952076e+00 9.8968647772313800e-01 5.6851179423110437e+01 0 2 0
6135 1 2.2142535788382416e+00 1.0597992456898822e-01 5.4513847324084125e+01 0 0 0
2993 1 8.2708982137519804e+00 1.2186195540875485e+01 5.7396814572055177e+01 0 0 -1
3207 1 2.5067327561990527e-01 9.5453791434283239e+00 5.0803308965610682e+01 0 1 -1
1335 1 1.2317271740909055e+00 1.3004044129521528e+01 4.0553597238117796e+00 0 0 1
5088 1 2.2076146600655191e+00 1.3730037341990743e+01 6.5048722518444038e+00 1 0 0
281 1 3.9139066970583829e+00 1.6637577066697499e+01 3.8047811015071193e+00 0 0 1
5280 1 6.3699519981648294e+00 2.0539858827886800e+01 9.1965924017441623e+00 1 1 0
216 1 8.4837704518221617e+00 1.9870434266539803e+01 7.6975856209133564e+00 1 -1 0
6158 1 7.1982223096995028e+00 1.9994323496343153e+01 3.1556316779952605e+00 0 -1 1
1834 1 7.1515999777057342e+00 1.3913103552545827e+01 4.4315957710421277e+00 0 0 0
4467 1 5.1909768586152261e+00 1.9001958361786979e+01 4.9928971468202743e+00 0 0 1
1668 1 9.3772199077802898e-01 1.7208640721860149e+01 4.2022659623540521e+00 0 1 0
3545 1 7.6587146845611977e+00 1.7880165042378493e+01 5.9656754995974346e+00 0 0 0
6270 1 7.4268128670685742e+00 2.4243814511329891e+01 5.7787928028975717e+00 0 0 1
2139 1 3.2222712181083799e+00 2.1273867092397442e+01 5.2111560071873626e+00 0 0 1
172 1 9.1266131462579949e+00 1.2897396454144156e+01 9.0903276732584999e+00 1 0 1
2073 1 8.9520019208885486e+00 2.2111028045683309e+01 6.2378191974615937e+00 1 0 0
1259 1 4.8837752420137663e+00 2.3433545532607688e+01 6.6449489582329493e+00 0 1 1
4542 1 2.5242274743630668e+00 2.4078804061042550e+01 8.9806922522221235e+00 0 -1 1
3467 1 5.9860461618942473e+00 1.6526469654544389e+01 7.8318546757599812e+00 0 0 0
4570 1 4.8019767709928631e+00 1.4894790211325832e+01 6.0349020462475558e+00 1 0 1
1555 1 4.4728901306315638e+00 1.8918695214686334e+01 8.5611819858780471e+00 0 0 1
519 1 4.7379793759636115e+00 2.2518514301910962e+01 2.7534718491817629e+00 0 1 1
3592 1 8.7673019618946650e+00 1.5914651895201072e+01 4.4134143975900688e+00 0 1 0
4782 1 9.0879746954652996e-01 2.0952730012785967e+01 3.5467413072592944e+00 1 -1 0
4433 1 2.0611603300455954e+00 1.9787898326334982e+01 7.2787607089221060e+00 1 0 1
3072 1 6.6763061980607565e+00 2.4320264323096293e+01 3.2950268426029394e+00 1 0 1
6235 1 1.1351824180062899e+00 2.1857290721916680e+01 9.3329018675519109e+00 0 0 0
4865 1 2.6770522599608140e+00 2.4491593649121782e+01 2.9755376928135653e+00 0 1 0
5033 1 8.8173545545614243e+00 1.2270408841975648e+01 6.5328295693915699e+00 1 0 0
1571 1 3.5076318012163092e+00 1.3774656417414676e+01 2.4906250916628210e+00 0 0 0
3437 1 3.1873058921504307e+00 1.5466829147214399e+01 1.0847879642832767e+01 -1 0 0
461 1 5.7725424622961503e+00 2.1808684762489229e+01 1.4458236461895018e+01 0 0 0
4984 1 3.7073824699266378e-01 1.5007609372702500e+01 1.0218328573734151e+01 1 0 0
1792 1 5.8597235129672152e+00 1.3407664612374598e+01 1.1625378287339354e+01 0 1 0