
# Create simulation box and atoms

read_data data.ML_graphite_m1000atm_245K
  orthogonal box = (0 0 2.62195) to (49.22 49.0196 57.4401)
  5 by 4 by 8 MPI processor grid
  reading atoms ...
  6337 atoms
  reading velocities ...
  6337 velocities
group water type 1
3577 atoms in group water
group graphite type 2
2760 atoms in group graphite

# Define potential

pair_style sw
pair_coeff * * MLC_e.sw mW C


# Fix graphite atoms in place

fix 5 graphite setforce 0.0 0.0 0.0
velocity graphite set 0.0 0.0 0.0


# Equilibration of molecular water

# Add velocity/set timestep

velocity	    water create ${TEMP} ${SEED} rot yes dist gaussian
velocity	    water create 248 ${SEED} rot yes dist gaussian
velocity	    water create 248 27297 rot yes dist gaussian
timestep	    5.0

# Define output

compute			1 water msd
compute			3 water temp
thermo	    	50
thermo_style	custom step temp press vol etotal ke pe c_1[4] c_3

# Neighbor lists

neigh_modify    delay 0 every 1 check yes

# Set fixes

fix             1 water momentum 10 linear 1 1 1 rescale
fix             2 water nve
fix             3 water temp/csvr ${TEMP} ${TEMP} 500.0 ${SEED}
fix             3 water temp/csvr 248 ${TEMP} 500.0 ${SEED}
fix             3 water temp/csvr 248 248 500.0 ${SEED}
fix             3 water temp/csvr 248 248 500.0 27297
fix             4 water press/berendsen z ${PRES} ${PRES} 1000.0 modulus 20000
fix             4 water press/berendsen z -1000 ${PRES} 1000.0 modulus 20000
fix             4 water press/berendsen z -1000 -1000 1000.0 modulus 20000

# Run 0.5 ns equilibration

dump		    1 all atom 2000 ${DIR}/eq.${NAME}-${TEMP}.dump
dump		    1 all atom 2000 run_27/eq.${NAME}-${TEMP}.dump
dump		    1 all atom 2000 run_27/eq.het_freeze_27-${TEMP}.dump
dump		    1 all atom 2000 run_27/eq.het_freeze_27-248.dump

reset_timestep  0

run	            100000
Neighbor list info ...
  update every 1 steps, delay 0 steps, check yes
  max neighbors/atom: 2000, page size: 100000
  master list distance cutoff = 6.67472
  ghost atom cutoff = 6.67472
  binsize = 3.33736, bins = 15 15 17
  1 neighbor lists, perpetual/occasional/extra = 1 0 0
  (1) pair sw, perpetual
      attributes: full, newton on
      pair build: full/bin/atomonly
      stencil: full/bin/3d
      bin: standard
Per MPI rank memory allocation (min/avg/max) = 4.066 | 4.174 | 4.485 Mbytes
Step Temp Press Volume TotEng KinEng PotEng c_1[4] c_3 
       0     139.9697   -1056.0851     132262.2   -34085.323    2643.5254   -36728.848            0          248 
      50    140.03587   -967.35523    132336.14   -34104.202    2644.7752   -36748.977   0.50298684    248.11724 
     100    140.01455   -1211.9878    132393.78    -34127.82    2644.3726   -36772.193   0.81200224    248.07948 
     150    139.26736   -1163.3702     132421.9   -34151.012    2630.2609   -36781.273   0.99475542     246.7556 
     200    140.39079    -987.6683     132395.9   -34142.906    2651.4783   -36794.384    1.1864817    248.74609 
     250    139.76724   -961.94815    132402.08   -34172.804    2639.7018   -36812.506    1.3973583    247.64129 
     300    141.46237   -1270.4908    132476.92   -34119.546    2671.7166   -36791.263    1.5769181    250.64473 
     350    139.68204    -1325.874    132378.21   -34125.909    2638.0926   -36764.002    1.7524583    247.49032 
     400    140.99255   -1200.9866    132380.38   -34075.578    2662.8435   -36738.422    1.9152471    249.81231 
     450    140.68526   -1023.7763    132420.11   -34088.581    2657.0398   -36745.621    2.0329353    249.26784 
     500    140.75319   -1286.9798    132398.67    -34067.31    2658.3227   -36725.633    2.1627555     249.3882 
     550    136.41864   -1059.1972    132481.43    -34107.25    2576.4587   -36683.709    2.3116821     241.7082 
     600     139.3105   -1299.2198    132502.44   -34113.884    2631.0757    -36744.96    2.4971999    246.83204 
     650      140.506    -1402.567    132433.15   -34121.115    2653.6543   -36774.769    2.6490765    248.95023 
     700    141.37471   -1007.9808    132409.67   -34090.297     2670.061   -36760.358    2.7396799    250.48941 
     750    140.72953   -1158.1993    132424.83    -34112.01     2657.876   -36769.886    2.9381222    249.34629 
     800    141.08074   -1404.1786     132372.4   -34043.109     2664.509   -36707.618    3.1188089    249.96855 
     850    140.46886   -1565.7974    132270.41   -34073.494    2652.9528   -36726.447    3.2738117    248.88442 
     900     139.7614   -1487.0062    132229.66   -34037.788    2639.5914    -36677.38    3.4130332    247.63093 
     950    139.64908   -1069.0464    132161.57   -34014.769      2637.47   -36652.239    3.5820024    247.43192 
    1000    138.73079   -1241.6254    132150.85    -34074.24    2620.1269   -36694.367    3.7719244    245.80489 
    1050    138.38296   -1218.1288    132113.26   -34101.783    2613.5576   -36715.341    3.8407606     245.1886 
    1100    139.84446   -1074.1642    132210.18   -34079.704    2641.1602   -36720.864    3.9141525     247.7781 
    1150    140.50408    -1385.886    132196.09   -34040.112     2653.618    -36693.73    4.0483813    248.94683 
    1200    140.24869   -1397.9119    132173.85   -34050.426    2648.7946   -36699.221    4.1816979    248.49432 
    1250     140.3086    -1177.402    132222.65   -34056.786     2649.926   -36706.713    4.3593398    248.60047 
    1300    137.40092    -1152.844    132300.32   -34108.943    2595.0104   -36703.954    4.5141361    243.44861 
    1350    139.21416    -1233.862    132221.77   -34079.554     2629.256    -36708.81    4.7431166    246.66132 
    1400    141.79876   -1020.8225    132195.32   -34009.583    2678.0698   -36687.653    4.9303672    251.24075 
    1450    142.08146    -1209.636    132166.92    -33982.32     2683.409   -36665.729    4.9722123    251.74164 
    1500      139.309   -949.80134    132175.77   -33988.861    2631.0472   -36619.909    5.0955944    246.82937 
    1550    142.50731   -1339.1507    132244.33   -33986.095    2691.4518   -36677.546     5.219529    252.49617 
    1600    142.92614   -1168.6953    132220.78   -33991.954     2699.362   -36691.316    5.4116242    253.23826 
    1650    140.36198   -1268.5143    132282.19   -34010.572    2650.9343   -36661.507    5.5859218    248.69506 
    1700     143.4441   -1261.4747    132350.77   -34026.725    2709.1444   -36735.869    5.7526431    254.15598 
    1750    141.72118    -1068.807    132417.54   -34092.249    2676.6046   -36768.854    5.9617175     251.1033 
    1800    140.27877    -991.2541    132444.29   -34070.817    2649.3627   -36720.179    6.1119894    248.54762 
    1850    139.19771   -1096.4368    132502.81   -34113.723    2628.9453   -36742.668    6.2004786    246.63218 
    1900     141.0689   -888.94345     132533.5   -34061.933    2664.2855   -36726.219    6.3152579    249.94758 
    1950    140.06675   -1249.3916    132514.29    -34062.79    2645.3584   -36708.149    6.4312417    248.17196 
    2000    141.01153   -870.39261     132549.4   -34043.134    2663.2018   -36706.336    6.5723731    249.84592 
    2050    139.91073   -1122.1343    132610.94   -34026.556    2642.4118   -36668.968    6.7732611    247.89553 
    2100    143.44115   -1124.4007    132639.97   -34021.496    2709.0888   -36730.585    6.9343422    254.15077 
    2150    141.80071   -1481.0063     132668.3   -34044.486    2678.1067   -36722.593    7.2090018    251.24422 
    2200    139.16282   -1220.2911    132645.86   -34079.204    2628.2864   -36707.491    7.3104976    246.57036 
    2250    140.88059   -1156.2857    132632.06   -34058.585    2660.7289   -36719.314    7.3936001    249.61393 
    2300    139.94224   -1280.1992    132665.46   -34068.393    2643.0069     -36711.4    7.5255946    247.95136 
    2350    139.38694   -1375.7579    132687.88   -34101.755    2632.5193   -36734.274    7.6392515    246.96747 
    2400     139.0173   -1167.2544    132691.59   -34148.276    2625.5382   -36773.814    7.8002051    246.31254 
    2450    136.62074   -1201.7343    132711.15   -34158.684    2580.2756   -36738.959     7.968964    242.06627 
    2500    137.16386   -1315.6815    132759.76   -34171.955    2590.5333   -36762.489    8.1394674    243.02859 
    2550    139.25038   -1272.1003    132729.35   -34104.545      2629.94   -36734.485    8.2162952     246.7255 
    2600    139.58269   -925.19471    132681.17   -34101.718    2636.2163   -36737.934    8.4417612     247.3143 
    2650    138.86486   -938.21173    132753.19   -34090.755    2622.6591   -36713.414    8.7068756    246.04244 
    2700      141.042   -1223.5831    132720.31   -34052.025    2663.7774   -36715.803    8.9105348    249.89992 
    2750    140.50774    -1342.014    132688.45   -34111.116    2653.6872   -36764.803    9.1477068    248.95332 
    2800     138.7949   -1198.0809    132686.46   -34120.052    2621.3378    -36741.39    9.3052721    245.91849 
    2850    139.26524   -1303.0621    132714.73   -34080.717    2630.2207   -36710.937    9.5276167    246.75183 
    2900    139.76542   -864.77689     132770.1   -34124.693    2639.6674   -36764.361    9.6967146    247.63806 
    2950    139.60396   -1400.2868    132775.98   -34094.551    2636.6179   -36731.169    9.9730304    247.35198 
    3000    139.86917    -1302.996    132728.88   -34083.148    2641.6268   -36724.774    10.154536    247.82188 
    3050    140.26726   -1316.5925    132707.21   -34116.486    2649.1453   -36765.632     10.17024    248.52722 
    3100    141.39419   -1234.6744    132617.33   -34143.985     2670.429   -36814.414    10.290182    250.52393 
    3150    140.09681   -1193.6701    132584.41   -34125.869    2645.9262   -36771.795    10.394703    248.22522 
    3200    140.54478   -1313.5116    132575.89   -34071.008    2654.3867   -36725.395    10.609157    249.01894 
    3250    141.08301   -1083.8673    132613.58   -34063.931    2664.5519   -36728.482    10.723933    249.97258 
    3300    137.46409    -1090.486    132778.87   -34116.551    2596.2035   -36712.754    10.838771    243.56054 
    3350    137.83795   -1333.1463    132862.93   -34072.877    2603.2644   -36676.141    11.026747    244.22295 
    3400    139.05677   -909.61917     132968.4   -34074.271    2626.2836   -36700.554    11.178412    246.38247 
    3450    138.09636   -1097.5644    133129.83   -34127.208    2608.1449   -36735.353    11.418217    244.68081 
    3500    139.64251   -1262.9558    133139.32   -34143.731    2637.3459   -36781.077    11.671242    247.42028 
    3550     139.0157   -1253.4145    133146.92   -34115.794    2625.5078   -36741.302    11.720955    246.30969 
    3600    140.18943   -1126.1472    133133.72    -34092.42    2647.6755   -36740.096    11.815575    248.38933 
    3650    136.91155   -1384.9542    133124.61   -34088.716     2585.768   -36674.484    11.950095    242.58154 
    3700    137.67325   -1442.0981    133063.26   -34044.078    2600.1538   -36644.232    12.259905    243.93113 
    3750    139.21366   -1196.3477    133000.97   -34084.404    2629.2467    -36713.65    12.360328    246.66045 
    3800      140.289   -1292.1454    132995.85   -34065.116     2649.556   -36714.672    12.446275    248.56575 
    3850    138.84002   -1045.0639    132871.87   -34071.799    2622.1899   -36693.989    12.634823    245.99843 
    3900    141.93068   -1237.1276    132959.19   -34091.806    2680.5614   -36772.367    12.791175     251.4745 
    3950    144.14853   -1129.4633    132971.92   -34031.778    2722.4487   -36754.227    12.869579    255.40411 
    4000    138.87942   -1226.7341    133065.73   -34047.512     2622.934   -36670.446     13.06337    246.06824 
    4050    141.95162   -987.60752    133084.52   -34002.421    2680.9568   -36683.377    13.211325    251.51159 
    4100     142.9745    -1253.287    133199.04   -33939.893    2700.2754   -36640.169    13.314859    253.32394 
    4150    142.02203   -1336.9162    133165.29   -33934.793    2682.2867   -36617.079    13.197061    251.63635 
    4200    145.26079   -1190.7011    133174.61   -33927.571    2743.4552   -36671.026    13.322786    257.37483 
    4250    142.20658   -1120.0147    133065.61   -33943.946    2685.7721   -36629.718    13.503547    251.96333 
    4300    139.53524   -1090.3797    133121.95   -33985.619    2635.3201    -36620.94     13.61918    247.23022 
    4350    138.48659   -1086.6661     133214.3   -34062.996     2615.515   -36678.511    13.834177    245.37222 
    4400    141.19126   -1198.7753    133272.96   -34016.961    2666.5964   -36683.558    14.036061    250.16438 
    4450    139.19903   -1015.2507    133357.26   -34052.058    2628.9703   -36681.028    14.209302    246.63453 
    4500    140.45559   -1031.4795    133343.99   -34066.648    2652.7023    -36719.35    14.439126    248.86092 
    4550    138.97483    -1107.408    133347.68   -34043.263     2624.736   -36667.999      14.6139    246.23729 
    4600    137.01093   -1274.5117    133295.34   -34046.279    2587.6449   -36633.924    14.797115    242.75761 
    4650    136.62882   -1119.3842    133233.73   -34058.352    2580.4283    -36638.78    15.065576     242.0806 
    4700    133.07376    -1463.511    133117.67   -34142.414    2513.2859     -36655.7    15.298727    235.78169 
    4750    138.57801   -1357.4968    132955.89   -34124.244    2617.2415   -36741.485    15.423307     245.5342 
    4800    137.10259   -1361.4417    132950.07   -34101.806    2589.3761   -36691.182    15.589677    242.92003 
    4850    140.81824   -1394.2183     132959.4   -34122.917    2659.5515   -36782.468    15.641943    249.50347 
    4900    137.49974   -1306.6228    132966.14    -34131.05    2596.8768   -36727.926    15.838205     243.6237 
    4950    137.85618   -1126.9271    133063.98   -34107.063    2603.6087   -36710.672    16.003954    244.25524 
    5000    138.22174   -1115.8848    133108.45   -34035.178    2610.5127   -36645.691    16.109973    244.90294 
    5050    138.10776   -1197.5155    133071.84   -34047.509    2608.3601   -36655.869    16.164623    244.70099 
    5100    139.93134   -1174.9002    133143.83   -34034.054    2642.8009   -36676.855    16.405759    247.93203 
    5150    136.55676   -1270.5818    133161.69   -34072.946    2579.0672   -36652.013    16.613607    241.95291 
    5200    138.19413   -1200.4242    133177.47   -34043.579    2609.9913   -36653.571    16.778066    244.85403 
    5250    136.46723    -1177.701    133110.11   -34024.136    2577.3765   -36601.512    16.842589    241.79429 
    5300    140.27571   -961.85565    133096.75   -34018.874     2649.305   -36668.179    16.942708     248.5422 
    5350    139.86149    -1322.838    133170.15   -34047.172    2641.4818   -36688.654    17.060904    247.80828 
    5400    139.47296   -1249.6528    133205.32   -34023.269    2634.1439   -36657.413    17.267291    247.11988 
    5450    136.89762   -1256.1887    133140.02   -34017.182     2585.505   -36602.687     17.63205    242.55686 
    5500    137.16376   -1083.3076    133146.69   -34042.944    2590.5313   -36633.475    17.852381     243.0284 
    5550    140.74242   -1274.0763     133161.5    -33963.97    2658.1194   -36622.089    18.016478    249.36912 
    5600     142.3469   -1303.0425    133167.07    -33953.99    2688.4223   -36642.413    18.165583    252.21196 
    5650    138.02934   -1452.8317    133196.65   -34021.016    2606.8791   -36627.895    18.367754    244.56206 
    5700    137.88726   -1172.9263    133208.48   -34007.969    2604.1957   -36612.165    18.443595    244.31032 
    5750    138.54579   -1346.4548    133139.11   -33994.235    2616.6329   -36610.868    18.529966     245.4771 
    5800    138.82785   -1111.8789    133146.91   -33975.104      2621.96   -36597.064    18.669669    245.97686 
    5850    138.24737   -1159.7334    133245.19   -33989.912    2610.9968   -36600.909    18.795028    244.94836 
    5900    140.33966   -970.63362    133289.38   -34007.908    2650.5127   -36658.421    18.971309     248.6555 
    5950    137.54386   -969.76057    133377.51   -34009.827      2597.71   -36607.537    19.141225    243.70187 
    6000     141.6741   -1140.6277    133444.99    -33959.85    2675.7155   -36635.566    19.349307    251.01988 
    6050     140.5894   -891.87214    133451.77   -34013.675    2655.2295   -36668.904    19.426763    249.09801 
    6100    138.28542   -1098.0136    133500.82   -34050.784    2611.7155   -36662.499    19.556346    245.01578 
    6150    138.90076   -1167.0712     133481.3    -34027.06     2623.337   -36650.397    19.789546    246.10604 
    6200    135.74777   -1418.6064    133453.04   -34032.653    2563.7884   -36596.442    20.043921    240.51954 
    6250    136.31508   -1115.0895    133414.68   -34076.036    2574.5029   -36650.539    20.252455    241.52471 
    6300    139.52487   -1177.6388    133481.05   -34052.494    2635.1242   -36687.618    20.366087    247.21184 
    6350    139.81273   -1324.1262    133450.99   -33990.204    2640.5609   -36630.765    20.552377    247.72188 
    6400    138.33475    -1083.221    133532.32   -34021.317    2612.6472   -36633.964    20.760944    245.10319 
    6450    137.86933   -1088.0999    133516.62    -34046.84     2603.857   -36650.697    20.845813    244.27854 
    6500    137.03527   -1143.8591    133558.42   -34044.081    2588.1045   -36632.186    20.990832    242.80074 
    6550    136.80421   -1659.5689    133495.85   -34032.754    2583.7407   -36616.495    21.182064    242.39135 
    6600    137.47391     -1140.09    133460.91    -33987.95     2596.389   -36584.339    21.309277    243.57793 
    6650    137.01972    -1438.883    133408.84   -34009.297    2587.8109   -36597.108    21.482281    242.77319 
    6700     140.0807    -1225.313    133443.46   -33971.773    2645.6219   -36617.395    21.681197    248.19668 
    6750    137.68799   -1356.5699    133401.02   -34068.347    2600.4322   -36668.779    21.818462    243.95725 
    6800    137.95257   -1395.6105     133455.5   -34028.132    2605.4292   -36633.561    21.884779    244.42603 
    6850    142.33939   -1089.6475    133527.21   -34001.321    2688.2804   -36689.601    22.016856    252.19865 
    6900    142.62783   -1394.3367    133566.74   -34012.469     2693.728   -36706.197    22.158752    252.70971 
    6950     142.4685   -1080.6361    133622.57   -34015.374    2690.7189   -36706.093    22.275481    252.42741 
    7000    141.20402   -1272.4673    133608.15   -34076.627    2666.8375   -36743.464    22.308239      250.187 
    7050    140.78315   -1374.1003    133637.96   -34054.725    2658.8886   -36713.613    22.420651    249.44128 
    7100    140.67329   -1079.1067    133721.27   -33962.059    2656.8138   -36618.873    22.606653    249.24664 
    7150    139.27339   -1301.3683    133769.18   -33952.377    2630.3746   -36582.752      22.7697    246.76627 
    7200    138.13297   -1239.2101    133803.87   -33992.846    2608.8363   -36601.682    22.774253    244.74567 
    7250    137.55014   -1551.8965    133796.96   -34026.132    2597.8286   -36623.961     22.89293      243.713 
    7300    137.54188   -1547.3021    133710.17   -34012.112    2597.6728   -36609.785    23.057787    243.69837 
    7350    140.38242   -1272.3668    133546.46   -34030.429    2651.3203    -36681.75    23.169233    248.73127 
    7400    139.29057   -1273.8395    133592.12   -34054.657    2630.6992   -36685.356    23.375363    246.79672 
    7450    138.61945     -1383.78    133566.32   -34079.788    2618.0241   -36697.812    23.518975    245.60761 
    7500    139.55226   -1515.3395    133552.54   -34072.652    2635.6415   -36708.293    23.751306    247.26038 
    7550    138.65538   -1220.9316    133537.66   -34081.746    2618.7027   -36700.449    24.133634    245.67127 
    7600    140.87125   -1471.4463    133569.01   -34103.203    2660.5525   -36763.755    24.240525    249.59738 
    7650    138.30901   -1039.7593    133511.84   -34080.742     2612.161   -36692.903     24.34601    245.05757 
    7700    140.46523   -1066.7575    133507.23   -34118.891    2652.8842   -36771.775    24.576418    248.87799 
    7750    139.55868   -1120.5723    133507.79   -34093.677    2635.7628    -36729.44    24.716928    247.27176 
    7800    139.80169   -787.66284    133651.62   -34058.272    2640.3524   -36698.625    24.813233    247.70233 
    7850    142.51781    -1012.633    133762.02   -33985.944    2691.6501   -36677.594    25.065758    252.51478 
    7900      138.697   -1468.0326    133771.28    -34064.21    2619.4887   -36683.698    25.175515    245.74501 
    7950    136.50093   -1164.1974    133746.56   -34131.505    2578.0129   -36709.517    25.370894      241.854 
    8000    137.28166   -1170.7031    133703.37   -34105.968    2592.7581   -36698.726    25.731269     243.2373 
    8050    140.05571   -1353.3339    133657.83   -34102.644    2645.1499   -36747.793    25.862232     248.1524 
    8100     140.7556   -1355.5431    133612.45   -34097.794    2658.3683   -36756.162    25.819048    249.39247 
    8150       137.19   -1363.6233       133521   -34069.314     2591.027   -36660.341     25.93455    243.07491 
    8200    137.90687   -1313.1824    133402.97    -34114.47     2604.566   -36719.036    26.109144    244.34505 
    8250     138.1692   -1389.7253    133393.97   -34154.329    2609.5205    -36763.85    26.314638    244.80986 
    8300    138.83952   -1345.7166    133357.37    -34139.67    2622.1804   -36761.851    26.506341    245.99753 
    8350    136.92052   -1534.0217    133255.76   -34160.541    2585.9374   -36746.478    26.524023    242.59743 
    8400    136.70802   -1212.2624    133190.16   -34126.818    2581.9241   -36708.742      26.7221    242.22093 
    8450    138.00697   -1520.8778    133197.37   -34125.685    2606.4566   -36732.141    26.833445    244.52242 
    8500    141.10526   -1325.6005    133160.78   -34091.794    2664.9722   -36756.767    26.863933    250.01201 
    8550    135.96515   -1643.5683    133152.02   -34054.308    2567.8939   -36622.202    27.017932     240.9047 
    8600     140.5789   -1525.2677    133036.52   -34013.009     2655.031    -36668.04    26.962768    249.07939 
    8650    141.80264   -1319.5258    133041.96   -34039.529    2678.1431   -36717.672     27.15762    251.24763 
    8700    140.04555   -1316.0395    132983.67   -34044.304    2644.9581   -36689.262    27.448303     248.1344 
    8750    141.57622   -1318.4294    132976.48    -34042.28    2673.8669   -36716.147    27.560972    250.84645 
    8800    143.55622   -1258.7417    132941.55   -34024.633     2711.262   -36735.895    27.743081    254.35464 
    8850    138.02637     -1252.25    132902.42   -34058.716    2606.8229   -36665.539    27.937079    244.55678 
    8900    140.97466   -1165.2976    132884.43   -34058.519    2662.5055   -36721.024    28.047177     249.7806 
    8950    138.71912   -1180.2351    132951.62   -34051.302    2619.9066   -36671.209    28.245329    245.78422 
    9000     140.0216   -1134.8654    132956.17   -34045.167    2644.5057   -36689.673    28.403034    248.09196 
    9050     141.7114   -1169.7703    132921.94   -34056.787      2676.42   -36733.207    28.394888    251.08597 
    9100    137.89457    -1199.702    132909.87   -34069.595    2604.3338   -36673.928    28.641412    244.32327 
    9150    138.76056   -878.96994    132971.84   -34090.367    2620.6892   -36711.057    28.769313    245.85764 
    9200     138.0014   -1022.9497    133108.69   -34108.977    2606.3513   -36715.328     28.95056    244.51254 
    9250    139.29473   -1194.5432    133182.49   -34073.653    2630.7777   -36704.431    29.245953    246.80408 
    9300    137.99954   -1253.1445    133198.76   -34097.858    2606.3162   -36704.174    29.522386    244.50925 
    9350    137.60078   -1096.2328    133252.82   -34059.398     2598.785   -36658.183    29.725564    243.80272 
    9400    141.87761   -1383.5139    133196.01   -34037.565    2679.5591   -36717.124    29.864969    251.38047 
    9450    140.13092   -1486.1014    133045.88   -34013.147    2646.5704   -36659.717    30.008609    248.28566 
    9500    139.85699   -1083.2836    133018.26    -34038.55    2641.3968   -36679.947    30.155666     247.8003 
    9550    139.82335   -1143.8106    132970.92   -34041.509    2640.7615   -36682.271    30.388207     247.7407 
    9600    140.02625   -1323.3266     132938.7   -34041.475    2644.5935   -36686.069    30.439106     248.1002 
    9650    140.67656    -1208.079    132970.58   -34054.092    2656.8755   -36710.967    30.667999    249.25242 
    9700    137.83416   -1337.2102    132991.41   -34110.947    2603.1928    -36714.14    30.774145    244.21623 
    9750    138.61861   -1359.8626    132985.11   -34133.845    2618.0082   -36751.853    30.866495    245.60612 
    9800    139.83196   -1168.6103    132987.49   -34123.227    2640.9242   -36764.152    31.069466    247.75596 
    9850    140.13519   -910.77404    132969.17   -34061.487     2646.651   -36708.138    31.295961    248.29322 
    9900    138.69868   -1122.1511    132969.51   -34056.873    2619.5205   -36676.393    31.438238      245.748 
    9950    142.17863   -1324.7611    132875.14   -34045.221    2685.2443   -36730.466    31.374138    251.91381 
   10000    139.87618   -1315.1269     132833.5    -34026.86    2641.7593   -36668.619    31.577217    247.83431 
   10050    141.00392   -1376.2348    132806.09   -34027.436    2663.0581   -36690.494    31.787027    249.83244 
   10100    142.70056   -1075.2263    132845.89   -33971.989    2695.1017   -36667.091    32.084427    252.83858 
   10150    143.07795   -985.81195    132863.57    -33981.41    2702.2292    -36683.64    32.176939    253.50724 
   10200    142.13969   -1102.4609    132818.95   -33955.484    2684.5089   -36639.992     32.38591    251.84483 
   10250    140.06726   -1116.5842    132837.99   -33981.435     2645.368   -36626.803    32.524167    248.17286 
   10300    137.11225   -1222.4642    132894.82   -34027.245    2589.5585   -36616.804     32.61728    242.93714 
   10350    140.03498   -1146.0493    132920.75   -34033.732    2644.7584    -36678.49    32.627839    248.11567 
   10400    142.74366   -964.95144    132956.32   -34045.635    2695.9157   -36741.551    32.760789    252.91494 
   10450    142.94472   -1329.2914    132958.72   -34011.369     2699.713   -36711.082    32.633601    253.27119 
   10500    142.54531   -1298.1163     132916.1   -34018.282    2692.1696   -36710.452    32.720914    252.56351 
   10550    143.37211   -1178.8781    132964.93   -34020.889    2707.7849   -36728.674    32.808966    254.02844 
   10600    141.40186   -1130.9261    133054.59   -34034.213    2670.5739   -36704.787    33.028931    250.53752 
   10650     139.5701   -1232.8441    133153.78   -34070.144    2635.9784   -36706.123    33.194533    247.29198 
   10700    136.50993   -1264.2342    133155.33   -34085.484    2578.1828   -36663.667    33.432443    241.86994 
   10750    138.14057    -924.4349    133233.41    -34012.07    2608.9798    -36621.05     33.71929    244.75913 
   10800    137.68513   -1200.1366    133307.04   -34003.133    2600.3781   -36603.511    33.773143    243.95217 
   10850    138.08494   -1308.0782    133230.37   -34059.947     2607.929   -36667.876    33.874386    244.66056 
   10900    138.19174   -1167.4976    133206.25   -34057.324    2609.9462    -36667.27    33.796571    244.84979 
   10950    141.07431   -1258.4017    133122.46   -34030.538    2664.3877   -36694.925    33.812996    249.95717 
   11000    138.66368   -1101.5478    133083.18   -34035.216    2618.8595   -36654.076    34.011558    245.68599 
   11050    137.80904   -1136.9768    133043.78   -34050.879    2602.7183   -36653.597    34.085444    244.17171 
   11100    138.71481   -1070.8487    133086.06   -34072.368    2619.8252   -36692.193    34.416008    245.77658 
   11150    138.13841   -1296.6587    133103.58   -34072.041     2608.939    -36680.98    34.667658     244.7553 
   11200    138.64209    -1023.666    133116.13   -34073.206    2618.4517   -36691.658    34.696541    245.64773 
   11250    140.35235   -1007.5954    133153.25    -34055.02    2650.7523   -36705.773    34.903536    248.67798 
   11300    140.63776   -1499.2027    133018.75   -34053.216    2656.1427   -36709.359    35.025352    249.18368 
   11350    140.93356   -1286.1395    132947.19   -34003.218    2661.7294   -36664.947    35.260501    249.70779 
   11400    140.57894   -1126.7811    132861.81   -34026.143    2655.0319   -36681.175     35.44014    249.07947 
   11450    141.06157   -1246.9224    132827.66   -34036.247    2664.1469   -36700.394    35.693479    249.93459 
   11500    139.72022   -1356.7743    132767.85   -34042.745    2638.8137   -36681.559    35.912286    247.55797 
   11550    138.81425   -1397.0109    132750.98   -34019.338    2621.7033   -36641.041    36.039218    245.95277 
   11600    142.35144   -1334.7581    132615.18   -33966.317     2688.508   -36654.825    36.150755       252.22 
   11650    141.49822   -1410.1345    132567.26   -34000.375    2672.3937   -36672.768    36.303233    250.70825 
   11700    143.89392    -1313.188    132545.32   -33992.428    2717.6399   -36710.068    36.313851    254.95299 
   11750    139.82134   -1239.5062    132516.35   -34041.353    2640.7235   -36682.077    36.431375    247.73714 
   11800    138.08889    -1014.725    132531.73   -34108.998    2608.0038   -36717.001    36.730702    244.66757 
   11850    140.79347   -944.09791    132625.09   -34109.791    2659.0835   -36768.874     36.95859    249.45957 
   11900    136.95722    -1067.145    132730.69   -34102.959    2586.6305    -36689.59    37.141682    242.66245 
   11950    139.03155   -1143.5338    132783.73   -34120.138    2625.8073   -36745.946    37.225942    246.33779 
   12000    142.76648   -1337.2504     132772.2   -34115.025    2696.3467   -36811.372    37.404672    252.95538 
   12050      138.875   -1177.7747     132719.9   -34143.645    2622.8505   -36766.496     37.37267     246.0604 
   12100    139.70229   -1445.6439    132766.58   -34108.366     2638.475   -36746.841    37.381497     247.5262 
   12150    137.62977    -1121.445    132750.72   -34113.363    2599.3325   -36712.696    37.583846    243.85408 
   12200    140.25976   -1280.4075    132740.03   -34134.012    2649.0036   -36783.016    37.714682    248.51393 
   12250    136.29008   -1323.8929    132722.79   -34127.226    2574.0307   -36701.257    37.783811    241.48042 
   12300    137.42132   -1254.5525    132711.88   -34128.373    2595.3958   -36723.768    37.855001    243.48476 
   12350    140.21355   -1259.5512    132719.12   -34175.518    2648.1309   -36823.649    37.882297    248.43206 
   12400    138.98227   -1271.8217    132748.11   -34197.267    2624.8765   -36822.144    38.061787    246.25047 
   12450    138.27866   -1319.6686    132725.77   -34144.423    2611.5878   -36756.011    38.335009     245.0038 
   12500    138.16549   -1303.0145    132765.48   -34150.063    2609.4505   -36759.513    38.442037    244.80329 
   12550    137.11085   -1299.9256    132813.13   -34151.182     2589.532   -36740.714     38.47194    242.93466 
   12600    138.85383   -1383.8116    132807.97   -34117.477    2622.4507   -36739.927    38.658825    246.02289 
   12650    138.58917   -1016.0824    132828.11   -34088.202    2617.4522   -36705.654    38.762969    245.55397 
   12700    139.71243   -1024.8799    132893.46   -34045.806    2638.6666   -36684.473    38.855571    247.54417 
   12750    138.33658   -1297.0805    132944.35   -34047.652    2612.6817   -36660.334    38.888251    245.10642 
   12800    140.25338   -1209.1303    132952.17   -34080.487    2648.8832    -36729.37    39.093282    248.50263 
   12850    141.02345   -879.80653    133043.71     -34047.3    2663.4271   -36710.727    39.283559    249.86705 
   12900    141.84848    -978.5996    133247.84   -34044.975    2679.0089   -36723.984     39.39227    251.32885 
   12950    140.90434   -1010.3428     133369.3   -34049.122    2661.1775   -36710.299    39.584417    249.65602 
   13000     141.1802   -1140.8001    133386.21   -34017.196    2666.3875   -36683.584    39.748445    250.14478 
   13050    143.62436   -1004.9998    133447.19   -34048.424     2712.549   -36760.973     39.87666    254.47538 
   13100    142.19564   -1023.7784    133452.21   -34060.855    2685.5655   -36746.421    40.102612    251.94395 
   13150    139.35211   -1133.7064    133444.13   -34145.828    2631.8614    -36777.69    40.242212    246.90575 
   13200    137.95909   -1141.8688     133482.4    -34129.88    2605.5523   -36735.432    40.320454    244.43758 
   13250    138.92313   -1157.7355    133473.98   -34128.062    2623.7596   -36751.822    40.313581    246.14569 
   13300    138.17206    -1216.106    133512.16   -34124.223    2609.5744   -36733.797    40.458689    244.81492 
   13350    141.30038   -1258.5222    133517.05   -34115.823    2668.6572    -36784.48    40.623304    250.35772 
   13400    141.61678   -1181.2781    133576.54   -34100.169    2674.6329   -36774.802    40.888737    250.91832 
   13450    143.07147   -1411.8292    133625.85    -34166.57    2702.1068   -36868.677    41.039062    253.49576 
   13500    140.77106   -1373.0479       133579   -34162.342    2658.6603   -36821.002    40.952156    249.41986 
   13550     138.2607   -1356.4172    133592.55   -34164.577    2611.2487   -36775.825    40.898552    244.97199 
   13600    140.39257   -1498.8325    133639.39   -34130.547     2651.512   -36782.059     41.08042    248.74925 
   13650    136.45849    -1486.728    133490.54    -34195.79    2577.2114   -36773.001    41.326629    241.77881 
   13700     133.1035   -1257.4181     133385.2   -34228.733    2513.8476    -36742.58    41.190178    235.83439 
   13750    135.99462   -1340.9424    133347.71    -34200.38    2568.4505    -36768.83    41.296786    240.95692 
   13800    141.93027   -1413.7018    133364.86   -34172.696    2680.5536    -36853.25    41.519961    251.47376 
   13850    137.98867    -1303.492    133319.02   -34128.293     2606.111   -36734.404    41.640752       244.49 
   13900    140.38626   -1278.7222    133321.92   -34134.274    2651.3928   -36785.666    41.620601    248.73807 
   13950    138.94855   -1436.0084    133304.43   -34130.505    2624.2397   -36754.745    41.699752    246.19073 
   14000    140.17706    -1126.534    133347.64   -34136.535    2647.4418   -36783.977     41.80914    248.36741 
   14050    138.68984   -1326.1343    133362.77   -34189.164    2619.3535   -36808.517    42.051741    245.73234 
   14100    140.54267    -1098.535    133319.54   -34144.829    2654.3468   -36799.176     42.22368     249.0152 
   14150    140.01688   -1184.4226     133303.6   -34154.211    2644.4166   -36798.628    42.377368    248.08361 
   14200    144.14928   -1138.0507    133317.09   -34162.282    2722.4627   -36884.745    42.554874    255.40543 
   14250    138.81708   -1239.5032    133315.64   -34205.733    2621.7567    -36827.49    42.748018    245.95779 
   14300    137.93778   -1462.5736    133283.54   -34191.747    2605.1499   -36796.897    42.774206    244.39983 
   14350    139.78954    -1079.325    133234.71   -34166.665    2640.1229   -36806.788    42.731678    247.68079 
   14400    138.65585   -1222.7255    133176.45   -34112.465    2618.7116   -36731.177    42.767087    245.67211 
   14450    138.87894   -1126.5173    133100.01   -34197.063    2622.9249   -36819.988    43.045453    246.06738 
   14500    137.55072   -914.78899    133204.87    -34167.24    2597.8395   -36765.079    43.194603    243.71402 
   14550    139.22147   -1124.6366    133271.77    -34158.47    2629.3941   -36787.864    43.337406    246.67428 
   14600    139.01879   -1039.7499     133285.3   -34178.788    2625.5663   -36804.354    43.472164    246.31518 
   14650    140.64807   -1079.7013    133169.81   -34167.572    2656.3374    -36823.91    43.448933    249.20194 
   14700     137.7908   -1157.2334    133115.39   -34197.787    2602.3739   -36800.161    43.421413     244.1394 
   14750    136.97154   -1159.9998    133121.42   -34212.749     2586.901    -36799.65    43.235192    242.68783 
   14800    134.83659   -919.60928    133161.31   -34172.133    2546.5794   -36718.712     43.37366     238.9051 
   14850     138.1559   -1168.3464    133205.52   -34149.373    2609.2693   -36758.643    43.339459    244.78629 
   14900    141.20273   -1068.1786    133290.51   -34161.198     2666.813   -36828.011    43.251591    250.18471 
   14950    140.05177   -1209.5184    133369.05   -34177.658    2645.0755   -36822.734    43.448225    248.14542 
   15000    136.45977   -1041.4834    133429.83   -34205.061    2577.2355   -36782.297     43.50552    241.78107 
   15050    138.54647   -1364.3864    133400.01   -34201.686    2616.6458   -36818.332    43.808703    245.47831 
   15100    139.70735   -1138.9175    133326.69   -34162.686    2638.5706   -36801.256    43.938535    247.53517 
   15150    140.33647   -1477.6431    133308.71   -34140.688    2650.4525   -36791.141    43.972228    248.64986 
   15200    142.25799   -1315.8483    133321.52   -34150.857    2686.7431     -36837.6    44.155434    252.05443 
   15250    139.00101   -1351.7015     133292.5   -34216.879    2625.2303   -36842.109    44.269776    246.28366 
   15300    135.96755   -1204.1983    133312.36   -34191.471    2567.9393    -36759.41    44.412988    240.90895 
   15350    139.42717   -1207.6519    133335.23   -34159.851     2633.279    -36793.13    44.449218    247.03874 
   15400    138.58092   -1148.2435    133328.02   -34139.159    2617.2964   -36756.456    44.471203    245.53935 
   15450    138.97125   -1136.2437    133385.17    -34151.81    2624.6683   -36776.478    44.600675    246.23093 
   15500     142.2224   -1170.4795    133445.56   -34136.603    2686.0709   -36822.673    44.651644    251.99136 
   15550    140.78229   -1113.4034    133554.22   -34050.384    2658.8725   -36709.257    44.955697    249.43977 
   15600    138.53421   -954.81759    133605.49   -34072.812    2616.4143   -36689.226    45.033245     245.4566 
   15650    141.39499   -1105.6016    133668.97   -34012.406    2670.4441   -36682.851    45.091594    250.52535 
   15700    139.77092   -1077.5547     133699.7   -34043.669    2639.7713    -36683.44    45.047393    247.64781 
   15750    141.89708   -1189.9569    133772.54   -34042.088    2679.9267   -36722.015    45.229989    251.41495 
   15800    139.11916   -1423.3205    133701.34   -34102.031    2627.4618   -36729.493    45.412726      246.493 
   15850    142.03092     -1138.01    133724.96   -34084.228    2682.4544   -36766.683    45.516046    251.65209 
   15900    138.14097   -1214.5113    133627.29   -34165.212    2608.9874     -36774.2    45.673883    244.75985 
   15950    138.93788   -1009.2087    133622.01   -34164.962    2624.0382       -36789    46.114831    246.17182 
   16000    137.52358   -1197.2475    133643.11   -34136.938     2597.327   -36734.265    46.245423    243.66593 
   16050    138.20788   -871.69138    133685.12   -34114.498     2610.251   -36724.749    46.339066    244.87839 
   16100    141.29026   -1280.0618    133675.46   -34103.935    2668.4661   -36772.401    46.385922    250.33979 
   16150     142.9875   -964.11214    133686.67   -34115.542    2700.5209   -36816.063    46.524483    253.34698 
   16200    139.77924   -1129.4641    133687.27   -34166.219    2639.9284   -36806.147    46.691809    247.66255 
   16250    140.70463   -1278.3295    133663.66   -34084.334    2657.4057    -36741.74    46.800869    249.30216 
   16300    139.41946   -1323.1713    133624.25   -34151.677    2633.1334    -36784.81     46.98391    247.02508 
   16350    140.54255   -1156.8447    133599.54   -34129.143    2654.3446   -36783.488    47.102668    249.01499 
   16400     139.6934   -1326.1753    133577.48   -34123.271    2638.3071   -36761.578    47.209557    247.51045 
   16450    144.08028   -1091.3856    133586.95   -34077.767    2721.1596   -36798.927    47.293719    255.28318 
   16500    139.82419   -1164.4908    133570.54   -34106.959    2640.7773   -36747.737    47.223805    247.74219 
   16550    138.65278    -1139.224    133534.73   -34156.796    2618.6536   -36775.449    47.257466    245.66667 
   16600    140.93289    -914.5568    133555.94   -34112.083    2661.7167     -36773.8    47.303856     249.7066 
   16650    141.73912   -1223.3319    133605.43   -34072.557    2676.9435   -36749.501    47.352566    251.13509 
   16700    140.88813   -1215.2069    133555.79   -34078.546    2660.8713   -36739.418    47.386705    249.62729 
   16750    138.43049   -1305.9326    133577.34   -34075.725    2614.4553    -36690.18    47.496942    245.27281 
   16800    139.99153   -1366.9389    133555.54   -34132.656    2643.9378   -36776.594    47.642529    248.03869 
   16850    140.56837   -1363.6542     133553.3    -34118.82    2654.8322   -36773.652    48.041919    249.06074 
   16900    139.90916   -1319.8097     133510.4   -34131.728    2642.3822   -36774.111    48.145118    247.89275 
   16950    136.31647   -1452.7167    133522.84    -34227.17    2574.5291   -36801.699    48.384927    241.52717 
   17000    136.60119   -1360.6745    133514.16   -34255.045    2579.9065   -36834.951    48.669445    242.03164 
   17050    138.37273     -1427.56    133466.35   -34220.514    2613.3645   -36833.878    48.661503    245.17048 
   17100    141.42045   -1525.0571    133345.84    -34121.61     2670.925   -36792.535    48.779565    250.57047 
   17150    139.49149   -1357.7809    133130.82   -34098.844    2634.4938   -36733.338    48.896684    247.15271 
   17200    140.36661   -1160.3975    133098.83   -34096.468    2651.0218    -36747.49    48.933821    248.70326 
   17250    139.50807    -1198.027    133113.28   -34076.804    2634.8069   -36711.611    49.113434    247.18208 
   17300    138.41619   -1110.9283    133144.01   -34047.609    2614.1853   -36661.795    49.474008    245.24748 
   17350    144.77593   -1289.3959    133142.19   -34042.426    2734.2979   -36776.724    49.637298    256.51574 
   17400    142.12382   -1167.6722    133151.15   -34030.968    2684.2091   -36715.178    49.757192     251.8167 
   17450    143.75949   -1191.0667    133108.93   -34003.938    2715.1011   -36719.039    49.924892    254.71481 
   17500    142.26445   -1131.4994    133113.12   -34034.177    2686.8651   -36721.042    50.216679    252.06587 
   17550    138.01747   -1096.6544    133151.26   -34089.315    2606.6549    -36695.97    50.288151    244.54103 
   17600    141.89826   -1251.3936    133205.98    -34060.05    2679.9491   -36739.999    50.531867    251.41705 
   17650    143.43349    -1215.428    133285.04   -34005.564    2708.9441   -36714.508    50.815108    254.13719 
   17700    142.94432   -1368.7847    133244.24   -34035.727    2699.7055   -36735.433    50.813513    253.27048 
   17750    139.51192   -1383.1839    133238.16   -34065.028    2634.8797   -36699.908    50.895942     247.1889 
   17800    140.38921   -993.86146    133308.83   -34068.656    2651.4486   -36720.105    50.941946     248.7433 
   17850    138.06583   -1328.4575    133277.09    -34073.41    2607.5682   -36680.978    50.835555     244.6267 
   17900     138.8171   -1085.8952    133340.61   -34075.777     2621.757   -36697.534    50.981377    245.95782 
   17950     141.8211   -1380.1454    133367.67   -34047.436    2678.4918   -36725.927    51.113166    251.28034 
   18000    141.09657   -1227.7795    133352.16   -34102.507    2664.8081   -36767.315    51.234793    249.99661 
   18050    139.07987   -1221.5409    133282.03   -34099.874    2626.7198   -36726.594    51.450368    246.42339 
   18100    140.33026   -1064.7501       133247   -34117.126    2650.3351   -36767.461    51.761314    248.63885 
   18150     140.7591    -991.7536    133246.87    -34054.07    2658.4345   -36712.504    52.051441    249.39868 
   18200    143.01439   -1064.8898    133323.76   -34000.274    2701.0287   -36701.303     52.17766    253.39462 
   18250    140.27755    -1360.077    133416.83   -33970.003    2649.3398   -36619.343    52.318316    248.54547 
   18300    140.70483   -1258.7646    133444.61   -33971.535    2657.4094   -36628.944    52.328699    249.30251 
   18350    141.79111   -1287.3673    133359.09   -33976.309    2677.9253   -36654.234    52.445217     251.2272 
   18400    142.20065   -1363.2913    133368.36   -34004.983    2685.6602   -36690.643     52.64947    251.95284 
   18450    144.03581   -1150.6504    133332.45   -33997.006    2720.3197   -36717.326    52.690976    255.20439 
   18500    144.63305   -1353.1247    133379.41   -33977.319    2731.5994   -36708.918    52.952835    256.26258 
   18550    140.97475   -1165.7854    133341.02   -34025.233    2662.5072    -36687.74    53.088211    249.78076 
   18600     143.4949   -1253.6082    133337.94   -34038.216    2710.1039    -36748.32    53.301247      254.246 
   18650     141.9378   -964.53648    133346.74   -34038.229    2680.6958   -36718.925    53.521723    251.48711 
   18700    142.68958   -1165.0961    133385.86   -34038.753    2694.8942   -36733.647    53.835474    252.81912 
   18750    136.39325   -1159.0622    133313.15   -34118.178    2575.9792   -36694.157    53.979866    241.66321 
   18800    138.57063   -1383.8696    133310.14   -34118.841     2617.102   -36735.943    54.322417    245.52111 
   18850    140.56721   -1325.2963    133320.59   -34053.121    2654.8104   -36707.931    54.328939    249.05869 
   18900    139.57193   -991.25685    133261.51    -34016.45    2636.0131   -36652.463    54.429558    247.29524 
   18950    141.04613   -1011.9156    133352.31    -33977.37    2663.8554   -36641.225    54.590074    249.90724 
   19000    140.38799   -1188.2402    133411.52   -33984.064    2651.4255   -36635.489    54.790911    248.74113 
   19050    142.67984   -1234.4307     133427.8   -33925.881    2694.7103   -36620.591    55.129266    252.80187 
   19100    140.66106   -1218.7432    133471.19   -33974.985    2656.5828   -36631.567    55.405493    249.22497 
   19150    139.32589    -1313.173    133383.28    -34033.06    2631.3663   -36664.426    55.593503     246.8593 
   19200     139.8888   -1165.6634    133312.83   -34094.189    2641.9976   -36736.187    55.581566    247.85667 
   19250    138.12629   -1315.3046     133222.4   -34108.616    2608.7101   -36717.326    55.851983    244.73383 
   19300    139.71323   -1124.4014    133175.69   -34087.792    2638.6816   -36726.474    56.070803    247.54558 
   19350    140.52818   -1312.1387     133132.6   -34081.506    2654.0732   -36735.579    56.177974    248.98953 
   19400    137.93663   -1053.4283    133098.86   -34070.059    2605.1282   -36675.187    56.377709     244.3978 
   19450    137.56468   -1329.5949    133144.78   -34071.523    2598.1033   -36669.626    56.526471    243.73876 
   19500    139.12177   -1209.2418    133078.21   -34086.464    2627.5112   -36713.975    56.609878    246.49764 
   19550    139.22057   -1366.8993    133014.63    -34126.17    2629.3772   -36755.547    56.701046     246.6727 
   19600    135.65675   -1292.6823    132868.34     -34169.3    2562.0694    -36731.37     57.01716    240.35828 
   19650    138.31189   -1212.5951    132905.91   -34119.158    2612.2153   -36731.373     57.03384    245.06267 
   19700    137.52627   -1292.3537    132892.24   -34100.464    2597.3779   -36697.842    57.104588    243.67071 
   19750    140.18506   -1292.1278    132850.49   -34043.634    2647.5928   -36691.227    57.240384    248.38157 
   19800    137.93202   -1189.4517    132858.67   -34064.556    2605.0411   -36669.597    57.340639    244.38962 
   19850    139.11652   -1243.6752    132870.64   -34057.226    2627.4121   -36684.638    57.713732    246.48834 
   19900    140.43915   -1392.1331    132846.38    -34028.56    2652.3917   -36680.952    57.891114    248.83178 
   19950    139.04736   -1427.8365    132759.72    -34082.58    2626.1058   -36708.686    57.838786    246.36579 
   20000    139.44751   -1169.7876    132655.87   -34126.638    2633.6632   -36760.301    58.160562    247.07478 
   20050    138.69035   -1384.5938    132661.76   -34168.539    2619.3632   -36787.902    58.333353    245.73324 
   20100    140.05175   -1303.4057    132654.74   -34121.823    2645.0751   -36766.898    58.455927    248.14538 
   20150    142.18371   -1097.9481    132753.54   -34097.251    2685.3401   -36782.592    58.765069    251.92281 
   20200    139.79354   -1076.1493    132869.07   -34097.672    2640.1985   -36737.871    59.294783    247.68789 
   20250    139.24812   -1175.6322    132872.18   -34100.599    2629.8975   -36730.496      59.4834    246.72151 
   20300    140.46635   -1294.3161     132930.5   -34084.241    2652.9054   -36737.146    59.662582    248.87998 
   20350    139.32223   -1279.9116    132882.58    -34141.26    2631.2971   -36772.557    59.644678    246.85281 
   20400    138.01377   -920.13952    132935.95   -34112.655     2606.585    -36719.24    59.688128    244.53447 
   20450    138.59355   -1236.7387    132964.28   -34090.227    2617.5349   -36707.762    60.244174    245.56172 
   20500    136.49933   -1351.7298    132936.29   -34139.078    2577.9827   -36717.061    60.388439    241.85117 
   20550    135.41853   -1126.8742    132963.32   -34146.462    2557.5702   -36704.033    60.521866    239.93619 
   20600    139.43798   -1066.9914    132963.26   -34169.438    2633.4832   -36802.921    60.555217     247.0579 
   20650    134.79138   -1114.8741    132926.32   -34143.799    2545.7255   -36689.525     60.54066    238.82499 
   20700    140.27907   -857.95832    133021.72   -34093.488    2649.3683   -36742.856    60.626736    248.54814 
   20750    136.73469   -1189.0624    133031.79   -34114.465    2582.4277   -36696.893    60.840872    242.26817 
   20800    137.90309   -1234.6009    133006.88   -34134.304    2604.4947   -36738.798    61.161191    244.33836 
   20850    136.51527   -1405.4101    132968.52   -34205.662    2578.2837   -36783.946    61.370634    241.87941 
   20900    135.44665   -1315.2657    133051.82   -34195.312    2558.1013   -36753.413    61.388114    239.98601 
   20950    138.17154   -1219.9795    133086.78   -34151.544    2609.5647   -36761.109     61.32108      244.814 
   21000    141.04754   -1191.9502     133104.6   -34104.821     2663.882   -36768.703    61.299613    249.90974 
   21050    138.88549   -1337.8243    133123.89   -34085.921    2623.0487   -36708.969    61.483948      246.079 
   21100    143.84301   -1224.9078    133142.24   -34046.664    2716.6784   -36763.343    61.612582    254.86278 
   21150    141.79121   -1251.0059    133142.74   -34116.904    2677.9273   -36794.832    61.706334    251.22738 
   21200    139.79055   -1339.1639    133123.04   -34160.434    2640.1419   -36800.576    61.762059    247.68258 
   21250    138.60055   -955.37151    133228.95   -34103.248    2617.6672   -36720.915    61.946407    245.57413 
   21300    141.38471   -1256.2786    133250.37   -34047.221    2670.2499    -36717.47    61.962361    250.50713 
   21350    137.88751   -1322.9071    133249.93   -34076.925    2604.2004   -36681.125    62.281501    244.31076 
   21400    138.75127   -1050.9304    133257.23   -34067.866    2620.5137   -36688.379    62.476893    245.84118 
   21450     142.5571   -1326.8197    133257.72   -34030.747    2692.3922    -36723.14    62.560474    252.58439 
   21500    140.24245   -1190.6555    133192.87   -34076.936    2648.6767   -36725.612    62.639316    248.48326 
   21550    140.87543   -1170.8537    133197.81   -34057.603    2660.6316   -36718.234    62.936093     249.6048 
   21600    140.14832   -1288.4311    133142.23   -34130.075    2646.8991   -36776.974    63.211725    248.31649 
   21650    137.66657   -1126.6585    133135.98    -34124.84    2600.0275   -36724.868    63.454774    243.91928 
   21700    141.46316   -1487.3682    133118.24   -34100.034    2671.7316   -36771.765     63.70208    250.64614 
   21750    138.18869   -1312.9884     133043.2   -34086.917    2609.8886   -36696.805    63.673246    244.84439 
   21800    136.43033   -1259.0146    133051.72    -34077.95    2576.6795    -36654.63    63.774356    241.72891 
   21850    139.04013   -1084.2713    133047.67   -34072.752    2625.9692   -36698.722     63.96319    246.35298 
   21900    138.62514    -1008.991    133083.57   -34095.237    2618.1316   -36713.369    64.038952     245.6177 
   21950    137.65498   -1256.6172    133062.52   -34110.718    2599.8087   -36710.527    64.212533    243.89875 
   22000    138.48186   -1466.8202    133013.34   -34145.679    2615.4255   -36761.104    64.124226    245.36383 
   22050    142.11162   -1248.3339    132967.63   -34096.864    2683.9787   -36780.843    64.267403    251.79508 
   22100    141.29167   -1321.5146    132997.13   -34052.844    2668.4927   -36721.337    64.563269    250.34228 
   22150    140.25623   -1126.6144    133063.96   -34027.346     2648.937   -36676.283    64.823233    248.50768 
   22200    140.68098   -1380.5925    133073.53   -34043.586     2656.959   -36700.545    65.248703    249.26026 
   22250    139.35103   -1181.4249    133073.15   -34045.569     2631.841    -36677.41    65.312703    246.90383 
   22300     142.0456   -1192.5934    133077.95    -34059.93    2682.7317   -36742.662     65.72408     251.6781 
   22350    142.48395   -1244.9382    133096.68   -34082.472    2691.0106   -36773.483    66.213439    252.45478 
   22400     141.8779   -1053.6116    133103.08   -34092.864    2679.5646   -36772.429    66.604543    251.38098 
   22450     139.3426   -1104.9395    133143.33   -34065.869    2631.6818   -36697.551    66.621885     246.8889 
   22500     138.3172   -1064.5335    133144.63   -34063.049    2612.3158   -36675.365    66.770985    245.07209 
   22550    137.90064   -1317.2878    133077.55   -34009.923    2604.4483   -36614.371    66.813017    244.33401 
   22600    141.06917   -1145.9205    133016.32   -33972.443    2664.2906   -36636.734    66.926639    249.94807 
   22650    143.03725   -1257.5535    132990.28   -33980.241    2701.4606   -36681.701     66.97915    253.43514 
   22700    140.45102    -1164.086    132956.28   -33970.374    2652.6159    -36622.99    67.091221    248.85281 
   22750    142.72796   -1207.1654    132931.85   -33959.152    2695.6192   -36654.771    67.308254    252.88713 
   22800    141.46039   -1253.1338    132922.34   -33937.948    2671.6792   -36609.627    67.391286    250.64122 
   22850     141.9262   -1184.4706     132913.6   -33947.271    2680.4767   -36627.748    67.603235    251.46655 
   22900    141.82076   -1053.2677    132958.07   -33948.362    2678.4855   -36626.848    67.879286    251.27974 
   22950    138.81049   -1222.3551    133055.11   -33988.948    2621.6322    -36610.58    67.834098    245.94611 
   23000     140.5429   -1138.8169    133082.69   -34001.319    2654.3512    -36655.67    67.891089    249.01561 
   23050    136.42854   -1130.9155    133156.47   -34003.127    2576.6456   -36579.773    67.794556    241.72573 
   23100    141.42165   -1266.0334    133161.09   -33964.555    2670.9476   -36635.503    67.985717    250.57259 
   23150    142.03031   -1374.5255    133116.83   -33940.565     2682.443   -36623.008    67.975024    251.65102 
   23200    140.86843   -1351.9816    133034.62   -33943.519    2660.4994   -36604.018    68.139166    249.59239 
   23250     138.4511   -1292.0611    133016.68   -34004.639    2614.8447   -36619.484     68.46423    245.30934 
   23300    139.64582   -1389.2036    132914.72   -34015.945    2637.4085   -36653.353    68.571209    247.42615 
   23350    140.34161   -1173.1722    132955.15   -33983.713    2650.5495   -36634.263    68.727934    248.65896 
   23400    138.70293   -1256.9848     132992.8   -33978.654    2619.6007   -36598.255    69.126591    245.75553 
   23450    140.03387   -1099.5097    132978.59   -34047.314    2644.7374   -36692.052    69.368424     248.1137 
   23500    139.55256   -1074.5747    132984.23   -34004.245    2635.6472   -36639.893    69.522612    247.26091 
   23550    137.39356   -1231.4109    132912.44   -34060.952    2594.8715   -36655.823    69.482067    243.43558 
   23600    138.25092   -1420.1415    132833.84   -34007.418    2611.0638   -36618.482     69.53709    244.95464 
   23650    141.39413   -938.00668    132857.44   -33966.757    2670.4279   -36637.185    69.801745    250.52383 
   23700    138.79421   -1219.6301    132877.38   -33958.117    2621.3247   -36579.442    70.139083    245.91726 
   23750    141.21354   -1276.1877    132843.28   -33939.804    2667.0172   -36606.822    70.289456    250.20386 
   23800    141.58974   -1237.3651    132878.01   -33922.637    2674.1223   -36596.759    70.298204    250.87042 
   23850    139.90474   -1161.3585    132837.83   -33924.789    2642.2985   -36567.088    70.323686     247.8849 
   23900     143.6805   -1171.9582    132902.97   -33883.122    2713.6092   -36596.731    70.457577    254.57485 
   23950    139.93912    -1282.625    132929.82   -33955.794    2642.9479   -36598.742    70.536034    247.94582 
   24000    141.03962   -1239.2958     132921.2   -33956.703    2663.7325   -36620.435    70.612019    249.89571 
   24050    139.80809   -1198.1052    132923.17   -33977.604    2640.4732   -36618.077    70.609339    247.71366 
   24100    143.57381   -1044.3637    133007.96   -33961.976    2711.5941    -36673.57    70.650174     254.3858 
   24150    140.01725   -1300.9461    132953.61   -33931.094    2644.4235   -36575.518    70.849552    248.08425 
   24200    141.80404   -1082.8417    132931.02   -33912.907    2678.1695   -36591.076    70.921692    251.25011 
   24250    143.35771    -986.2005    132934.17   -33903.779    2707.5129   -36611.292    71.089314    254.00293 
   24300    140.17282   -981.88959    133003.31   -33945.086    2647.3618   -36592.448    71.058036     248.3599 
   24350     140.3017   -1338.5384    132945.54   -33931.801    2649.7959   -36581.597    71.326662    248.58825 
   24400    141.01093    -1366.384    132882.61   -33936.244    2663.1906   -36599.434    71.733954    249.84487 
   24450    135.84637   -1204.8253    132825.31   -33991.793    2565.6505   -36557.444    71.945184    240.69423 
   24500    136.34383   -1245.4071    132685.83   -34021.094    2575.0458    -36596.14    72.044673    241.57565 
   24550    138.94259   -1238.7795    132548.63   -33936.415    2624.1272   -36560.542    72.195391    246.18017 
   24600    141.35042   -1069.8224    132548.67   -33864.473    2669.6023   -36534.075    72.501907    250.44637 
   24650    140.55597   -1043.7874    132596.32   -33852.931     2654.598   -36507.529    72.619389    249.03876 
   24700    142.08963   -1566.2052    132625.02    -33869.36    2683.5634   -36552.924    72.886363    251.75613 
   24750    141.90133   -911.55535    132649.12   -33848.137     2680.007   -36528.144    73.208498    251.42249 
   24800    143.35655   -1088.8349    132786.32   -33856.029    2707.4909    -36563.52    73.378786    254.00086 
   24850    143.24837   -1233.3113    132799.56   -33890.489    2705.4478   -36595.937    73.623506    253.80919 
   24900    138.40312   -1232.0865    132736.25   -34006.008    2613.9384   -36619.946    73.811919    245.22432 
   24950    139.52814   -897.40396    132809.64   -33958.769    2635.1861   -36593.955    74.025836    247.21765 
   25000     141.0539   -856.37103    132923.76   -33959.351    2664.0022   -36623.353    74.122967    249.92101 
   25050    139.66166    -1342.918    132897.54   -33979.759    2637.7078   -36617.467    74.041027    247.45422 
   25100    140.72725   -1089.7644    132906.84   -33967.075     2657.833   -36624.908    74.156591    249.34225 
   25150    138.90891   -1175.6057    132860.09   -33961.609    2623.4909   -36585.099     74.36399    246.12048 
   25200    142.84381   -1193.7265    132810.83   -33947.846    2697.8072   -36645.653    74.543862    253.09239 
   25250    140.24003   -1187.4527    132801.36    -33994.37    2648.6311   -36643.001    74.580254    248.47898 
   25300    140.09538   -1338.5769    132784.28   -34007.071    2645.8992   -36652.971    74.810341    248.22269 
   25350    140.88907   -1150.5509    132746.13   -33940.443    2660.8892   -36601.333    75.079468    249.62896 
   25400    141.48721   -1290.1514    132627.45   -33899.768    2672.1857   -36571.954    75.215721    250.68874 
   25450    138.74882   -1306.1394    132505.46   -33915.934    2620.4674   -36536.402    75.393372    245.83683 
   25500    141.87642   -1336.0895    132445.47   -33879.397    2679.5366   -36558.934    75.600686    251.37836 
   25550    142.11572   -1440.6085    132323.25   -33914.392    2684.0562   -36598.448    75.542419    251.80236 
   25600    141.71615   -1278.5469    132358.34   -33919.073    2676.5098   -36595.582    75.340506     251.0944 
   25650    144.62144   -1252.7858    132332.89   -33918.381    2731.3802   -36649.761    75.574288    256.24202 
   25700    138.98527   -1086.1068    132386.89   -33942.298    2624.9331   -36567.231    75.754468    246.25577 
   25750    141.07647   -1131.8589    132430.14   -33980.515    2664.4284   -36644.944    75.795268    249.96099 
   25800    140.91865   -1004.0131    132462.95   -33907.948    2661.4477   -36569.396    75.574011    249.68136 
   25850    143.07828   -875.86267    132557.49    -33876.51    2702.2353   -36578.746    75.784238    253.50782 
   25900    140.13805   -1251.1119    132646.55   -33913.137     2646.705   -36559.842    75.874895    248.29829 
   25950    138.59569   -1151.6764     132748.1   -33994.838    2617.5754   -36612.413    75.929356    245.56552 
   26000    139.55929   -1360.5281    132776.53   -33969.137    2635.7743   -36604.911    76.107413    247.27283 
   26050    140.00529   -1226.3865     132666.1   -34000.318    2644.1976   -36644.516    76.155844    248.06306 
   26100    142.05079   -1156.0869    132637.65   -33988.484    2682.8298   -36671.314    76.417512     251.6873 
   26150    141.10436    -1243.737    132724.22   -33993.014    2664.9552   -36657.969    76.197341    250.01041 
   26200    141.60252   -1262.1563    132684.16   -33974.231    2674.3635   -36648.595    76.168587    250.89305 
   26250    144.80553   -1371.9135    132609.62   -33972.115    2734.8569   -36706.971    76.183287    256.56818 
   26300    138.91483   -1264.1775    132513.14    -34005.76    2623.6028   -36629.363    76.219894    246.13098 
   26350    139.81704   -1001.7089    132467.41    -33988.05    2640.6424   -36628.692    76.631171    247.72953 
   26400    140.69739    -1085.978    132490.71   -33999.686    2657.2688   -36656.955    76.611353    249.28933 
   26450    140.57982   -1120.3454    132529.13   -34007.595    2655.0484   -36662.643     76.50678    249.08102 
   26500    140.57023    -1162.462    132605.45   -33976.806    2654.8674   -36631.673    76.579437    249.06404 
   26550    141.62551   -887.05968    132698.53   -33954.385    2674.7979   -36629.182    76.934162     250.9338 
   26600    142.07929   -1109.4997    132862.64   -33922.424    2683.3681   -36605.792    77.020025    251.73781 
   26650     141.6027   -1180.7413    132899.53     -33975.6    2674.3669   -36649.966    77.249231    250.89337 
   26700      139.436   -1319.8029    132907.61   -34014.307    2633.4458   -36647.753    77.374591    247.05439 
   26750    141.44083   -1397.1027    132849.67   -34018.425    2671.3099   -36689.735    77.556808    250.60657 
   26800    139.87551   -1418.3882    132817.12   -34008.856    2641.7466   -36650.602    77.589087    247.83312 
   26850    141.02758   -1300.9716    132694.78   -34056.196    2663.5051   -36719.701    77.406961    249.87438 
   26900    139.85413   -1310.1861    132698.98   -34027.724    2641.3428   -36669.067       77.589    247.79524 
   26950    140.36249   -1085.7142    132691.52   -34055.406    2650.9439    -36706.35    78.061494    248.69596 
   27000    140.22552   -1222.8178    132700.37   -34085.168     2648.357   -36733.525    78.008862    248.45327 
   27050    139.47052    -1021.485    132657.55   -34069.617    2634.0977   -36703.715    78.370444    247.11555 
   27100    140.87984   -971.36653    132743.14   -34097.783    2660.7147   -36758.498    78.512231    249.61259 
   27150    141.70976    -1178.118    132810.55   -34036.792    2676.3891   -36713.181    78.718054    251.08307 
   27200     138.4837   -1198.5481    132788.57   -34148.584    2615.4603   -36764.044    78.875239     245.3671 
   27250    142.58353   -1141.6678    132846.48   -34081.418    2692.8913    -36774.31    78.980402    252.63122 
   27300    142.12428   -1279.3369    132781.43    -34082.19    2684.2178   -36766.408    79.259352    251.81752 
   27350    138.24644   -1059.9651    132793.02    -34045.35    2610.9793    -36656.33    79.291413    244.94671 
   27400    138.69243   -1133.0828       132850   -34124.683    2619.4024   -36744.085    79.111107    245.73692 
   27450    140.01101   -1126.6178     132875.8   -34098.296    2644.3057   -36742.602    79.350435     248.0732 
   27500    141.46772   -1532.4895    132805.19    -34071.46    2671.8177   -36743.278    79.501806    250.65422 
   27550    139.36294   -1371.4577     132744.9   -34080.105     2632.066   -36712.171    79.712506    246.92494 
   27600    143.74461   -984.13232    132791.55    -34053.15      2714.82    -36767.97    80.076699    254.68843 
   27650    140.21699   -996.91362    132895.84   -34074.575    2648.1958   -36722.771    79.986112    248.43815 
   27700    139.22563   -1185.6241    132997.97   -34059.439    2629.4726   -36688.911    80.478828    246.68165 
   27750    138.22047   -975.88461    133037.04     -34050.1    2610.4887   -36660.588     80.46403    244.90069 
   27800    137.49655   -1328.0793    133019.49   -34033.143    2596.8165   -36629.959    80.608748    243.61804 
   27850     141.3126   -987.32383     133022.4    -34026.99     2668.888   -36695.878    80.474934    250.37937 
   27900    137.39159   -1221.4233    133075.19   -34131.285    2594.8342   -36726.119    80.635116    243.43208 
   27950    140.93363   -1172.3549    133027.67   -34085.935    2661.7306   -36747.666      81.0048     249.7079 
   28000    141.00582   -1067.9754    133091.96   -33990.775    2663.0941   -36653.869    81.194436    249.83582 
   28050    142.20583   -1257.9941    133158.01   -33974.849     2685.758   -36660.607    81.376181    251.96201 
   28100    142.11702   -1263.4658    133150.88   -33986.777    2684.0806   -36670.858    81.581619    251.80464 
   28150    142.87786   -1462.7468    133115.36   -33993.263    2698.4501   -36691.713    81.814577    253.15271 
   28200    142.90107   -1144.3957     133120.7    -34029.74    2698.8886   -36728.629    82.010386    253.19384 
   28250    139.78146   -1581.4856     133020.1   -34022.492    2639.9703   -36662.463    82.296698    247.66648 
   28300    140.66875      -1310.4    132945.53   -34004.584     2656.728   -36661.312    82.484207    249.23859 
   28350    139.87881   -1362.3347    132892.76   -33979.994    2641.8089   -36621.803    82.770602    247.83897 
   28400    139.01839   -1247.9837    132951.59   -33949.732    2625.5586    -36575.29    82.717592    246.31446 
   28450    138.83081    -1415.107     132877.6   -33970.245    2622.0159   -36592.261    83.018857     245.9821 
   28500    138.07455   -1275.7743    132750.45   -33953.696    2607.7329   -36561.429    83.361632    244.64216 
   28550    139.45921   -1206.9665     132678.1   -33983.392    2633.8842   -36617.276    83.583093    247.09552 
   28600    136.57533   -1256.0581    132641.77    -34033.24     2579.418   -36612.658    83.674805    241.98582 
   28650    137.98754   -1115.4019    132593.36   -34022.198    2606.0896   -36628.288     83.81399    244.48799 
   28700    137.67988   -1345.4166    132622.29   -33981.919    2600.2791   -36582.198    83.920389    243.94288 
   28750     140.7221   -1123.3924    132587.33   -33958.281    2657.7355   -36616.017    84.053266    249.33311 
   28800    144.41555   -1309.2096    132524.06   -33941.121    2727.4917   -36668.612    84.177925    255.87722 
   28850     139.0806   -1157.4525    132515.01   -33905.585    2626.7335   -36532.318    84.350595    246.42468 
   28900     142.4032   -1187.0823    132492.91   -33907.023    2689.4857   -36596.509    84.653182    252.31172 
   28950    141.23915   -1156.7436    132466.27   -33973.159    2667.5009    -36640.66    84.779314    250.24923 
   29000     142.6065   -1075.0468    132567.34   -33956.895    2693.3252   -36650.221    84.778113    252.67192 
   29050    144.49938   -1045.9221    132629.61   -33932.178    2729.0749   -36661.253    84.938944    256.02575 
   29100    139.32338   -1150.4061     132741.7   -33966.578    2631.3189   -36597.897    85.243882    246.85485 
   29150    141.26224    -1217.747    132732.18   -33958.028     2667.937   -36625.965    85.432995    250.29015 
   29200    142.27885   -1110.6554    132842.34   -33968.696     2687.137   -36655.833    85.340636    252.09138 
   29250    139.95907   -1015.8715    132823.88   -33988.996    2643.3246   -36632.321    85.336399    247.98116 
   29300    138.69768   -1122.1634       132817   -33999.635    2619.5015   -36619.136    85.777877    245.74622 
   29350    141.52638   -1534.8031    132748.32   -34021.848    2672.9255   -36694.773    85.732962    250.75815 
   29400    138.51106   -903.14004    132739.49   -34075.097     2615.977   -36691.074    85.672907    245.41557 
   29450    136.63798   -1313.2311    132783.54   -34089.334    2580.6012   -36669.935    86.006821    242.09682 
   29500    138.49171   -1077.2047    132789.85   -34092.561    2615.6115   -36708.173    86.220347    245.38128 
   29550    136.65623   -1437.8372    132792.49   -34126.983     2580.946   -36707.929    86.329659    242.12917 
   29600    138.48915   -1064.6816     132807.8   -34113.025    2615.5632   -36728.588     86.44813    245.37675 
   29650    137.00505   -1569.6601    132762.47   -34061.178    2587.5339   -36648.712    86.596605    242.74721 
   29700    139.15112   -1295.5132    132651.29   -34100.372    2628.0655   -36728.438    86.795018    246.54964 
   29750    137.14734   -1064.6364    132621.69   -34144.058    2590.2213   -36734.279     86.67342    242.99932 
   29800     138.9268    -1061.159    132519.77   -34098.579    2623.8288   -36722.408    86.743093    246.15218 
   29850    141.82995   -828.18214    132588.81   -34064.207     2678.659   -36742.866    87.128013    251.29602 
   29900    136.67468   -1225.9401    132690.72   -34120.822    2581.2945   -36702.117    87.277433    242.16186 
   29950    141.70541    -894.6353    132712.72    -34040.13    2676.3069   -36716.437    87.469086    251.07536 
   30000    140.60157   -1142.4893    132734.42   -34076.466    2655.4593   -36731.926    87.866917    249.11956 
   30050    139.21351   -976.33457    132759.71   -34069.719    2629.2439   -36698.963     88.14365    246.66019 
   30100    142.36339   -1075.4349    132718.82   -34017.207    2688.7338   -36705.941    88.308985    252.24118 
   30150    138.55197   -1334.4507    132642.63   -34027.125    2616.7497   -36643.875    88.545861    245.48806 
   30200    142.33493   -1155.6031    132571.54   -34025.752    2688.1962   -36713.948    88.542573    252.19075 
   30250    140.46163   -1307.0994    132622.29   -34047.919    2652.8163   -36700.735    88.572933    248.87161 
   30300     137.1999   -1076.7279    132700.21   -34035.595    2591.2139   -36626.809    88.570761    243.09244 
   30350    140.25394   -1229.5754       132741   -34038.525    2648.8937   -36687.419    88.816227    248.50362 
   30400    140.39905   -923.11642    132927.61   -34032.281    2651.6344   -36683.915    88.799343    248.76073 
   30450    140.66875    -1134.299    133027.55   -34003.968     2656.728   -36660.696    88.900843    249.23859 
   30500     138.5459   -1082.8498    133112.49   -34055.759    2616.6349   -36672.394    89.090674    245.47729 
   30550    141.64005   -1245.9477    133096.27   -34017.928    2675.0724   -36693.001    89.333613    250.95955 
   30600    140.13996   -1308.9125    133027.18   -34014.432     2646.741   -36661.173    89.196599    248.30167 
   30650    140.25333   -1252.2342    132911.27    -34028.99    2648.8822   -36677.873    89.475231    248.50254 
   30700    140.84122    -975.8674    132882.45   -33997.636    2659.9853   -36657.621    89.371436    249.54417 
   30750    141.51949   -1341.4261    132808.48     -33960.7    2672.7954   -36633.495    89.467256    250.74594 
   30800    137.64427   -1451.5257    132679.52   -33996.636    2599.6064   -36596.242    89.611633    243.87978 
   30850    140.94623   -1057.0272    132601.59   -33973.986    2661.9686   -36635.955    89.957867    249.73023 
   30900    142.96927   -1136.8898     132578.3   -33949.144    2700.1767   -36649.321    90.246543    253.31469 
   30950    142.66805   -1282.4281    132536.11   -34014.813    2694.4876     -36709.3    90.283972    252.78097 
   31000    141.59024   -1180.4815    132480.44    -34051.74    2674.1317   -36725.872    90.527067     250.8713 
   31050    140.03552   -1133.2204     132476.5   -34071.502    2644.7685    -36716.27    90.520028    248.11662 
   31100    138.09726   -1341.9487    132395.21   -34082.274    2608.1618   -36690.436    90.591959    244.68239 
   31150    138.55675   -1173.6062    132302.86   -34069.047    2616.8399   -36685.887    90.671035    245.49652 
   31200     138.5537   -1182.5629    132319.38   -34040.092    2616.7822   -36656.874    90.642709    245.49111 
   31250    142.26843   -1143.3727    132353.99   -33994.036    2686.9403   -36680.977    90.911338    252.07293 
   31300    140.54686   -907.12246    132485.44   -34009.799    2654.4259   -36664.224    91.106471    249.02262 
   31350    142.40688   -1164.9098    132603.32   -33962.566    2689.5552   -36652.121    91.145231    252.31824 
   31400    141.10708   -1143.2295    132575.52   -34010.861    2665.0065   -36675.867    91.085444    250.01523 
   31450    139.40456   -1216.1381    132518.65   -34040.127     2632.852   -36672.979    91.120317    246.99868 
   31500    139.78786   -1231.5977    132414.66   -34057.582    2640.0911   -36697.673    90.999653    247.67781 
   31550    138.31127   -1021.0011    132459.68   -34125.488    2612.2037   -36737.692    91.235024    245.06158 
   31600    138.28309   -1248.1032    132549.47   -34122.418    2611.6714   -36734.089    91.447972    245.01164 
   31650    139.41179   -1285.6363    132625.39   -34087.436    2632.9885   -36720.425    91.342036    247.01149 
   31700    139.27031   -1029.8636    132667.81   -34102.904    2630.3165    -36733.22     91.69469    246.76081 
   31750     138.2172   -1108.2087    132666.52   -34112.521    2610.4271   -36722.948    91.715503    244.89491 
   31800    136.51377    -1049.945    132641.16    -34111.17    2578.2553   -36689.425    92.005601    241.87674 
   31850    139.73227   -953.02837    132789.03   -34109.093    2639.0413   -36748.134    92.033808    247.57932 
   31900    142.26689   -995.63902    132834.01   -34024.331    2686.9112   -36711.242    92.047099     252.0702 
   31950    141.68553   -1343.4572    132833.69   -33947.289    2675.9313    -36623.22    92.265139    251.04013 
   32000       140.95   -1110.7003    132803.01   -33941.482    2662.0398   -36603.522    92.247795    249.73691 
   32050    140.07567   -1261.2591     132830.2   -34028.292    2645.5269   -36673.818    92.388024    248.18776 
   32100    143.22455   -1280.1835    132810.09   -33984.404     2704.998   -36689.402    92.657524    253.76699 
   32150    140.69437   -1108.0815    132838.03   -34022.966    2657.2119   -36680.178    92.956974    249.28398 
   32200    138.52697   -1095.4256    132882.54   -34063.807    2616.2774   -36680.085    93.131908    245.44375 
   32250    138.72167   -1113.3742    132932.98   -34076.308    2619.9547   -36696.263    93.223421    245.78873 
   32300    139.88568   -1288.4791    132929.83   -34079.986    2641.9386   -36721.924    93.283002    247.85113 
   32350    140.19266   -1170.5658    132886.14   -34073.492    2647.7363   -36721.228    93.466295    248.39504 
   32400    137.79173   -1349.3119    132856.41    -34091.75    2602.3915   -36694.141    93.724404    244.14105 
   32450    139.94475   -873.32045    132897.37   -34012.394    2643.0543   -36655.448    94.009978     247.9558 
   32500    143.20056   -1297.4893    132915.72   -33971.953    2704.5448   -36676.498    94.247417    253.72448 
   32550     139.8232   -1009.4041    132875.89    -33990.77    2640.7586   -36631.529    94.309144    247.74043 
   32600    139.88989   -1060.1453    132909.38   -33983.483    2642.0182   -36625.501    94.521407     247.8586 
   32650    140.67387   -1142.0326    132979.63    -33970.45    2656.8248   -36627.275    94.570629    249.24767 
   32700    140.07965   -973.46579    133062.04   -34007.372     2645.602   -36652.974    94.699209    248.19481 
   32750    137.28123   -960.75059    133144.73   -34067.666    2592.7499   -36660.416    94.941202    243.23654 
   32800    137.38037   -1173.8426    133092.08   -34032.384    2594.6224   -36627.006    95.082553     243.4122 
   32850    137.99492   -839.02699     133164.8   -34060.538    2606.2289   -36666.767    95.387085    244.50106 
   32900    141.79227    -1151.563       133235   -34045.972    2677.9474   -36723.919    95.534318    251.22926 
   32950    140.02473   -1022.0858    133282.97    -33968.08    2644.5648   -36612.644    95.728945     248.0975 
   33000    139.03732   -1240.5829    133278.58   -34014.425    2625.9162   -36640.341    95.864926    246.34801 
   33050    137.44395   -1158.3359    133254.95   -34020.121    2595.8231   -36615.944    96.113934    243.52484 
   33100    138.49363    -1321.803    133167.55   -34073.021    2615.6479   -36688.669    96.150313    245.38469 
   33150    137.86201   -1250.2173    133051.67   -34104.973    2603.7188   -36708.692    96.171284    244.26557 
   33200    136.19974   -1463.0015    132983.16    -34082.17    2572.3245   -36654.495    96.220764    241.32035 
   33250    135.62591   -1371.8294    132855.71   -34086.117    2561.4868   -36647.603    96.484297    240.30362 
   33300    135.98909   -1311.2899    132921.73   -34073.572    2568.3461   -36641.918    96.579567    240.94712 
   33350     137.4946   -1389.8093       132906   -34065.782    2596.7798   -36662.562    96.768626     243.6146 
   33400     138.1179   -1075.0969    132828.15   -34088.361    2608.5517   -36696.913    96.935999    244.71897 
   33450    135.99782   -1084.5589    132821.13    -34157.28    2568.5109   -36725.791    97.027375    240.96258 
   33500    135.20791   -1149.5986     132813.1   -34118.587    2553.5923   -36672.179    97.026758      239.563 
   33550    139.72534   -1245.5381    132801.84   -34065.483    2638.9104   -36704.393    97.059719    247.56705 
   33600    140.44892   -1353.2069    132740.53    -34079.65    2652.5763   -36732.227    97.096562     248.8491 
   33650    139.29088   -1305.5166    132717.64   -34093.553    2630.7051   -36724.258    97.372332    246.79727 
   33700    138.31471   -1167.3594    132678.97   -34068.698    2612.2687   -36680.967    97.594172    245.06768 
   33750    141.46971   -1249.3726    132632.37   -34028.539    2671.8552   -36700.394    97.773843    250.65773 
   33800    139.63053   -1040.3699     132679.9   -34010.539    2637.1199   -36647.659    97.825861    247.39907 
   33850    140.36848   -938.90802    132772.42   -34051.435    2651.0571   -36702.492    97.871766    248.70657 
   33900    136.53469   -1037.6659    132850.57   -34096.916    2578.6504   -36675.566    98.037688    241.91381 
   33950    139.56686   -1247.5241    132893.32   -34071.546    2635.9172   -36707.464    97.993578    247.28624 
[...]
   92000    135.23196   -1472.8359    133243.86   -34157.068    2554.0466   -36711.114    263.77713    239.60562 
   92050    138.25806    -1370.731    133175.66   -34109.962    2611.1988   -36721.161    264.05801    244.96731 
   92100    135.88432   -1333.9654    133063.84   -34111.644    2566.3674   -36678.012    264.02746    240.76149 
   92150    139.79705   -1186.7731    132966.64   -34102.629    2640.2648   -36742.894    263.98015    247.69411 
   92200    141.32099   -1098.5135    132994.06   -34062.191    2669.0466   -36731.237    264.26508    250.39424 
   92250    143.10064   -1145.6162    133089.94   -34035.422    2702.6576   -36738.079    264.64172    253.54744 
   92300    141.60706    -1064.803     133122.3    -34037.74    2674.4494   -36712.189    264.96342     250.9011 
   92350    136.28446   -1279.3047    133051.22   -34097.531    2573.9245   -36671.456    264.90027    241.47045 
   92400    141.53385   -1184.8785    132999.06   -34111.399    2673.0666   -36784.466    264.64102    250.77138 
   92450    140.71467   -1293.0954    132929.29   -34103.569    2657.5954   -36761.164    265.09784    249.31996 
   92500    139.94549   -1277.0257    132938.17   -34122.423    2643.0683   -36765.492    265.30636    247.95712 
   92550    139.44186    -1181.655    132940.43   -34083.644    2633.5564     -36717.2    265.31644    247.06477 
   92600    143.32838   -1061.9271    132928.36   -34043.375    2706.9589   -36750.334    265.24153    253.95095 
   92650    139.32677   -1036.2122    132970.74   -34078.513    2631.3828   -36709.896    265.73187    246.86085 
   92700    143.10903   -1457.8719    132839.55   -34065.528    2702.8162   -36768.344    265.79992    253.56231 
   92750    143.17572   -1326.1581    132784.89   -34044.067    2704.0757   -36748.143    265.61535    253.68047 
   92800    142.33212    -1422.704    132744.66   -33954.307    2688.1431   -36642.451    265.65195    252.18577 
   92850    142.43702   -1262.4058    132665.55   -33914.355    2690.1243   -36604.479    265.14891    252.37163 
   92900    144.04828   -1341.6858    132698.28   -33934.899    2720.5553   -36655.454    265.37295    255.22649 
   92950    142.27711   -1236.1547    132706.26    -33955.88    2687.1042   -36642.984     265.5698    252.08831 
   93000    138.80356   -1281.0792    132549.27   -34009.532    2621.5013   -36631.034    265.37571    245.93382 
   93050    140.03911   -1078.3346     132532.5   -34030.018    2644.8364   -36674.854    265.01492    248.12299 
   93100     139.2068   -1131.6912    132584.48   -34029.451    2629.1171   -36658.568    265.47523    246.64829 
   93150    137.74994   -1273.9831    132517.43   -34040.278    2601.6022    -36641.88    265.53983    244.06701 
   93200    140.19364    -1064.122    132503.38   -33977.529    2647.7549   -36625.284    265.51556    248.39679 
   93250    140.40909   -1349.8076    132500.59   -33953.812    2651.8239   -36605.636    266.10743    248.77852 
   93300    142.16729   -997.40993     132501.3   -33916.169      2685.03   -36601.199    266.31936    251.89371 
   93350    140.46833   -916.84423    132488.65   -33989.238    2652.9429   -36642.181    266.45266    248.88349 
   93400    139.57935   -959.78289    132530.61   -34018.772    2636.1531   -36654.926    266.08383    247.30837 
   93450    140.15226   -986.19999    132546.46    -34012.32    2646.9734   -36659.293    266.41558    248.32347 
   93500    142.80709   -1293.0776    132408.64   -33973.186    2697.1137     -36670.3    265.66984    253.02733 
   93550    139.14864   -1037.9947    132302.04   -33986.219    2628.0186   -36614.237    265.69202    246.54524 
   93600    138.25407   -1288.4523    132272.96   -33964.911    2611.1233   -36576.035    266.16964    244.96023 
   93650     142.4686   -854.63063    132352.29   -33942.692    2690.7208   -36633.412    266.32155    252.42759 
   93700    142.91344   -1086.8126    132407.74   -33887.647    2699.1222   -36586.769    266.56908    253.21577 
   93750    137.82329     -1230.89    132412.33   -33896.537    2602.9875   -36499.524    267.11235    244.19697 
   93800    141.51482   -1185.5014    132396.38   -33899.183    2672.7073    -36571.89    267.24009    250.73767 
   93850    142.04974   -1179.0645    132486.89   -33849.506      2682.81   -36532.316    267.59482    251.68545 
   93900    139.32887   -1213.2661    132431.19   -33898.582    2631.4225   -36530.004    267.42759    246.86457 
   93950     140.7368   -1293.6746    132432.81   -33916.701    2658.0133   -36574.714    268.35322    249.35917 
   94000    136.40084   -1220.5968    132469.02   -33997.248    2576.1226    -36573.37    268.46969    241.67666 
   94050     142.1209    -1179.914    132445.06   -33954.051     2684.154   -36638.205    268.48753    251.81154 
   94100    141.63892   -1045.3036    132472.09   -33972.147     2675.051   -36647.198    268.96711    250.95754 
   94150    139.05769   -1223.9042    132480.36   -33993.153    2626.3009   -36619.454    269.15471     246.3841 
   94200    140.14725   -1212.4402    132536.28   -34055.473    2646.8787   -36702.352    269.29839    248.31458 
   94250    138.84645   -1005.3131    132570.13   -34078.564    2622.3114   -36700.876    269.57449    246.00982 
   94300    138.38325   -1046.4792    132697.53   -34113.823    2613.5631   -36727.386    269.91883    245.18911 
   94350    137.81626    -981.5983    132729.51   -34112.647    2602.8548   -36715.502    269.99086    244.18452 
   94400    138.76715   -1177.9098    132700.62   -34100.409    2620.8137   -36721.222    269.88249    245.86931 
   94450    140.24812   -1117.9091    132723.69   -34015.823    2648.7838   -36664.607    270.07645    248.49331 
   94500    140.99854   -956.27368    132769.63   -34048.818    2662.9566   -36711.774    270.24383    249.82292 
   94550    140.16154   -1026.9628     132820.2   -34029.095    2647.1487   -36676.244    270.31582    248.33991 
   94600    138.44772   -1195.0952    132799.34   -34005.636    2614.7808   -36620.417    270.52441    245.30335 
   94650    141.28633   -1010.2091    132826.65   -33963.751    2668.3918   -36632.143    270.30501    250.33282 
   94700    141.86463    -1222.303    132775.48   -33973.077    2679.3139   -36652.391     270.8689    251.35746 
   94750    141.09971   -1185.1587    132726.59   -33948.008    2664.8674   -36612.875    270.81186    250.00218 
   94800     138.9891   -1235.1051    132742.82   -34004.217    2625.0054   -36629.223    270.91612    246.26256 
   94850    137.98498   -1024.7428    132732.82   -34002.074    2606.0412   -36608.115    270.83389    244.48345 
   94900    141.07743   -1118.6983    132800.23    -33979.24    2664.4465   -36643.686     271.0816    249.96269 
   94950    142.91813   -1019.7387    132867.93   -33946.947    2699.2108   -36646.158    271.03572    253.22408 
   95000    140.33844    -1180.015    132921.16   -33947.555    2650.4896   -36598.044    271.43956    248.65334 
   95050    143.60975   -1238.2481    132938.24   -33894.834    2712.2729   -36607.107    271.48229    254.44948 
   95100    143.30634    -1381.868    132892.24   -33917.967    2706.5426    -36624.51    271.57495     253.9119 
   95150    139.82169   -1487.9955    132943.28   -33918.381    2640.7302   -36559.112    271.39826    247.73777 
   95200    141.50197    -1027.226    132877.81   -33959.497    2672.4646   -36631.962     271.7113     250.7149 
   95250    141.18919   -1029.7698    132910.33   -33999.301    2666.5572   -36665.858    272.03503     250.1607 
   95300    139.82688   -1337.6522    132872.52   -34044.132    2640.8282    -36684.96    271.88723    247.74696 
   95350    139.73094   -1295.4123    132814.43   -33986.792    2639.0161   -36625.808    271.87909    247.57697 
   95400    139.48023   -1115.4124    132852.76   -33996.202    2634.2811   -36630.483    271.70377    247.13275 
   95450    138.74957   -1236.1042    132777.47   -33975.948    2620.4815   -36596.429    271.70143    245.83816 
   95500    138.66255   -1192.4378    132780.04   -33997.687    2618.8381   -36616.525    271.94815    245.68398 
   95550    136.42783   -1304.3576    132698.47   -33936.972    2576.6324   -36513.604    272.06852    241.72449 
   95600    137.58496   -1180.2952    132721.64   -33975.979    2598.4862   -36574.465    272.08527    243.77469 
   95650    143.33679   -1335.1561    132753.01   -33944.316    2707.1177   -36651.434    272.29277    253.96585 
   95700    140.51604   -1008.9818    132747.94   -33946.107     2653.844   -36599.951    272.39852    248.96803 
   95750    141.05904   -1264.2663    132735.48   -33957.381    2664.0991    -36621.48    272.53575     249.9301 
   95800    141.68961   -1257.3636    132782.46   -33931.997    2676.0083   -36608.005    272.90883    251.04736 
   95850    137.41223     -1052.76     132850.8   -33977.514     2595.224   -36572.738    273.14847    243.46865 
   95900    141.38224   -1018.9818    132814.61   -33950.222    2670.2033   -36620.425    272.88728    250.50276 
   95950     142.1946   -1134.1054    132840.41   -33943.225    2685.5458   -36628.771    272.70866     251.9421 
   96000    140.33929   -1282.0339    132873.11   -33890.841    2650.5056   -36541.346    272.84449    248.65484 
   96050    143.50019   -1350.0349    132812.91   -33921.103    2710.2038   -36631.307    272.48421    254.25537 
   96100    139.73046   -1341.0277    132720.63   -33950.722     2639.007   -36589.729     272.1375    247.57611 
   96150    142.89836   -1157.9075    132686.18   -33998.365    2698.8373   -36697.203    272.38327    253.18903 
   96200    138.77705   -1085.5042    132764.86   -33951.611    2621.0006   -36572.612    272.51228    245.88685 
   96250    141.01303   -1150.2127    132818.67   -33934.617    2663.2302   -36597.848    272.56141    249.84858 
   96300    137.76562   -1208.4208    132841.95   -33910.862    2601.8983    -36512.76    272.94989    244.09479 
   96350    142.28726   -1362.1991    132849.76   -33896.188    2687.2959   -36583.484    273.20639    252.10629 
   96400    140.17577   -1412.3074    132772.91   -33889.372    2647.4175    -36536.79    273.53668    248.36513 
   96450    143.71559   -1281.2279    132719.92   -33838.209    2714.2719   -36552.481    273.32199    254.63702 
   96500    141.54869   -1388.1442    132657.96   -33866.924     2673.347   -36540.271    273.65479    250.79768 
   96550    139.62129   -1046.2795    132680.54   -33888.002    2636.9452   -36524.948    273.64479    247.38268 
   96600    142.49135   -1065.2958    132749.49   -33881.089    2691.1505    -36572.24    273.77107     252.4679 
   96650    139.33181   -1127.6326    132899.78   -33935.143     2631.478   -36566.621    274.12665    246.86978 
   96700    139.34248   -1181.6793    132852.37    -33932.43    2631.6796   -36564.109     273.9703    246.88869 
   96750    142.26869   -1029.2507    132823.31   -33898.497    2686.9451   -36585.442    273.78208    252.07338 
   96800    144.05592   -1115.0367    132849.73   -33841.046    2720.6996   -36561.745    274.20365    255.24002 
   96850    145.07845   -1118.0782    132944.23   -33859.627    2740.0115   -36599.638    274.52406    257.05175 
   96900    140.19198   -1531.9611    132930.38   -33901.506    2647.7235   -36549.229    274.55465    248.39384 
   96950    139.73437   -1385.6296    132887.19   -33901.477    2639.0809   -36540.558    274.87583    247.58304 
   97000    143.04728   -1172.3449    132903.03   -33911.525      2701.65   -36613.175    274.89508     253.4529 
   97050    141.32653   -1403.8588    132913.01   -33861.396    2669.1511   -36530.547    275.09965    250.40405 
   97100    144.11079   -1219.9907    132827.08   -33862.667    2721.7358   -36584.403    275.42208    255.33724 
   97150    142.57729   -1516.0216    132764.04    -33904.09    2692.7736   -36596.864    275.87293    252.62017 
   97200    142.84314   -1481.2676    132754.65   -33928.089    2697.7944   -36625.883    275.67222    253.09119 
   97250    138.56646   -1496.6111    132806.87   -33981.083    2617.0233   -36598.106    275.58871    245.51373 
   97300    139.78587    -1310.773    132891.66   -34016.411    2640.0536   -36656.464    275.83868     247.6743 
   97350    138.78208   -1401.3629    132848.59   -34029.569    2621.0956   -36650.664    275.47952    245.89576 
   97400    137.36609   -1318.0311    132869.95   -34084.057    2594.3527   -36678.409    275.58075     243.3869 
   97450    136.98311   -1470.6136    132902.93    -34024.19    2587.1196    -36611.31    275.54065    242.70834 
   97500    138.06961   -1216.3353    132936.94   -34040.268    2607.6396   -36647.908    275.43728     244.6334 
   97550    139.59253    -1182.555     132935.3   -33984.714    2636.4022   -36621.116    275.63809    247.33174 
   97600    137.73499   -900.66134    132971.69   -33997.116    2601.3199   -36598.436    275.48298    244.04052 
   97650    139.10077   -1546.2693    132981.95   -33979.855    2627.1144   -36606.969    275.14711    246.46042 
   97700    138.61514   -1406.9792    132883.96   -33989.974    2617.9427   -36607.917    275.20751    245.59998 
   97750     140.2107   -1179.0042    132834.27   -34015.418     2648.077   -36663.495    275.63635      248.427 
   97800    137.81342    -1192.834     132812.7   -33998.684    2602.8011   -36601.485    275.46722    244.17948 
   97850    142.20917   -1141.6352    132852.36   -34009.132     2685.821   -36694.953    275.62006    251.96792 
   97900    138.00626   -1068.5906    132905.64   -33986.446    2606.4432   -36592.889    275.78852    244.52116 
   97950    140.93089    -1329.804    132860.65   -33946.374    2661.6788   -36608.053    275.81609    249.70305 
   98000    139.95978   -952.74108    132895.12   -33942.078    2643.3381   -36585.416    275.97637    247.98242 
   98050    138.61068   -1018.3756    132912.39   -33994.507    2617.8584   -36612.366     276.3942    245.59207 
   98100    139.88322   -1334.9113    132898.71   -33957.776    2641.8921   -36599.668    276.52825    247.84677 
   98150    142.34605   -1436.5447     132818.6   -33901.414    2688.4063    -36589.82    276.45558    252.21046 
   98200    139.83618   -1165.9558    132762.94   -33944.795    2641.0037   -36585.799    276.69761    247.76343 
   98250     145.1621   -1038.4247    132748.41   -33933.992    2741.5914   -36675.584    276.78815    257.19997 
   98300    140.55354   -1360.4223    132793.77   -33969.048    2654.5521     -36623.6    277.30142    249.03446 
   98350    140.92661   -980.05672    132835.68   -33922.934    2661.5981   -36584.532    277.92885    249.69547 
   98400    140.39112   -1163.7294    132882.55    -33901.28    2651.4847   -36552.765    278.39501    248.74669 
   98450    138.50582   -1334.2299    132928.06   -33948.271    2615.8781   -36564.149     278.6611    245.40629 
   98500    140.82568   -1446.1393    132867.69   -33951.089    2659.6918   -36610.781    278.58083    249.51664 
   98550    140.15645   -1350.0266    132863.51   -33952.928    2647.0525   -36599.981    279.08927    248.33089 
   98600    140.54951   -1343.6101    132896.91   -33957.862    2654.4761   -36612.338    279.14488    249.02733 
   98650     138.7587   -1166.9539    133017.34   -33938.962     2620.654   -36559.616    279.37153    245.85434 
   98700    142.34614   -1081.2507    133031.85   -33883.875    2688.4079   -36572.283    279.66364    252.21061 
   98750    142.75666   -1172.0698       133036   -33858.212    2696.1612   -36554.373    279.80622    252.93798 
   98800    143.11807   -1080.1568    133055.64   -33866.579    2702.9869   -36569.566    280.02228    253.57833 
   98850    143.41057    -1443.926    133120.04   -33887.806    2708.5112   -36596.317    280.26045    254.09658 
   98900    142.92376   -1269.0612    133081.59   -33954.047    2699.3172   -36653.364    280.36095    253.23405 
   98950    140.71366   -1338.6947    132974.97   -33933.821    2657.5762   -36591.397    280.54171    249.31816 
   99000    138.36346   -1168.5027     133034.9   -33966.715    2613.1894   -36579.904    281.04322    245.15406 
   99050     140.8592   -1481.7853    133070.08    -33952.96     2660.325   -36613.285    280.77172    249.57604 
   99100    142.26792   -1359.3739    133013.68   -33907.741    2686.9306   -36594.672     280.8227    252.07202 
   99150    142.64989   -1018.4614    133008.54   -33949.658    2694.1447   -36643.802    281.55079     252.7488 
   99200    144.57301   -1190.4637    133057.91   -33977.929    2730.4654   -36708.394    281.88325     256.1562 
   99250    141.57408    -1160.097    133051.56   -34004.215    2673.8264   -36678.041    281.96201    250.84266 
   99300    141.92406   -1190.1246    133032.19     -33951.6    2680.4364   -36632.036    281.91346    251.46277 
   99350    141.45292   -1122.9557    133023.96   -33940.123    2671.5382   -36611.661    282.15204      250.628 
   99400    138.08693   -1232.0588    133034.76   -33999.355    2607.9667   -36607.321    282.28061    244.66409 
   99450    139.36444   -1098.6007     133051.6   -33981.488    2632.0944   -36613.582    282.96392    246.92761 
   99500    145.25278   -1164.8923    133071.97   -33927.038    2743.3039   -36670.342    283.58562    257.36063 
   99550    140.08564   -1179.7395    133001.33   -33981.518    2645.7152   -36627.234    283.93227    248.20543 
   99600    141.65494   -1300.6023    132945.65    -33959.75    2675.3537   -36635.104    284.02012    250.98594 
   99650    141.14317   -1010.2269    132909.08   -33976.335    2665.6881   -36642.023    284.48787    250.07917 
   99700    137.52038   -1274.6022     132969.7   -33978.785    2597.2666   -36576.052    284.42865    243.66027 
   99750    141.84497   -1316.5355    132943.25   -33993.882    2678.9425   -36672.825    284.34696    251.32262 
   99800     141.1882   -1273.1701    133028.88    -33968.67    2666.5387   -36635.208    284.15938    250.15897 
   99850    138.59381   -1396.9599    133027.34   -33973.527    2617.5399   -36591.066    285.12345    245.56219 
   99900    137.87743   -1338.3939    132964.64   -33999.294      2604.01   -36603.304     285.0428     244.2929 
   99950    140.77137   -1304.8911    132928.26   -33962.024    2658.6662    -36620.69    284.65539    249.42042 
  100000    140.00479   -1224.6867    132903.27   -33978.569    2644.1882   -36622.758    284.61063    248.06218 
Loop time of 120.008 on 160 procs for 100000 steps with 6337 atoms

Performance: 359.977 ns/day, 0.067 hours/ns, 833.281 timesteps/s
98.0% CPU use with 160 MPI tasks x no OpenMP threads

MPI task timing breakdown:
Section |  min time  |  avg time  |  max time  |%varavg| %total
---------------------------------------------------------------
Pair    | 13.516     | 32.129     | 87.774     | 523.2 | 26.77
Neigh   | 0.35874    | 0.77353    | 2.602      |  80.4 |  0.64
Comm    | 8.8816     | 33.465     | 91.234     | 555.4 | 27.89
Output  | 0.18727    | 0.19005    | 0.32734    |   2.5 |  0.16
Modify  | 8.0505     | 52.36      | 94.635     | 568.0 | 43.63
Other   |            | 1.089      |            |       |  0.91

Nlocal:    39.6063 ave 109 max 22 min
Histogram: 117 3 0 8 12 0 0 0 5 15
Nghost:    514.106 ave 872 max 333 min
Histogram: 80 0 0 40 0 0 0 0 11 29
Neighs:    0 ave 0 max 0 min
Histogram: 160 0 0 0 0 0 0 0 0 0
FullNghs:  3190.32 ave 13547 max 809 min
Histogram: 120 0 0 0 20 0 0 0 0 20

Total # of neighbors = 510452
Ave neighs/atom = 80.551
Neighbor list builds = 6113
Dangerous builds = 0

write_data		${DIR}/data.eq-${NAME}-${TEMP}
write_data		run_27/data.eq-${NAME}-${TEMP}
write_data		run_27/data.eq-het_freeze_27-${TEMP}
write_data		run_27/data.eq-het_freeze_27-248
undump          1

reset_timestep  0

unfix           2
unfix           3
unfix           4


################################################
#######         Run Simulation         #########
################################################

log				${DIR}/log.run_${NAME}
log				run_27/log.run_${NAME}
log				run_27/log.run_het_freeze_27
