LAMMPS data file via write_data, version 16 Mar 2018, timestep = 8000000

6589 atoms
2 atom types

-1.4695443948965803e-01 4.9366954439478363e+01 xlo xhi
-1.4635621946490929e-01 4.9165992149870704e+01 ylo yhi
4.7793567901074852e-01 5.9584064320961915e+01 zlo zhi

Masses

1 18.015
2 12.01

Atoms # atomic

1344 1 3.0109273279930560e+00 1.9634382723288213e+00 2.8355333707084616e+00 1 -1 1
3525 1 3.7523829105549700e-01 2.7825215793789058e+00 2.0520797103020914e+00 -2 0 0
3159 1 7.9563180431552851e+00 1.9545749098408926e+01 5.2555984158151281e+00 2 -1 1
6202 1 7.4296938782523423e+00 3.1036668987526581e+00 2.6419414379338209e+00 -1 -1 1
6191 1 1.1950181641817304e+01 4.1953196954566687e+00 5.0941020885546813e+00 2 -1 1
5143 1 8.1940502893810834e+00 5.4860361428492632e-01 1.9314073347037899e+00 2 0 0
3095 1 2.3946174223669811e+01 3.2937908703595422e+00 5.0940811846126310e+00 4 -1 1
1650 1 1.0839973188474454e+01 8.4573537693366507e-02 2.6915895300089532e+00 0 3 1
1618 1 1.2903685074603555e+01 1.8436691149542397e+00 1.8745918476121157e+00 4 -2 0
5146 1 1.5201945373440770e+01 8.0594306167537177e-01 2.7793059956979400e+00 1 3 0
469 1 1.6842697150704435e+01 2.9159052704879063e+00 1.7443674571877166e+00 -4 2 1
4601 1 1.9470812816861702e+01 2.2636235862844232e+00 2.4956417126460906e+00 -2 4 1
3425 1 1.6021980472532430e+01 5.3191562171203666e+00 5.5922385606974903e+00 0 -1 1
3331 1 2.3951919428478345e+01 3.2669142969926850e+00 2.4113780658144512e+00 0 -1 0
3576 1 2.1402218550683983e+01 4.2886548866050411e+00 1.6872020221728035e+00 0 -2 0
6430 1 2.0887301018874414e+01 2.2846495021811105e+01 2.9227274048956446e+00 0 0 1
1586 1 1.7932753048714218e+00 7.2788620945112470e+00 1.8210644291622717e+00 4 1 1
3260 1 4.7929325581999498e+00 3.9003285503303111e+00 1.7682578026707201e+00 -3 0 0
1602 1 4.3237842137493452e+00 6.5607230694108472e+00 2.6571296590400983e+00 0 1 0
332 1 1.2223405312184736e+01 2.0714702033889438e+01 2.8486944558836189e+00 -2 2 0
1816 1 1.1884422755666066e+01 4.5332782544138217e+00 2.5158084519672803e+00 -1 -2 0
384 1 8.7221879310547301e+00 7.5906427856054881e+00 2.6206268260744623e+00 2 -2 0
2967 1 9.2831554236499105e+00 4.8641436088256986e+00 1.6580385332724756e+00 -1 -1 1
433 1 1.0474955246897206e+01 1.4837622029528347e-02 5.5804324343150427e+00 1 1 0
3858 1 1.6519798642030661e+01 2.1764838365956248e+01 2.9127586439300188e+00 -3 1 1
1674 1 1.3738824671340529e+01 6.3998563915498599e+00 1.7344865072146229e+00 -2 3 1
4716 1 1.6103407427250851e+01 5.3634799730384470e+00 2.9117199964626690e+00 -1 1 1
4971 1 1.8030202258593370e+01 6.9888640976548686e+00 1.7214508276684475e+00 1 1 0
1363 1 5.6388630473474990e+00 1.0763977248356035e+01 5.5884961310557788e+00 1 -3 1
5262 1 2.0421768465062673e+01 6.5628109304237263e+00 2.6276485159134984e+00 1 -1 0
3606 1 2.2531576215786771e+01 8.3614383192571999e+00 1.8629958664891848e+00 1 -2 0
2958 1 7.5287033486604225e+00 3.1861679970900565e+00 5.3808362136988306e+00 3 -3 1
6586 1 4.4500911444544737e+00 2.3074715325907320e+01 5.6027381047391698e+00 1 1 0
4692 1 1.0745724529670164e+00 9.7040753595240314e+00 2.7457119288803620e+00 -3 0 1
3604 1 2.8803411232384333e+00 1.1824135530927069e+01 1.7088775130422960e+00 4 -2 0
4733 1 1.7786220300199588e+01 9.5992539155562984e+00 5.0996797218359271e+00 1 0 0
5363 1 6.0612279275396528e+00 8.2046282454854023e+00 1.6256720529368729e+00 0 1 0
5474 1 5.2723912510772557e+00 1.0684688259095655e+01 2.8028434479225002e+00 1 0 0
3392 1 1.0601990611546032e+01 9.3924947493749222e+00 1.7771322135379013e+00 2 -1 0
1645 1 9.7988791044868382e+00 1.1859752130572277e+01 2.7829920009274858e+00 -3 1 1
1356 1 2.1003954530552605e+01 2.2609345224418963e+01 5.6890656181038137e+00 1 3 1
3615 1 1.3052764649327546e+01 9.0262065897774395e+00 2.6988334783418337e+00 -1 2 0
3814 1 1.5120869462584619e+01 1.0537405595148677e+01 1.9883864460492695e+00 2 4 1
3011 1 1.4030880806428756e+01 2.2523345162846848e+01 2.0895032120025441e+00 3 1 1
3123 1 1.7547529677923588e+01 9.6312253813671660e+00 2.5461094710190331e+00 3 -1 0
1413 1 1.9203822085670627e+01 1.1813376677780365e+01 2.0504490591326912e+00 -2 0 1
2073 1 3.2928687956875047e+00 1.8562099884433657e+01 5.4700653439229887e+00 0 0 0
3865 1 2.1738959519548217e+01 1.0796996464291125e+01 2.8632810768653560e+00 -3 2 1
2982 1 1.1924694166615579e+01 2.0541036492105146e+01 5.5401522227943056e+00 4 1 1
207 1 1.9574634375438869e+01 2.1743198878432293e+00 5.1543655484784585e+00 3 -2 0
6533 1 1.7905502352160281e+00 1.4126132952073688e+01 2.9798004304517969e+00 1 4 1
199 1 8.9679075448581163e+00 2.3923890208944421e+01 2.7571164986241774e+00 2 2 1
6218 1 7.2638028053292096e+00 1.2494023924625250e+01 2.0515722817068509e+00 3 0 1
6409 1 6.4411888183170900e+00 1.5003362421659617e+01 3.0037230999705891e+00 4 -1 1
5465 1 2.4574105351551044e+01 5.8752696205822019e-01 1.9599859745766708e+00 -1 -3 0
180 1 1.1840303097433567e+01 1.3570322269793728e+01 2.1226076917342009e+00 3 2 0
516 1 9.9567256447913692e+00 1.1670913105458917e+01 5.4147170579571124e+00 -1 1 0
5360 1 1.4536142866272712e+01 1.3321356330502377e+01 2.8703460376799836e+00 3 0 0
3356 1 1.6453393294607810e+01 1.5093391378499101e+01 1.9601979853415763e+00 2 -3 1
141 1 8.8639986396717951e+00 2.3871904592647628e+01 5.3916622805908228e+00 0 0 0
6333 1 1.8833697107502495e+01 1.4152946577783446e+01 3.0484629386040987e+00 2 -2 0
6397 1 2.0773443088404491e+01 1.5992522291044359e+01 2.0661158719867752e+00 -3 0 1
3508 1 2.3953561951153272e+01 1.2526298056666214e+01 2.0601667114780069e+00 0 -1 1
1291 1 2.3348498242032925e+01 1.5346842140385380e+01 2.9777975194211108e+00 1 1 1
3528 1 2.4164846797318635e+01 1.9844075641208683e+01 2.7345731245095117e+00 -1 -3 0
5186 1 6.1026271487148320e-01 1.9565636801884981e+01 1.9959305819719249e+00 -2 2 0
2014 1 3.2319338417534924e+00 1.8862315398934495e+01 2.7547865454649347e+00 -2 -3 0
6199 1 2.2294421166745954e-01 5.3372008278397800e+00 2.9039445846121499e+00 -1 2 1
1535 1 1.5080656396687218e+01 7.9709808953951344e-01 5.4995551835188712e+00 4 2 1
3343 1 4.0851239839956852e+00 1.6034271752320528e+01 2.3072243022809289e+00 2 -3 0
5359 1 7.6423407553642209e+00 1.9627544550910383e+01 2.7335955285821445e+00 1 -1 0
3539 1 5.1562524761932984e+00 2.0331661427374645e+01 1.8006008594285279e+00 -1 2 0
2254 1 1.1047572190412186e+01 1.6147180185916344e+01 2.6803490723683643e+00 -1 -2 1
4583 1 8.3463666028745109e+00 1.6945591263142624e+01 2.1567666401379348e+00 -1 1 1
6441 1 2.1913084433509116e+01 1.0945430711642341e+01 5.5077054481961172e+00 -1 2 1
1859 1 2.0186723712377084e+01 1.8211839485421962e+01 5.6528050248910029e+00 0 0 0
6415 1 1.3071303211960414e+01 1.8063848605218311e+01 2.2072087312566167e+00 -1 -2 1
185 1 1.5702309324583171e+01 1.7496065629126964e+01 2.9473809249393095e+00 2 0 1
3658 1 1.7336394554990527e+01 1.9357307299597103e+01 2.0285664139970923e+00 2 0 1
5271 1 1.9962050713846931e+01 1.8332416515007360e+01 2.8528575645034353e+00 -2 2 0
3017 1 8.8056587798828456e+00 7.3056638974740711e+00 5.5040634509037769e+00 2 1 1
86 1 1.3169352824041452e+01 8.7257371280091451e+00 5.4860496803992689e+00 0 0 0
3553 1 2.1626125034867620e+01 2.0391099644272764e+01 1.6690942876273578e+00 0 0 0
5324 1 2.2302111429182343e+00 1.4238691309723599e+01 5.6654132176953667e+00 -5 -2 0
4894 1 2.0036921329773865e+00 2.3623430349185252e+01 2.5630852078737227e+00 3 4 0
1771 1 9.7735120894812226e+00 2.1348742755111534e+01 2.0569258634135448e+00 -2 -1 1
3512 1 1.8224542647715086e+01 2.3587868564095334e+01 2.3024108715534979e+00 -1 -1 0
389 1 3.1205117425488815e+00 1.8111224683972200e+00 5.6434676746126584e+00 -3 0 1
2080 1 4.7345979826856679e+00 2.2942545719674623e+01 2.7897673473062521e+00 1 -1 0
5263 1 1.4392746050539147e+01 1.2913535038129563e+01 5.5863669808896708e+00 1 0 0
5160 1 2.0762279445194245e+01 6.4848705800021014e+00 5.4301588134424295e+00 0 3 0
5067 1 1.1139161843432658e+01 1.5944538563567015e+01 5.4180976577661726e+00 -2 5 0
1801 1 1.0325676258559910e+00 9.7518848766601227e+00 5.4163899445432815e+00 0 4 1
2993 1 2.4252569914185074e+01 1.9531387204855957e+01 5.4379871358967806e+00 1 1 1
5069 1 4.2181783929366334e+00 6.4855970839299895e+00 5.5777200182544844e+00 0 3 0
1574 1 2.2882804785026654e+01 1.5298346019644660e+01 5.6760519683801354e+00 -2 -1 1
5253 1 1.5809713119065275e+01 1.7338858744683222e+01 5.6198215144628971e+00 0 0 0
89 1 1.6658915899202970e+01 2.1398000227748966e+01 5.6393484897608595e+00 2 -3 1
1975 1 6.6706520716671198e+00 1.5043804240406022e+01 5.7906708812968617e+00 -2 0 0
3788 1 4.7448688935821282e-01 2.9466514378549977e+00 9.8494617483385145e+00 1 1 0
4784 1 1.5660799020758253e+01 2.4274031415860996e+01 9.5011753253966269e+00 4 0 1
6259 1 3.4737867124944231e+00 9.0384469192229151e+00 6.2787124112375015e+00 3 -3 1
5180 1 5.5314509084151329e+00 1.3156251486344617e+00 9.1496414232187568e+00 2 0 0
3611 1 5.9193950613347823e+00 1.1472033442237437e+00 6.3803499778517399e+00 -1 1 0
3692 1 4.9976855533946987e+00 4.0572024905463682e+00 1.0032439807364920e+01 2 2 0
6434 1 2.4590689114861604e+01 9.9250368973018048e+00 9.0423711250783381e+00 3 1 1
510 1 1.0041561766990808e+01 2.4357508958071556e+00 9.2408438749671813e+00 0 -2 0
6288 1 1.0064542675595224e+01 2.7088524099812803e+00 6.3908915996123294e+00 -4 -4 1
4830 1 1.2568364040898421e+01 1.7835203024784505e+00 9.9498025476094583e+00 4 2 0
103 1 1.4406995970780073e+01 3.6057940354360278e+00 9.0851183910863682e+00 -3 6 0
1901 1 1.4369427869427849e+01 3.2209913638192216e+00 6.3833581682256284e+00 1 0 0
3654 1 2.4849887750671495e+00 2.1153122506615066e+01 6.5129446845531005e+00 0 0 0
5388 1 1.6949304713869140e+01 2.8973237340075486e+00 9.6644200010232240e+00 -1 0 0
6503 1 2.3511333454164326e+01 2.1957328428149626e+01 9.0124668501658984e+00 -1 -1 0
91 1 1.5908979099532484e+01 2.4076618287292003e+01 6.5844834227610258e+00 -3 0 1
1988 1 2.2211980488027198e+01 1.0329288712084930e+00 8.7336978894748842e+00 2 -5 0
188 1 2.2412768096201468e+01 1.1878399315603145e+00 6.0312226474740465e+00 -2 0 1
6520 1 2.1449713374151116e+01 3.5657146952082051e+00 9.4756269872020837e+00 1 1 1
2114 1 2.4246914978440222e+00 4.7827415715238830e+00 9.1490117914202251e+00 -1 0 0
6303 1 2.1239269352217431e+00 7.4757128313042394e+00 1.0039552511956932e+01 -1 3 1
5267 1 2.5467785135733956e+00 4.5098422374446816e+00 6.3106237374675427e+00 -2 1 0
5076 1 6.6776235312102896e+00 5.7336831884927353e+00 6.4024552195685649e+00 3 1 0
4899 1 6.7423704439335044e+00 5.8501392444493776e+00 9.0633476510426316e+00 3 3 1
3229 1 9.3816072974277898e+00 4.7682084792936212e+00 9.9564607446129809e+00 2 -2 0
92 1 1.1270111336321223e+01 6.7674000870279061e+00 9.0915137480606543e+00 -1 2 1
3215 1 1.1567633906147035e+01 6.7359628605233599e+00 6.0867173626085469e+00 -1 -1 0
2006 1 1.3896146417560393e+01 6.1394753399699020e+00 9.5695696460312991e+00 1 -4 0
4794 1 1.5996943897135296e+01 7.7614617003937862e+00 9.2799963867570856e+00 1 -1 1
1815 1 1.5647640340229335e+01 8.1347180407481030e+00 6.4310146133712074e+00 0 0 1
3501 1 1.8990258268036715e+01 4.4737265234331351e+00 8.6553183605629780e+00 1 0 0
4937 1 1.8592067513464620e+01 6.9428741282212130e+00 1.0018000097385144e+01 4 -1 1
3571 1 1.8728635830823997e+01 4.6179865301217955e+00 5.9313212709012211e+00 3 2 0
6568 1 2.3315803882250826e+01 5.7821701888173802e+00 6.2195080484025613e+00 3 -1 0
3630 1 2.3397869968354833e+01 5.4820289467784145e+00 8.8196306068244308e+00 3 4 0
1287 1 2.2841235666796639e+01 7.8677582233915917e+00 1.0128162151862318e+01 0 -2 1
1518 1 2.9483712324286473e+00 1.1595284419439997e+01 9.9682083386866047e+00 0 1 1
466 1 3.8293752559823857e+00 9.0551507072281510e+00 9.0044373000375497e+00 3 1 1
1638 1 1.0455621223215772e+00 2.9379862337212131e-01 6.2699607624491254e+00 4 -2 1
55 1 5.8765280911962297e+00 8.1131198944295519e+00 1.0103219366178093e+01 -4 3 1
5325 1 8.1231105638991856e+00 9.8774323386488163e+00 6.4690386242862674e+00 -2 2 0
4740 1 7.8479564463947815e+00 9.8857381567629403e+00 9.2883636063499875e+00 2 1 1
1778 1 1.0542329175713226e+01 9.1806674854100443e+00 9.9205487321388119e+00 0 2 0
293 1 1.2609746937103695e+01 1.0945034159804454e+01 9.1854366994285872e+00 -1 -1 0
1856 1 1.2374264589972652e+01 1.1171152190897242e+01 6.1847651832477295e+00 1 3 0
6241 1 1.5085313007024597e+01 1.0390598589277545e+01 1.0222205593050518e+01 -3 0 1
3570 1 1.9220219195293353e+01 1.1320478675120203e+01 1.0254468353032506e+01 5 -3 0
1381 1 2.0334223116166601e+01 8.8271779289244900e+00 8.9383006035677912e+00 2 -2 1
6486 1 2.0114692068935096e+01 8.9959399591835112e+00 6.1954989314472577e+00 2 2 1
5125 1 1.7057063779703345e+01 1.2378467962413364e+01 9.2697148553996005e+00 3 -2 1
1772 1 1.6881395082538532e+01 1.2058150477412596e+01 6.3978521156795587e+00 1 3 1
159 1 1.1216711674314720e+01 2.2886738673617380e+01 6.4789394733582117e+00 -2 1 0
1941 1 1.9098273327530180e+01 2.0628946797550871e+01 6.5965852573375869e+00 -3 0 0
5195 1 1.0286202143881855e+01 1.8544629553719648e+01 6.3320532011961577e+00 3 -5 0
6408 1 4.1268484781845194e+00 1.5713726604072848e+01 9.9311373639958926e+00 -2 -3 1
4792 1 8.1855514851988538e+00 3.4515038751707244e-01 9.8992720058538133e+00 -1 0 1
537 1 4.8337825014077591e+00 1.3195806939481008e+01 6.6708939389348023e+00 -1 1 1
96 1 7.6530090533437169e+00 1.2348707787988907e+01 1.0226077578485693e+01 3 -5 1
3775 1 4.9169554489694729e+00 1.3151419411686405e+01 9.3437381021106507e+00 3 1 0
578 1 9.3905781547504024e+00 1.4378474170835680e+01 9.1849045189437692e+00 -1 1 0
5413 1 1.1913200017914171e+01 1.3451425333470555e+01 9.9128146298545943e+00 -1 0 0
482 1 9.2399086184559813e+00 1.4368394651838361e+01 6.3646110521421644e+00 3 2 1
448 1 1.3894086462408703e+01 1.5531245626585822e+01 6.5965476041668962e+00 1 0 1
130 1 1.3573001347665071e+01 1.5370933222134864e+01 9.4842628722327298e+00 0 -2 1
5090 1 1.6139391291146474e+01 1.4624884388791441e+01 1.0209025394850842e+01 1 -1 0
6428 1 1.7944437199686053e+01 1.6410055397886598e+01 9.3373137372349682e+00 -1 0 1
3728 1 2.0477633213256421e+01 1.5816321866921653e+01 1.0190948747603398e+01 -1 2 0
6379 1 2.3897136583491154e+01 1.2466435001027396e+01 9.9048444022640236e+00 -3 2 1
259 1 2.1331215999681433e+01 1.3132769287006052e+01 9.7032203142393527e+00 1 1 0
5339 1 2.1359805871639065e+01 1.3330667949716721e+01 7.0510135402014162e+00 -2 2 0
231 1 1.5778431839513229e+00 1.6747609028964195e+01 9.1590749788994632e+00 2 3 1
3311 1 1.2552798941104080e+00 1.6702739770640452e+01 6.4473288670897393e+00 4 0 1
2247 1 5.6849734956276221e-01 1.9225649788911273e+01 1.0161434783683889e+01 1 2 1
1947 1 5.8498325316450961e+00 1.7625315867169817e+01 8.8718085324581608e+00 0 -1 0
408 1 5.0365459501622754e+00 2.0341903287086392e+01 9.8844621952356899e+00 2 2 1
3345 1 1.8042795275697909e+01 3.2153636038979377e-01 9.0374724812546159e+00 2 3 1
3550 1 5.9523473808922525e+00 1.7751336492534666e+01 6.0964592913626472e+00 -1 1 0
6280 1 8.3053505685348981e+00 1.6978577830944669e+01 9.7086765121470293e+00 -5 -1 1
1406 1 1.0388207531963053e+01 1.8825347284358386e+01 9.0387961499883538e+00 0 -1 1
6273 1 1.3013850674446775e+01 1.7939522280164034e+01 1.0087221875640786e+01 2 -1 1
5020 1 1.4752755619377526e+01 1.9956048831361592e+01 9.2449685385638034e+00 3 2 0
6262 1 1.8439012047203658e+01 2.3615620301599346e+01 1.0080680582728100e+01 4 0 1
1293 1 1.8197284595757850e+01 1.6626820970298294e+01 6.6491293836483560e+00 3 2 1
1720 1 1.7118433933022693e+01 1.9026756992501376e+01 1.0198180663472025e+01 4 0 0
3296 1 2.1677633565764964e+01 2.0030716176503063e+01 9.8310120858460550e+00 -3 2 1
2966 1 2.2351090359527895e+01 1.7583596374181628e+01 9.2145145399539086e+00 0 -1 0
341 1 2.2577651254312094e+01 1.7797385514814252e+01 6.6942825385946385e+00 -2 -3 0
1641 1 5.4752665062797268e-01 1.2366095656424271e+01 6.2848193611953231e+00 0 3 1
6345 1 2.2745463977165565e+00 2.1188632749910276e+01 9.2619492000290045e+00 3 2 1
369 1 1.5495807286270000e+00 2.3586839766099548e+01 1.0270112810059988e+01 0 1 0
1285 1 6.7507964304292329e+00 2.1965301693023260e+01 6.3043321294190999e+00 3 0 0
364 1 2.3451729325482781e+01 2.2225882722758286e+01 6.2695825235559752e+00 -3 3 0
3686 1 7.1124057311752615e+00 2.2069197361592082e+01 9.0881044952334999e+00 0 -1 0
346 1 1.4691225650872155e+01 1.9711618620038692e+01 6.7187417109319307e+00 4 2 1
330 1 1.1231215087638505e+01 2.2810146154267944e+01 9.2829746767469601e+00 -3 -1 0
6380 1 9.4777665125764532e+00 2.0907408259304777e+01 1.0130262607108532e+01 1 0 1
5296 1 1.3756384821200392e+01 2.2306502691292604e+01 1.0132206835209860e+01 -1 -3 0
3770 1 1.9043278289786628e+01 2.0825835915551991e+01 9.3940286609360548e+00 -3 -4 1
3454 1 2.4407756412713020e+01 9.9716946068598595e+00 6.3504295183193129e+00 0 2 1
4619 1 4.7091054905863938e-01 1.2526709103316401e+01 9.1687796222171265e+00 0 -3 1
3631 1 9.7922556366085223e-01 3.7201223016829710e-01 9.1383576315027568e+00 0 2 0
2998 1 2.2789926065809318e+01 2.4316559755352635e+01 1.0007409113533727e+01 0 -2 1
1404 1 1.8790714629162405e+01 1.3958631922752360e+01 5.8954370247501400e+00 -4 2 0
2001 1 6.2728724285521746e+00 2.4485310281336037e+01 1.0012223634143000e+01 -3 -2 0
4592 1 1.7831697123854383e+01 2.1651739031174966e-01 6.1551500035199505e+00 0 -4 1
6313 1 3.1311833050851039e+00 1.9638028284440421e+00 1.3444311572013156e+01 -3 2 1
6210 1 6.2301932283955885e-01 2.7761271359673922e+00 1.2559698588634497e+01 2 1 1
5203 1 8.5400608582626933e+00 7.5864376311139310e+00 1.6292385641016246e+01 1 2 0
2015 1 7.3854018248279605e+00 2.9044576074758539e+00 1.3538842856212815e+01 -2 1 0
5402 1 5.0381312014976798e+00 3.8176691056184073e+00 1.2722219604960326e+01 -1 3 0
3849 1 2.4410537328861942e+01 1.9026952920593470e+01 1.6350428991190910e+01 1 2 1
2164 1 8.1612347491495800e+00 4.4545223827184577e-01 1.2767362886715521e+01 2 -1 1
4769 1 5.3734262619274107e+00 1.0717404323394135e+01 1.6452987201067138e+01 1 0 1
6535 1 1.1805920819074498e+01 4.2048412183640291e+00 1.3449606335153762e+01 0 -5 1
5387 1 1.2810571118950030e+01 1.6026147131178279e+00 1.2829251320934402e+01 0 7 0
1616 1 1.5314842300977116e+01 8.5454978400222559e-01 1.3451683508005319e+01 -1 0 1
2070 1 8.7853174841357564e+00 2.3780551219265050e+01 1.6108853141880971e+01 0 -4 0
3152 1 1.7249499159326607e+01 2.8094757941469561e+00 1.2401844387769934e+01 2 2 1
1983 1 1.9804505296540810e+01 2.0191260864052660e+00 1.3448360123397656e+01 -1 2 0
5473 1 1.5214349772056488e+01 7.1181582467091120e-01 1.6114812605655850e+01 -4 0 1
249 1 2.1629040759871081e+01 3.4603383119211029e+00 1.2182798003835261e+01 0 3 0
6531 1 2.4123226621710820e+01 2.8457175155366130e+00 1.3430708913972957e+01 -2 2 1
3608 1 1.8446643748619658e+00 7.2719225290171607e+00 1.2727542779330603e+01 -2 -1 0
3399 1 2.0997276673328777e+01 2.2141436479886615e+01 1.6388374548325920e+01 1 4 0
4762 1 4.2529080351127364e+00 6.2165444866757156e+00 1.3697412962791054e+01 3 1 1
1842 1 1.3912790140599014e+01 1.3112369826112847e+01 1.6180899194098885e+01 0 5 1
4901 1 8.6337266090351150e+00 7.7175636737178444e+00 1.3408745122184996e+01 1 0 1
1877 1 9.1711130778029801e+00 4.8762406023915865e+00 1.2667792533353669e+01 -1 -1 0
1769 1 7.5561246998805416e+00 1.9119119316805044e+01 1.6415311140819675e+01 2 2 0
6266 1 1.0786253520424781e+01 -5.1999563267926874e-02 1.3521740086136766e+01 2 0 0
1881 1 1.3809164337142882e+01 6.0887892974712141e+00 1.2413629877053772e+01 0 4 0
1879 1 9.7130396578990457e+00 1.1585079724839057e+01 1.6479347900971916e+01 -1 -2 0
3028 1 1.6245875995682120e+01 5.1621681440144291e+00 1.3503684033991396e+01 3 5 0
5435 1 1.8033121739926870e+01 6.9406091506343737e+00 1.2824497945935832e+01 -2 0 1
3403 1 2.0612910740248065e+01 6.0244181938005372e+00 1.3290721349010616e+01 2 -2 1
5349 1 2.2772569931404984e+01 7.9477142195949853e+00 1.2871155821854883e+01 5 3 0
1732 1 1.9748934313256814e+01 1.8948078377490520e+00 1.6202022715794293e+01 -1 -1 0
3496 1 2.0608878703097165e+01 6.2350234481826083e+00 1.6131990469637671e+01 -2 -3 0
476 1 8.6373711668554054e-01 9.8409037751161961e+00 1.3492976351788030e+01 -1 -2 0
3505 1 2.8770761442953559e+00 1.1503253926438079e+01 1.2628429321832019e+01 1 3 0
5124 1 6.0402769906576452e+00 8.1338058280292973e+00 1.2807542803392183e+01 -1 -3 0
6437 1 5.3672033041910341e+00 1.0759164985762885e+01 1.3705793346180505e+01 -1 5 1
5228 1 1.1124932731950285e+01 1.6633758298479833e+01 1.6338276898467839e+01 0 -1 0
4961 1 1.0753044413509713e+01 9.5199676926956762e+00 1.2438294318031078e+01 0 -1 1
1745 1 9.7392071171165089e+00 1.1936692571823819e+01 1.3540909440156829e+01 2 0 0
1871 1 2.1841786012147086e+01 1.0680505204022875e+01 1.6530859212092846e+01 0 0 0
3132 1 2.2587030979392800e+01 2.4100203184046531e+01 1.2625606742815618e+01 3 2 1
5314 1 1.3153934250312407e+01 8.6636780480907820e+00 1.3443679155255229e+01 4 4 0
345 1 1.4979728988005993e+01 1.0425567934557758e+01 1.2760405766636728e+01 -4 -2 0
5525 1 1.3265628885891351e+01 8.8113383931758413e+00 1.6123772109474722e+01 2 0 1
2963 1 1.7666113009368335e+01 9.8626506497126609e+00 1.3543963977151890e+01 0 -2 1
3163 1 1.9737838620547571e+01 1.1571005465117523e+01 1.2807452096873275e+01 1 4 1
3406 1 2.2228602183413383e+01 1.0543858071629932e+01 1.3746573411268791e+01 -1 0 0
5335 1 2.0860635487315303e+01 2.2369327705642839e+01 1.3596779704942010e+01 2 1 0
547 1 2.1162440245619587e+00 1.4124320167297730e+01 1.3613800776567498e+01 0 4 1
3409 1 4.0888503602681734e+00 1.5724597685687325e+01 1.2688765920982179e+01 -4 -1 0
3520 1 1.6378766336495886e+01 5.1211471747622328e+00 1.6168224699398110e+01 -2 -1 0
3177 1 2.3915549174509561e+01 3.0239362647164398e+00 1.6128612519407703e+01 -1 -1 1
2078 1 7.1390504744669441e+00 1.2552235678779599e+01 1.2804180516572842e+01 1 4 0
4722 1 6.4855982694948384e+00 1.5158910904720521e+01 1.3776109163354109e+01 2 0 1
3817 1 -8.0474700657435172e-02 5.1868695497355120e+00 1.5997333248579528e+01 3 -4 1
6473 1 1.1893244902538427e+01 1.3655580206685244e+01 1.2760914334603710e+01 0 -1 0
1366 1 1.1115040614602243e+01 1.6239194294820830e+01 1.3425311574538885e+01 -3 2 1
5026 1 1.4374209850801961e+01 1.2869510592568901e+01 1.3299558022167719e+01 2 -1 1
6472 1 1.6337046301612297e+01 1.4863916517043352e+01 1.3128704799305803e+01 1 0 1
3014 1 1.7573052357249036e+01 9.5579404327965189e+00 1.6322188371447890e+01 0 2 0
1513 1 4.2129562740554407e+00 2.2926934931910235e+01 1.6403842755892740e+01 3 2 0
5257 1 1.8796867693851862e+01 1.3977666782410688e+01 1.3926038219340624e+01 -2 5 0
5290 1 2.0577786653660869e+01 1.5703612315851677e+01 1.2956973163338093e+01 0 0 0
2037 1 7.7266769780310640e-01 9.4945904284241180e+00 1.6212135675969083e+01 4 3 0
4863 1 2.3990173298833334e+01 1.2406963578546142e+01 1.2688700408721660e+01 1 0 1
3579 1 2.3092044408766004e+01 1.4823617419831798e+01 1.3598687864685397e+01 4 6 0
306 1 6.2707916785920370e-01 1.9158738168605126e+01 1.2865218636499440e+01 -1 2 0
1320 1 3.3594637847789839e+00 1.8419973127426637e+01 1.3354759375042736e+01 0 0 1
2079 1 1.2576957030809871e-01 5.2673821310706597e+00 1.3292066069262711e+01 1 0 0
3038 1 7.4541728214312277e+00 1.9188088050281937e+01 1.3738377492455381e+01 2 1 1
3597 1 5.0180447104917754e+00 2.0508791818008742e+01 1.2648632518640527e+01 0 2 0
3655 1 6.4874122866445640e+00 1.5083389100744425e+01 1.6370671715906322e+01 -3 0 0
3307 1 8.3441315857823071e+00 1.6933437763028110e+01 1.2398630130819621e+01 2 -1 0
4882 1 1.6630223074153584e+01 2.1919556504886287e+01 1.3739947110560257e+01 -2 -2 1
4730 1 1.3031799445713967e+01 1.8181866414529889e+01 1.2818860720906068e+01 0 0 1
4938 1 1.5512665612695891e+01 1.7473300377957042e+01 1.3828700181955627e+01 0 4 1
1734 1 1.7542574536737479e+01 1.9110747832057513e+01 1.2832700757313530e+01 -4 0 1
3701 1 2.0087082153155425e+01 1.8398611911746499e+01 1.3730849059422406e+01 -3 0 0
6257 1 3.1860956972310421e+00 1.8502279267680180e+01 1.6291142025228059e+01 -1 -2 0
5418 1 1.3925840676772900e+01 2.2235116855207970e+01 1.2975271506185747e+01 0 -1 0
1313 1 2.4160738063770626e+01 1.9090339383343888e+01 1.3633246102996969e+01 3 -1 1
3318 1 2.1947819855945294e+01 2.0083313117423486e+01 1.2560243330080025e+01 -3 1 0
5481 1 1.8607395096323465e+01 2.3275121200292627e+01 1.2713172564776269e+01 1 -3 0
5165 1 1.7005166991516720e+00 2.3452258897613248e+01 1.3129678479337475e+01 -5 0 0
6369 1 9.3872963505334628e+00 2.0916325305708959e+01 1.2850742416602182e+01 -3 0 1
3862 1 4.3625635022954965e+00 2.2895772043665204e+01 1.3578984442962104e+01 -1 -1 1
5159 1 1.1827279700107070e+01 2.0607929161569096e+01 1.3804972846770406e+01 2 0 0
3759 1 8.7299280172917566e+00 2.3741780116930563e+01 1.3366474532619140e+01 2 0 1
4576 1 7.5925224821434023e+00 3.0419116530117072e+00 1.6449476776000619e+01 2 1 1
5047 1 2.9475656441595839e+00 1.7277079021755712e+00 1.6304122420336974e+01 2 0 0
493 1 1.1858867663672783e+01 4.2846889535813339e+00 1.6223200854840385e+01 0 1 1
3385 1 2.3241267779111816e+01 1.4892475083802456e+01 1.6342994289821952e+01 -3 -2 0
3657 1 1.9760513033028186e+01 1.8079601867434381e+01 1.6368034158611351e+01 3 2 0
3669 1 2.0921042095478826e+00 1.3710812613175751e+01 1.6278068939415022e+01 1 0 1
1646 1 1.8764121309196835e+01 1.3788286839768265e+01 1.6552199190597168e+01 0 5 0
4960 1 1.1656571802146267e+01 2.0274604029260686e+01 1.6372429495199469e+01 -2 1 0
429 1 1.5394800139575022e+01 1.7418980687751244e+01 1.6447332633012593e+01 4 2 0
5030 1 3.1727308614742697e+00 2.1238117018075866e+00 2.0293020133287584e+01 -3 1 0
2112 1 5.0713086697704823e-01 2.7593418426805747e+00 1.9706207815588471e+01 0 1 0
1612 1 5.7558539239745665e-01 2.7068844045441471e+00 1.7201324791842552e+01 -1 0 1
1667 1 7.8368405173756637e+00 3.0321712468427457e+00 2.0883118308002516e+01 1 -5 1
4940 1 5.5026350407417759e+00 3.8706226976350377e+00 1.9734090848945304e+01 -1 2 1
157 1 8.5588598910943254e+00 5.4560189314808527e-01 1.9732439021456241e+01 -1 0 0
6249 1 8.4023281351888883e+00 4.7692847706285402e-01 1.7087229583985408e+01 0 1 1
5087 1 1.2895314393180122e+01 1.6744356917377081e+00 1.9690953212819938e+01 -2 0 0
6420 1 1.5255358755512718e+01 8.0076015657734845e-01 2.0584681569175466e+01 2 4 1
5044 1 1.2717115697300258e+01 1.5367591260505131e+00 1.6830673520094379e+01 -2 1 0
5166 1 1.7197015215092808e+01 2.5490452063852795e+00 2.0072309605930016e+01 0 2 0
6326 1 1.9689892863870618e+01 1.8288238704276842e+00 2.0451952010575571e+01 0 -1 1
2973 1 1.7093591422749682e+01 2.6423668719982047e+00 1.7095100570322106e+01 1 1 1
143 1 2.1402430806290006e+01 3.8070722733090050e+00 1.9778141962411485e+01 -1 1 1
5426 1 2.3649798508732964e+01 2.7799247279793105e+00 2.0449463202774947e+01 -1 5 0
5127 1 2.1610461832950865e+01 3.7319847078880399e+00 1.6957577081701366e+01 -1 0 0
1369 1 1.8778655062582089e+01 2.3086817916875798e+01 1.9811262034684720e+01 -2 1 1
236 1 1.2683268167594690e+01 2.3151512637150727e+01 2.1645481807215184e+01 -3 2 0
315 1 1.6002492028119113e+00 7.0550477711868709e+00 2.0276597213236162e+01 1 -1 0
1637 1 1.6770937331130407e+00 6.9458776575161556e+00 1.7287255782277757e+01 1 -1 0
6426 1 2.3633239814544559e+01 1.2371284783862729e+01 1.7460692667323880e+01 1 -1 1
4736 1 4.7945371025560171e+00 3.6931525279371846e+00 1.7011296898883202e+01 0 1 1
6416 1 4.3041869058971942e+00 6.3537513020233911e+00 2.0742129731337862e+01 2 0 1
109 1 3.9158280675992261e+00 1.5904524355135170e+01 1.7083249664842366e+01 2 -1 0
1321 1 8.7610799209957300e+00 7.5157795223220534e+00 2.0747991462638243e+01 0 0 1
3111 1 9.7477519857711581e+00 4.7223595618605785e+00 1.9993659247570044e+01 -3 5 1
1788 1 1.2409469020268206e+01 4.2977009351253290e+00 2.0888564336661659e+01 0 4 0
6342 1 1.6900165497083627e+01 2.1362337240955505e+01 2.0781784678298798e+01 2 3 0
6392 1 1.3857531187054507e+01 6.2773379435604140e+00 1.9715408132010317e+01 -3 -4 1
413 1 1.6162664903451770e+01 5.2857907346544248e+00 2.0672953487368495e+01 -2 5 0
3659 1 1.8179198234155056e+01 6.8574464055161961e+00 1.7088864768281951e+01 -1 -5 0
3253 1 1.8086942245255671e+01 7.1183699037656059e+00 1.9959131763578075e+01 -3 0 1
3105 1 2.0700365752087979e+01 6.4196050816850185e+00 2.0644788547891896e+01 4 5 1
3502 1 1.2971473642014457e+00 9.7554023226926727e+00 2.0768699001930468e+01 2 -1 0
552 1 2.9816437118222709e+00 1.1767237000634635e+01 1.9678696820378327e+01 -1 0 1
201 1 2.8672102158168706e+00 1.1118591969893954e+01 1.7204654466375967e+01 -1 -2 0
2151 1 6.0877005780866638e+00 8.3299830116409215e+00 1.7301285498252518e+01 -1 0 1
6510 1 6.1995174446977144e+00 8.3027021638323539e+00 2.0148638193708170e+01 -2 6 1
4647 1 5.3748616462480161e+00 1.0764706925438411e+01 2.0748627764498892e+01 5 1 1
4604 1 1.0803344853726276e+01 9.1621665368710570e+00 1.9819796856780915e+01 -2 2 1
3289 1 9.9919331823045674e+00 1.1756814168763951e+01 2.0651975502507124e+01 0 0 0
134 1 1.0633467486846863e+01 9.2340746012544894e+00 1.7126659490800836e+01 -2 -1 0
1621 1 1.3224174614663717e+01 8.5873573993053842e+00 2.0811701672500128e+01 -3 0 1
3336 1 1.4722524355712880e+01 1.0691680211695283e+01 1.9797548487754351e+01 -1 0 1
5068 1 1.5066355787412524e+01 1.0691269904069262e+01 1.7241726332194713e+01 1 1 0
6377 1 1.7314006834933974e+01 9.7265520251840716e+00 2.0647535531802284e+01 -1 -4 1
3549 1 1.9389158693982143e+01 1.1261966335065402e+01 2.0067708385763702e+01 3 -1 0
3164 1 1.9446021419172773e+01 1.1293802843455877e+01 1.7458013251136318e+01 -7 0 1
527 1 2.2673790933792652e+01 8.3516250263186613e+00 1.9657873434969630e+01 -1 -2 1
1502 1 2.1932502382774246e+01 1.0881803192394303e+01 2.0723389336034984e+01 1 -2 0
240 1 1.3898732899107106e+01 6.1061651730085948e+00 1.6864121470428469e+01 1 5 0
4728 1 1.9756318085590565e+00 1.4159502207954718e+01 2.0654009729270001e+01 4 4 1
5409 1 4.0469218903525981e+00 1.5825610334594815e+01 1.9672882265060686e+01 -1 0 0
6572 1 1.0878367296315616e-01 2.1543895512664527e+01 2.0780773351852901e+01 4 -3 0
5278 1 2.1113583474567854e+01 2.2403468637471846e+01 2.0831933138021785e+01 4 -5 1
3048 1 7.3720676568739263e+00 1.2482472808373297e+01 2.0183718698408441e+01 2 -2 1
223 1 6.4718773510827221e+00 1.4930898519946028e+01 2.0868298847641391e+01 4 -1 1