LAMMPS data file via write_data, version 16 Mar 2018, timestep = 100000

6589 atoms
2 atom types

2.6963064182184482e-01 4.8950369358178762e+01 xlo xhi
2.6853303327440514e-01 4.8751102897137642e+01 ylo yhi
9.7522486427514110e-01 5.9086775135725574e+01 zlo zhi

Masses

1 18.015
2 12.01

Atoms # atomic

2084 1 4.2901459804284388e+00 2.7719539901204655e+00 2.3721364220150063e+00 -1 0 0
3149 1 1.3388993083315745e+01 1.2361485921178591e+01 1.3346577375455897e+00 0 0 0
3302 1 1.1956757896697714e+00 2.7104671619761507e+00 2.7647448742220160e+00 0 0 0
3552 1 3.5480862687958963e+00 1.0036962551178485e+01 6.0570275553220236e+00 1 0 0
3849 1 7.4099241823542421e+00 3.7862854286954648e+00 2.9287495804628456e+00 2 0 1
3372 1 6.0921281156640088e+00 1.0060129120648449e+01 4.9559157799114404e+00 1 0 0
3139 1 2.1000065778631608e+01 2.0880598890537289e+01 2.2586816534544747e+00 -1 1 1
3235 1 7.9102866965560370e+00 1.4163227054039438e+00 4.2882538323102803e+00 -1 -1 1
5064 1 1.3396792291056386e+01 4.4558536188061924e+00 3.4871383750819458e+00 1 0 1
3641 1 7.3764821721237768e+00 2.4204071617950714e+01 2.8203890133305065e+00 0 0 0
4677 1 1.7704885521717298e+01 3.4049368418531718e+00 4.3303437349315548e+00 1 1 1
5325 1 9.3916231721606511e+00 4.1217646239486001e+00 5.3646201785317995e+00 0 1 0
5461 1 3.6640479091714013e+00 4.5396671692769525e-01 4.2448902371212167e+00 1 2 1
6312 1 1.1069474301928427e+01 2.3785039006249715e+01 4.9843810393284178e+00 1 -2 1
11 1 2.0500349796285175e+01 2.9646770737034092e+00 4.4535362685723108e+00 -1 1 1
1413 1 1.0935152824322657e+01 5.3164049394820010e+00 1.1057814960872521e+00 -1 1 1
6245 1 1.0182241526567340e+01 2.8420626438580143e-01 3.6585373539295629e+00 0 -1 1
1706 1 1.1428085616763843e+01 2.1124168314415808e+01 3.0004501567717203e+00 0 1 0
5247 1 2.0666124637680063e+01 6.6603401320979438e+00 5.9617651978107959e+00 1 0 0
4576 1 2.4070458019299137e+00 5.9151208351495494e+00 5.3028851981338017e+00 1 1 1
61 1 1.8071188677367907e+01 2.3970415010792028e+01 4.7190546589163844e+00 0 -1 1
6343 1 4.8039369104826770e+00 4.5008738453521033e+00 4.4701638016567529e+00 0 0 1
4780 1 6.7815552601125848e+00 7.6542422160349233e+00 4.0586097754794643e+00 0 -1 1
4972 1 5.2183639561575399e+00 7.0156714639531828e+00 2.0769978179723907e+00 1 0 0
1660 1 9.2277837905076865e+00 7.6820841209486748e+00 2.9136264026926497e+00 1 1 0
5346 1 1.0888111379016006e+01 5.8317235059935353e+00 4.0488395530623258e+00 0 1 0
5387 1 2.3010936623769647e+00 2.1188791052175109e+01 5.7700930832648849e+00 1 2 0
1812 1 1.5208540411712253e+01 6.3295304536180401e+00 4.4030078404062802e+00 0 1 0
6217 1 1.1859046718435581e+01 7.5439491323866728e+00 5.9458871707673113e+00 2 1 0
6582 1 1.8308539310644310e+01 8.5392497054423018e+00 4.2145655951811616e+00 0 2 1
286 1 1.6139349130360465e+01 5.0726590710997665e-01 3.1760497852650893e+00 1 1 0
3009 1 1.1003637645500863e+01 7.8353947483569752e-01 1.0825449218958669e+00 0 1 1
5086 1 1.8450674265067015e+01 8.7114420906595136e-01 1.1713147051219197e+00 0 0 1
529 1 2.2108085605687325e+01 5.3639036497163382e+00 3.8266579235789924e+00 -1 -1 0
5381 1 1.3821343605099869e+01 1.4427948037094036e+00 1.5917805175116042e+00 1 1 0
3478 1 2.6072425959728203e+00 1.1103678037754930e+01 3.6698871565722078e+00 0 1 0
6446 1 2.4287361817677542e+01 5.8919073282521617e-01 2.7636951266621468e+00 -1 1 0
4876 1 3.9796434229823818e+00 9.5413972226742967e+00 1.7897853431102626e+00 1 -1 0
5159 1 2.0684346380096926e+01 1.7852354398838287e+01 5.2922045081944979e+00 1 0 0
3505 1 1.3584315087040318e+01 2.3123486940456683e+01 2.4469750332899824e+00 0 0 0
3000 1 8.0951585054172241e+00 1.1437792613651615e+01 3.5222520062871103e+00 0 1 1
528 1 1.0880108011929746e+01 1.3582932964006023e+01 2.1795516024585098e+00 1 1 1
1375 1 1.0539944784152866e+01 1.0472652532638318e+01 2.8749869110320554e+00 1 1 1
2075 1 1.5229845892622796e+01 8.8151259341124426e+00 2.9992215205526915e+00 -1 1 0
3138 1 1.3692833760108291e+01 1.0866829916870547e+01 5.6545491259064251e+00 0 1 1
5340 1 1.5302236710898478e+01 1.1616698243137851e+01 3.0337294566489748e+00 0 -1 1
42 1 3.7422189460035082e+00 1.8685036685877670e+01 5.4891308109762980e+00 1 0 0
1927 1 2.0517992164714261e+01 9.5234457858974366e+00 2.8037632658882030e+00 -1 0 0
3018 1 2.1244558527168085e+00 2.1415642282710294e+01 2.4394027733573620e+00 0 0 1
3619 1 1.6854277450645750e+01 1.0334263605534970e+01 5.8035708077837294e+00 0 1 0
2026 1 1.5978777600289257e+01 1.5002075174070329e+01 5.2824831236109038e+00 0 0 0
6577 1 2.2025607496195825e+01 1.0999049239011441e+01 4.7636971669493366e+00 0 -1 0
3288 1 6.7327124619300456e+00 1.0583480021180925e+01 1.2629325381016379e+00 1 1 0
5440 1 2.5823422168820902e+00 1.3831561934986135e+01 3.2597913716361426e+00 0 -1 0
3841 1 1.9069950161915934e+01 2.0670694193013375e+01 4.6521074904653368e+00 0 0 1
6300 1 1.7890269176225427e+01 5.8694078921320205e+00 5.4648779803443750e+00 0 0 1
1904 1 4.4986464308450689e+00 1.7720725661767997e+01 2.9498225694318032e+00 1 1 0
3587 1 2.2200669016192641e+01 2.3211311458811501e+01 4.2386293663155303e+00 2 -1 0
1786 1 5.1192359329253270e+00 1.5149037808898852e+01 3.5069085353805298e+00 -1 1 0
6483 1 8.1537164676599652e+00 1.4265184811904426e+01 4.1477287913377907e+00 -1 0 1
3482 1 1.1315495711135542e+01 1.7894984044331029e+01 5.5097536071308566e+00 0 0 0
184 1 1.2026735286663191e+01 1.5454214449523608e+01 4.0124647635117734e+00 -1 0 0
4935 1 1.3445975929988153e+01 1.7535340339439276e+01 2.6568423135923673e+00 1 1 1
1635 1 1.1918028622601190e+01 5.9716209209491478e-01 5.8573680571179576e+00 1 1 0
368 1 1.3720721869117954e+01 1.3865827364391995e+01 5.8585623537420970e+00 0 0 1
464 1 1.7838289478926349e+01 1.2994646013302859e+01 4.7116634088890992e+00 0 -1 0
3241 1 1.8870250603932746e+01 1.3582376564443679e+01 2.1860064016905358e+00 -1 0 0
4572 1 2.1653062409476270e+01 6.7237659188801677e+00 1.3572245061268284e+00 1 1 1
2010 1 2.2606242558695747e+01 1.5227392096994954e+01 1.9350422749503773e+00 0 1 0
1584 1 2.1306366216797421e+01 1.2461003637525948e+01 1.7906818968488434e+00 -1 0 1
3464 1 8.4944754710078918e+00 2.1994295162400768e+01 4.3122565952034195e+00 0 0 1
3370 1 5.6157456387552820e+00 2.1415670694827984e+01 5.4563320265944686e+00 0 1 0
1373 1 7.3154128276580641e+00 1.8460498263393688e+01 2.4804186137184354e+00 -1 1 0
2049 1 7.9924581894988256e+00 1.5687693881646428e+01 1.7165961181471530e+00 1 0 0
3536 1 9.2479102773727337e+00 1.9493607922963907e+01 4.2564010331864184e+00 2 0 0
5156 1 1.7489002435357282e+01 3.5857022219467178e+00 1.7639421130707613e+00 0 3 0
1902 1 1.3400556045351541e+01 1.9857693969054015e+01 4.3958999241419594e+00 0 -1 0
171 1 1.6329638918280850e+01 1.7589036362493978e+01 3.4252799101022022e+00 -1 0 0
3417 1 1.6513696245181034e+01 2.0419737105794578e+01 2.5185714686160781e+00 1 -1 0
4891 1 2.4307645124485624e+01 1.6218486810050095e+01 4.1062111575816438e+00 -1 0 1
1553 1 1.8477310597108335e+01 1.6273185870886177e+01 2.2004338510773982e+00 1 -1 1
5061 1 2.0724655158872615e+01 1.7699268473086466e+01 2.5824987725956854e+00 0 1 0
1630 1 2.4167468318450993e+00 1.8494478140529129e+01 1.2959200923708643e+00 1 1 1
1425 1 2.1899193568550048e+00 6.9537716216419216e+00 2.7825756518688616e+00 -1 0 1
5054 1 2.6800154467311357e+00 2.3905199328883153e+01 4.6966935293277636e+00 1 0 0
1738 1 1.1234776279236026e+01 1.0026884715229121e+01 5.4410942518007168e+00 1 1 0
225 1 1.0219903855977501e+01 2.3649480469993179e+01 1.9120138698667690e+00 0 0 0
3794 1 5.0012492674981228e+00 2.0681866918975437e+01 2.6317844552019798e+00 1 0 0
322 1 1.5238512075432148e+01 2.2070515317743347e+01 4.2050298210256116e+00 1 -1 0
4888 1 2.3720713444715496e+01 2.1333695933835077e+01 2.0329603158981162e+00 0 0 1
192 1 2.0174573720207164e+01 1.2764134938376406e+01 5.9581985566453337e+00 0 1 0
6237 1 4.4896477500831313e+00 2.3298610313564532e+00 6.0949641265376266e+00 0 1 0
4729 1 1.7421818997984644e+01 9.2351896572767007e+00 1.2302975996227783e+00 0 0 1
4615 1 2.7957022127160922e+00 2.4079114659404240e+01 1.7100042574138803e+00 0 0 1
1443 1 1.1955882914421101e+01 1.9151820707562639e+01 1.0969085968131935e+00 0 0 1
3003 1 7.0758720014634919e+00 5.4933195572322848e+00 6.2207615814514945e+00 0 0 1
2074 1 2.0542064734466813e+01 5.2221375228701328e-01 3.1404267843986000e+00 0 0 0
126 1 9.6825155320069953e+00 1.5374331473039581e+01 6.2231416071071886e+00 1 1 1
1471 1 1.6365283722940180e+01 1.6341039540710147e+00 6.0879016118588227e+00 0 -1 0
3711 1 3.3736067449855116e+00 1.4337037246329221e+01 6.1513443513453803e+00 1 1 0
1753 1 9.0521491750254732e+00 2.7385608092892619e+00 1.0080509373327757e+00 1 1 1
4889 1 1.7145776923296765e+01 1.2018647266695124e+01 1.0917647481208661e+00 -1 1 1
3140 1 1.9923167696592824e+01 2.3666960778733969e+01 1.2201723954584693e+00 -1 -1 1
1395 1 2.1811695219637929e+01 2.2331498202928888e+00 1.0405924028786515e+00 1 1 1
3269 1 2.7166831023396658e+00 4.0147096765809707e+00 9.4215231747476729e+00 -1 1 0
6 1 1.8801215349030013e+01 3.7576224919357060e-01 7.2988175119807339e+00 -1 -1 0
538 1 2.2571722167938336e+01 2.1737026922232417e+01 6.5842887325828547e+00 1 1 1
1498 1 2.8946760964445328e+00 1.6915615911902055e+01 1.0611814993250901e+01 2 0 1
1686 1 1.3735809892181784e+01 2.4437139899603125e+01 9.8886307565061689e+00 0 0 0
2088 1 6.9635611356007932e+00 1.2562925130467741e+00 6.8986544473674218e+00 -1 0 0
1675 1 7.4606778240529303e-01 4.1082365311304869e-01 7.8582903251503247e+00 1 1 1
243 1 1.4178313812514910e+01 1.7096960801774600e+01 8.3564873853988857e+00 1 0 1
273 1 7.5952483555151262e-01 1.0324289337130608e+01 9.6610797012177088e+00 0 0 0
3344 1 1.9630200189612381e+01 1.3381389411869970e+01 1.0956085985620906e+01 0 0 0
1601 1 1.7464754093468802e+01 2.4482591336022065e+01 7.5351119085074476e+00 1 0 0
555 1 1.2047111952120039e+01 3.2097939173823207e+00 9.6655235262837564e+00 0 0 1
2930 1 1.8292693491010439e+01 1.6138897524428621e+01 1.1492381465965755e+01 1 1 1
3565 1 1.5564688559679768e+01 4.5718303678458394e+00 9.0073015041840421e+00 1 -1 0
4789 1 1.8148621515881214e+01 5.9028997809794248e+00 8.2524893982001792e+00 0 1 1
1744 1 2.0771152761469658e+01 4.6991314877756212e+00 8.0452226338865813e+00 0 1 1
6514 1 2.6759542970292665e+00 7.7304822285518942e+00 7.0945351457948425e+00 1 0 1
5362 1 2.6445037409581147e+00 8.7870132212601018e+00 1.1211522389495014e+01 1 -1 0
210 1 3.8909500464635824e+00 6.5316098728312575e+00 9.6541091020633409e+00 2 0 0
6276 1 8.4292733639384281e+00 5.7813158222364844e+00 1.0772180736433407e+01 0 0 1
4917 1 5.0182731288968725e+00 2.5333399653729303e+00 9.2657662081675980e+00 1 1 1
3450 1 9.3600981470368838e-01 1.6202358367280283e+01 8.6954471485860338e+00 0 -1 0
3774 1 9.0292823537958000e+00 1.4320815663509276e+00 9.2691027136464577e+00 1 0 1
382 1 1.2116370082500547e+01 2.2252854176045386e+01 1.0930406192993708e+01 0 1 1
441 1 9.5507233020125391e+00 3.1515254534171038e+00 1.1235120806285233e+01 0 0 0
4953 1 1.3010709692677384e+01 5.6729197228583503e+00 9.9193974730822880e+00 0 0 1
3314 1 1.0576526903436156e+01 7.1340193637141143e+00 8.5514893504172882e+00 0 0 0
2044 1 1.9893132574677558e+01 1.0409808641659374e+01 1.0591194336489361e+01 -1 0 0
1531 1 1.4227566868581368e+01 6.8443817777092368e+00 6.9127609011113353e+00 1 -1 1
1316 1 1.6553999382747701e+01 1.9789820027498872e+00 9.1752103521596737e+00 -2 1 1
3512 1 1.7613525809557188e+01 8.7355290954523426e+00 8.9744329966075647e+00 0 -1 0
1669 1 4.5580127596326552e+00 1.0596204027894736e+01 1.1399556231622412e+01 0 1 1
3342 1 2.2520261762725866e+01 7.6636147269632344e+00 1.0681011739496244e+01 0 0 0
3599 1 2.3047525417247400e+01 1.8853442508967621e+01 6.5737259787278557e+00 -1 2 0
6369 1 9.6971047804708626e+00 2.3388607289143188e+01 1.1179143964846983e+01 -1 0 1
531 1 2.2339697826257666e+01 8.7436125505179749e+00 6.4175062903061022e+00 0 1 1
1907 1 2.3400071440065606e+01 5.6641896880070384e+00 8.8388665401992252e+00 0 0 0
18 1 1.1406273920894016e+01 3.2355762830666985e+00 6.8271518714607238e+00 0 1 0
6216 1 8.5122702743221534e+00 9.3487501258965242e+00 1.1077151628775566e+01 -1 -1 1
3675 1 1.6075114577246035e+00 1.1849265188515430e+01 7.3179941619789588e+00 0 0 0
2042 1 6.5275898406452626e+00 6.6598503046201358e+00 8.6383553564443467e+00 0 1 0
404 1 7.1732413816167053e+00 1.1049679517903698e+01 7.3425655243961128e+00 -1 0 1
5512 1 6.4267678884772712e+00 9.6420616017778951e+00 9.4272031685573907e+00 0 0 1
3112 1 1.0809148398037808e+01 9.7331381989220116e+00 9.6429638191603413e+00 0 0 1
519 1 1.0163948043313793e+01 1.1487614311222604e+01 7.5572471358834541e+00 0 2 1
150 1 1.3508205291012088e+01 1.0557598299534517e+01 9.7846701060139623e+00 1 1 0
6487 1 1.5023709877812140e+01 9.1691549043084120e+00 7.8580718230846642e+00 1 1 0
6443 1 2.1181413690777816e+01 2.0469624745270503e+00 6.9982635251509411e+00 1 1 1
2176 1 1.7513373099363128e+00 2.8937665066706844e+00 6.9630961433772134e+00 0 0 0
4982 1 1.8995551492651845e+01 1.0916245181724809e+01 7.6108164939955794e+00 -1 0 1
3740 1 1.7710932666375324e+01 1.2875346878810392e+01 9.1916589852509283e+00 -1 1 0
198 1 2.2345413346248254e+01 9.8936538211475309e+00 8.8994733446453402e+00 -1 0 0
3271 1 1.9866180727971674e+01 5.9485540224668112e+00 1.1157061089130545e+01 0 0 0
3432 1 2.3403406184432701e+01 2.2935547192092702e+01 8.6908994695189321e+00 1 1 1
4878 1 2.3553742661383108e+00 1.3727096153577136e+01 9.1215193574800626e+00 0 2 1
6507 1 1.9382972118242712e+01 3.3247785367852956e+00 1.0511440667759823e+01 0 1 1
1535 1 1.2294958516646806e+00 2.3362728177081745e+01 8.0672273696540913e+00 1 1 1
2943 1 6.3806086623848497e+00 1.5454823126717827e+01 6.4003570872962614e+00 2 0 1
162 1 6.5416156168875039e+00 1.3583442732805457e+01 8.2833524659306725e+00 1 0 0
1940 1 8.2670602199764858e+00 1.4812796300803477e+01 1.0306322622413321e+01 0 2 1
5201 1 1.0247679708574992e+01 1.3999599182476080e+01 8.8126862984969812e+00 0 1 0
3434 1 1.4836747957044359e+01 1.3246829007063436e+01 9.8558103375558286e+00 1 0 0
2196 1 1.3055170136093563e+01 1.4675668391875524e+01 8.4818555764564429e+00 0 0 0
6267 1 1.6755911961975006e+01 1.5422235512032691e+01 8.1217743105639180e+00 -1 0 1
350 1 2.1752888968504138e+01 1.4858241426703698e+01 9.6599576944433068e+00 0 0 0
1728 1 2.3859709715262603e+01 1.6443294112983946e+00 9.7050848176712705e+00 1 2 1
6515 1 2.3699357494702173e+01 1.2590964060488393e+01 9.2368195683513736e+00 1 0 0
6325 1 2.1112256454377395e+01 1.5208640801205878e+01 6.8935252720849460e+00 1 0 0
2918 1 2.3472722031080487e+01 7.7823836719684880e-01 7.3009582872055949e+00 0 0 1
2958 1 1.3789673848030287e+01 1.0434737620757297e+00 1.0299104217604926e+01 1 0 1
87 1 2.3877895560822399e+01 1.5767318539210468e+01 6.8961694850787527e+00 -1 1 1
5535 1 2.3088029891752765e+01 2.1222258123759701e+01 1.0757402841499017e+01 0 -1 0
5083 1 5.7205747062427479e+00 1.7994592868233344e+01 7.2171750484611552e+00 2 0 1
1625 1 1.8810809162747738e+01 2.3836522715495029e+01 9.9698596313506247e+00 0 -1 1
4810 1 7.3901758318344717e+00 1.7331287260802132e+01 1.0773573973872711e+01 1 1 1
37 1 4.8614465916279297e+00 1.8714532978374631e+01 9.9284345279727031e+00 0 0 0
3296 1 1.1491860957002306e+01 1.8425096861339206e+01 8.2318562471415699e+00 0 1 1
6192 1 1.1587830137706806e+01 1.6280026995788955e+01 1.0759156025465272e+01 2 1 1
65 1 9.6289011953359651e+00 1.8699326796882929e+01 1.0440316944005826e+01 -1 1 1
344 1 4.8813457781198171e+00 1.3405524743724612e+01 1.0652285524073125e+01 0 2 0
3123 1 1.5782341600849946e+01 1.7587217243098461e+01 1.0653581997787773e+01 0 0 0
5473 1 1.6500724684079671e+01 2.0236788173101129e+01 9.7122272261671938e+00 0 -1 1
2915 1 5.3896453345884927e+00 2.1351353111946960e+01 9.9493206908491221e+00 1 0 1
3856 1 1.9203410511737715e+01 1.6698987727879878e+01 8.6902061508805168e+00 1 0 1
1550 1 1.8903509675719018e+01 2.1228596045866794e+01 8.6964619823831040e+00 0 0 1
3017 1 1.8519949243629739e+01 1.8693777316561413e+01 7.1047542691459125e+00 1 1 1
1378 1 2.0647218900472055e+01 1.9753282764775832e+01 1.0573537991720700e+01 0 0 1
5246 1 2.2297142977507150e+01 1.8003558497336318e+01 9.2806425525175520e+00 1 1 0
2959 1 1.4969009037378379e+01 2.3570120711038026e+01 7.2800361514383392e+00 0 0 1
4560 1 8.9704151113485264e-01 2.1389612115082258e+01 9.9196430611312891e+00 1 1 1
5327 1 8.4704319714131806e+00 2.0912848638858456e+01 9.3064159980854377e+00 1 1 0
2133 1 4.5829241703259314e+00 2.3088668443456434e+01 7.6183098087918575e+00 -1 -1 0
1363 1 9.8175816163545750e+00 2.2374424273258157e+01 7.1283396834857360e+00 0 -1 1
6570 1 7.7352395572549950e+00 1.9742733972933724e+01 6.7236130019262568e+00 1 3 0
98 1 1.2063159085722903e+01 2.1090599579439175e+01 8.4975209120093833e+00 1 0 0
267 1 1.4799583776361491e+01 2.0906636569371916e+01 7.6392757603575872e+00 -1 0 0
4624 1 1.9999417810772862e+01 2.2451195070323987e+01 6.4638596483082749e+00 0 0 1
185 1 1.6818546573706016e+01 5.3094133420680931e+00 1.1394052723690546e+01 0 0 1
1293 1 1.5928343933232618e+01 1.8063089946688141e+01 6.3413247871109633e+00 0 -1 1
325 1 1.9083699282677256e+00 1.6974819496208589e+01 6.2937196405324976e+00 1 1 0
1336 1 1.4299647005742955e+01 3.5738104379239015e+00 6.2971793741981577e+00 0 1 1
3713 1 2.8387945075277816e+00 3.3787095969212673e+00 1.6021968741536444e+01 -1 0 0
6575 1 9.5035731064604825e+00 1.0282604705953029e+01 1.4819912592450320e+01 1 -1 0
1676 1 2.9550082927704775e+00 1.9534227964157469e+00 1.3546050709032809e+01 1 0 0
3635 1 9.0467708659454917e+00 2.8134683845544637e+00 1.4840677045762948e+01 1 -1 0
4633 1 1.3488211973818636e+00 1.7569623587385067e+01 1.2795330153860442e+01 2 -1 1
4681 1 1.3224076303106949e+01 2.2974676076867137e+01 1.5218278654765616e+01 0 1 1
405 1 1.5606991821053837e+01 1.8528216354258429e+00 1.2445962319206563e+01 -1 0 0
2151 1 1.1247250479412781e+01 1.8564222389646670e+00 1.3344984440299104e+01 0 0 1
116 1 9.4121132848874955e-01 8.5913968700166663e+00 1.3257222829598408e+01 -1 0 0
3563 1 1.4595037275419088e+01 2.0530577259500344e+01 1.2151422226342323e+01 1 0 0
2043 1 1.7911462975416377e+01 3.4459913151809967e+00 1.3348243450343855e+01 0 0 0
1562 1 5.3077158469619468e+00 3.1305215908313606e+00 1.2235473025811197e+01 0 0 1
1495 1 1.0926396030034411e+01 1.9358746454695481e+01 1.6026296373329323e+01 1 0 1
3837 1 2.3040189113259860e+01 1.5645197617835963e+01 1.2276513246947854e+01 0 0 1
5120 1 2.2599848006976412e+01 3.1624461610803363e+00 1.3808199096253510e+01 0 -1 0
4642 1 1.0437227943183537e+01 1.2366552483729370e+01 1.6351690684564812e+01 0 0 1
3576 1 4.8116757448392180e+00 5.6839108496959234e+00 1.2430705742721463e+01 0 0 0
3270 1 1.4605259290584472e+01 2.3282035050027222e+01 1.2606200525066917e+01 0 1 0
22 1 2.8481219861258911e+00 6.0780016503869607e+00 1.4300448396911133e+01 0 1 0
1881 1 1.1852800654367815e+01 1.9170436088064918e+01 1.2446432608337895e+01 1 1 0
1372 1 9.2297218981816673e+00 5.4186040593080413e+00 1.4441791606568531e+01 0 0 1
6437 1 3.6795823601544559e+00 1.5730723081309749e+01 1.6658244335838191e+01 0 2 1
1574 1 1.3145326160834220e+01 6.7734030975846657e+00 1.2213518683240929e+01 0 0 1
1482 1 1.0328428707311263e+01 7.0931201185872501e+00 1.2408247500535394e+01 0 0 1
6209 1 1.4434404899392419e+01 4.6256215660585536e+00 1.3542807051210154e+01 1 2 1
2940 1 7.4175807714929709e-01 1.3250929826220201e+01 1.3497618456505164e+01 1 0 1
1469 1 2.1403731051620419e+01 1.2800063420682068e+01 1.6517119159771148e+01 -1 1 1
5136 1 1.7658567764899860e+01 6.5751086772653986e+00 1.4758739052590078e+01 0 0 1
3589 1 2.0670624634818992e+01 4.8297461855264414e+00 1.3627655811428548e+01 0 0 0
3096 1 6.1966722355513566e+00 1.4362840262648001e+01 1.6419730973388791e+01 1 0 1
4845 1 2.2028575653221257e+01 7.2369641826449591e+00 1.3604532143116945e+01 1 0 0
1604 1 3.0373554650650374e+00 8.7215043322177692e+00 1.5313112374012475e+01 1 1 0
152 1 6.3795805371992511e+00 1.7467467301911924e+01 1.3289792984646345e+01 0 0 1
2988 1 1.3256705354573210e+01 1.2497341512121178e+01 1.6629405990976039e+01 0 1 1
209 1 7.0231695411210806e+00 7.4559170784869551e+00 1.2800672292130809e+01 0 1 0
1938 1 5.2744664596641497e+00 9.3354096263058715e+00 1.3839902898733873e+01 2 0 0
3350 1 5.5239881468180094e+00 1.2274567213586428e+01 1.4570004260387620e+01 1 0 0
574 1 5.3736573602177895e-01 1.2809626954895526e+01 1.6436360788495030e+01 1 -1 1
6211 1 9.3207363486358563e+00 1.1437314614244146e+01 1.2559130547910629e+01 0 1 1
312 1 1.1683587347782066e+01 8.4343650145981748e+00 1.5052961905444915e+01 -1 1 0
4870 1 1.5735622251785816e+01 1.0148182293976555e+01 1.4114185810055133e+01 2 0 0
335 1 1.4651785441726339e+01 9.2282599951107489e+00 1.1925587550720756e+01 0 1 0
1962 1 1.4312478729812199e+01 8.8629682239562282e+00 1.6073834201833815e+01 0 3 0
1559 1 1.8311429810613291e+01 9.3654743753431493e+00 1.4895751707607573e+01 0 1 0
3142 1 2.4421463095722746e+01 2.1549676781940793e+01 1.5705901221840533e+01 0 -1 1
1318 1 2.0340103241336564e+01 9.3303450712370797e+00 1.3101755584928958e+01 0 0 1
3351 1 2.4865612858588944e+00 2.2179353996872457e+01 1.5713335985696537e+01 0 1 1
4568 1 2.1090265372910462e+01 1.2304805915270581e+01 1.3543577302750668e+01 -1 1 1
1589 1 1.7554704134901364e+01 8.0932200529141411e+00 1.1909498413969546e+01 0 1 1
6414 1 2.1969324185641778e+01 2.4150842084553933e+01 1.5896903702323765e+01 0 -1 1
52 1 3.2470946866989925e+00 1.3960050548013106e+01 1.4446511688647174e+01 3 0 1
6205 1 7.1366151478186701e+00 2.2467399396572151e+01 1.1928997616958934e+01 1 1 1
1503 1 6.8279344843521628e+00 9.8207923214494599e+00 1.6002235145066770e+01 1 1 0
5347 1 7.2459550095491130e+00 1.3130434367217674e+01 1.2651131836294237e+01 0 -1 0
4962 1 2.3366516842010633e+01 6.3849168175227167e+00 1.6614860549244359e+01 -2 1 0
3666 1 8.0474436416292434e+00 1.5371800465255246e+01 1.4436108085306552e+01 1 0 0
1577 1 1.0563330295733067e+01 2.2128103249204756e+01 1.5220179813254493e+01 1 -1 1
1698 1 1.1171116827297158e+01 1.3532221464174862e+01 1.2058075908781746e+01 0 0 0
3060 1 1.0898955644988948e+01 1.4545671760770302e+01 1.4689535829073112e+01 2 -1 1
3382 1 1.5104024249380677e+01 1.2726790497178305e+01 1.4654888283532541e+01 1 -1 0
409 1 1.3952060438744574e+01 1.3928585698877926e+01 1.2383310804464797e+01 0 -1 1
3582 1 1.7267231361536329e+01 1.3883167364141164e+01 1.5701167240847019e+01 2 2 0
6395 1 2.0800601484335548e+01 1.6784871963450644e+01 1.4141172254575812e+01 0 -1 0
3441 1 1.8890205166693143e+01 1.4559716469178603e+01 1.3687548873604472e+01 0 -1 0
3128 1 1.7030064312103743e+01 3.0584899348512753e+00 1.5987031898979289e+01 1 1 0
5229 1 2.3421006383209111e+01 1.3077260987412762e+01 1.2819685689228075e+01 0 0 1
406 1 2.7704944840082253e+00 1.8457163147567275e+01 1.5064406614602291e+01 0 1 0
5073 1 2.2548077812935741e+01 2.2099914117267616e+00 1.6297773071035049e+01 0 1 0
1403 1 6.1824256618833928e+00 2.1541120787603724e+01 1.4472608847504610e+01 -1 0 1
1949 1 4.2763883579491291e-01 4.6192009968753256e+00 1.3761489002392555e+01 0 0 1
3335 1 8.3611971078965315e+00 2.3549067316772735e+01 1.6214165400124173e+01 1 0 0
3223 1 4.4239975169123120e+00 1.5581628195721153e+01 1.2276406658483577e+01 0 2 0
6493 1 9.3672986520421500e+00 2.0596741371221558e+01 1.3242224852849375e+01 0 1 1
4614 1 7.6151976371818160e+00 1.9216708689053924e+01 1.5131493325202207e+01 0 1 1
4625 1 1.2678854071044418e+01 1.7579700299464960e+01 1.4789763684094215e+01 0 2 1
1991 1 1.5355388795348771e+01 1.8201262931714087e+01 1.5530977167853431e+01 1 1 0
3538 1 1.3891874107945716e+01 1.6748560273968202e+01 1.2370550679683650e+01 0 0 0
1810 1 1.2669287354328068e+01 3.3313870060798032e+00 1.5222296010438603e+01 0 0 0
6294 1 1.7011573369693576e+01 2.3068555838097240e+01 1.5142729409964792e+01 -1 2 0
3777 1 1.6967658308986000e+01 2.0077412419715298e+01 1.3895689504805825e+01 -1 0 1
2060 1 1.9167544157481125e+01 1.8821683284267159e+01 1.2555024330215788e+01 0 0 0
3598 1 2.1324090385838431e+01 1.9643728433178563e+01 1.4352294975732937e+01 0 0 0
4818 1 1.5063502550889739e+01 6.3908648114774840e+00 1.6009686515526447e+01 1 1 0
439 1 2.3293472814247977e+01 1.8873489829995027e+01 1.6028849541644636e+01 -1 0 0
48 1 1.8652168017438736e+01 2.2791078850234928e+01 1.2598810602803177e+01 0 0 0
1616 1 3.6501293290030783e+00 2.0782994868843115e+01 1.3701040726350113e+01 -1 0 1
391 1 2.1205982625613562e+01 2.2722604570219374e+01 1.3400186274080379e+01 1 1 0
191 1 2.4283427200143802e+01 2.2744243864148213e+01 1.2947834282619489e+01 1 0 1
88 1 7.4624454880235271e+00 1.5096830738259879e+00 1.2614885223545263e+01 -1 1 0
2239 1 7.3559894867744591e+00 6.8115121468964599e+00 1.5918544117535964e+01 0 2 1
3011 1 1.8983087603764353e+01 1.9997472784962966e+01 1.5936438243485732e+01 1 0 1
3467 1 1.4860709696773000e+01 1.5184603661237817e+00 1.5451828533039231e+01 0 0 0
3290 1 1.9499196438198656e+01 5.2884825115380050e+00 1.6312703547725377e+01 0 1 0
144 1 1.3297800212020991e+01 1.5318974829329452e+01 1.6470699275486076e+01 0 0 0
5080 1 7.5187791608480481e+00 1.2852419858268549e+00 1.6736980604330526e+01 1 0 1
5017 1 1.7718466068786802e+00 2.2469140632207257e+01 1.2203673500735576e+01 0 0 0
1354 1 9.3359192416137393e+00 1.6730546806453813e+01 1.6576823741550257e+01 0 1 1
6320 1 1.0519789317792585e+01 6.4843787766273779e+00 1.6772769398713606e+01 1 1 0
2048 1 1.5577344696536539e+01 2.0815691981068948e+01 1.6620216439627004e+01 0 -2 0
1862 1 9.7030350040961866e-01 3.1753093523373468e+00 1.1550363792365813e+01 0 -1 1
3614 1 2.1673258006358353e+01 2.1269713011554421e+00 1.1596610586937992e+01 1 2 0
1466 1 4.1250512854016312e+00 3.4886034861808093e+00 2.0158787368809275e+01 0 1 1
5392 1 2.2850450321515794e+01 1.0452148181669800e+01 1.7899962318917432e+01 1 1 0
3014 1 1.6275146702235794e+00 2.9090446098938787e+00 2.1257409218256374e+01 2 1 0
2066 1 1.3670411225870829e+01 5.6147682773398588e-01 2.1071640535772236e+01 1 -1 0
3571 1 6.1178470605050776e+00 2.0043936605701500e+00 2.1530328400269390e+01 1 1 0
6263 1 1.9961437086311069e+01 1.5889822983289545e+01 1.7075355384469852e+01 -1 1 1
6405 1 2.4136008694246492e+01 2.2844138351862689e+01 1.8524584802330043e+01 0 0 1
2997 1 1.2505517137531506e+01 3.0303288314214214e+00 2.1227398715037349e+01 0 0 0
5454 1 1.1571299373450445e+01 2.8768287902842808e+00 1.8400054808285578e+01 -1 0 0
1894 1 1.5071749705499892e+01 1.4743832703605408e+00 1.8483572681445970e+01 -1 0 0
4626 1 6.5411618923865040e+00 1.1967693210290930e+01 1.7913682462109954e+01 2 1 1
5002 1 2.2337912948710137e+01 1.6912653112216649e+01 1.7822303713405500e+01 0 1 0
3497 1 1.8111484871764993e+01 4.3880111645310302e+00 1.8947359928559628e+01 -1 1 0
431 1 1.8472170721328162e+01 2.6868344707583649e+00 2.1072106837961208e+01 0 -1 1
1947 1 7.8216683437661212e+00 1.6294481247724427e+01 2.1785851144458871e+01 0 1 0
2073 1 5.0962391030392418e+00 2.6963545258727191e+00 1.7396223209538956e+01 1 -1 0
3707 1 6.2674048451952302e+00 5.2005563000103150e+00 1.8096250351637984e+01 0 0 1
1563 1 3.2619796139470085e+00 6.1639087236752346e+00 2.0936618412716765e+01 1 -1 0
4941 1 1.3600497328242676e+00 5.6890740903129791e+00 1.8869308547553544e+01 0 2 0
3472 1 9.1235729324563000e+00 4.0044991866941473e+00 1.8045273074717002e+01 1 1 0
6296 1 6.1131717139390895e+00 6.3816700862432167e+00 2.0842412814308378e+01 0 1 1
4875 1 7.9672757791306363e+00 3.9805753014763212e+00 2.0634669155786092e+01 -1 1 1
1883 1 1.8291298730989382e+01 9.6388724998449204e-01 1.7175767859239009e+01 0 0 0
6497 1 9.8828375687240921e+00 8.1647914421377479e+00 1.9037584347280816e+01 0 1 0
4668 1 1.2873044551920836e+01 5.3885367550056511e+00 1.8025447663510452e+01 0 0 1
4712 1 1.4490344096474844e+01 4.7269749487663200e+00 2.1100504687121088e+01 0 1 1
6425 1 3.4369462346988340e+00 6.3144082939141342e+00 1.7061235114962304e+01 1 1 1
5129 1 1.3431121769871016e+01 7.2856960147868266e+00 2.0238232426904492e+01 0 -1 1
6243 1 1.7064454871899631e+01 9.1110175899559191e+00 1.9677351369448079e+01 1 1 1
4666 1 1.8141184992669807e+01 6.7977979703404117e+00 2.0644943813506050e+01 -1 2 1
1756 1 1.9306156586553957e+00 1.0885028907034570e+01 2.0687402759682314e+01 -1 -1 1
1930 1 2.0776211393087298e+01 7.3350827177937177e+00 1.9869740720141792e+01 1 0 0
4622 1 2.1731287757126992e+01 4.2714333803250355e+00 1.7998366208981885e+01 -1 1 1
1417 1 2.2196452851609205e+01 5.0369930297843615e+00 2.0517578616016696e+01 0 -1 1
170 1 5.3509664840357045e+00 8.4776288937610413e+00 1.8275027501310621e+01 -1 0 0
2910 1 9.1346848041412230e+00 4.6378251943229420e-01 1.8733053376379033e+01 1 0 1
1858 1 4.0446237638593372e+00 8.9281657529230731e+00 2.0974473593271835e+01 0 1 0
2957 1 1.0790444876328234e+01 6.9113583064671547e+00 2.1405801079310571e+01 1 0 1
1732 1 9.2055228894482077e+00 1.1560946347051162e+01 1.9026885612299203e+01 0 1 0
1517 1 7.4395291931726737e+00 9.2267974082310875e+00 1.9760207951558442e+01 0 1 1
1439 1 1.1573052004424575e+01 1.0264074983838924e+01 2.0264983713238212e+01 1 1 1
2978 1 1.3508895498664105e+01 1.1866162622371903e+01 1.9314272921068209e+01 0 0 1
3785 1 1.4581793208724399e+01 9.3390097767063764e+00 1.8793611244593283e+01 -1 0 0
4957 1 1.8698156654279245e+01 9.9158969669161579e+00 1.7590460135973238e+01 1 0 1
5088 1 1.7506634421350171e+01 1.0839194692672645e+01 2.1709997929460744e+01 0 1 0
3830 1 2.0520073777551559e+01 1.1350227770135376e+01 2.1350395202079621e+01 1 0 1
3164 1 2.2562729245269360e+01 2.2657515346396153e+01 2.0984922402606951e+01 -2 0 1
4977 1 7.6562300273027128e-01 1.9314168556354044e+01 1.7146190957833809e+01 2 0 1
5412 1 2.1080699748555126e+01 1.3287895529721457e+01 1.9692993958079438e+01 1 0 0
14 1 2.2538673896468715e+01 9.5253658548668696e+00 2.0679815006737552e+01 1 0 0
5426 1 3.5793543941192332e+00 1.1555344793614976e+01 1.8580719683430264e+01 0 2 0
6498 1 4.5420836865968583e+00 1.5558833204611176e+01 2.0230081283202335e+01 1 0 1
3594 1 1.2596250751226565e+01 2.1923489616366140e+01 2.0040461996520833e+01 0 2 0
1795 1 6.7987351178918605e+00 1.5725449050922917e+01 1.8889651803204966e+01 1 -1 1
2021 1 9.2187966886188626e+00 1.4177541785704651e+01 1.9851997558614705e+01 2 0 0