LAMMPS data file via write_data, version 16 Mar 2018, timestep = 8000000

4065 atoms
2 atom types

0.0000000000000000e+00 4.9219999999999999e+01 xlo xhi
0.0000000000000000e+00 4.9019635930410494e+01 ylo yhi
1.1053213772113928e+00 2.6735510869068627e+01 zlo zhi

Masses

1 18.015
2 12.01

Atoms # atomic

83 2 0.0000000000000000e+00 2.8417180249513345e+00 2.6491627177876520e+00 0 0 0
85 2 0.0000000000000000e+00 0.0000000000000000e+00 2.6491627177876520e+00 0 0 0
87 2 1.2305000000000001e+00 7.1042950623783474e-01 2.6491627177876520e+00 0 0 0
94 2 1.2305000000000001e+00 2.1312885187134998e+00 2.6491627177876520e+00 0 0 0
90 2 0.0000000000000000e+00 4.2625770374269996e+00 2.6491627177876520e+00 0 0 0
92 2 1.2305000000000001e+00 4.9730065436648339e+00 2.6491627177876520e+00 0 0 0
107 2 1.2305000000000001e+00 6.3938655561404980e+00 2.6491627177876520e+00 0 0 0
88 2 0.0000000000000000e+00 7.1042950623783341e+00 2.6491627177876520e+00 0 0 0
103 2 0.0000000000000000e+00 8.5251540748539991e+00 2.6491627177876520e+00 0 0 0
105 2 1.2305000000000001e+00 9.2355835810918343e+00 2.6491627177876520e+00 0 0 0
101 2 0.0000000000000000e+00 1.1366872099805333e+01 2.6491627177876520e+00 0 0 0
124 2 0.0000000000000000e+00 1.2787731112280996e+01 2.6491627177876520e+00 0 0 0
126 2 1.2305000000000001e+00 1.3498160618518829e+01 2.6491627177876520e+00 0 0 0
128 2 1.2305000000000001e+00 1.0656442593567498e+01 2.6491627177876520e+00 0 0 0
122 2 0.0000000000000000e+00 1.5629449137232333e+01 2.6491627177876520e+00 0 0 0
153 2 0.0000000000000000e+00 1.7050308149707998e+01 2.6491627177876520e+00 0 0 0
157 2 1.2305000000000001e+00 1.4919019630994494e+01 2.6491627177876520e+00 0 0 0
151 2 0.0000000000000000e+00 1.9892026174659328e+01 2.6491627177876520e+00 0 0 0
155 2 1.2305000000000001e+00 1.7760737655945832e+01 2.6491627177876520e+00 0 0 0
194 2 1.2305000000000001e+00 1.9181596668421495e+01 2.6491627177876520e+00 0 0 0
188 2 0.0000000000000000e+00 2.4154603212086325e+01 2.6491627177876520e+00 0 0 0
190 2 0.0000000000000000e+00 2.1312885187134999e+01 2.6491627177876520e+00 0 0 0
192 2 1.2304999999999993e+00 2.2023314693372832e+01 2.6491627177876520e+00 0 0 0
233 2 1.2304999999999993e+00 2.3444173705848499e+01 2.6491627177876520e+00 0 0 0
84 2 0.0000000000000000e+00 1.4208590124756650e+00 5.7368453989395949e+00 0 0 0
86 2 0.0000000000000000e+00 0.0000000000000000e+00 5.7368453989395949e+00 0 0 0
95 2 1.2305000000000001e+00 2.1312885187134998e+00 5.7368453989395949e+00 0 0 0
89 2 0.0000000000000000e+00 5.6834360499026637e+00 5.7368453989395949e+00 0 0 0
91 2 0.0000000000000000e+00 4.2625770374269996e+00 5.7368453989395949e+00 0 0 0
93 2 1.2305000000000001e+00 3.5521475311891644e+00 5.7368453989395949e+00 0 0 0
108 2 1.2305000000000001e+00 6.3938655561404980e+00 5.7368453989395949e+00 0 0 0
102 2 0.0000000000000000e+00 9.9460130873296642e+00 5.7368453989395949e+00 0 0 0
104 2 0.0000000000000000e+00 8.5251540748539991e+00 5.7368453989395949e+00 0 0 0
106 2 1.2305000000000001e+00 7.8147245686161639e+00 5.7368453989395949e+00 0 0 0
125 2 0.0000000000000000e+00 1.2787731112280996e+01 5.7368453989395949e+00 0 0 0
127 2 1.2305000000000001e+00 1.2077301606043163e+01 5.7368453989395949e+00 0 0 0
129 2 1.2305000000000001e+00 1.0656442593567498e+01 5.7368453989395949e+00 0 0 0
123 2 0.0000000000000000e+00 1.4208590124756663e+01 5.7368453989395949e+00 0 0 0
154 2 0.0000000000000000e+00 1.7050308149707998e+01 5.7368453989395949e+00 0 0 0
156 2 1.2305000000000001e+00 1.6339878643470165e+01 5.7368453989395949e+00 0 0 0
158 2 1.2305000000000001e+00 1.4919019630994494e+01 5.7368453989395949e+00 0 0 0
152 2 0.0000000000000000e+00 1.8471167162183658e+01 5.7368453989395949e+00 0 0 0
193 2 1.2305000000000001e+00 2.0602455680897162e+01 5.7368453989395949e+00 0 0 0
195 2 1.2305000000000001e+00 1.9181596668421495e+01 5.7368453989395949e+00 0 0 0
189 2 0.0000000000000000e+00 2.2733744199610655e+01 5.7368453989395949e+00 0 0 0
191 2 0.0000000000000000e+00 2.1312885187134999e+01 5.7368453989395949e+00 0 0 0
234 2 1.2304999999999993e+00 2.3444173705848499e+01 5.7368453989395949e+00 0 0 0
412 2 0.0000000000000000e+00 2.8417180249513345e+00 8.8245280800837413e+00 0 0 0
413 2 0.0000000000000000e+00 0.0000000000000000e+00 8.8245280800837413e+00 0 0 0
414 2 1.2305000000000001e+00 7.1042950623783474e-01 8.8245280800837413e+00 0 0 0
418 2 1.2305000000000001e+00 2.1312885187134998e+00 8.8245280800837413e+00 0 0 0
3927 1 1.1395549924739050e+00 2.4408158772019197e+00 1.1300192463687894e+01 1 1 0
416 2 0.0000000000000000e+00 4.2625770374269996e+00 8.8245280800837413e+00 0 0 0
417 2 1.2305000000000001e+00 4.9730065436648339e+00 8.8245280800837413e+00 0 0 0
425 2 1.2305000000000001e+00 6.3938655561404980e+00 8.8245280800837413e+00 0 0 0
1968 1 1.1181818172825113e+00 4.9875305064308151e+00 2.1790541287529297e+01 0 0 -1
415 2 0.0000000000000000e+00 7.1042950623783341e+00 8.8245280800837413e+00 0 0 0
423 2 0.0000000000000000e+00 8.5251540748539991e+00 8.8245280800837413e+00 0 0 0
424 2 1.2305000000000001e+00 9.2355835810918343e+00 8.8245280800837413e+00 0 0 0
1919 1 1.2446141636576411e+00 2.3981174671806311e+00 2.3102258801739676e+01 1 2 1
422 2 0.0000000000000000e+00 1.1366872099805333e+01 8.8245280800837413e+00 0 0 0
434 2 0.0000000000000000e+00 1.2787731112280996e+01 8.8245280800837413e+00 0 0 0
435 2 1.2305000000000001e+00 1.3498160618518829e+01 8.8245280800837413e+00 0 0 0
436 2 1.2305000000000001e+00 1.0656442593567498e+01 8.8245280800837413e+00 0 0 0
433 2 0.0000000000000000e+00 1.5629449137232333e+01 8.8245280800837413e+00 0 0 0
449 2 0.0000000000000000e+00 1.7050308149707998e+01 8.8245280800837413e+00 0 0 0
451 2 1.2305000000000001e+00 1.4919019630994494e+01 8.8245280800837413e+00 0 0 0
448 2 0.0000000000000000e+00 1.9892026174659328e+01 8.8245280800837413e+00 0 0 0
450 2 1.2305000000000001e+00 1.7760737655945832e+01 8.8245280800837413e+00 0 0 0
470 2 1.2305000000000001e+00 1.9181596668421495e+01 8.8245280800837413e+00 0 0 0
467 2 0.0000000000000000e+00 2.4154603212086325e+01 8.8245280800837413e+00 0 0 0
468 2 0.0000000000000000e+00 2.1312885187134999e+01 8.8245280800837413e+00 0 0 0
469 2 1.2304999999999993e+00 2.2023314693372832e+01 8.8245280800837413e+00 0 0 0
490 2 1.2304999999999993e+00 2.3444173705848499e+01 8.8245280800837413e+00 0 0 0
3019 1 9.7237312308336921e-01 2.0783004922608193e+00 2.5762243177810404e+01 0 0 0
873 1 1.2249508592736713e+00 2.6760737513335315e+00 1.5711611371412076e+01 2 1 -1
1066 1 1.4605940154683510e+00 7.3866912789892298e+00 1.4480339643462775e+01 1 -1 0
3912 1 1.3546785079317736e+00 7.2850287785156826e+00 1.1836052827798147e+01 1 1 0
2061 1 1.5619499012739309e+00 1.2973404880498606e+01 2.5876833550104447e+01 1 1 1
3108 1 1.1574331592281217e+00 2.2860431466279629e+00 1.8537785659711453e+01 0 2 0
3851 1 1.2675490986990776e+00 4.9035563608620194e+00 1.9123464418400310e+01 0 1 1
1003 1 1.5069872564828650e+00 4.9793949612013870e+00 2.5755807542422815e+01 0 0 -2
1864 1 1.1306769808891459e+00 1.0208158465961178e+01 2.5001570505619430e+01 0 1 0
2839 1 1.2734436875919135e+00 9.8704676489833840e+00 1.1183653596725893e+01 1 0 0
1920 1 9.2554519259473375e-02 2.3799205757403247e+01 2.1874559539594870e+01 0 -1 2
3124 1 1.3202702337145045e+00 1.0086175808517726e+01 1.8017984624117915e+01 1 1 0
3919 1 1.4394242724983592e+00 1.0359640578589561e+01 2.2354738145813062e+01 0 0 0
2057 1 1.4341208015847400e+00 1.0027015901422981e+01 1.5115538760320197e+01 0 1 0
4021 1 1.4971017690493400e+00 2.3480153061368725e+01 1.1641076278976392e+01 0 -1 -1
2059 1 1.2960057509720748e+00 1.5608988095074103e+01 1.4542408441351240e+01 0 -2 0
899 1 1.6699573345534047e+00 1.7376219980782736e+01 2.2572842579842820e+01 0 0 -1
3948 1 1.5338922633546261e+00 1.5368586436449817e+01 1.1634725210315796e+01 1 0 0
2888 1 1.6719217092794094e+00 1.2658088783220290e+01 1.8781309435179740e+01 0 1 -1
1879 1 5.4883558030010193e-01 2.4429049446697444e+01 2.6058495448944463e+01 0 0 0
1130 2 0.0000000000000000e+00 2.5575462224561992e+01 2.6491627177876520e+00 0 0 0
1132 2 1.2305000000000001e+00 2.6285891730799833e+01 2.6491627177876520e+00 0 0 0
1140 2 1.2305000000000010e+00 2.7706750743275496e+01 2.6491627177876520e+00 0 0 0
1128 2 0.0000000000000000e+00 2.8417180249513333e+01 2.6491627177876520e+00 0 0 0
1136 2 0.0000000000000000e+00 2.9838039261988989e+01 2.6491627177876520e+00 0 0 0
1138 2 1.2304999999999993e+00 3.0548468768226829e+01 2.6491627177876520e+00 0 0 0
1134 2 0.0000000000000000e+00 3.2679757286940330e+01 2.6491627177876520e+00 0 0 0
1150 2 0.0000000000000000e+00 3.4100616299415996e+01 2.6491627177876520e+00 0 0 0
1152 2 1.2305000000000010e+00 3.4811045805653833e+01 2.6491627177876520e+00 0 0 0
1154 2 1.2304999999999993e+00 3.1969327780702493e+01 2.6491627177876520e+00 0 0 0
1148 2 0.0000000000000000e+00 3.6942334324367337e+01 2.6491627177876520e+00 0 0 0
1172 2 0.0000000000000000e+00 3.8363193336842990e+01 2.6491627177876520e+00 0 0 0
1176 2 1.2304999999999993e+00 3.6231904818129486e+01 2.6491627177876520e+00 0 0 0
1170 2 0.0000000000000000e+00 4.1204911361794323e+01 2.6491627177876520e+00 0 0 0
1174 2 1.2305000000000010e+00 3.9073622843080841e+01 2.6491627177876520e+00 0 0 0
1206 2 1.2305000000000010e+00 4.0494481855556494e+01 2.6491627177876520e+00 0 0 0
1200 2 0.0000000000000000e+00 4.5467488399221331e+01 2.6491627177876520e+00 0 0 0
1202 2 0.0000000000000000e+00 4.2625770374269997e+01 2.6491627177876520e+00 0 0 0
1204 2 1.2304999999999993e+00 4.3336199880507827e+01 2.6491627177876520e+00 0 0 0
1243 2 1.2304999999999993e+00 4.4757058892983494e+01 2.6491627177876520e+00 0 0 0
1239 2 0.0000000000000000e+00 4.6888347411696998e+01 2.6491627177876520e+00 0 0 0
1241 2 1.2305000000000010e+00 4.7598776917934813e+01 2.6491627177876520e+00 0 0 0
1129 2 0.0000000000000000e+00 2.6996321237037659e+01 5.7368453989395949e+00 0 0 0
1131 2 0.0000000000000000e+00 2.5575462224561992e+01 5.7368453989395949e+00 0 0 0
1133 2 1.2305000000000001e+00 2.4865032718324155e+01 5.7368453989395949e+00 0 0 0
1141 2 1.2305000000000010e+00 2.7706750743275496e+01 5.7368453989395949e+00 0 0 0
1135 2 0.0000000000000000e+00 3.1258898274464656e+01 5.7368453989395949e+00 0 0 0
1137 2 0.0000000000000000e+00 2.9838039261988989e+01 5.7368453989395949e+00 0 0 0
1139 2 1.2304999999999993e+00 2.9127609755751163e+01 5.7368453989395949e+00 0 0 0
1151 2 0.0000000000000000e+00 3.4100616299415996e+01 5.7368453989395949e+00 0 0 0
1153 2 1.2304999999999993e+00 3.3390186793178160e+01 5.7368453989395949e+00 0 0 0
1155 2 1.2304999999999993e+00 3.1969327780702493e+01 5.7368453989395949e+00 0 0 0
1149 2 0.0000000000000000e+00 3.5521475311891649e+01 5.7368453989395949e+00 0 0 0
1173 2 0.0000000000000000e+00 3.8363193336842990e+01 5.7368453989395949e+00 0 0 0
1175 2 1.2304999999999993e+00 3.7652763830605153e+01 5.7368453989395949e+00 0 0 0
1177 2 1.2304999999999993e+00 3.6231904818129486e+01 5.7368453989395949e+00 0 0 0
1171 2 0.0000000000000000e+00 3.9784052349318657e+01 5.7368453989395949e+00 0 0 0
1205 2 1.2305000000000010e+00 4.1915340868032160e+01 5.7368453989395949e+00 0 0 0
1207 2 1.2305000000000010e+00 4.0494481855556494e+01 5.7368453989395949e+00 0 0 0
1201 2 0.0000000000000000e+00 4.4046629386745657e+01 5.7368453989395949e+00 0 0 0
1203 2 0.0000000000000000e+00 4.2625770374269997e+01 5.7368453989395949e+00 0 0 0
1244 2 1.2304999999999993e+00 4.4757058892983494e+01 5.7368453989395949e+00 0 0 0
1238 2 0.0000000000000000e+00 4.8309206424172650e+01 5.7368453989395949e+00 0 0 0
1240 2 0.0000000000000000e+00 4.6888347411696998e+01 5.7368453989395949e+00 0 0 0
1242 2 1.2304999999999993e+00 4.6177917905459147e+01 5.7368453989395949e+00 0 0 0
1444 2 0.0000000000000000e+00 2.5575462224561992e+01 8.8245280800837413e+00 0 0 0
1445 2 1.2305000000000001e+00 2.6285891730799833e+01 8.8245280800837413e+00 0 0 0
1449 2 1.2305000000000010e+00 2.7706750743275496e+01 8.8245280800837413e+00 0 0 0
1956 1 5.4572357693296292e-01 2.6031562294062688e+01 1.1988814693037806e+01 1 1 -1
1443 2 0.0000000000000000e+00 2.8417180249513333e+01 8.8245280800837413e+00 0 0 0
1447 2 0.0000000000000000e+00 2.9838039261988989e+01 8.8245280800837413e+00 0 0 0
1448 2 1.2304999999999993e+00 3.0548468768226829e+01 8.8245280800837413e+00 0 0 0
2060 1 1.0222491415394883e+00 4.5470560359953041e+01 2.5510666319472310e+01 0 0 1
1446 2 0.0000000000000000e+00 3.2679757286940330e+01 8.8245280800837413e+00 0 0 0
1454 2 0.0000000000000000e+00 3.4100616299415996e+01 8.8245280800837413e+00 0 0 0
1455 2 1.2305000000000010e+00 3.4811045805653833e+01 8.8245280800837413e+00 0 0 0
1456 2 1.2304999999999993e+00 3.1969327780702493e+01 8.8245280800837413e+00 0 0 0
1453 2 0.0000000000000000e+00 3.6942334324367337e+01 8.8245280800837413e+00 0 0 0
1465 2 0.0000000000000000e+00 3.8363193336842990e+01 8.8245280800837413e+00 0 0 0
1467 2 1.2304999999999993e+00 3.6231904818129486e+01 8.8245280800837413e+00 0 0 0
1464 2 0.0000000000000000e+00 4.1204911361794323e+01 8.8245280800837413e+00 0 0 0
1466 2 1.2305000000000010e+00 3.9073622843080841e+01 8.8245280800837413e+00 0 0 0
1482 2 1.2305000000000010e+00 4.0494481855556494e+01 8.8245280800837413e+00 0 0 0
2101 1 1.1997020725808520e+00 3.2273305724985200e+01 2.5357795266799300e+01 0 0 0
2847 1 4.9392184749427426e-01 4.2873341160466246e+01 1.1565482264616126e+01 1 0 0
1479 2 0.0000000000000000e+00 4.5467488399221331e+01 8.8245280800837413e+00 0 0 0
1480 2 0.0000000000000000e+00 4.2625770374269997e+01 8.8245280800837413e+00 0 0 0
1481 2 1.2304999999999993e+00 4.3336199880507827e+01 8.8245280800837413e+00 0 0 0
1500 2 1.2304999999999993e+00 4.4757058892983494e+01 8.8245280800837413e+00 0 0 0
2836 1 8.8290062844597417e-01 4.8988337364087243e+01 1.4709921413691294e+01 0 0 -1
1498 2 0.0000000000000000e+00 4.6888347411696998e+01 8.8245280800837413e+00 0 0 0
1499 2 1.2305000000000010e+00 4.7598776917934813e+01 8.8245280800837413e+00 0 0 0
3857 1 2.9463581781811043e-01 3.6906848593178395e+01 2.2924818605561473e+01 -1 0 0
983 1 1.0196670904382719e+00 4.8728280687831621e+01 1.1752435263717091e+01 1 1 -1
1853 1 4.2538901151302344e-01 4.1353708729918658e+01 1.4120504478155596e+01 2 0 -1
2109 1 8.1506125451452716e-01 4.3951536459873182e+01 1.5124628318105724e+01 1 0 0
1077 1 8.6241602957022223e-01 4.3962587801549994e+01 1.7764085951927672e+01 1 1 1
3886 1 9.8203057804786142e-01 2.9571340761175581e+01 2.5712630543015688e+01 1 0 0
3015 1 9.0646853310224740e-01 4.6357734814466383e+01 2.1879378483192994e+01 0 0 0
3805 1 9.5515529299425284e-01 4.3777453478556730e+01 2.2727368617678934e+01 0 1 -2
4038 1 1.3367791867951024e+00 4.6455065405548105e+01 1.9242203659022906e+01 -1 0 1
2979 1 4.4644187234034405e-02 3.9233792265778888e+01 1.8957666427385629e+01 1 0 -1
915 1 5.4794207265220851e-01 4.2543702643949437e+01 2.5386572998175694e+01 0 0 0
3837 1 1.3701295247253216e+00 3.0267497170417336e+01 1.1498913568869007e+01 0 1 0
2852 1 3.5373412313979724e-01 3.9325993381730846e+01 2.1776843975970131e+01 1 -1 0
1833 1 6.4116258082786509e-02 3.6725180818568646e+01 1.7715391636778453e+01 0 1 0
2012 1 1.6707313369406880e+00 2.9981140313709513e+01 1.4291388798768923e+01 2 0 0
51 1 1.1250654625662548e-02 2.9092360603774278e+01 2.3011840365401834e+01 1 -1 0
96 2 2.4610000000000003e+00 2.8417180249513345e+00 2.6491627177876520e+00 0 0 0
98 2 2.4610000000000003e+00 0.0000000000000000e+00 2.6491627177876520e+00 0 0 0
111 2 2.4610000000000003e+00 4.2625770374269996e+00 2.6491627177876520e+00 0 0 0
109 2 2.4610000000000003e+00 7.1042950623783341e+00 2.6491627177876520e+00 0 0 0
132 2 2.4610000000000003e+00 8.5251540748539991e+00 2.6491627177876520e+00 0 0 0
130 2 2.4610000000000003e+00 1.1366872099805333e+01 2.6491627177876520e+00 0 0 0
161 2 2.4610000000000003e+00 1.2787731112280996e+01 2.6491627177876520e+00 0 0 0
159 2 2.4610000000000003e+00 1.5629449137232328e+01 2.6491627177876520e+00 0 0 0
198 2 2.4610000000000003e+00 1.7050308149707998e+01 2.6491627177876520e+00 0 0 0
196 2 2.4610000000000003e+00 1.9892026174659328e+01 2.6491627177876520e+00 0 0 0
235 2 2.4610000000000003e+00 2.4154603212086325e+01 2.6491627177876520e+00 0 0 0
237 2 2.4610000000000003e+00 2.1312885187134995e+01 2.6491627177876520e+00 0 0 0
97 2 2.4610000000000003e+00 1.4208590124756650e+00 5.7368453989395949e+00 0 0 0
99 2 2.4610000000000003e+00 0.0000000000000000e+00 5.7368453989395949e+00 0 0 0
110 2 2.4610000000000003e+00 5.6834360499026637e+00 5.7368453989395949e+00 0 0 0
112 2 2.4610000000000003e+00 4.2625770374269996e+00 5.7368453989395949e+00 0 0 0
131 2 2.4610000000000003e+00 9.9460130873296642e+00 5.7368453989395949e+00 0 0 0
133 2 2.4610000000000003e+00 8.5251540748539991e+00 5.7368453989395949e+00 0 0 0
162 2 2.4610000000000003e+00 1.2787731112280996e+01 5.7368453989395949e+00 0 0 0
160 2 2.4610000000000003e+00 1.4208590124756663e+01 5.7368453989395949e+00 0 0 0
199 2 2.4610000000000003e+00 1.7050308149707998e+01 5.7368453989395949e+00 0 0 0
197 2 2.4610000000000003e+00 1.8471167162183658e+01 5.7368453989395949e+00 0 0 0
236 2 2.4610000000000003e+00 2.2733744199610655e+01 5.7368453989395949e+00 0 0 0
238 2 2.4610000000000003e+00 2.1312885187134995e+01 5.7368453989395949e+00 0 0 0
419 2 2.4610000000000003e+00 2.8417180249513345e+00 8.8245280800837413e+00 0 0 0
420 2 2.4610000000000003e+00 0.0000000000000000e+00 8.8245280800837413e+00 0 0 0
1089 1 1.7563168279641173e+00 1.8275935138021829e+01 1.8177859615263980e+01 0 2 0
427 2 2.4610000000000003e+00 4.2625770374269996e+00 8.8245280800837413e+00 0 0 0
426 2 2.4610000000000003e+00 7.1042950623783341e+00 8.8245280800837413e+00 0 0 0
438 2 2.4610000000000003e+00 8.5251540748539991e+00 8.8245280800837413e+00 0 0 0
437 2 2.4610000000000003e+00 1.1366872099805333e+01 8.8245280800837413e+00 0 0 0
453 2 2.4610000000000003e+00 1.2787731112280996e+01 8.8245280800837413e+00 0 0 0
3114 1 1.8138804131400950e+00 1.7964569936600508e+01 1.5443346344994195e+01 1 1 0
452 2 2.4610000000000003e+00 1.5629449137232328e+01 8.8245280800837413e+00 0 0 0
472 2 2.4610000000000003e+00 1.7050308149707998e+01 8.8245280800837413e+00 0 0 0
1808 1 1.9810582522997573e+00 2.0677928714289788e+01 1.9119683164031201e+01 1 1 0
471 2 2.4610000000000003e+00 1.9892026174659328e+01 8.8245280800837413e+00 0 0 0
2850 1 2.0185747623917805e+00 1.2965399150652722e+01 2.1555752943250955e+01 1 0 0
492 2 2.4610000000000003e+00 2.1312885187134995e+01 8.8245280800837413e+00 0 0 0
491 2 2.4610000000000003e+00 2.4154603212086325e+01 8.8245280800837413e+00 0 0 0
76 1 2.0588973785948816e+00 2.0165256387067043e+01 2.1673415906822346e+01 0 -1 0
35 1 2.3399976100407276e+00 2.0251040069319640e+01 2.5940143819661561e+01 0 0 1
1876 1 2.1883536981704674e+00 2.3037788444245798e+01 1.4254629916198473e+01 1 0 0
1105 1 1.8763987861957869e+00 1.7767003439935046e+01 2.5226513110725914e+01 0 0 0
1840 1 1.7962053994921952e+00 1.7942999755433981e+01 1.1183542352857055e+01 1 0 1
1144 2 2.4610000000000003e+00 2.5575462224561992e+01 2.6491627177876520e+00 0 0 0
1142 2 2.4610000000000003e+00 2.8417180249513326e+01 2.6491627177876520e+00 0 0 0
1158 2 2.4610000000000003e+00 2.9838039261988989e+01 2.6491627177876520e+00 0 0 0
1156 2 2.4610000000000003e+00 3.2679757286940337e+01 2.6491627177876520e+00 0 0 0
1180 2 2.4609999999999985e+00 3.4100616299415996e+01 2.6491627177876520e+00 0 0 0
1178 2 2.4610000000000021e+00 3.6942334324367337e+01 2.6491627177876520e+00 0 0 0
1210 2 2.4610000000000003e+00 3.8363193336842990e+01 2.6491627177876520e+00 0 0 0
1208 2 2.4610000000000003e+00 4.1204911361794323e+01 2.6491627177876520e+00 0 0 0
1245 2 2.4610000000000003e+00 4.5467488399221331e+01 2.6491627177876520e+00 0 0 0
1247 2 2.4610000000000003e+00 4.2625770374269997e+01 2.6491627177876520e+00 0 0 0
1284 2 2.4609999999999985e+00 4.6888347411696998e+01 2.6491627177876520e+00 0 0 0
1143 2 2.4610000000000003e+00 2.6996321237037659e+01 5.7368453989395949e+00 0 0 0
1145 2 2.4610000000000003e+00 2.5575462224561992e+01 5.7368453989395949e+00 0 0 0
1157 2 2.4609999999999985e+00 3.1258898274464656e+01 5.7368453989395949e+00 0 0 0
1159 2 2.4610000000000003e+00 2.9838039261988989e+01 5.7368453989395949e+00 0 0 0
1181 2 2.4609999999999985e+00 3.4100616299415996e+01 5.7368453989395949e+00 0 0 0
1179 2 2.4609999999999985e+00 3.5521475311891663e+01 5.7368453989395949e+00 0 0 0
1211 2 2.4610000000000003e+00 3.8363193336842990e+01 5.7368453989395949e+00 0 0 0
1209 2 2.4610000000000003e+00 3.9784052349318657e+01 5.7368453989395949e+00 0 0 0
1246 2 2.4610000000000003e+00 4.4046629386745657e+01 5.7368453989395949e+00 0 0 0
1248 2 2.4610000000000003e+00 4.2625770374269997e+01 5.7368453989395949e+00 0 0 0
1283 2 2.4609999999999985e+00 4.8309206424172650e+01 5.7368453989395949e+00 0 0 0
1285 2 2.4609999999999985e+00 4.6888347411696998e+01 5.7368453989395949e+00 0 0 0
1451 2 2.4610000000000003e+00 2.5575462224561992e+01 8.8245280800837413e+00 0 0 0
3007 1 2.4235919263153693e+00 2.7499293190628755e+01 1.1099524384298988e+01 0 1 0
1450 2 2.4610000000000003e+00 2.8417180249513326e+01 8.8245280800837413e+00 0 0 0
1458 2 2.4610000000000003e+00 2.9838039261988989e+01 8.8245280800837413e+00 0 0 0
1457 2 2.4610000000000003e+00 3.2679757286940337e+01 8.8245280800837413e+00 0 0 0
1469 2 2.4609999999999985e+00 3.4100616299415996e+01 8.8245280800837413e+00 0 0 0
1468 2 2.4610000000000021e+00 3.6942334324367337e+01 8.8245280800837413e+00 0 0 0
1484 2 2.4610000000000003e+00 3.8363193336842990e+01 8.8245280800837413e+00 0 0 0
3890 1 1.9022069165467361e+00 3.4994061278589982e+01 1.8904484837452095e+01 1 0 0
55 1 2.3488696505661277e+00 3.8718809090125845e+01 1.1531269387435854e+01 1 -1 -1
1483 2 2.4610000000000003e+00 4.1204911361794323e+01 8.8245280800837413e+00 0 0 0
1501 2 2.4610000000000003e+00 4.5467488399221331e+01 8.8245280800837413e+00 0 0 0
1502 2 2.4610000000000003e+00 4.2625770374269997e+01 8.8245280800837413e+00 0 0 0
4016 1 2.0901087895886543e+00 3.5610126244196778e+01 2.1579012189048917e+01 0 0 -1
1520 2 2.4609999999999985e+00 4.6888347411696998e+01 8.8245280800837413e+00 0 0 0
8 1 3.3118319814292461e+00 4.4768817660340659e+01 1.4547950598831012e+01 1 0 0
1870 1 2.4448651469827505e+00 2.5410257540912404e+01 1.5588377877784490e+01 0 0 0
959 1 2.8337441948827946e+00 2.5786118919216772e+01 2.5131683335749845e+01 0 -1 -1
3904 1 2.1091543582275873e+00 3.7802190019417225e+01 2.5851336276177687e+01 1 1 0
1978 1 2.1630785503188288e+00 3.7293777272575490e+01 1.4098319770711754e+01 1 0 0
3933 1 2.4720123564501155e+00 3.9646791568703293e+01 1.5291590920563486e+01 0 0 -1
2058 1 2.1445166187831646e+00 2.7887891079017653e+01 2.1952741465761385e+01 0 0 1
2992 1 2.3031724992969633e+00 2.5193760080533306e+01 1.8299294066900664e+01 1 -1 -1
997 1 2.4137408670405458e+00 2.5269527927019297e+01 2.2754929515480569e+01 0 -1 0
3051 1 2.3711924678088208e+00 4.0138125444104141e+01 1.7959493284504951e+01 -1 0 1
57 1 2.8818503206353534e+00 4.2539358039734694e+01 1.8562227294259493e+01 0 0 0
3816 1 3.2503879831444786e+00 4.7332483626280464e+01 2.5271617863725982e+01 -1 -1 -1
932 1 1.8393662108712261e+00 2.7703680288017427e+01 1.9149518228063364e+01 0 0 1
3799 1 1.8188539876975529e+00 3.2706750611459931e+01 1.5359973122420090e+01 1 -1 -1
996 1 3.0710299793505258e+00 4.2704355687047332e+01 2.1318967374426020e+01 1 -1 -1
3824 1 2.4583426171701928e+00 4.0479023143246138e+01 2.2814573593886422e+01 0 0 -1
4060 1 2.8930298451196732e+00 4.0815325624906315e+01 2.5529494675275874e+01 0 -1 -1
3822 1 3.3252502166653333e+00 4.7142553140293813e+01 1.1116629433584389e+01 0 0 0
2893 1 2.9247585092667685e+00 4.4590940393642420e+01 1.2020790794185363e+01 1 -2 0
2960 1 1.9016245145434179e+00 3.5625080366618896e+01 1.1539963864812682e+01 -1 1 0
2833 1 2.1854805467807634e+00 3.2519674558920187e+01 1.8046070414794514e+01 1 -1 0
3859 1 1.9737592579418837e+00 3.2949909482104481e+01 2.2900032998768879e+01 1 0 1
3112 1 3.1610145994727872e+00 4.7309143080631422e+01 1.5485043485647314e+01 1 -1 1
3055 1 3.3513635897132961e+00 4.7276721539586958e+01 2.2633692070605562e+01 -1 0 0
100 2 3.6915000000000004e+00 7.1042950623783474e-01 2.6491627177876520e+00 0 0 0
115 2 3.6914999999999996e+00 2.1312885187134998e+00 2.6491627177876520e+00 0 0 0
117 2 4.9220000000000006e+00 2.8417180249513332e+00 2.6491627177876520e+00 0 0 0
119 2 4.9220000000000006e+00 0.0000000000000000e+00 2.6491627177876520e+00 0 0 0
113 2 3.6914999999999996e+00 4.9730065436648339e+00 2.6491627177876520e+00 0 0 0
136 2 3.6914999999999996e+00 6.3938655561404980e+00 2.6491627177876520e+00 0 0 0
140 2 4.9220000000000006e+00 4.2625770374269978e+00 2.6491627177876520e+00 0 0 0
134 2 3.6915000000000004e+00 9.2355835810918343e+00 2.6491627177876520e+00 0 0 0
138 2 4.9220000000000006e+00 7.1042950623783341e+00 2.6491627177876520e+00 0 0 0
169 2 4.9220000000000006e+00 8.5251540748539991e+00 2.6491627177876520e+00 0 0 0
163 2 3.6915000000000004e+00 1.3498160618518829e+01 2.6491627177876520e+00 0 0 0
165 2 3.6914999999999996e+00 1.0656442593567499e+01 2.6491627177876520e+00 0 0 0
167 2 4.9220000000000006e+00 1.1366872099805333e+01 2.6491627177876520e+00 0 0 0
206 2 4.9220000000000006e+00 1.2787731112280996e+01 2.6491627177876520e+00 0 0 0
202 2 3.6915000000000004e+00 1.4919019630994494e+01 2.6491627177876520e+00 0 0 0
204 2 4.9220000000000006e+00 1.5629449137232333e+01 2.6491627177876520e+00 0 0 0
245 2 4.9220000000000006e+00 1.7050308149707998e+01 2.6491627177876520e+00 0 0 0
200 2 3.6914999999999996e+00 1.7760737655945832e+01 2.6491627177876520e+00 0 0 0
241 2 3.6914999999999996e+00 1.9181596668421495e+01 2.6491627177876520e+00 0 0 0
243 2 4.9220000000000006e+00 1.9892026174659328e+01 2.6491627177876520e+00 0 0 0
239 2 3.6914999999999996e+00 2.2023314693372832e+01 2.6491627177876520e+00 0 0 0
280 2 3.6915000000000004e+00 2.3444173705848499e+01 2.6491627177876520e+00 0 0 0
282 2 4.9220000000000006e+00 2.4154603212086325e+01 2.6491627177876520e+00 0 0 0
284 2 4.9220000000000006e+00 2.1312885187134995e+01 2.6491627177876520e+00 0 0 0
116 2 3.6914999999999996e+00 2.1312885187134998e+00 5.7368453989395949e+00 0 0 0
118 2 4.9220000000000006e+00 1.4208590124756650e+00 5.7368453989395949e+00 0 0 0
120 2 4.9220000000000006e+00 0.0000000000000000e+00 5.7368453989395949e+00 0 0 0
114 2 3.6914999999999996e+00 3.5521475311891644e+00 5.7368453989395949e+00 0 0 0
137 2 3.6914999999999996e+00 6.3938655561404980e+00 5.7368453989395949e+00 0 0 0
139 2 4.9220000000000006e+00 5.6834360499026637e+00 5.7368453989395949e+00 0 0 0
141 2 4.9220000000000006e+00 4.2625770374269978e+00 5.7368453989395949e+00 0 0 0
135 2 3.6914999999999996e+00 7.8147245686161639e+00 5.7368453989395949e+00 0 0 0
168 2 4.9220000000000006e+00 9.9460130873296642e+00 5.7368453989395949e+00 0 0 0
170 2 4.9220000000000006e+00 8.5251540748539991e+00 5.7368453989395949e+00 0 0 0
164 2 3.6914999999999996e+00 1.2077301606043163e+01 5.7368453989395949e+00 0 0 0
166 2 3.6914999999999996e+00 1.0656442593567499e+01 5.7368453989395949e+00 0 0 0
207 2 4.9220000000000006e+00 1.2787731112280996e+01 5.7368453989395949e+00 0 0 0
201 2 3.6915000000000004e+00 1.6339878643470165e+01 5.7368453989395949e+00 0 0 0
203 2 3.6915000000000004e+00 1.4919019630994494e+01 5.7368453989395949e+00 0 0 0
205 2 4.9220000000000006e+00 1.4208590124756663e+01 5.7368453989395949e+00 0 0 0
246 2 4.9220000000000006e+00 1.7050308149707998e+01 5.7368453989395949e+00 0 0 0
240 2 3.6915000000000004e+00 2.0602455680897162e+01 5.7368453989395949e+00 0 0 0
242 2 3.6914999999999996e+00 1.9181596668421495e+01 5.7368453989395949e+00 0 0 0
244 2 4.9220000000000006e+00 1.8471167162183658e+01 5.7368453989395949e+00 0 0 0
281 2 3.6915000000000004e+00 2.3444173705848499e+01 5.7368453989395949e+00 0 0 0
283 2 4.9220000000000006e+00 2.2733744199610655e+01 5.7368453989395949e+00 0 0 0
285 2 4.9220000000000006e+00 2.1312885187134995e+01 5.7368453989395949e+00 0 0 0
421 2 3.6915000000000004e+00 7.1042950623783474e-01 8.8245280800837413e+00 0 0 0
429 2 3.6914999999999996e+00 2.1312885187134998e+00 8.8245280800837413e+00 0 0 0
430 2 4.9220000000000006e+00 2.8417180249513332e+00 8.8245280800837413e+00 0 0 0
431 2 4.9220000000000006e+00 0.0000000000000000e+00 8.8245280800837413e+00 0 0 0
428 2 3.6914999999999996e+00 4.9730065436648339e+00 8.8245280800837413e+00 0 0 0
440 2 3.6914999999999996e+00 6.3938655561404980e+00 8.8245280800837413e+00 0 0 0
442 2 4.9220000000000006e+00 4.2625770374269978e+00 8.8245280800837413e+00 0 0 0
852 1 3.7012586998355177e+00 6.1502021543340604e+00 1.8328862952373424e+01 2 1 -1
439 2 3.6915000000000004e+00 9.2355835810918343e+00 8.8245280800837413e+00 0 0 0
441 2 4.9220000000000006e+00 7.1042950623783341e+00 8.8245280800837413e+00 0 0 0
457 2 4.9220000000000006e+00 8.5251540748539991e+00 8.8245280800837413e+00 0 0 0
454 2 3.6915000000000004e+00 1.3498160618518829e+01 8.8245280800837413e+00 0 0 0
455 2 3.6914999999999996e+00 1.0656442593567499e+01 8.8245280800837413e+00 0 0 0
456 2 4.9220000000000006e+00 1.1366872099805333e+01 8.8245280800837413e+00 0 0 0
476 2 4.9220000000000006e+00 1.2787731112280996e+01 8.8245280800837413e+00 0 0 0
2040 1 3.4618080894935228e+00 3.5397009456869668e+00 1.2044684247959415e+01 0 -1 -1
474 2 3.6915000000000004e+00 1.4919019630994494e+01 8.8245280800837413e+00 0 0 0
475 2 4.9220000000000006e+00 1.5629449137232333e+01 8.8245280800837413e+00 0 0 0
496 2 4.9220000000000006e+00 1.7050308149707998e+01 8.8245280800837413e+00 0 0 0
473 2 3.6914999999999996e+00 1.7760737655945832e+01 8.8245280800837413e+00 0 0 0
494 2 3.6914999999999996e+00 1.9181596668421495e+01 8.8245280800837413e+00 0 0 0
495 2 4.9220000000000006e+00 1.9892026174659328e+01 8.8245280800837413e+00 0 0 0
928 1 3.9205549542074594e+00 8.9635078780691835e+00 1.9191788887934447e+01 0 -1 0
493 2 3.6914999999999996e+00 2.2023314693372832e+01 8.8245280800837413e+00 0 0 0
514 2 3.6915000000000004e+00 2.3444173705848499e+01 8.8245280800837413e+00 0 0 0
515 2 4.9220000000000006e+00 2.4154603212086325e+01 8.8245280800837413e+00 0 0 0
516 2 4.9220000000000006e+00 2.1312885187134995e+01 8.8245280800837413e+00 0 0 0
3060 1 4.2729051538184564e+00 2.2055997693492998e+01 1.1638748021856030e+01 2 0 -1