LAMMPS data file via write_data, version 16 Mar 2018, timestep = 100000

4065 atoms
2 atom types

0.0000000000000000e+00 4.9219999999999999e+01 xlo xhi
0.0000000000000000e+00 4.9019635930410494e+01 ylo yhi
2.0367205396020989e+00 2.5804111706682658e+01 zlo zhi

Masses

1 18.015
2 12.01

Atoms # atomic

83 2 0.0000000000000000e+00 2.8417180249513345e+00 3.4683557232993465e+00 0 0 0
85 2 0.0000000000000000e+00 0.0000000000000000e+00 3.4683557232993465e+00 0 0 0
87 2 1.2305000000000001e+00 7.1042950623783474e-01 3.4683557232993465e+00 0 0 0
94 2 1.2305000000000001e+00 2.1312885187134998e+00 3.4683557232993465e+00 0 0 0
90 2 0.0000000000000000e+00 4.2625770374269996e+00 3.4683557232993465e+00 0 0 0
92 2 1.2305000000000001e+00 4.9730065436648339e+00 3.4683557232993465e+00 0 0 0
107 2 1.2305000000000001e+00 6.3938655561404980e+00 3.4683557232993465e+00 0 0 0
88 2 0.0000000000000000e+00 7.1042950623783341e+00 3.4683557232993465e+00 0 0 0
103 2 0.0000000000000000e+00 8.5251540748539991e+00 3.4683557232993465e+00 0 0 0
105 2 1.2305000000000001e+00 9.2355835810918343e+00 3.4683557232993465e+00 0 0 0
101 2 0.0000000000000000e+00 1.1366872099805333e+01 3.4683557232993465e+00 0 0 0
124 2 0.0000000000000000e+00 1.2787731112280996e+01 3.4683557232993465e+00 0 0 0
126 2 1.2305000000000001e+00 1.3498160618518829e+01 3.4683557232993465e+00 0 0 0
128 2 1.2305000000000001e+00 1.0656442593567498e+01 3.4683557232993465e+00 0 0 0
122 2 0.0000000000000000e+00 1.5629449137232333e+01 3.4683557232993465e+00 0 0 0
153 2 0.0000000000000000e+00 1.7050308149707998e+01 3.4683557232993465e+00 0 0 0
157 2 1.2305000000000001e+00 1.4919019630994494e+01 3.4683557232993465e+00 0 0 0
151 2 0.0000000000000000e+00 1.9892026174659328e+01 3.4683557232993465e+00 0 0 0
155 2 1.2305000000000001e+00 1.7760737655945832e+01 3.4683557232993465e+00 0 0 0
194 2 1.2305000000000001e+00 1.9181596668421495e+01 3.4683557232993465e+00 0 0 0
188 2 0.0000000000000000e+00 2.4154603212086325e+01 3.4683557232993465e+00 0 0 0
190 2 0.0000000000000000e+00 2.1312885187134999e+01 3.4683557232993465e+00 0 0 0
192 2 1.2304999999999993e+00 2.2023314693372832e+01 3.4683557232993465e+00 0 0 0
233 2 1.2304999999999993e+00 2.3444173705848499e+01 3.4683557232993465e+00 0 0 0
84 2 0.0000000000000000e+00 1.4208590124756650e+00 6.3316260906940176e+00 0 0 0
86 2 0.0000000000000000e+00 0.0000000000000000e+00 6.3316260906940176e+00 0 0 0
95 2 1.2305000000000001e+00 2.1312885187134998e+00 6.3316260906940176e+00 0 0 0
89 2 0.0000000000000000e+00 5.6834360499026637e+00 6.3316260906940176e+00 0 0 0
91 2 0.0000000000000000e+00 4.2625770374269996e+00 6.3316260906940176e+00 0 0 0
93 2 1.2305000000000001e+00 3.5521475311891644e+00 6.3316260906940176e+00 0 0 0
108 2 1.2305000000000001e+00 6.3938655561404980e+00 6.3316260906940176e+00 0 0 0
102 2 0.0000000000000000e+00 9.9460130873296642e+00 6.3316260906940176e+00 0 0 0
104 2 0.0000000000000000e+00 8.5251540748539991e+00 6.3316260906940176e+00 0 0 0
106 2 1.2305000000000001e+00 7.8147245686161639e+00 6.3316260906940176e+00 0 0 0
125 2 0.0000000000000000e+00 1.2787731112280996e+01 6.3316260906940176e+00 0 0 0
127 2 1.2305000000000001e+00 1.2077301606043163e+01 6.3316260906940176e+00 0 0 0
129 2 1.2305000000000001e+00 1.0656442593567498e+01 6.3316260906940176e+00 0 0 0
123 2 0.0000000000000000e+00 1.4208590124756663e+01 6.3316260906940176e+00 0 0 0
154 2 0.0000000000000000e+00 1.7050308149707998e+01 6.3316260906940176e+00 0 0 0
156 2 1.2305000000000001e+00 1.6339878643470165e+01 6.3316260906940176e+00 0 0 0
158 2 1.2305000000000001e+00 1.4919019630994494e+01 6.3316260906940176e+00 0 0 0
152 2 0.0000000000000000e+00 1.8471167162183658e+01 6.3316260906940176e+00 0 0 0
193 2 1.2305000000000001e+00 2.0602455680897162e+01 6.3316260906940176e+00 0 0 0
195 2 1.2305000000000001e+00 1.9181596668421495e+01 6.3316260906940176e+00 0 0 0
189 2 0.0000000000000000e+00 2.2733744199610655e+01 6.3316260906940176e+00 0 0 0
191 2 0.0000000000000000e+00 2.1312885187134999e+01 6.3316260906940176e+00 0 0 0
234 2 1.2304999999999993e+00 2.3444173705848499e+01 6.3316260906940176e+00 0 0 0
412 2 0.0000000000000000e+00 2.8417180249513345e+00 9.1948964580883210e+00 0 0 0
413 2 0.0000000000000000e+00 0.0000000000000000e+00 9.1948964580883210e+00 0 0 0
414 2 1.2305000000000001e+00 7.1042950623783474e-01 9.1948964580883210e+00 0 0 0
418 2 1.2305000000000001e+00 2.1312885187134998e+00 9.1948964580883210e+00 0 0 0
416 2 0.0000000000000000e+00 4.2625770374269996e+00 9.1948964580883210e+00 0 0 0
417 2 1.2305000000000001e+00 4.9730065436648339e+00 9.1948964580883210e+00 0 0 0
425 2 1.2305000000000001e+00 6.3938655561404980e+00 9.1948964580883210e+00 0 0 0
3929 1 1.0716397272624254e+00 1.5514736136434850e+01 1.7247024801418249e+01 2 1 0
415 2 0.0000000000000000e+00 7.1042950623783341e+00 9.1948964580883210e+00 0 0 0
423 2 0.0000000000000000e+00 8.5251540748539991e+00 9.1948964580883210e+00 0 0 0
424 2 1.2305000000000001e+00 9.2355835810918343e+00 9.1948964580883210e+00 0 0 0
892 1 6.9181241910271796e-01 1.5203382800548493e+01 1.4591540169192328e+01 1 0 0
422 2 0.0000000000000000e+00 1.1366872099805333e+01 9.1948964580883210e+00 0 0 0
434 2 0.0000000000000000e+00 1.2787731112280996e+01 9.1948964580883210e+00 0 0 0
435 2 1.2305000000000001e+00 1.3498160618518829e+01 9.1948964580883210e+00 0 0 0
436 2 1.2305000000000001e+00 1.0656442593567498e+01 9.1948964580883210e+00 0 0 0
810 1 1.4656059350958515e+00 4.4055140332661997e+00 2.1457617597987380e+01 2 1 0
433 2 0.0000000000000000e+00 1.5629449137232333e+01 9.1948964580883210e+00 0 0 0
449 2 0.0000000000000000e+00 1.7050308149707998e+01 9.1948964580883210e+00 0 0 0
451 2 1.2305000000000001e+00 1.4919019630994494e+01 9.1948964580883210e+00 0 0 0
448 2 0.0000000000000000e+00 1.9892026174659328e+01 9.1948964580883210e+00 0 0 0
450 2 1.2305000000000001e+00 1.7760737655945832e+01 9.1948964580883210e+00 0 0 0
470 2 1.2305000000000001e+00 1.9181596668421495e+01 9.1948964580883210e+00 0 0 0
1882 1 6.7791477687285173e-01 1.6416757524674428e+00 1.2238771949557753e+01 1 2 1
467 2 0.0000000000000000e+00 2.4154603212086325e+01 9.1948964580883210e+00 0 0 0
468 2 0.0000000000000000e+00 2.1312885187134999e+01 9.1948964580883210e+00 0 0 0
469 2 1.2304999999999993e+00 2.2023314693372832e+01 9.1948964580883210e+00 0 0 0
490 2 1.2304999999999993e+00 2.3444173705848499e+01 9.1948964580883210e+00 0 0 0
1888 1 6.2818568856033274e-01 5.7614674567066348e+00 1.1473698888357649e+01 1 0 0
12 1 1.1574912871064473e+00 5.8438381037116374e+00 1.3965338275980894e+01 1 0 0
957 1 6.7641245588698806e-01 1.7165518787330665e+01 1.2550167546969737e+01 1 0 0
2937 1 1.7951355880013928e-01 2.0505967452682437e+01 2.1296900014246113e+01 0 0 0
2117 1 8.1941029808430543e-01 5.4128060034700693e+00 2.4141937832473872e+01 0 0 0
3858 1 1.3326106143129433e+00 2.0309215156953513e+01 1.7437714481245699e+01 1 0 0
1014 1 1.3234842123253091e-01 8.2188670655654068e+00 2.4515840855711950e+01 0 0 -1
3839 1 9.1656939635363277e-01 1.7121198560072774e+01 2.4763006673122554e+01 0 1 0
790 1 9.4957027492521096e-01 8.5030376976105071e+00 1.1704122208789689e+01 1 0 0
3885 1 1.9701924824874448e-01 2.4076411609809146e+01 2.4725733488422527e+01 1 0 -1
1820 1 1.0656151628244050e+00 3.0950346446681563e+00 1.4822493286174897e+01 0 1 -1
3056 1 8.5079582419553546e-01 2.1165734323011815e+01 2.4337506020358248e+01 0 0 -1
3890 1 1.4274795597301866e+00 2.2527391159509865e+01 1.4980020786882932e+01 1 0 0
4063 1 1.4328636007041620e+00 1.2323335395140207e+00 2.4303174240585356e+01 0 1 -1
3117 1 9.9753957859994510e-02 1.0556174894042039e+01 2.0337553776877542e+01 1 0 0
1934 1 1.1913822488218152e-01 1.2889410165785833e+01 2.4481958855922322e+01 0 1 -1
2996 1 4.3590507411066556e-02 1.3950263700620866e+01 1.1891100627053751e+01 1 1 0
1130 2 0.0000000000000000e+00 2.5575462224561992e+01 3.4683557232993465e+00 0 0 0
1132 2 1.2305000000000001e+00 2.6285891730799833e+01 3.4683557232993465e+00 0 0 0
1140 2 1.2305000000000010e+00 2.7706750743275496e+01 3.4683557232993465e+00 0 0 0
1128 2 0.0000000000000000e+00 2.8417180249513333e+01 3.4683557232993465e+00 0 0 0
1136 2 0.0000000000000000e+00 2.9838039261988989e+01 3.4683557232993465e+00 0 0 0
1138 2 1.2304999999999993e+00 3.0548468768226829e+01 3.4683557232993465e+00 0 0 0
1134 2 0.0000000000000000e+00 3.2679757286940330e+01 3.4683557232993465e+00 0 0 0
1150 2 0.0000000000000000e+00 3.4100616299415996e+01 3.4683557232993465e+00 0 0 0
1152 2 1.2305000000000010e+00 3.4811045805653833e+01 3.4683557232993465e+00 0 0 0
1154 2 1.2304999999999993e+00 3.1969327780702493e+01 3.4683557232993465e+00 0 0 0
1148 2 0.0000000000000000e+00 3.6942334324367337e+01 3.4683557232993465e+00 0 0 0
1172 2 0.0000000000000000e+00 3.8363193336842990e+01 3.4683557232993465e+00 0 0 0
1176 2 1.2304999999999993e+00 3.6231904818129486e+01 3.4683557232993465e+00 0 0 0
1170 2 0.0000000000000000e+00 4.1204911361794323e+01 3.4683557232993465e+00 0 0 0
1174 2 1.2305000000000010e+00 3.9073622843080841e+01 3.4683557232993465e+00 0 0 0
1206 2 1.2305000000000010e+00 4.0494481855556494e+01 3.4683557232993465e+00 0 0 0
1200 2 0.0000000000000000e+00 4.5467488399221331e+01 3.4683557232993465e+00 0 0 0
1202 2 0.0000000000000000e+00 4.2625770374269997e+01 3.4683557232993465e+00 0 0 0
1204 2 1.2304999999999993e+00 4.3336199880507827e+01 3.4683557232993465e+00 0 0 0
1243 2 1.2304999999999993e+00 4.4757058892983494e+01 3.4683557232993465e+00 0 0 0
1239 2 0.0000000000000000e+00 4.6888347411696998e+01 3.4683557232993465e+00 0 0 0
1241 2 1.2305000000000010e+00 4.7598776917934813e+01 3.4683557232993465e+00 0 0 0
1129 2 0.0000000000000000e+00 2.6996321237037659e+01 6.3316260906940176e+00 0 0 0
1131 2 0.0000000000000000e+00 2.5575462224561992e+01 6.3316260906940176e+00 0 0 0
1133 2 1.2305000000000001e+00 2.4865032718324155e+01 6.3316260906940176e+00 0 0 0
1141 2 1.2305000000000010e+00 2.7706750743275496e+01 6.3316260906940176e+00 0 0 0
1135 2 0.0000000000000000e+00 3.1258898274464656e+01 6.3316260906940176e+00 0 0 0
1137 2 0.0000000000000000e+00 2.9838039261988989e+01 6.3316260906940176e+00 0 0 0
1139 2 1.2304999999999993e+00 2.9127609755751163e+01 6.3316260906940176e+00 0 0 0
1151 2 0.0000000000000000e+00 3.4100616299415996e+01 6.3316260906940176e+00 0 0 0
1153 2 1.2304999999999993e+00 3.3390186793178160e+01 6.3316260906940176e+00 0 0 0
1155 2 1.2304999999999993e+00 3.1969327780702493e+01 6.3316260906940176e+00 0 0 0
1149 2 0.0000000000000000e+00 3.5521475311891649e+01 6.3316260906940176e+00 0 0 0
1173 2 0.0000000000000000e+00 3.8363193336842990e+01 6.3316260906940176e+00 0 0 0
1175 2 1.2304999999999993e+00 3.7652763830605153e+01 6.3316260906940176e+00 0 0 0
1177 2 1.2304999999999993e+00 3.6231904818129486e+01 6.3316260906940176e+00 0 0 0
1171 2 0.0000000000000000e+00 3.9784052349318657e+01 6.3316260906940176e+00 0 0 0
1205 2 1.2305000000000010e+00 4.1915340868032160e+01 6.3316260906940176e+00 0 0 0
1207 2 1.2305000000000010e+00 4.0494481855556494e+01 6.3316260906940176e+00 0 0 0
1201 2 0.0000000000000000e+00 4.4046629386745657e+01 6.3316260906940176e+00 0 0 0
1203 2 0.0000000000000000e+00 4.2625770374269997e+01 6.3316260906940176e+00 0 0 0
1244 2 1.2304999999999993e+00 4.4757058892983494e+01 6.3316260906940176e+00 0 0 0
1238 2 0.0000000000000000e+00 4.8309206424172650e+01 6.3316260906940176e+00 0 0 0
1240 2 0.0000000000000000e+00 4.6888347411696998e+01 6.3316260906940176e+00 0 0 0
1242 2 1.2304999999999993e+00 4.6177917905459147e+01 6.3316260906940176e+00 0 0 0
1444 2 0.0000000000000000e+00 2.5575462224561992e+01 9.1948964580883210e+00 0 0 0
1445 2 1.2305000000000001e+00 2.6285891730799833e+01 9.1948964580883210e+00 0 0 0
1449 2 1.2305000000000010e+00 2.7706750743275496e+01 9.1948964580883210e+00 0 0 0
828 1 4.8532655882495385e-01 3.8772175217327259e+01 1.6378133760535409e+01 0 0 -1
1443 2 0.0000000000000000e+00 2.8417180249513333e+01 9.1948964580883210e+00 0 0 0
1447 2 0.0000000000000000e+00 2.9838039261988989e+01 9.1948964580883210e+00 0 0 0
1448 2 1.2304999999999993e+00 3.0548468768226829e+01 9.1948964580883210e+00 0 0 0
965 1 1.6937823281484878e+00 3.1396520925647980e+01 2.4426858349383117e+01 0 1 0
1446 2 0.0000000000000000e+00 3.2679757286940330e+01 9.1948964580883210e+00 0 0 0
1454 2 0.0000000000000000e+00 3.4100616299415996e+01 9.1948964580883210e+00 0 0 0
1455 2 1.2305000000000010e+00 3.4811045805653833e+01 9.1948964580883210e+00 0 0 0
1456 2 1.2304999999999993e+00 3.1969327780702493e+01 9.1948964580883210e+00 0 0 0
64 1 1.2435751753895274e-01 3.8369927432582699e+01 1.9493149573742613e+01 0 0 1
1453 2 0.0000000000000000e+00 3.6942334324367337e+01 9.1948964580883210e+00 0 0 0
1465 2 0.0000000000000000e+00 3.8363193336842990e+01 9.1948964580883210e+00 0 0 0
1467 2 1.2304999999999993e+00 3.6231904818129486e+01 9.1948964580883210e+00 0 0 0
1464 2 0.0000000000000000e+00 4.1204911361794323e+01 9.1948964580883210e+00 0 0 0
1466 2 1.2305000000000010e+00 3.9073622843080841e+01 9.1948964580883210e+00 0 0 0
1482 2 1.2305000000000010e+00 4.0494481855556494e+01 9.1948964580883210e+00 0 0 0
1479 2 0.0000000000000000e+00 4.5467488399221331e+01 9.1948964580883210e+00 0 0 0
1480 2 0.0000000000000000e+00 4.2625770374269997e+01 9.1948964580883210e+00 0 0 0
1481 2 1.2304999999999993e+00 4.3336199880507827e+01 9.1948964580883210e+00 0 0 0
1500 2 1.2304999999999993e+00 4.4757058892983494e+01 9.1948964580883210e+00 0 0 0
1984 1 1.1384813869947910e+00 3.0288816001546245e+01 1.1585073967503885e+01 0 1 0
1498 2 0.0000000000000000e+00 4.6888347411696998e+01 9.1948964580883210e+00 0 0 0
1499 2 1.2305000000000010e+00 4.7598776917934813e+01 9.1948964580883210e+00 0 0 0
2942 1 3.4584843116319536e-01 3.7133897161756089e+01 1.2169973964123271e+01 1 0 0
779 1 1.3787898435744110e+00 3.3290794298022711e+01 2.0698634136892153e+01 0 1 0
3846 1 6.5040538979310436e-01 4.6409090320694609e+01 1.9442162570746710e+01 2 0 1
2839 1 1.4218490735582157e+00 3.1200629251321484e+01 1.8784626283674427e+01 1 0 0
3083 1 9.9136813732293050e-01 4.3860621134195910e+01 2.2609617379451421e+01 1 -1 0
806 1 7.6550410286467341e-01 4.7101075412037893e+01 1.4594111962390373e+01 1 -1 0
3011 1 3.2137537513823172e-01 3.6026898274538446e+01 1.7379877861466703e+01 1 1 0
882 1 6.6371805401173345e-01 3.2727993430063286e+01 1.2256414248327795e+01 1 0 0
3123 1 7.2989054804652753e-01 4.7652381570210437e+01 2.4204007274307820e+01 0 0 0
1875 1 1.2262815474333553e+00 3.4199964150196685e+01 2.4538882850926122e+01 1 0 -1
781 1 4.7845943526934648e-01 4.1698970944964898e+01 1.4781957931140935e+01 0 0 0
3889 1 4.9123243785503246e-01 3.1491678613970631e+01 1.6238086818800852e+01 0 0 -1
3801 1 1.5680739183065029e+00 4.0862395761984807e+01 2.3503766143907029e+01 1 -1 0
3045 1 1.1985980433546366e+00 2.5516167096739672e+01 2.1058713630747050e+01 1 0 0
3918 1 2.0954189453670394e-01 2.7447376745342254e+01 1.4658471449896286e+01 1 0 -1
2971 1 2.5843561741634058e-01 2.5040252748035574e+01 1.8459315100056308e+01 0 0 -1
2066 1 1.3006637341418952e+00 2.8181506083550964e+01 2.1796055628858930e+01 0 1 0
3015 1 1.6163647762355213e+00 4.1228321101057027e+01 1.2072847524904365e+01 0 0 0
3863 1 1.3735148765283496e+00 4.0741554123073733e+01 2.0711382488904412e+01 1 0 0
1103 1 4.9021526681992350e-01 4.8825353907223807e+01 1.7782150384342785e+01 1 0 1
96 2 2.4610000000000003e+00 2.8417180249513345e+00 3.4683557232993465e+00 0 0 0
98 2 2.4610000000000003e+00 0.0000000000000000e+00 3.4683557232993465e+00 0 0 0
111 2 2.4610000000000003e+00 4.2625770374269996e+00 3.4683557232993465e+00 0 0 0
109 2 2.4610000000000003e+00 7.1042950623783341e+00 3.4683557232993465e+00 0 0 0
132 2 2.4610000000000003e+00 8.5251540748539991e+00 3.4683557232993465e+00 0 0 0
130 2 2.4610000000000003e+00 1.1366872099805333e+01 3.4683557232993465e+00 0 0 0
161 2 2.4610000000000003e+00 1.2787731112280996e+01 3.4683557232993465e+00 0 0 0
159 2 2.4610000000000003e+00 1.5629449137232328e+01 3.4683557232993465e+00 0 0 0
198 2 2.4610000000000003e+00 1.7050308149707998e+01 3.4683557232993465e+00 0 0 0
196 2 2.4610000000000003e+00 1.9892026174659328e+01 3.4683557232993465e+00 0 0 0
235 2 2.4610000000000003e+00 2.4154603212086325e+01 3.4683557232993465e+00 0 0 0
237 2 2.4610000000000003e+00 2.1312885187134995e+01 3.4683557232993465e+00 0 0 0
97 2 2.4610000000000003e+00 1.4208590124756650e+00 6.3316260906940176e+00 0 0 0
99 2 2.4610000000000003e+00 0.0000000000000000e+00 6.3316260906940176e+00 0 0 0
110 2 2.4610000000000003e+00 5.6834360499026637e+00 6.3316260906940176e+00 0 0 0
112 2 2.4610000000000003e+00 4.2625770374269996e+00 6.3316260906940176e+00 0 0 0
131 2 2.4610000000000003e+00 9.9460130873296642e+00 6.3316260906940176e+00 0 0 0
133 2 2.4610000000000003e+00 8.5251540748539991e+00 6.3316260906940176e+00 0 0 0
162 2 2.4610000000000003e+00 1.2787731112280996e+01 6.3316260906940176e+00 0 0 0
160 2 2.4610000000000003e+00 1.4208590124756663e+01 6.3316260906940176e+00 0 0 0
199 2 2.4610000000000003e+00 1.7050308149707998e+01 6.3316260906940176e+00 0 0 0
197 2 2.4610000000000003e+00 1.8471167162183658e+01 6.3316260906940176e+00 0 0 0
236 2 2.4610000000000003e+00 2.2733744199610655e+01 6.3316260906940176e+00 0 0 0
238 2 2.4610000000000003e+00 2.1312885187134995e+01 6.3316260906940176e+00 0 0 0
419 2 2.4610000000000003e+00 2.8417180249513345e+00 9.1948964580883210e+00 0 0 0
420 2 2.4610000000000003e+00 0.0000000000000000e+00 9.1948964580883210e+00 0 0 0
427 2 2.4610000000000003e+00 4.2625770374269996e+00 9.1948964580883210e+00 0 0 0
426 2 2.4610000000000003e+00 7.1042950623783341e+00 9.1948964580883210e+00 0 0 0
438 2 2.4610000000000003e+00 8.5251540748539991e+00 9.1948964580883210e+00 0 0 0
2035 1 2.6393660093474902e+00 1.2440912276878674e+01 1.1787331126938845e+01 0 1 0
437 2 2.4610000000000003e+00 1.1366872099805333e+01 9.1948964580883210e+00 0 0 0
453 2 2.4610000000000003e+00 1.2787731112280996e+01 9.1948964580883210e+00 0 0 0
452 2 2.4610000000000003e+00 1.5629449137232328e+01 9.1948964580883210e+00 0 0 0
472 2 2.4610000000000003e+00 1.7050308149707998e+01 9.1948964580883210e+00 0 0 0
471 2 2.4610000000000003e+00 1.9892026174659328e+01 9.1948964580883210e+00 0 0 0
2825 1 2.5331559432881323e+00 3.6888257634720452e+00 1.1471708125594507e+01 0 1 0
491 2 2.4610000000000003e+00 2.4154603212086325e+01 9.1948964580883210e+00 0 0 0
492 2 2.4610000000000003e+00 2.1312885187134995e+01 9.1948964580883210e+00 0 0 0
1945 1 1.7642435225029611e+00 1.8565216716446904e+00 2.1780183800202899e+01 0 0 0
2111 1 2.5342613653602393e+00 1.9659744573943346e+01 1.4664140782423855e+01 0 0 0
2042 1 2.0105946883055816e+00 1.2430406673373705e+01 1.7402546687152082e+01 0 2 -1
1061 1 1.9415779039031524e+00 1.5012983676921280e+01 2.1303731685162866e+01 1 1 1
1878 1 2.3878877453370597e+00 8.9340107266995581e+00 1.5069123036166609e+01 0 0 0
2928 1 2.4475281388355943e+00 1.0455101703533225e+01 2.1274353318617926e+01 1 -1 0
3094 1 1.9784170353888466e+00 1.4766619868589595e+01 2.3842869139222366e+01 1 1 0
43 1 2.7903664154490562e+00 1.9785644525183095e+01 1.9885071236196936e+01 1 0 1
4048 1 2.2893536926357769e+00 5.2922979128507661e+00 1.8800551849108352e+01 -1 -1 -1
3832 1 2.3204486646484632e+00 2.2916421265719372e+01 1.7838003303660791e+01 0 -1 0
2872 1 2.6384038318612451e+00 1.8743040501811045e+01 2.3406150666604830e+01 1 0 0
1914 1 2.0782325434540505e+00 2.6655944978316524e+00 1.7900139178852058e+01 0 0 0
785 1 3.2975930804435887e+00 1.7401252816351914e+01 1.1784241822989133e+01 0 -1 -1
873 1 3.2540284147252199e+00 1.7237918559309620e+01 2.0764362505576393e+01 2 1 -1
1067 1 3.1938071777210593e+00 9.7778746554256024e+00 1.2169742301256937e+01 2 0 0
3887 1 1.7416445916359493e+00 2.2396847583867991e+01 1.1749196725331176e+01 1 0 -1
922 1 1.9239699845521478e+00 1.0604343734912177e+01 2.4064699790000525e+01 0 0 -1
1144 2 2.4610000000000003e+00 2.5575462224561992e+01 3.4683557232993465e+00 0 0 0
1142 2 2.4610000000000003e+00 2.8417180249513326e+01 3.4683557232993465e+00 0 0 0
1158 2 2.4610000000000003e+00 2.9838039261988989e+01 3.4683557232993465e+00 0 0 0
1156 2 2.4610000000000003e+00 3.2679757286940337e+01 3.4683557232993465e+00 0 0 0
1180 2 2.4609999999999985e+00 3.4100616299415996e+01 3.4683557232993465e+00 0 0 0
1178 2 2.4610000000000021e+00 3.6942334324367337e+01 3.4683557232993465e+00 0 0 0
1210 2 2.4610000000000003e+00 3.8363193336842990e+01 3.4683557232993465e+00 0 0 0
1208 2 2.4610000000000003e+00 4.1204911361794323e+01 3.4683557232993465e+00 0 0 0
1245 2 2.4610000000000003e+00 4.5467488399221331e+01 3.4683557232993465e+00 0 0 0
1247 2 2.4610000000000003e+00 4.2625770374269997e+01 3.4683557232993465e+00 0 0 0
1284 2 2.4609999999999985e+00 4.6888347411696998e+01 3.4683557232993465e+00 0 0 0
1143 2 2.4610000000000003e+00 2.6996321237037659e+01 6.3316260906940176e+00 0 0 0
1145 2 2.4610000000000003e+00 2.5575462224561992e+01 6.3316260906940176e+00 0 0 0
1157 2 2.4609999999999985e+00 3.1258898274464656e+01 6.3316260906940176e+00 0 0 0
1159 2 2.4610000000000003e+00 2.9838039261988989e+01 6.3316260906940176e+00 0 0 0
1181 2 2.4609999999999985e+00 3.4100616299415996e+01 6.3316260906940176e+00 0 0 0
1179 2 2.4609999999999985e+00 3.5521475311891663e+01 6.3316260906940176e+00 0 0 0
1211 2 2.4610000000000003e+00 3.8363193336842990e+01 6.3316260906940176e+00 0 0 0
1209 2 2.4610000000000003e+00 3.9784052349318657e+01 6.3316260906940176e+00 0 0 0
1246 2 2.4610000000000003e+00 4.4046629386745657e+01 6.3316260906940176e+00 0 0 0
1248 2 2.4610000000000003e+00 4.2625770374269997e+01 6.3316260906940176e+00 0 0 0
1283 2 2.4609999999999985e+00 4.8309206424172650e+01 6.3316260906940176e+00 0 0 0
1285 2 2.4609999999999985e+00 4.6888347411696998e+01 6.3316260906940176e+00 0 0 0
1451 2 2.4610000000000003e+00 2.5575462224561992e+01 9.1948964580883210e+00 0 0 0
9 1 2.5821586398346597e+00 4.2817421198007899e+01 1.8215064929618030e+01 1 0 1
1450 2 2.4610000000000003e+00 2.8417180249513326e+01 9.1948964580883210e+00 0 0 0
1458 2 2.4610000000000003e+00 2.9838039261988989e+01 9.1948964580883210e+00 0 0 0
1457 2 2.4610000000000003e+00 3.2679757286940337e+01 9.1948964580883210e+00 0 0 0
1469 2 2.4609999999999985e+00 3.4100616299415996e+01 9.1948964580883210e+00 0 0 0
1468 2 2.4610000000000021e+00 3.6942334324367337e+01 9.1948964580883210e+00 0 0 0
1484 2 2.4610000000000003e+00 3.8363193336842990e+01 9.1948964580883210e+00 0 0 0
4042 1 2.3428399309367873e+00 2.5075487200806066e+01 1.2023326386290870e+01 0 1 -1
1483 2 2.4610000000000003e+00 4.1204911361794323e+01 9.1948964580883210e+00 0 0 0
1501 2 2.4610000000000003e+00 4.5467488399221331e+01 9.1948964580883210e+00 0 0 0
1502 2 2.4610000000000003e+00 4.2625770374269997e+01 9.1948964580883210e+00 0 0 0
2895 1 2.1804282986946513e+00 3.5810179747114255e+01 1.9343787859680049e+01 1 0 -1
1520 2 2.4609999999999985e+00 4.6888347411696998e+01 9.1948964580883210e+00 0 0 0
3106 1 1.7916593207035219e+00 4.7721034284579872e+01 1.1946472035890281e+01 0 -1 1
1835 1 3.2989793700044685e+00 4.7984657104808271e+01 2.1133598145882210e+01 2 0 -1
1922 1 2.8800841598600959e+00 4.7380741407022242e+01 1.6527662341795327e+01 1 -1 -1
2918 1 1.8052371170599146e+00 2.9679080690818683e+01 1.4378247304608241e+01 1 0 0
2004 1 3.0864667926052025e+00 2.4669037069027876e+01 1.4733358037120704e+01 0 -1 0
1098 1 3.3561401233852228e+00 3.5032924421760811e+01 2.2586079720747378e+01 0 0 1
2037 1 3.0278364448601263e+00 4.2538824931661267e+01 1.5461848053180207e+01 1 0 0
3082 1 2.1661593918367759e+00 3.4020799317718662e+01 1.6322690883895039e+01 1 -1 0
1864 1 2.9307952354848688e+00 3.8510228766542099e+01 1.5286128590233947e+01 0 0 0
919 1 2.9040293125946253e+00 3.8387920014341908e+01 1.2140635206379471e+01 1 0 0
3803 1 2.3169304460469622e+00 3.8488431094112940e+01 2.4934950111984278e+01 0 -1 0
1944 1 2.5269598090760685e+00 2.5069457537500206e+01 2.3701383144670856e+01 0 -1 0
3919 1 1.9692781924699287e+00 2.6102379854904189e+01 1.6571150652441691e+01 0 0 0
2848 1 2.2995961456864311e+00 3.7500183810732509e+01 2.2052520430965487e+01 0 -1 2
4059 1 3.3337596539929537e+00 2.7438733674839401e+01 2.5041465957733081e+01 0 0 0
1108 1 3.3582826065023514e+00 4.5350037227278754e+01 1.8907333767760107e+01 0 -1 1
1804 1 2.9276618262690177e+00 4.2841889651028445e+01 2.4989848134310300e+01 0 -1 0
2906 1 2.0510355095682602e+00 3.4948478110670344e+01 1.3261724219209290e+01 1 -1 0
100 2 3.6915000000000004e+00 7.1042950623783474e-01 3.4683557232993465e+00 0 0 0
115 2 3.6914999999999996e+00 2.1312885187134998e+00 3.4683557232993465e+00 0 0 0
117 2 4.9220000000000006e+00 2.8417180249513332e+00 3.4683557232993465e+00 0 0 0
119 2 4.9220000000000006e+00 0.0000000000000000e+00 3.4683557232993465e+00 0 0 0
113 2 3.6914999999999996e+00 4.9730065436648339e+00 3.4683557232993465e+00 0 0 0
136 2 3.6914999999999996e+00 6.3938655561404980e+00 3.4683557232993465e+00 0 0 0
140 2 4.9220000000000006e+00 4.2625770374269978e+00 3.4683557232993465e+00 0 0 0
134 2 3.6915000000000004e+00 9.2355835810918343e+00 3.4683557232993465e+00 0 0 0
138 2 4.9220000000000006e+00 7.1042950623783341e+00 3.4683557232993465e+00 0 0 0
169 2 4.9220000000000006e+00 8.5251540748539991e+00 3.4683557232993465e+00 0 0 0
163 2 3.6915000000000004e+00 1.3498160618518829e+01 3.4683557232993465e+00 0 0 0
165 2 3.6914999999999996e+00 1.0656442593567499e+01 3.4683557232993465e+00 0 0 0
167 2 4.9220000000000006e+00 1.1366872099805333e+01 3.4683557232993465e+00 0 0 0
206 2 4.9220000000000006e+00 1.2787731112280996e+01 3.4683557232993465e+00 0 0 0
202 2 3.6915000000000004e+00 1.4919019630994494e+01 3.4683557232993465e+00 0 0 0
204 2 4.9220000000000006e+00 1.5629449137232333e+01 3.4683557232993465e+00 0 0 0
245 2 4.9220000000000006e+00 1.7050308149707998e+01 3.4683557232993465e+00 0 0 0
200 2 3.6914999999999996e+00 1.7760737655945832e+01 3.4683557232993465e+00 0 0 0
241 2 3.6914999999999996e+00 1.9181596668421495e+01 3.4683557232993465e+00 0 0 0
243 2 4.9220000000000006e+00 1.9892026174659328e+01 3.4683557232993465e+00 0 0 0
239 2 3.6914999999999996e+00 2.2023314693372832e+01 3.4683557232993465e+00 0 0 0
280 2 3.6915000000000004e+00 2.3444173705848499e+01 3.4683557232993465e+00 0 0 0
282 2 4.9220000000000006e+00 2.4154603212086325e+01 3.4683557232993465e+00 0 0 0
284 2 4.9220000000000006e+00 2.1312885187134995e+01 3.4683557232993465e+00 0 0 0
116 2 3.6914999999999996e+00 2.1312885187134998e+00 6.3316260906940176e+00 0 0 0
118 2 4.9220000000000006e+00 1.4208590124756650e+00 6.3316260906940176e+00 0 0 0
120 2 4.9220000000000006e+00 0.0000000000000000e+00 6.3316260906940176e+00 0 0 0
114 2 3.6914999999999996e+00 3.5521475311891644e+00 6.3316260906940176e+00 0 0 0
137 2 3.6914999999999996e+00 6.3938655561404980e+00 6.3316260906940176e+00 0 0 0
139 2 4.9220000000000006e+00 5.6834360499026637e+00 6.3316260906940176e+00 0 0 0
141 2 4.9220000000000006e+00 4.2625770374269978e+00 6.3316260906940176e+00 0 0 0
135 2 3.6914999999999996e+00 7.8147245686161639e+00 6.3316260906940176e+00 0 0 0
168 2 4.9220000000000006e+00 9.9460130873296642e+00 6.3316260906940176e+00 0 0 0
170 2 4.9220000000000006e+00 8.5251540748539991e+00 6.3316260906940176e+00 0 0 0
164 2 3.6914999999999996e+00 1.2077301606043163e+01 6.3316260906940176e+00 0 0 0
166 2 3.6914999999999996e+00 1.0656442593567499e+01 6.3316260906940176e+00 0 0 0
207 2 4.9220000000000006e+00 1.2787731112280996e+01 6.3316260906940176e+00 0 0 0
201 2 3.6915000000000004e+00 1.6339878643470165e+01 6.3316260906940176e+00 0 0 0
203 2 3.6915000000000004e+00 1.4919019630994494e+01 6.3316260906940176e+00 0 0 0
205 2 4.9220000000000006e+00 1.4208590124756663e+01 6.3316260906940176e+00 0 0 0
246 2 4.9220000000000006e+00 1.7050308149707998e+01 6.3316260906940176e+00 0 0 0
240 2 3.6915000000000004e+00 2.0602455680897162e+01 6.3316260906940176e+00 0 0 0
242 2 3.6914999999999996e+00 1.9181596668421495e+01 6.3316260906940176e+00 0 0 0
244 2 4.9220000000000006e+00 1.8471167162183658e+01 6.3316260906940176e+00 0 0 0
281 2 3.6915000000000004e+00 2.3444173705848499e+01 6.3316260906940176e+00 0 0 0
283 2 4.9220000000000006e+00 2.2733744199610655e+01 6.3316260906940176e+00 0 0 0
285 2 4.9220000000000006e+00 2.1312885187134995e+01 6.3316260906940176e+00 0 0 0
421 2 3.6915000000000004e+00 7.1042950623783474e-01 9.1948964580883210e+00 0 0 0
429 2 3.6914999999999996e+00 2.1312885187134998e+00 9.1948964580883210e+00 0 0 0
430 2 4.9220000000000006e+00 2.8417180249513332e+00 9.1948964580883210e+00 0 0 0
431 2 4.9220000000000006e+00 0.0000000000000000e+00 9.1948964580883210e+00 0 0 0
428 2 3.6914999999999996e+00 4.9730065436648339e+00 9.1948964580883210e+00 0 0 0
440 2 3.6914999999999996e+00 6.3938655561404980e+00 9.1948964580883210e+00 0 0 0
442 2 4.9220000000000006e+00 4.2625770374269978e+00 9.1948964580883210e+00 0 0 0
950 1 4.5848798240709234e+00 2.0804240544593075e+01 2.1962975868403511e+01 1 0 0
439 2 3.6915000000000004e+00 9.2355835810918343e+00 9.1948964580883210e+00 0 0 0
441 2 4.9220000000000006e+00 7.1042950623783341e+00 9.1948964580883210e+00 0 0 0
457 2 4.9220000000000006e+00 8.5251540748539991e+00 9.1948964580883210e+00 0 0 0
454 2 3.6915000000000004e+00 1.3498160618518829e+01 9.1948964580883210e+00 0 0 0
455 2 3.6914999999999996e+00 1.0656442593567499e+01 9.1948964580883210e+00 0 0 0
456 2 4.9220000000000006e+00 1.1366872099805333e+01 9.1948964580883210e+00 0 0 0
476 2 4.9220000000000006e+00 1.2787731112280996e+01 9.1948964580883210e+00 0 0 0
1091 1 3.8370269959098677e+00 5.6198008930275929e+00 2.4311113220800927e+01 0 1 -1
474 2 3.6915000000000004e+00 1.4919019630994494e+01 9.1948964580883210e+00 0 0 0
475 2 4.9220000000000006e+00 1.5629449137232333e+01 9.1948964580883210e+00 0 0 0
496 2 4.9220000000000006e+00 1.7050308149707998e+01 9.1948964580883210e+00 0 0 0
473 2 3.6914999999999996e+00 1.7760737655945832e+01 9.1948964580883210e+00 0 0 0
494 2 3.6914999999999996e+00 1.9181596668421495e+01 9.1948964580883210e+00 0 0 0
495 2 4.9220000000000006e+00 1.9892026174659328e+01 9.1948964580883210e+00 0 0 0
493 2 3.6914999999999996e+00 2.2023314693372832e+01 9.1948964580883210e+00 0 0 0
514 2 3.6915000000000004e+00 2.3444173705848499e+01 9.1948964580883210e+00 0 0 0