
# Create simulation box and atoms

read_data data.ML_graphite_1atm_240K
  orthogonal box = (0 0 2.08296) to (49.22 49.0196 25.7579)
  29 by 2 by 1 MPI processor grid
  reading atoms ...
  4065 atoms
  reading velocities ...
  4065 velocities
group water type 1
1305 atoms in group water
group graphite type 2
2760 atoms in group graphite

# Define potential

pair_style sw
pair_coeff * * MLC_e.sw mW C


# Fix graphite atoms in place

fix 5 graphite setforce 0.0 0.0 0.0
velocity graphite set 0.0 0.0 0.0


# Equilibration of molecular water

# Add velocity/set timestep

velocity	    water create ${TEMP} ${SEED} rot yes dist gaussian
velocity	    water create 240 ${SEED} rot yes dist gaussian
velocity	    water create 240 31571 rot yes dist gaussian
timestep	    5.0

# Define output

compute			1 water msd
compute			3 water temp
thermo	    	50
thermo_style	custom step temp press vol etotal ke pe c_1[4] c_3

# Neighbor lists

neigh_modify    delay 0 every 1 check yes

# Set fixes

fix             1 water momentum 10 linear 1 1 1 rescale
fix             2 water nve
fix             3 water temp/csvr ${TEMP} ${TEMP} 500.0 ${SEED}
fix             3 water temp/csvr 240 ${TEMP} 500.0 ${SEED}
fix             3 water temp/csvr 240 240 500.0 ${SEED}
fix             3 water temp/csvr 240 240 500.0 31571
fix             4 water press/berendsen z ${PRES} ${PRES} 1000.0 modulus 20000
fix             4 water press/berendsen z 1 ${PRES} 1000.0 modulus 20000
fix             4 water press/berendsen z 1 1 1000.0 modulus 20000

# Run 0.5 ns equilibration

dump		    1 all atom 2000 ${DIR}/eq.${NAME}-${TEMP}.dump
dump		    1 all atom 2000 run_10/eq.${NAME}-${TEMP}.dump
dump		    1 all atom 2000 run_10/eq.het_freeze_10-${TEMP}.dump
dump		    1 all atom 2000 run_10/eq.het_freeze_10-240.dump

reset_timestep  0

run	            100000
Neighbor list info ...
  update every 1 steps, delay 0 steps, check yes
  max neighbors/atom: 2000, page size: 100000
  master list distance cutoff = 6.67472
  ghost atom cutoff = 6.67472
  binsize = 3.33736, bins = 15 15 8
  1 neighbor lists, perpetual/occasional/extra = 1 0 0
  (1) pair sw, perpetual
      attributes: full, newton on
      pair build: full/bin/atomonly
      stencil: full/bin/3d
      bin: standard
WARNING: Proc sub-domain size < neighbor skin, could lead to lost atoms (../domain.cpp:937)
Per MPI rank memory allocation (min/avg/max) = 4.143 | 4.286 | 4.517 Mbytes
Step Temp Press Volume TotEng KinEng PotEng c_1[4] c_3 
       0    77.007874   -452.08497    57121.581   -12745.801    932.87431   -13678.675            0          240 
      50    77.956927   -494.99519    57195.002    -12748.65    944.37115   -13693.022   0.49416439    242.95779 
     100    76.078434   -568.25362    57213.005   -12776.667    921.61506   -13698.282   0.85668359    237.10334 
     150    77.685104   -262.72722    57204.514   -12747.248    941.07828   -13688.326    1.0245346    242.11063 
     200    74.863481   -8.5323469    57265.862   -12773.044    906.89711   -13679.941    1.2470888    233.31686 
     250    79.340908   -682.59408    57298.759   -12774.882    961.13672   -13736.019      1.47682    247.27105 
     300    81.759289   -532.98489    57319.475   -12735.901    990.43301   -13726.334    1.7230903    254.80809 
     350    79.736542   -258.46509     57323.78   -12740.315    965.92942   -13706.244     1.919584    248.50407 
     400    77.130144   -446.28487    57281.555   -12756.415     934.3555   -13690.771    2.1634243    240.38106 
     450    78.398535   -619.52711    57288.492   -12750.222     949.7208   -13699.943    2.3650494    244.33409 
     500    80.167597    -652.6792    57303.849   -12703.518    971.15123   -13674.669    2.6468317    249.84748 
     550    78.019268   -696.82727    57339.571   -12711.054    945.12635    -13656.18    2.8905329    243.15208 
     600    79.546696   -257.43056    57404.126   -12736.253    963.62964   -13699.882    3.1614874     247.9124 
     650    77.955793    -324.7094    57434.975   -12751.906    944.35742   -13696.264    3.3587733    242.95425 
     700     75.69686   -897.37748    57442.879   -12790.025    916.99267   -13707.018    3.5427819    235.91414 
     750    76.557297   -436.98313    57430.187   -12796.801    927.41602   -13724.217    3.7304088    238.59575 
     800    76.518027   -456.86643    57443.891   -12829.362     926.9403   -13756.303    3.8998955    238.47336 
     850    74.954182    -791.9114    57455.891   -12813.707    907.99587   -13721.703     4.121864    233.59954 
     900     75.76086   -434.55256    57457.715       -12796    917.76797   -13713.768    4.2926099     236.1136 
     950    77.113046   -589.04768    57423.312   -12823.963    934.14836   -13758.111    4.4541353    240.32777 
    1000    76.144438   -355.13131    57400.198   -12832.297    922.41464   -13754.712    4.5955548    237.30905 
    1050     76.53826   -419.96193    57378.536   -12815.882    927.18541   -13743.067    4.8870928    238.53642 
    1100    80.187315   -306.21835    57338.639   -12790.654     971.3901   -13762.044    5.0165078    249.90893 
    1150      74.2487   -227.87578    57336.363   -12779.418    899.44965   -13678.868    5.1856472    231.40086 
    1200    75.636965   -200.50082    57383.503   -12794.727    916.26711   -13710.994    5.1782415    235.72748 
    1250     77.11921   -493.89892    57407.157   -12799.228    934.22304   -13733.451    5.3432078    240.34699 
    1300    76.443619   -406.30656    57456.484   -12790.977    926.03892   -13717.015    5.6617879    238.24146 
    1350    76.345337   -534.38759    57476.576    -12793.48    924.84833   -13718.329    5.6977344    237.93516 
    1400     78.57556   -435.96135    57455.639   -12793.852    951.86527   -13745.717    5.8491824    244.88579 
    1450    77.531196   -643.01242    57437.219   -12780.969    939.21384   -13720.183    5.9909721    241.63097 
    1500    76.172961   -317.26095    57417.111   -12787.862    922.76016   -13710.622    6.1758879    237.39794 
    1550    77.830025   -562.33706    57438.289   -12764.437    942.83386    -13707.27      6.37102    242.56229 
    1600    75.589301   -290.66401    57491.368   -12781.701     915.6897   -13697.391    6.5776224    235.57893 
    1650    74.662814   -538.12753    57532.459   -12774.685    904.46622   -13679.151    6.9320363    232.69147 
    1700    75.573829   -757.22188    57518.083   -12753.352    915.50227   -13668.855    7.2415081    235.53071 
    1750    76.795898   -332.52563    57547.709   -12750.135    930.30643   -13680.442    7.4945435    239.33936 
    1800    74.926684   -704.73746    57555.093   -12761.676    907.66275   -13669.339    7.7548961    233.51384 
    1850    76.472019   -457.75704    57565.865   -12728.692    926.38296   -13655.075    7.9429095    238.32997 
    1900    77.928941   -598.12038    57550.854   -12727.455    944.03213   -13671.487    8.1883818    242.87057 
    1950    76.948471   -234.76816    57582.841   -12730.097    932.15471   -13662.252     8.533475    239.81487 
    2000    76.435535   -648.14779    57612.332    -12748.06      925.941   -13674.001    8.8535475    238.21627 
    2050    79.212792   -599.56723    57594.064   -12751.577    959.58472   -13711.161    8.9675364    246.87177 
    2100    78.323035    -764.8979    57628.013   -12747.502    948.80619   -13696.308    9.1454448    244.09878 
    2150    74.649315   -595.35655    57631.232   -12754.265    904.30269   -13658.568    9.3105266     232.6494 
    2200    79.642357   -727.30717    57633.394   -12755.917    964.78847   -13720.705    9.5002821    248.21054 
    2250    79.366224   -397.96266    57697.643   -12761.621    961.44339   -13723.065    9.7404812    247.34995 
    2300    75.755803   -269.86022     57729.21   -12797.405    917.70671   -13715.112     10.01908    236.09784 
    2350    78.067655   -386.62562     57755.21   -12808.293    945.71252   -13754.005     10.22532    243.30288 
    2400    74.991185   -520.88867    57804.526    -12817.01    908.44412   -13725.454     10.38096    233.71486 
    2450    75.876234   -658.13476    57801.201   -12808.486    919.16561   -13727.652    10.310715    236.47317 
    2500    72.753172   -744.50231    57804.943    -12837.15    881.33281   -13718.483    10.511381    226.73995 
    2550    75.953188   -570.57065    57826.975   -12818.938    920.09783   -13739.036    10.607499      236.713 
    2600    75.599171   -388.32917    57810.362   -12807.801    915.80926    -13723.61    10.852949    235.60968 
    2650    76.445929   -624.57515     57818.45   -12777.413     926.0669    -13703.48    11.007568    238.24866 
    2700    77.499216   -622.89949    57824.173   -12764.681    938.82644   -13703.507    11.105701     241.5313 
    2750    75.926458   -650.93602    57763.264   -12754.887    919.77403   -13674.661    11.165115     236.6297 
    2800    77.868305   -194.52043    57734.389   -12752.875    943.29758   -13696.173    11.268194    242.68159 
    2850    75.986771   -372.80767    57805.309   -12771.712    920.50466   -13692.216    11.417069    236.81767 
    2900    78.492763   -437.37012    57860.523   -12792.541    950.86228   -13743.403    11.603151    244.62775 
    2950     77.62472    -611.5601    57897.858   -12777.272    940.34679   -13717.619    11.837028    241.92244 
    3000    76.679783   -626.59781    57966.207   -12776.414    928.89981   -13705.314    12.077515    238.97748 
    3050    75.952891   -854.14572    57968.226   -12760.663    920.09424   -13680.757    12.342649    236.71208 
    3100    78.208437   -470.91976    57945.323   -12736.626    947.41795   -13684.044    12.553303    243.74163 
    3150    78.206934   -365.75838    57940.069   -12738.989    947.39974   -13686.389    12.771056    243.73695 
    3200    75.922267   -985.54202    57975.699   -12773.439    919.72326   -13693.162    13.126947    236.61664 
    3250    74.651266   -958.69093    57934.917   -12765.676    904.32634   -13670.003    13.195188    232.65548 
    3300    77.165721   -726.17947    57867.931   -12790.152    934.78647   -13724.939    13.418604    240.49194 
    3350    74.646918   -627.88859    57889.424   -12786.344    904.27366   -13690.618    13.683001    232.64193 
    3400    75.286362   -439.96188    57963.239   -12786.064     912.0199   -13698.084    13.801893     234.6348 
    3450     79.38206   -631.85374    57996.099   -12757.593    961.63523   -13719.229      13.8442     247.3993 
    3500    77.736096   -780.93802        57941   -12754.717    941.69601   -13696.413    13.912679    242.26955 
    3550    77.911335   -512.51549    57914.434   -12739.552    943.81886    -13683.37    14.208838     242.8157 
    3600    76.637445   -762.47676    57878.621     -12728.3    928.38693   -13656.687    14.400774    238.84553 
    3650    76.874185   -629.29453    57912.621   -12755.293     931.2548   -13686.548    14.641857    239.58335 
    3700    76.677204   -504.98368    57952.945   -12749.412    928.86857   -13678.281    14.833843    238.96944 
    3750    76.922953   -724.63704    58004.798   -12738.294    931.84558   -13670.139    14.871589    239.73534 
    3800    80.863737   -400.98392    57966.608   -12702.901    979.58428   -13682.486    14.894857    252.01704 
    3850    78.838633   -919.16776    57958.745   -12724.124    955.05215   -13679.177    14.887751    245.70568 
    3900    76.303113   -728.87039    57900.237   -12748.196    924.33683   -13672.533    15.008779    237.80357 
    3950     75.77142   -822.05032    57869.144   -12766.987     917.8959   -13684.883    15.321469    236.14651 
    4000    75.470715   -746.90275    57836.605   -12763.642    914.25315   -13677.895      15.7619    235.20934 
    4050    77.289576   -877.30776    57788.525   -12749.434    936.28685   -13685.721    16.051729    240.87794 
    4100    77.196744   -342.05634    57754.202   -12756.113    935.16228   -13691.276    16.232464    240.58862 
    4150    77.622575   -743.84114    57778.917   -12756.946    940.32081   -13697.266    16.502871    241.91576 
    4200    76.599235   -633.35145     57762.85   -12750.355    927.92406   -13678.279    16.730013    238.72645 
    4250    77.321577   -664.98016    57703.497   -12765.918    936.67451   -13702.592    16.948401    240.97767 
    4300    79.607055   -683.21398    57711.383   -12775.064    964.36082   -13739.425    17.141956    248.10052 
    4350    74.814288   -480.65111    57727.976   -12789.651    906.30119   -13695.953    17.242439    233.16355 
    4400    73.388059   -350.91927    57777.424   -12793.881    889.02383   -13682.905    17.482808    228.71861 
    4450    76.995861   -583.96889    57833.077   -12814.499    932.72878   -13747.228    17.715922    239.96256 
    4500    78.842769   -725.88079    57833.025   -12817.839    955.10225   -13772.942    17.906068    245.71857 
    4550    72.606412   -692.34061    57795.164   -12834.733    879.55495   -13714.288    18.126538    226.28256 
    4600     79.54119   -543.52902    57753.871   -12804.329    963.56293   -13767.892    18.323743    247.89524 
    4650     73.63726   -288.49971    57744.152   -12864.634    892.04265   -13756.677    18.463587    229.49526 
    4700    74.152672   -603.46257    57718.083   -12852.346    898.28636   -13750.633    18.610941    231.10158 
    4750    75.544696   -273.30487    57736.603   -12841.434    915.14936   -13756.583    18.593509    235.43991 
    4800    75.617236   -548.31011     57769.34   -12847.008     916.0281   -13763.036    18.773473    235.66599 
    4850    76.999624   -314.77138    57745.512   -12821.217    932.77437   -13753.991    18.793608    239.97429 
    4900    78.128862    -1008.628    57716.351   -12791.969    946.45397   -13738.423    19.101068    243.49363 
    4950    77.799685    -407.1313    57680.868   -12814.183    942.46632   -13756.649    19.115671    242.46773 
    5000    77.511571   -595.01579    57670.225   -12801.486     938.9761   -13740.462    18.972119     241.5698 
    5050    76.062624   -711.16248    57705.289   -12810.269    921.42355   -13731.692    19.270326    237.05407 
    5100    74.365686   -453.61162    57724.683   -12806.034    900.86682   -13706.901    19.378427    231.76545 
    5150    76.963398   -785.32737    57726.068   -12807.127    932.33553   -13739.462    19.438736    239.86139 
    5200    74.579676   -666.21069    57712.363   -12842.381    903.45909    -13745.84    19.540015    232.43236 
    5250    75.506149   -965.17073    57729.475   -12827.109     914.6824   -13741.792    19.663885    235.31978 
    5300    75.911259   -555.44331     57741.14   -12838.876    919.58991   -13758.466      19.7237    236.58233 
    5350    78.070691   -709.33045    57759.241   -12810.081     945.7493    -13755.83    20.139274    243.31234 
    5400    77.975597   -342.50458    57800.592   -12780.391    944.59732   -13724.988    20.365453    243.01597 
    5450    76.547223   -674.48087    57806.569   -12808.039    927.29398   -13735.333    20.789063    238.56435 
    5500    76.248964   -704.87976    57735.727   -12813.807    923.68087   -13737.488     20.75977    237.63481 
    5550    79.807455   -920.51003     57740.57   -12825.378    966.78847   -13792.167     20.94957    248.72507 
    5600    77.816243   -488.88381    57752.876   -12795.812    942.66691   -13738.479    21.027952    242.51934 
    5650    75.324527   -256.51296    57788.243   -12799.778    912.48223   -13712.261    21.475438    234.75374 
    5700    77.594558   -599.29479    57822.791   -12800.819    939.98142   -13740.801    21.568213    241.82844 
    5750    75.795418   -663.88915    57788.668   -12786.077    918.18661   -13704.264    21.589682     236.2213 
    5800    77.848769   -781.81928    57776.698   -12763.841    943.06093   -13706.901    21.759449     242.6207 
    5850     79.50778     -358.745    57801.178    -12767.31     963.1582   -13730.468    21.817233    247.79112 
    5900    75.271559   -713.44198     57824.91    -12768.16    911.84057       -13680    22.013404    234.58866 
    5950     78.50689   -570.42293    57775.226   -12766.496    951.03341    -13717.53    22.199791    244.67178 
    6000    73.027627    -388.3596    57749.138   -12780.958    884.65755   -13665.615    22.257385     227.5953 
    6050    77.625962    -350.9146    57739.385   -12787.451    940.36184   -13727.813    22.191239    241.92631 
    6100    79.661148   -582.89124    57764.299   -12794.963     965.0161   -13759.979    22.234658     248.2691 
    6150    76.968751   -421.73626    57764.994   -12786.357    932.40038   -13718.758    22.366544    239.87807 
    6200     76.64556   -596.83282    57763.873    -12763.14    928.48523   -13691.625     22.46006    238.87082 
    6250    78.988225   -507.88566    57828.266   -12777.755    956.86431   -13734.619    22.395635    246.17189 
    6300    75.032207   -730.49219    57852.872   -12778.897    908.94106   -13687.838    22.884152    233.84271 
    6350    74.357552   -292.84929    57810.469   -12802.892    900.76828    -13703.66    23.010884     231.7401 
    6400    78.670179    -426.9403    57788.826   -12772.869    953.01149    -13725.88    23.032386    245.18068 
    6450    75.853939   -531.61755    57818.436   -12782.808    918.89553   -13701.704    23.284287    236.40369 
    6500    74.190663    -705.4435    57843.634   -12768.001    898.74658   -13666.748    23.815517    231.21998 
    6550     75.92039   -781.42898    57858.717   -12755.686    919.70052   -13675.386    24.204724    236.61079 
    6600    76.339473   -546.18131    57811.025   -12767.615     924.7773   -13692.393     24.39286    237.91689 
    6650    77.276994   -519.92406    57761.805   -12748.311    936.13443   -13684.445    24.863269    240.83873 
    6700    77.273232   -673.17438     57814.16   -12746.644    936.08887   -13682.733    25.329627    240.82701 
    6750     76.87037   -324.99348    57789.343   -12743.682    931.20859   -13674.891    25.493574    239.57146 
    6800    77.570007   -854.36484    57805.961   -12726.244      939.684   -13665.928    25.725715    241.75192 
    6850    76.044575   -250.44177     57801.66   -12751.339     921.2049   -13672.544    26.012869    236.99782 
    6900    80.611835   -564.44583    57762.624   -12702.255    976.53274   -13678.788    25.948413    251.23198 
    6950    78.557699   -450.72152    57791.482   -12692.595    951.64892   -13644.244    25.979305    244.83013 
    7000    78.530852   -328.51195     57801.64    -12676.23    951.32369   -13627.553    26.072796    244.74646 
    7050    77.921884   -360.06808    57825.617   -12686.401    943.94665   -13630.348    26.246831    242.84857 
    7100    79.154638   -589.79792    57850.684   -12729.912    958.88024   -13688.793    26.440644    246.69053 
    7150    82.144499   -211.49318     57879.28   -12719.852    995.09946   -13714.951      26.5934    256.00862 
    7200    79.740565   -930.83383    57886.507   -12722.021    965.97817   -13687.999    26.810093    248.51661 
    7250    78.943407   -1025.8232    57851.069   -12761.293    956.32139   -13717.614    26.877968    246.03221 
    7300    77.979312   -684.35707    57777.861   -12755.677    944.64233   -13700.319    26.771455    243.02755 
    7350     77.13664   -826.08706    57721.755   -12745.863    934.43418   -13680.297    27.129647    240.40131 
    7400    76.634363   -665.68883    57700.713   -12731.759     928.3496   -13660.109    27.409077    238.83593 
    7450    77.792749   -486.85586    57684.096   -12716.628     942.3823    -13659.01    27.643867    242.44611 
    7500    80.075827   -193.19161    57755.869   -12691.932    970.03954   -13661.971    28.137577    249.56147 
    7550    77.551832   -505.12938    57763.514   -12702.679    939.46382   -13642.143    28.459233    241.69528 
    7600    77.560566   -547.71883    57759.416   -12729.411    939.56964   -13668.981    28.568156     241.7225 
    7650    81.097754   -655.78303    57778.494   -12686.144    982.41917   -13668.564    28.661269    252.74638 
    7700    76.983581   -406.78944    57800.097   -12724.008    932.58003   -13656.588    29.162305    239.92429 
    7750    77.191917   -412.15815    57841.642    -12749.53    935.10381   -13684.634    29.697038    240.57358 
    7800    76.155256   -525.40264    57882.471   -12750.195    922.54569   -13672.741    30.109665    237.34276 
    7850    77.039193   -544.73669    57895.174   -12746.667    933.25372   -13679.921    30.858985    240.09761 
    7900    76.261127   -595.80847    57897.706   -12759.689    923.82821   -13683.517    31.472954    237.67271 
    7950    74.751676   -407.36952    57912.602    -12755.02     905.5427   -13660.563    31.758487    232.96841 
    8000     77.65548   -514.09608     57872.51   -12766.633    940.71943   -13707.352    31.848412    242.01831 
    8050     76.14945   -798.88035    57891.981    -12763.19    922.47535   -13685.666    31.893074    237.32466 
    8100    79.177726   -483.40571    57917.126   -12748.589    959.15993   -13707.749    32.063369    246.76248 
    8150    77.643528      -769.92    57916.062       -12773    940.57463   -13713.575    31.988334    241.98106 
    8200    77.426747   -607.71415    57867.562   -12792.864    937.94854   -13730.812     32.07629    241.30544 
    8250    77.633972   -573.58829    57862.418   -12779.621    940.45887    -13720.08    32.237856    241.95127 
    8300    76.745049   -806.28261    57861.721   -12762.957    929.69045   -13692.647     32.58855    239.18089 
    8350    78.910357   -708.07062     57845.07   -12729.351    955.92101   -13685.272    32.645271    245.92921 
    8400    77.651487   -674.68202    57847.276   -12743.239    940.67105    -13683.91    32.885406    242.00586 
    8450     75.85701   -681.91598    57830.278   -12769.202    918.93273   -13688.135    33.303702    236.41326 
    8500    76.355396   -514.41974    57816.466   -12763.875    924.97018   -13688.846    33.476931    237.96651 
    8550    75.707616   -599.67634    57825.388   -12771.114    917.12297   -13688.237    33.557623    235.94766 
    8600    73.886327   -1273.4883    57788.684   -12773.852    895.05986   -13668.912    33.314274     230.2715 
    8650    76.373262   -737.93962    57746.417   -12783.644    925.18662    -13708.83    33.331503    238.02219 
    8700    75.569208   -602.95848    57721.599   -12791.208     915.4463   -13706.655    33.571353     235.5163 
    8750     74.05237    24.021471     57742.44   -12797.382     897.0713   -13694.453    33.644935    230.78898 
    8800    75.370149   -49.137726    57793.604   -12793.713     913.0349   -13706.748    33.790703    234.89593 
    8850    75.071712    -406.3052    57732.902   -12800.828    909.41963   -13710.248    33.855151    233.96583 
    8900    76.765133   -454.34227     57760.49   -12799.586    929.93374    -13729.52    33.985252    239.24348 
    8950    75.271271   -717.05071     57793.94   -12773.379    911.83709   -13685.216     34.04163    234.58777 
    9000    78.182436   -280.72113    57806.304   -12788.922    947.10297   -13736.025    34.121169     243.6606 
    9050    78.899835   -542.69136    57821.048   -12770.822    955.79355   -13726.616    34.263902    245.89642 
    9100    77.103309   -761.12924    57871.437   -12799.533    934.03041   -13733.563    34.447046    240.29743 
    9150    75.349742   -524.34944    57856.013   -12790.521    912.78768   -13703.309     34.61365    234.83232 
    9200    77.147236   -434.65214    57812.459   -12759.065    934.56254   -13693.628    34.846537    240.43433 
    9250    79.113386   -740.28383    57850.211   -12802.086    958.38052   -13760.467    34.989169    246.56197 
    9300    75.031972   -652.88822    57854.993   -12786.051    908.93821   -13694.989    35.030673    233.84197 
    9350    76.977995   -643.95978    57850.555   -12766.702    932.51236   -13699.215    35.171082    239.90688 
    9400    80.155613   -352.04557    57884.942   -12755.535    971.00607   -13726.541    35.252844    249.81013 
    9450    78.785419   -672.00907    57938.671   -12757.565    954.40751   -13711.972    35.257352    245.53983 
    9500    78.400545   -545.74261    57959.465   -12758.678    949.74515   -13708.423    35.438012    244.34035 
    9550    77.573351   -365.46642    57923.238     -12775.9    939.72451   -13715.624    35.666647    241.76234 
    9600     77.11872   -521.79929    57958.728   -12814.271     934.2171   -13748.488    35.860878    240.34546 
    9650    78.447317    -178.6707     57945.66   -12805.363    950.31174   -13755.675    36.090514    244.48612 
    9700    77.880605   -733.75592    57979.285   -12770.308    943.44659   -13713.754    36.141225    242.71992 
    9750    76.459024   -803.12505    57952.653   -12790.134    926.22553    -13716.36    36.111476    238.28947 
    9800    79.443139   -551.65152     57928.54   -12739.439    962.37514   -13701.814    36.414719    247.58966 
    9850     77.48849   -362.96875    57919.001    -12761.96     938.6965   -13700.657    36.532613    241.49787 
    9900    78.412172   -660.78992    57919.396   -12772.537      949.886   -13722.423     36.56275    244.37659 
    9950    75.525517   -680.34803    57849.324    -12797.44    914.91702   -13712.357    36.599171    235.38014 
   10000    76.422193    -671.1501    57809.345   -12803.462    925.77937   -13729.241    36.480039    238.17469 
   10050    77.379823   -901.05962    57768.374   -12802.225     937.3801   -13739.605    36.684806     241.1592 
   10100    78.542203   -628.11297    57695.588   -12815.292     951.4612   -13766.753    36.802613    244.78184 
   10150    74.630768   -618.83438    57669.773   -12797.383    904.07802   -13701.461    37.020941     232.5916 
   10200    74.628702   -582.77623    57651.542   -12803.802      904.053   -13707.855    37.308004    232.58516 
   10250    78.562082   -829.26301    57671.232   -12761.581    951.70201   -13713.283    37.839608    244.84379 
   10300    78.433833   -712.77537     57703.68   -12745.825     950.1484   -13695.973     37.70219    244.44409 
   10350    77.699913   -601.83357    57721.471   -12760.617    941.25769   -13701.875    37.650053    242.15679 
   10400    74.553178   -466.20679    57785.713   -12774.433     903.1381   -13677.571    38.095677    232.34978 
   10450    77.952401   -840.89979    57765.477   -12780.906    944.31633   -13725.222    38.563557    242.94368 
   10500    74.994573   -930.54239     57739.76   -12776.423    908.48516   -13684.908    39.082813    233.72542 
   10550    75.707016    -517.0051    57705.259   -12795.258    917.11571   -13712.373    39.370105    235.94579 
   10600    76.596395   -922.46062     57738.81   -12797.223    927.88965   -13725.112     39.53479     238.7176 
   10650    75.073745    -558.7484     57735.15   -12792.427    909.44425   -13701.871    39.753003    233.97216 
   10700    78.381877   -326.15288    57718.989   -12769.266      949.519   -13718.785    39.874019    244.28217 
   10750    77.165624   -553.15738    57795.443   -12749.145     934.7853    -13683.93    40.099462    240.49164 
   10800    77.275379   -574.36746    57776.298   -12765.415    936.11487    -13701.53    40.217141     240.8337 
   10850    76.292061   -433.71354    57758.241    -12770.98    924.20295   -13695.183    40.398568    237.76912 
   10900    77.413653   -680.48833     57737.83   -12776.528    937.78992   -13714.318    40.575857    241.26464 
   10950     74.54111   -754.02572    57799.332   -12763.683     902.9919   -13666.674    40.720067    232.31217 
   11000    79.000407   -672.28905    57800.633   -12758.042    957.01188   -13715.054    41.033243    246.20986 
   11050    76.434973    -559.2977    57779.915    -12778.46    925.93419   -13704.394    41.198648    238.21452 
   11100    76.229586   -892.42599    57820.269   -12751.777    923.44612   -13675.223    41.530717    237.57441 
   11150    75.353424   -576.29371    57775.949   -12766.177    912.83228   -13679.009    41.699152     234.8438 
   11200    73.084155   -403.71169    57774.004   -12799.533    885.34233   -13684.876    42.161557    227.77148 
   11250    75.843292   -730.80931    57715.366    -12810.46    918.76655   -13729.226     42.48838    236.37051 
   11300    76.895904   -557.26698    57717.188   -12783.728    931.51791   -13715.246    42.535118    239.65104 
   11350    77.876362   -907.28855    57742.502   -12804.524    943.39518   -13747.919    42.562481     242.7067 
   11400    76.257408   -574.72975    57737.789   -12782.895    923.78315   -13706.678    42.679453    237.66112 
   11450    78.664305   -756.86146    57736.454   -12755.505    952.94034   -13708.445    42.907801    245.16237 
   11500    80.359182    -475.7002    57749.819   -12743.347     973.4721   -13716.819    43.441386    250.44457 
   11550    76.063052   -287.09389    57722.222    -12746.61    921.42872   -13668.038    43.787581     237.0554 
   11600    75.942252    -558.9854    57742.598   -12757.719    919.96536   -13677.684    44.167709    236.67892 
   11650    77.682802   -246.52955    57774.017   -12768.454     941.0504   -13709.504    44.299301    242.10346 
   11700    74.913962   -893.82035    57773.975   -12786.285    907.50864   -13693.794    44.926175    233.47419 
   11750    75.537204    -973.9712    57698.403   -12757.618     915.0586   -13672.677    45.146499    235.41656 
   11800    77.981374    -650.9309    57619.292   -12751.839    944.66731   -13696.506    45.591594    243.03398 
   11850    78.629534    -450.6695     57636.51   -12725.116    952.51912   -13677.635    45.829584    245.05401 
   11900     76.62905   -654.11108    57648.284   -12730.198    928.28523   -13658.484      46.0014    238.81937 
   11950    78.076767   -321.71618    57598.368    -12745.77     945.8229   -13691.592    46.280829    243.33127 
   12000    77.471925   -326.15593    57582.568   -12744.143    938.49583   -13682.638    46.592749    241.44624 
   12050    76.282094   -963.71741    57559.603   -12748.079     924.0822   -13672.161    46.871327    237.73806 
   12100    75.286502   -525.55142    57558.091   -12753.379    912.02159     -13665.4    47.004748    234.63523 
   12150    76.988359   -334.37387    57560.606   -12741.734    932.63791   -13674.372    47.287203    239.93918 
   12200    75.899157   -689.57948      57603.5   -12731.601     919.4433   -13651.044    47.496802    236.54461 
   12250    77.637613    -352.8568    57623.266   -12723.283    940.50298   -13663.786    47.839448    241.96262 
   12300    76.288604   -757.08376    57645.714   -12738.901    924.16107   -13663.062    48.364139    237.75835 
   12350    79.858605   -1007.2677    57654.421   -12729.517     967.4081   -13696.926    48.809159    248.88449 
   12400    76.124604   -708.73141     57645.34   -12732.862    922.17437   -13655.036    48.911375    237.24723 
   12450    76.019861   -923.00035    57660.262   -12754.567    920.90551   -13675.473    48.566952    236.92079 
   12500    76.169514   -358.03091    57681.352   -12742.132    922.71841    -13664.85    48.911731     237.3872 
   12550    79.785039   -940.56318    57649.828   -12747.999    966.51693   -13714.516    49.484574    248.65521 
   12600    76.103702   -533.56187    57596.968   -12747.608    921.92117   -13669.529    49.514023    237.18209 
   12650    77.486548   -876.54454    57582.781    -12772.69    938.67297   -13711.363     49.65788    241.49182 
   12700    76.160515   -444.40624    57570.361   -12769.855    922.60939   -13692.464    49.539551    237.35915 
   12750    75.587738   -746.67037    57591.707   -12743.614    915.67077   -13659.285    49.778391    235.57406 
   12800    76.095165   -664.33804    57665.043   -12750.642    921.81775    -13672.46    49.593182    237.15548 
   12850    75.145106   -380.76176    57650.219   -12753.867    910.30872   -13664.176    49.885164    234.19456 
   12900    75.500142    -339.4291    57663.585   -12764.516    914.60963   -13679.126    50.339312    235.30106 
   12950    73.454475   -548.69091    57651.834   -12745.675     889.8284   -13635.503    50.464582     228.9256 
   13000    79.090065   -621.79749    57701.466   -12746.026      958.098   -13704.124    50.628651    246.48928 
   13050    78.385221   -430.80091    57679.243   -12744.429    949.55951   -13693.988    50.901063    244.29259 
   13100    75.619389    -796.1498    57673.173   -12708.986    916.05419    -13625.04    51.145558     235.6727 
   13150    78.883001   -587.18494    57710.486   -12705.458    955.58963   -13661.048    51.130297    245.84396 
   13200    74.303922   -265.62978    57753.454     -12722.3    900.11861   -13622.419    51.435662    231.57296 
   13250    77.170911   -441.78113    57762.932   -12715.305    934.84935   -13650.154    51.479166    240.50812 
   13300    74.922541   -632.34324    57775.069   -12745.253    907.61257   -13652.865    51.810148    233.50093 
   13350    77.377455   -556.83753     57691.88   -12742.913    937.35142   -13680.265    51.942031    241.15182 
   13400    74.754128   -368.35987    57720.402   -12741.681    905.57241   -13647.254    52.355474    232.97606 
   13450    75.751441   -57.917204    57768.737   -12748.579    917.65387   -13666.233    52.845211    236.08425 
   13500    74.184887     -368.784    57804.359   -12747.181    898.67661   -13645.857    53.236313    231.20198 
   13550    77.261359   -617.06088    57812.274    -12759.43    935.94504   -13695.375     53.53466       240.79 
   13600     78.60187    -219.4983    57808.976   -12775.411      952.184   -13727.595    53.894862    244.96779 
   13650    76.290019   -634.65099    57818.816   -12772.315    924.17821   -13696.493     54.43385    237.76276 
   13700    75.006909   -342.91173    57803.791   -12806.711    908.63459   -13715.345     54.67249    233.76386 
   13750    74.974281    -174.0432    57766.887    -12775.26    908.23934     -13683.5    54.922398    233.66218 
   13800    76.036914   -373.81588    57819.644   -12752.551    921.11209   -13673.663    55.402687    236.97394 
   13850    74.410075   -541.96162    57884.851   -12775.142    901.40455   -13676.546    55.371795    231.90379 
   13900    76.997413   -656.63125    57915.263   -12781.649    932.74759   -13714.397    55.207094     239.9674 
   13950    77.412868   -590.34192    57945.753   -12769.484    937.78042   -13707.265    55.067033    241.26219 
   14000    77.977588   -516.42492    57896.268   -12763.444    944.62144   -13708.066    55.216954    243.02217 
   14050    76.653215   -613.62854    57918.018   -12760.893    928.57797   -13689.471    55.108617    238.89468 
   14100    76.156634   -458.73981    57889.927   -12764.037    922.56238   -13686.599    55.260537    237.34706 
   14150    78.084023   -946.14606    57892.623   -12725.066     945.9108   -13670.977    55.567609    243.35389 
   14200    77.725735   -600.60266    57861.999   -12749.234    941.57049   -13690.804    55.365323    242.23726 
   14250    77.885172   -868.97017    57820.241   -12772.397    943.50191   -13715.899    55.512287    242.73415 
   14300     72.35614   -482.80518    57807.697   -12803.206    876.52315    -13679.73    55.600074    225.50257 
   14350    76.197186   -382.67179    57840.046    -12777.31    923.05363   -13700.363    55.768073    237.47344 
   14400       75.727   -592.86125    57805.498   -12790.341    917.35779   -13707.699    55.998242    236.00807 
   14450    78.032782   -348.04586    57790.921   -12777.484    945.29007   -13722.774    56.194277    243.19419 
   14500    77.799814   -405.17608    57764.856   -12762.872    942.46788   -13705.339    56.729418    242.46813 
   14550    78.120813   -681.08773    57816.841   -12743.053    946.35648    -13689.41    57.002281    243.46855 
   14600    76.193077   -637.18334    57795.082   -12786.344    923.00386   -13709.348    56.837351    237.46063 
   14650    74.329093   -583.99982    57842.262   -12795.614    900.42352   -13696.038    56.953019    231.65141 
   14700    76.959138   -1123.4032    57832.376   -12808.948    932.28392   -13741.232    56.946809    239.84811 
   14750    76.327917    -523.0152        57798   -12812.773    924.63731   -13737.411      57.0298    237.88087 
   14800     77.09237   -628.99623    57772.553   -12779.472     933.8979    -13713.37    57.239576    240.26334 
   14850    74.986862   -554.65632    57764.639   -12789.187    908.39175   -13697.578    57.400751    233.70139 
   14900    76.159872   -814.28285    57725.015   -12806.451     922.6016   -13729.053    57.545362    237.35715 
   14950    76.099982   -982.08984    57677.263   -12800.103     921.8761   -13721.979    57.771166     237.1705 
   15000    76.937957   -718.87857    57608.887   -12768.445    932.02733   -13700.472    57.416061     239.7821 
   15050    77.633374   -970.32079    57553.346   -12744.372    940.45163   -13684.824    57.019738    241.94941 
   15100    76.494978    -268.7829    57562.843    -12760.68    926.66108   -13687.341    57.251261    238.40153 
   15150     75.19433   -592.15907    57623.907   -12768.244    910.90502   -13679.149    57.083646    234.34797 
   15200    75.121031   -528.72683    57623.615   -12759.433    910.01708    -13669.45    57.381629    234.11953 
   15250    76.163302   -365.96043    57649.651    -12754.71    922.64316   -13677.353     57.51518    237.36784 
   15300     78.83406   -657.42116    57666.295     -12775.1    954.99675   -13730.096    57.728141    245.69143 
   15350     76.26623   -503.07261    57657.638   -12779.803    923.89003   -13703.693    58.235308    237.68862 
   15400    77.498467    -732.7446    57625.596   -12752.098    938.81737   -13690.916    58.522786    241.52897 
   15450    79.375922   -283.90662    57669.553   -12737.133    961.56088   -13698.694    58.848462    247.38017 
   15500    76.948385   -647.10232    57667.312   -12754.389    932.15367   -13686.543    58.771171     239.8146 
   15550    78.705694   -413.93574    57656.916   -12740.107    953.44172   -13693.549    58.561781    245.29136 
   15600    76.595376   -928.23584    57658.822   -12771.268    927.87731   -13699.145    58.999685    238.71442 
   15650    73.185969   -743.22696     57636.35    -12824.87    886.57571   -13711.446    59.286922    228.08879 
   15700    78.638202   -875.29497    57611.518   -12791.504    952.62412   -13744.128    59.203798    245.08102 
   15750    77.484145     -306.895    57630.493   -12811.029    938.64387   -13749.673    59.455996    241.48433 
   15800    76.007504   -680.53995    57602.042   -12814.728    920.75582   -13735.484    59.786711    236.88228 
   15850    77.504081   -283.62274    57609.595   -12817.436    938.88537   -13756.322    59.928181    241.54646 
   15900    75.451959   -762.33933    57598.459   -12809.483    914.02594   -13723.509    59.929696    235.15089 
   15950    74.851002   -272.44942    57552.842   -12826.132    906.74593   -13732.878    59.924316    233.27797 
   16000    74.098337   -241.11528    57551.635   -12802.486    897.62815   -13700.114    59.750776    230.93224 
   16050    77.644609   -569.10377    57558.812    -12791.99    940.58773   -13732.578    59.985506    241.98443 
   16100    77.631555   -498.87357    57625.694   -12768.516     940.4296   -13708.945    60.277155    241.94374 
   16150    79.119709      -471.44    57689.074    -12769.54    958.45711   -13727.997    60.451482    246.58167 
   16200    77.010622   -277.51647    57676.688   -12784.617     932.9076   -13717.524    60.519922    240.00856 
   16250    79.041449      -617.15    57715.334   -12764.017    957.50907   -13721.526    60.686654    246.33777 
   16300    79.735498   -612.93343    57704.654   -12759.783    965.91679     -13725.7    60.929156    248.50082 
   16350    79.471505   -237.83761    57773.823   -12775.446    962.71877   -13738.165    61.074779    247.67806 
   16400    79.041098    -647.0488    57780.066   -12826.079    957.50481   -13783.583    61.208703    246.33667 
   16450     76.33961   -883.46418    57764.053   -12817.001    924.77895    -13741.78    61.158146    237.91731 
   16500    74.673238   -676.14018    57720.542   -12845.116     904.5925   -13749.708    61.353916    232.72396 
   16550    75.241958   -727.59805    57705.356   -12818.103    911.48199   -13729.585    61.298941    234.49641 
   16600      73.5213    -1007.052    57706.686   -12816.823    890.63791   -13707.461    61.574029    229.13387 
   16650    74.872269   -761.45889    57624.492   -12827.411    907.00357   -13734.414    61.641336    233.34425 
   16700    76.019486   -638.61607    57645.707   -12794.427    920.90097   -13715.328    61.561162    236.91962 
   16750    75.842166   -742.31886    57653.629   -12845.471    918.75292   -13764.223    61.838107      236.367 
   16800    74.837984    -645.5412    57644.766   -12803.678    906.58824   -13710.266    61.835721     233.2374 
   16850    74.239145   -98.430441    57624.025   -12789.217     899.3339   -13688.551    62.387292    231.37108 
   16900    75.288414   -705.53184    57594.616   -12759.647    912.04476   -13671.692    62.267661    234.64119 
   16950    78.597524   -664.97938    57649.673   -12708.039    952.13135    -13660.17    62.370774    244.95425 
   17000    77.956711   -452.19922     57657.17   -12734.733    944.36853   -13679.101    62.777193    242.95711 
   17050    78.883975   -597.68098    57688.942   -12734.423    955.60143   -13690.024    62.786111    245.84699 
   17100     77.81441   -970.18704    57678.115   -12733.122     942.6447   -13675.767    63.049772    242.51362 
   17150    79.104197   -933.89721    57630.651   -12716.202    958.26919   -13674.471    63.321739    246.53333 
   17200    79.516094   -595.09453    57640.122   -12717.133    963.25892   -13680.392    63.448369    247.81703 
   17250    78.116883   -691.40722    57601.182   -12748.729    946.30886   -13695.038    63.864279     243.4563 
   17300    78.343281   -624.32984    57598.447   -12774.327    949.05145   -13723.378    64.202594    244.16188 
   17350    76.361714   -1105.3985     57515.75    -12747.36    925.04672   -13672.406    64.465424     237.9862 
   17400     80.16118   -266.07126     57519.45   -12735.854     971.0735   -13706.928    64.407494    249.82748 
   17450    75.333994   -650.99977     57484.74   -12772.631    912.59691   -13685.228    64.404432    234.78324 
   17500    75.101986   -630.97908    57441.097   -12760.218    909.78637   -13670.005    64.446775    234.06018 
   17550     80.02216    -272.2068    57495.307   -12726.043    969.38941   -13695.433    64.641527    249.39422 
   17600    78.735059   -389.29388    57533.302   -12720.216    953.79745   -13674.014    64.635821    245.38288 
   17650    75.499167   -559.22172     57580.25    -12717.63    914.59782   -13632.228    64.657114    235.29802 
   17700     79.98078   -211.54975    57624.064   -12714.502    968.88813    -13683.39     64.45738    249.26525 
   17750    76.425404   -747.59884     57638.01   -12757.324    925.81827   -13683.142    64.971317    238.18469 
   17800    80.343834    -836.2692    57611.857   -12726.647    973.28617   -13699.933    64.536501    250.39673 
   17850    79.847956   -702.28275     57582.18   -12745.872     967.2791   -13713.151    64.718006     248.8513 
   17900     77.01215   -406.65281    57552.887   -12735.559    932.92612   -13668.485    64.988651    240.01333 
   17950    78.259484   -604.36767    57557.627   -12728.885    948.03633   -13676.921    64.788642    243.90072 
   18000    76.878782   -397.75275    57529.557   -12743.404    931.31049   -13674.715    65.186787    239.59768 
   18050    78.005811   -319.70107    57551.281   -12737.614    944.96333   -13682.578     65.29158    243.11013 
   18100    76.545405   -296.86888    57600.151    -12770.77    927.27196   -13698.042    65.465221    238.55869 
   18150    77.147121    -516.2544    57627.731   -12730.466    934.56115   -13665.027    65.387077    240.43397 
   18200    77.168342   -710.18724    57584.219   -12764.813    934.81822   -13699.631    65.413189    240.50011 
   18250    76.630116   -550.03972    57605.347   -12753.934    928.29814   -13682.232    65.520481    238.82269 
   18300    77.293117   -655.95603    57602.778   -12780.553    936.32975   -13716.883    65.773052    240.88898 
   18350    74.518351   -888.54247    57588.227   -12812.427    902.71621   -13715.144    65.809551    232.24124 
   18400    74.458996     -774.508    57614.367   -12806.846    901.99717   -13708.843    66.069934    232.05626 
   18450    75.963618   -954.44092    57547.037   -12781.638    920.22418   -13701.862    66.236859    236.74551 
   18500    77.839955   -337.49874    57504.111   -12765.737    942.95415   -13708.691    66.614556    242.59323 
   18550    77.375258   -635.07518    57541.033   -12768.409    937.32481   -13705.734    66.529758    241.14498 
   18600    76.305159   -654.76356    57531.242   -12782.226    924.36161   -13706.587    66.466082    237.80994 
   18650    73.712589   -744.96322    57535.954    -12772.41    892.95519   -13665.366     66.59928    229.73003 
   18700    75.146017    -561.0203    57562.992   -12747.309    910.31975   -13657.629    66.720958     234.1974 
   18750    75.978383   -806.39836    57563.606   -12770.166    920.40304   -13690.569    66.793337    236.79152 
   18800     75.74297   -585.38246    57537.266   -12779.451    917.55126   -13697.003    66.551008    236.05785 
   18850    74.126812   -859.06761    57465.871   -12814.388    897.97309   -13712.361     66.70161    231.02098 
   18900    72.633715   -404.74642    57400.474   -12809.794     879.8857    -13689.68    66.630514    226.36765 
   18950    77.380116   -787.01923     57426.34   -12787.467    937.38365   -13724.851    66.683308    241.16012 
   19000    75.294205   -539.51827    57422.388   -12794.301     912.1149   -13706.416    66.633194    234.65924 
   19050    78.465491   -486.79074    57433.734   -12754.753    950.53191   -13705.285    66.511155    244.54276 
   19100    76.386247   -601.59296    57393.428   -12730.433    925.34391   -13655.777     66.44703    238.06266 
   19150    76.754089   -871.60579    57385.268   -12744.955    929.79996   -13674.755    66.341593    239.20906 
   19200    76.449222   -750.05204    57407.631   -12757.482    926.10679   -13683.588    66.249791    238.25892 
   19250    79.633564   -796.56024    57423.244   -12732.256    964.68195   -13696.938    66.240101    248.18313 
   19300    77.406962   -147.74814    57483.476   -12740.623    937.70887   -13678.332    66.402164    241.24378 
   19350    76.096844   -170.76864    57509.518   -12760.427    921.83809   -13682.265    66.561077    237.16072 
   19400    79.434223   -580.44414    57541.885   -12746.748    962.26714   -13709.016    66.451112    247.56187 
   19450    78.998427   -617.46073    57539.376     -12754.6    956.98789   -13711.588    66.662262    246.20369 
   19500    76.872827   -513.33261     57607.55   -12766.894    931.23835   -13698.132    66.684785    239.57912 
   19550      77.8291   -426.90215    57633.405   -12755.932    942.82266   -13698.755    67.005724     242.5594 
   19600    78.026952   -937.57501    57656.997    -12752.76    945.21944   -13697.979    67.301859    243.17602 
   19650    77.378979   -679.19775    57664.317    -12758.12    937.36989    -13695.49    67.220932    241.15657 
   19700    75.856758   -1037.9918    57670.226   -12762.425    918.92968   -13681.355     67.70656    236.41247 
   19750    78.830455   -972.54335    57620.877   -12774.529    954.95309   -13729.482    67.755744    245.68019 
   19800    76.439016   -831.96804    57594.617   -12747.201    925.98316   -13673.185    67.739242    238.22712 
   19850    77.578401   -809.44137    57539.017   -12757.688    939.78568   -13697.474    67.815955    241.77808 
   19900    79.969011   -830.35669     57485.16    -12764.94    968.74556   -13733.686    67.807906    249.22857 
   19950    77.792175    -889.8306     57531.02   -12772.909    942.37535   -13715.285    68.161001    242.44432 
   20000    78.524793   -229.35642    57575.719   -12768.527    951.25029   -13719.777    68.363562    244.72758 
   20050    78.259864   -708.98739    57605.409   -12756.656    948.04093   -13704.697    68.677823    243.90191 
   20100    78.627251   -1015.2234    57626.624   -12732.258    952.49147    -13684.75    69.007881    245.04689 
   20150    77.400555   -830.06302    57648.352   -12721.379    937.63125    -13659.01    69.036944    241.22382 
   20200    76.142269   -521.68551    57640.236    -12696.95    922.38836   -13619.338    69.197313    237.30229 
   20250    80.109338    -856.8488    57685.931   -12690.858    970.44548   -13661.304    69.212058    249.66591 
   20300    79.468392    -400.6817    57686.448   -12685.473    962.68105   -13648.154     69.17679    247.66836 
   20350    77.453011   -544.41108    57646.119    -12710.22     938.2667   -13648.487     69.51382     241.3873 
   20400    79.017936   -435.79114    57629.871   -12714.531    957.22423   -13671.755    69.381929    246.26449 
   20450    78.787668   -627.61864    57635.164   -12736.685    954.43476    -13691.12    69.675788    245.54684 
   20500    74.155415   -452.90168    57697.074   -12734.846    898.31959   -13633.166    69.863527    231.11013 
   20550     77.99364   -627.89185    57684.333   -12758.184    944.81589       -13703    70.191455     243.0722 
   20600    76.859864    -312.1196    57741.522   -12772.656    931.08132   -13703.737    70.569278    239.53872 
   20650    75.068566   -774.49333    57754.638   -12806.812    909.38152   -13716.194    70.686849    233.95602 
   20700    73.536758   -679.73285    57748.761   -12823.925    890.82517    -13714.75    70.804859    229.18204 
   20750    75.524932   -686.29466    57686.749   -12837.002    914.90994   -13751.912    70.961858    235.37832 
   20800    71.719433   -860.69413     57675.67   -12832.403    868.81008   -13701.213     71.48896    223.51823 
   20850    73.574524   -626.12189    57620.733   -12810.386    891.28267   -13701.669    71.795498    229.29974 
   20900    73.892408   -969.85207    57572.578   -12807.459    895.13352   -13702.593    72.031879    230.29045 
   20950     75.78855   -394.65756    57538.451   -12780.931    918.10341   -13699.034    72.468993     236.1999 
   21000    77.038616   -901.68041    57544.989   -12780.711    933.24672   -13713.958    72.558532    240.09581 
   21050    76.323137   -228.88225    57557.086   -12793.071     924.5794    -13717.65    72.893682    237.86597 
   21100    76.936526   -387.40047      57548.7   -12769.385       932.01   -13701.395    73.282018    239.77764 
   21150    76.622244   -147.98165    57569.229    -12775.36    928.20279   -13703.563    73.701059    238.79816 
   21200     77.12987   -386.64154    57515.529   -12802.081    934.35217   -13736.433    73.633999    240.38021 
   21250    74.298387   -964.22956    57509.401   -12798.555    900.05156   -13698.606    73.445628    231.55571 
   21300    77.711001   -612.35389    57460.178   -12790.696      941.392   -13732.088    73.904438    242.19134 
   21350    76.907852   -101.93267    57461.179   -12789.537    931.66265     -13721.2    74.458906    239.68828 
   21400    73.741569   -477.84249    57503.406   -12806.375    893.30626   -13699.681    74.630772    229.82035 
   21450    76.000968   -441.41088    57556.347   -12808.583    920.67664   -13729.259    74.878757    236.86191 
   21500    74.067999   -681.88487    57597.577   -12808.371    897.26063   -13705.632    75.174461    230.83769 
   21550    74.920664   -626.14721    57644.194   -12790.532    907.58982   -13698.122    75.184972    233.49507 
   21600    75.275184   -567.68465    57691.305   -12775.818    911.88448   -13687.703    75.168139    234.59996 
   21650    75.743625   -904.16004      57742.3   -12757.134    917.55918   -13674.693    75.016281    236.05989 
   21700    77.945104   -628.69219    57816.833   -12765.266    944.22793   -13709.494    75.120358    242.92094 
   21750     77.64279   -548.35156    57833.316     -12758.7     940.5657   -13699.266    75.284817    241.97876 
   21800    77.986104   -330.85131    57860.902   -12766.855     944.7246   -13711.579    75.405695    243.04872 
   21850    76.737307   -656.64284    57855.465   -12778.017    929.59666   -13707.614    75.968863    239.15676 
   21900     76.66031   -687.35306    57824.499   -12774.691    928.66392   -13703.355    75.707031     238.9168 
   21950    78.610378   -841.98902    57800.172   -12758.881    952.28707   -13711.168    75.878881    244.99431 
   22000     77.63742   -535.65545    57826.752    -12747.84    940.50064    -13688.34    76.614108    241.96202 
   22050    77.961443   -282.67009    57779.801   -12752.242    944.42586   -13696.668    76.613812    242.97186 
   22100    76.993789   -697.61923    57775.271   -12746.777    932.70369    -13679.48    77.033211     239.9561 
   22150    78.064784    -457.1828    57784.288   -12755.287    945.67773   -13700.964     77.42452    243.29393 
   22200    76.277517   -597.81194    57732.724   -12736.417    924.02676   -13660.443    77.677197     237.7238 
   22250     77.08582   -272.22405     57738.31    -12753.08    933.81855   -13686.898    78.066142    240.24292 
   22300    77.527575   -897.87322    57774.405   -12727.473    939.16997   -13666.643     78.39054    241.61968 
   22350    76.310228   -810.14028    57774.238   -12754.391    924.42302   -13678.814    78.375396    237.82574 
   22400    77.075317    -854.4533    57776.748   -12753.109    933.69132   -13686.801    78.265174    240.21019 
   22450      77.5255   -614.38596    57746.257   -12739.754    939.14484   -13678.899    78.368082    241.61321 
   22500     74.76121   -860.38646    57725.196     -12761.6    905.65819   -13667.258    78.588792    232.99813 
   22550    75.404678   -603.55199    57744.897   -12760.914    913.45318   -13674.367    78.678639    235.00354 
   22600    79.529421   -614.46942    57730.885    -12713.48    963.42036     -13676.9    79.038358    247.85856 
   22650     77.35481   -625.69692    57682.363   -12745.573     937.0771   -13682.651    79.097773    241.08125 
   22700    75.627824   -523.06774    57656.018     -12746.3    916.15637   -13662.457    79.387745    235.69899 
   22750    78.761591   -400.61755    57654.215   -12749.013    954.11886   -13703.131    79.636388    245.46557 
   22800    79.399996   -475.42153    57626.812   -12752.289    961.85251   -13714.142     79.97688     247.4552 
   22850    76.918603   -789.43262    57661.302   -12756.266    931.79289   -13688.059    79.881819    239.72178 
   22900    75.721996   -785.96902    57638.703   -12771.927    917.29717   -13689.224    80.065206    235.99248 
   22950    76.649271   -722.73533    57547.466   -12787.208    928.53019   -13715.738    80.414316    238.88239 
   23000    76.009291   -382.22938    57471.617   -12762.354    920.77746   -13683.131     80.73821    236.88785 
   23050    76.089598   -618.57299    57479.741   -12769.618    921.75031   -13691.368    81.122576    237.13813 
   23100    78.567501   -288.90806    57525.318   -12770.516    951.76765   -13722.284     81.40527    244.86068 
   23150    75.320425   -596.18176     57484.07   -12763.787    912.43254    -13676.22    81.769676    234.74096 
   23200    76.246751   -802.50061    57475.279   -12763.773    923.65406   -13687.427    82.277622    237.62791 
   23250    76.212754   -620.93596    57446.542   -12759.764    923.24221   -13683.006    82.406556    237.52196 
   23300     77.75868   -716.97017    57415.224     -12765.6    941.96958    -13707.57    82.920531    242.33993 
   23350    78.216839   -320.50443    57419.423   -12751.696    947.51973   -13699.215    82.966762    243.76782 
   23400    79.137804   -779.74166    57475.099   -12777.807    958.67631   -13736.483    83.410559    246.63806 
   23450    75.795722    110.34562     57548.61   -12794.371    918.19029   -13712.561    83.381938    236.22225 
   23500    77.488404   -450.87245    57587.782   -12787.505    938.69546     -13726.2    83.756825     241.4976 
   23550    76.186254    -430.3459    57654.675   -12805.231     922.9212   -13728.152    84.396948    237.43937 
   23600    73.658431   -659.95823    57674.911   -12808.699    892.29912   -13700.998    84.400254    229.56124 
   23650    75.227672   -659.28513    57652.236   -12813.651    911.30892    -13724.96    84.722909    234.45188 
   23700    75.114529   -972.79055    57696.379   -12786.747    909.93831   -13696.686     84.49772    234.09927 
   23750    76.335045   -283.75389    57711.592   -12772.389    924.72366   -13697.112    84.721623    237.90309 
   23800    78.778578   -709.95953    57742.613     -12786.3    954.32465   -13740.625     85.01239    245.51851 
   23850    74.124086   -797.55609    57726.205   -12787.595    897.94007   -13685.535    85.165556    231.01249 
   23900    76.710128   -577.02455    57628.548   -12773.735    929.26741   -13703.003    85.448878    239.07206 
   23950    75.658721   -594.64472    57689.044   -12743.793    916.53065   -13660.324    85.814242    235.79528 
   24000    76.974173   -500.82058     57676.21   -12757.204    932.46606    -13689.67    85.957768    239.89497 
   24050    73.517035   -568.99897    57707.458   -12790.676    890.58625   -13681.263    86.383017    229.12057 
   24100    74.742735   -386.83348    57729.755    -12764.46     905.4344   -13669.894    86.557481    232.94055 
   24150    76.716613   -391.82422    57729.412   -12775.456    929.34597   -13704.802    86.895906    239.09227 
   24200    77.470671   -678.29128    57715.845   -12767.396    938.48064   -13705.877    86.895352    241.44234 
   24250    74.892992   -956.35453    57637.761   -12783.912     907.2546   -13691.167    87.058916    233.40883 
   24300    76.419029   -348.78315    57643.388   -12805.529    925.74104    -13731.27    87.264121    238.16483 
   24350    78.484805   -452.71089    57627.203   -12786.357    950.76587   -13737.123    87.471384    244.60295 
   24400    74.736917   -1069.6068    57620.744   -12776.962    905.36392   -13682.326    87.160622    232.92242 
   24450    76.986367   -847.00181    57590.901   -12806.112    932.61378   -13738.726    87.491246    239.93297 
   24500    77.423371   -382.50601    57606.214   -12805.339    937.90764   -13743.247    87.527796    241.29492 
   24550    76.056941   -568.39991    57625.404   -12792.064     921.3547   -13713.418    87.490217    237.03636 
   24600    76.522332   -254.92304    57630.468   -12794.324    926.99245   -13721.316    87.643591    238.48678 
   24650    74.022293    -1109.285    57589.755   -12825.644    896.70695   -13722.351    88.203197    230.69524 
   24700    73.743601   -658.90752     57548.55    -12816.07    893.33087     -13709.4    88.294713    229.82668 
   24750     77.26498   -630.27389    57503.344   -12754.028     935.9889   -13690.017    88.404567    240.80129 
   24800    76.289981   -842.78274    57503.119   -12725.796    924.17775   -13649.974    88.725397    237.76264 
   24850    76.543126   -523.07112    57456.462   -12737.914    927.24435   -13665.158    89.124144    238.55158 
   24900    76.660412    -689.9068    57460.536   -12710.172    928.66516   -13638.837    89.668057    238.91711 
   24950    76.908581   -432.20847    57544.684   -12722.042    931.67148   -13653.713     90.01139    239.69055 
   25000    76.073952   -541.90279    57568.684   -12741.718    921.56077   -13663.279    90.189393    237.08937 
   25050    77.677134   -836.77331    57541.378   -12727.093    940.98174   -13668.075    90.235844    242.08579 
   25100    78.991271    -422.1932      57527.9   -12728.174    956.90121   -13685.076    90.704996    246.18138 
   25150    79.407188   -783.03679    57547.453   -12725.654    961.93963   -13687.594    91.292989    247.47762 
   25200    72.793618   -406.84633    57547.763   -12765.256    881.82276   -13647.078    91.650739      226.866 
   25250    75.746258   -618.77913    57619.001   -12779.057    917.59108   -13696.648    91.785959    236.06809 
   25300    79.048842   -396.87649    57646.404   -12726.562    957.59863   -13684.161    92.014155    246.36081 
   25350    78.368784   -573.65577    57661.153   -12736.548     949.3604   -13685.908    91.877015    244.24136 
   25400    77.907857     -151.635    57655.944   -12743.811    943.77671   -13687.588    91.615855    242.80485 
   25450    78.763492   -930.71527     57559.11   -12723.987    954.14189   -13678.129    91.855579     245.4715 
   25500    80.018887   -355.17053    57536.406   -12702.788    969.34976   -13672.137    91.643302    249.38402 
   25550    77.489795   -29.099304    57571.101   -12728.194    938.71231   -13666.906    91.725929    241.50194 
   25600    77.395385   -1096.2574    57568.421   -12749.138    937.56862   -13686.706    91.703168     241.2077 
   25650    78.251642   -736.79458    57569.164   -12741.583    947.94133   -13689.525    91.789288    243.87628 
   25700    77.756363   -742.54727    57532.391   -12721.953    941.94151   -13663.894    92.297681    242.33271 
   25750    77.142337   -628.88128    57573.166   -12711.415     934.5032   -13645.918    92.454937    240.41906 
   25800    78.839207   -615.53203    57551.265   -12717.175     955.0591   -13672.234     92.94636    245.70747 
   25850    79.931931   -557.94728    57598.102   -12678.207    968.29637   -13646.503    93.278563    249.11301 
   25900    79.609725   -535.52787    57597.799   -12652.569    964.39317   -13616.962    93.540733    248.10884 
   25950     79.87861    -613.3054    57595.825   -12670.485    967.65045   -13638.135    93.891991    248.94683 
   26000    79.321637   -442.88356     57584.37   -12655.956    960.90327   -13616.859    94.517657    247.21099 
   26050    79.985095   -551.42167    57552.888     -12662.2    968.94041   -13631.141    95.034189     249.2787 
   26100    79.902316   -696.93709    57533.799   -12663.883    967.93761   -13631.821    94.985802    249.02071 
   26150    79.480015   -265.67121    57488.193   -12643.054    962.82186   -13605.876    95.427091    247.70459 
   26200    76.888125   -371.87035    57468.194   -12688.606    931.42367    -13620.03    95.722735     239.6268 
   26250    74.908989   -683.89592    57463.832   -12701.894     907.4484   -13609.342    96.412739    233.45869 
   26300    78.205262   -1271.9689    57408.885   -12713.795    947.37948   -13661.174    96.607636    243.73174 
   26350    75.564136   -393.61687    57327.693   -12724.774    915.38486   -13640.159    97.078003     235.5005 
   26400    76.768048   -997.49674     57236.43   -12723.371    929.96906    -13653.34    97.812418    239.25257 
   26450    78.677112   -723.08792    57185.621   -12715.456    953.09548   -13668.551    98.206831    245.20229 
   26500    77.177812   -60.390392    57182.025   -12713.602    934.93294   -13648.535    98.984466    240.52962 
   26550    78.941615   -326.85007    57175.611   -12740.235    956.29968   -13696.535    99.344634    246.02663 
   26600    75.026196   -966.46653    57177.025   -12771.184    908.86824   -13680.052     99.65096    233.82397 
   26650    75.832729   -843.94906    57195.647   -12776.021     918.6386   -13694.659    100.11493    236.33759 
   26700    76.177702   -602.47973    57208.013   -12796.231     922.8176   -13719.049    100.34546    237.41272 
   26750    76.051894   -755.45323    57203.143   -12787.731    921.29355   -13709.025     99.87942    237.02063 
   26800    75.650986   -656.81054    57206.081   -12766.335    916.43696   -13682.772    99.198423    235.77117 
   26850    75.388927   -670.35431    57205.003    -12781.21    913.26237   -13694.472    98.760344    234.95445 
   26900    78.007689   -717.91773    57215.013   -12795.937    944.98609   -13740.923    99.119391    243.11599 
   26950    79.698294   -595.48826     57216.97   -12776.876     965.4661   -13742.342    99.078528    248.38487 
   27000    78.125633   -641.11845    57239.275   -12777.023    946.41486   -13723.438     98.96436    243.48357 
   27050    77.523339   -522.72781    57318.531   -12762.941    939.11867   -13702.059    99.238743    241.60648 
   27100    77.023374   -487.31121    57327.973   -12787.288    933.06208    -13720.35    99.002032    240.04831 
   27150    75.444307   -705.05931    57303.187   -12792.548    913.93324   -13706.481    99.459235    235.12704 
   27200    76.702084   -239.78998     57268.37    -12774.73    929.16997     -13703.9    99.483517    239.04699 
   27250    74.708712   -369.31392      57292.2   -12809.737    905.02223   -13714.759    99.419702    232.83451 
   27300    73.203278   -609.10748    57273.914    -12797.47     886.7854   -13684.255    99.898431    228.14273 
   27350    75.690634    -619.0143     57286.44   -12790.794    916.91725   -13707.712    100.67946    235.89474 
   27400    77.173373   -407.73751     57351.68   -12791.254    934.87917   -13726.133    101.07708    240.51579 
   27450    74.537219   -409.50401    57356.789   -12802.465    902.94477    -13705.41    101.03974    232.30004 
   27500    78.034854   -606.77291    57308.342   -12778.799    945.31516   -13724.114    101.20024    243.20065 
   27550    75.316179   -684.00892    57299.282   -12825.018     912.3811   -13737.399    101.60949    234.72772 
   27600    75.013686    -552.0403    57344.243   -12790.809     908.7167   -13699.526    101.71005    233.78499 
   27650    75.952739   -718.99783    57345.183   -12813.082    920.09239   -13733.175    101.61524     236.7116 
   27700    77.322216   -681.88068    57280.997   -12805.662    936.68226   -13742.344    102.13655    240.97967 
   27750    74.455652   -324.86815    57262.941   -12794.356    901.95666   -13696.312    102.36318    232.04583 
   27800    76.555324   -410.02258    57276.486   -12790.508    927.39212     -13717.9    102.29075     238.5896 
   27850    75.586113   -704.84171    57280.593    -12796.72    915.65108   -13712.371    102.49922    235.56899 
   27900    75.545126   -182.83912    57190.624   -12813.127    915.15457   -13728.282    102.55184    235.44125 
   27950    75.931552   -174.18272    57190.975   -12793.083    919.83573   -13712.919    102.97393    236.64557 
   28000    77.380378   -477.02601    57164.192   -12789.508    937.38683   -13726.895    103.01294    241.16093 
   28050    76.863779   -380.97135    57152.577   -12792.867    931.12874   -13723.996    103.44035    239.55092 
   28100    75.738557    -275.2847    57158.821   -12772.606    917.49779   -13690.104    104.53185    236.04409 
   28150    79.030597   -803.89414    57224.072   -12729.485    957.37761   -13686.863    104.95731    246.30395 
   28200    77.597437   -414.23986    57215.971   -12739.941    940.01629   -13679.957    105.28325    241.83741 
   28250    77.224571   -561.46626    57257.031   -12757.814    935.49938   -13693.313    105.94812    240.67535 
   28300    79.313903   -287.34475    57306.178   -12775.248    960.80957   -13736.057    105.92699    247.18689 
   28350     78.81775   -598.08643     57315.46   -12754.981    954.79917    -13709.78    105.83687    245.64059 
   28400      76.0944   -581.56737    57324.741   -12762.075    921.80848   -13683.883     106.0411     237.1531 
   28450     76.67853   -615.79112    57373.623   -12771.725    928.88464    -13700.61    106.72349    238.97358 
   28500    77.067757   -492.55667      57373.8   -12782.488    933.59974   -13716.088    106.96077    240.18663 
   28550    73.371158   -273.22306    57405.722   -12789.144     888.8191   -13677.963    107.03962    228.66594 
   28600    76.954888   -656.72615    57434.552   -12817.188    932.23245   -13749.421    107.38382    239.83487 
   28650    73.215374   -616.60469    57417.505   -12821.661    886.93192   -13708.592    107.15859    228.18043 
   28700    73.063418   -884.13664    57382.668   -12851.438    885.09112    -13736.53    107.61593    227.70685 
   28750    75.511607    -426.7582    57381.622   -12823.996    914.74852   -13738.744      107.837    235.33679 
   28800    74.280357   -431.42851    57397.027    -12826.45    899.83314   -13726.283    107.89901    231.49952 
   28850    74.352332   -908.21014    57394.419    -12821.15    900.70504   -13721.855    108.29563    231.72383 
   28900     77.69734   -591.98539    57391.353   -12787.589    941.22651   -13728.816    107.84489    242.14877 
   28950    76.025186   -717.76862    57373.287   -12778.283    920.97002   -13699.253    108.38699    236.93739 
   29000    77.535205   -711.96016    57377.698   -12757.136     939.2624   -13696.399    108.81427    241.64346 
   29050    76.924332   -496.98672    57321.018   -12780.897    931.86229   -13712.759    108.99115    239.73964 
   29100    78.025662   -953.58777    57323.465   -12775.976     945.2038    -13721.18     108.9588      243.172 
   29150    78.357976    -783.1245    57297.809   -12776.203    949.22947   -13725.432    108.92326    244.20768 
   29200    76.840109   -466.45984     57321.04   -12759.958    930.84201     -13690.8    108.83559    239.47715 
   29250    75.826878    -744.1835    57360.526   -12780.832    918.56771     -13699.4    108.84359    236.31935 
   29300    77.515587   -985.53909    57388.136   -12771.287    939.02475   -13710.312    108.85818    241.58232 
   29350    76.332253   -374.65832    57337.827   -12754.414    924.68983   -13679.104    108.75011    237.89438 
   29400    78.610068   -487.62749    57376.334   -12720.263    952.28331   -13672.546    108.66993    244.99334 
   29450    78.636675   -659.00045    57398.765   -12743.926    952.60563   -13696.531    109.31931    245.07626 
   29500    77.916482   -564.15084    57417.969   -12759.299     943.8812    -13703.18    109.59507    242.83174 
   29550    77.477598   -205.54811     57499.78   -12754.273    938.56455   -13692.838     109.3547    241.46392 
   29600    77.276941   -505.46801    57554.249   -12781.506    936.13379    -13717.64    109.19427    240.83856 
   29650     75.88504   -480.30399    57517.301   -12775.999    919.27229   -13695.272    109.64939    236.50062 
   29700    76.629473   -246.69857     57555.19   -12771.508    928.29036   -13699.799    109.62834    238.82069 
   29750    77.042828   -341.49567     57606.94   -12783.881    933.29775   -13717.178    109.69393    240.10894 
   29800    76.949838   -385.83535    57596.152   -12770.004    932.17126   -13702.175    109.24007    239.81913 
   29850    78.766714   -247.19101    57608.993   -12752.986    954.18092   -13707.167    109.09325    245.48154 
   29900    79.300854   -528.36228    57636.926   -12749.863     960.6515   -13710.515    109.58678    247.14622 
   29950    75.196974    64.067332     57641.27   -12757.994    910.93704   -13668.931    110.06935    234.35621 
   30000     76.59673   -625.93715     57694.23    -12728.85    927.89371   -13656.743    110.36176    238.71864 
   30050     80.60262   -348.05818    57680.872   -12689.519    976.42111    -13665.94    110.76021    251.20326 
   30100       78.074   -231.40507    57707.483   -12688.207    945.78938   -13633.996    111.36738    243.32265 
   30150    80.059751   -160.61954    57730.518   -12687.886    969.84479   -13657.731    111.73621    249.51137 
   30200    81.284459    -660.6537    57734.536   -12724.828    984.68091   -13709.509    112.48568    253.32825 
   30250     78.20953   -518.18622    57699.568    -12720.46    947.43119   -13667.891    112.70309    243.74504 
   30300    79.803061   -524.98379    57688.436   -12693.258    966.73524   -13659.993     113.0021    248.71138 
   30350    79.063242   -584.24143    57691.599   -12741.771    957.77307   -13699.544    113.37765    246.40569 
   30400    77.288597   -524.32044    57681.224    -12752.23    936.27499   -13688.505    113.07754    240.87489 
   30450    77.752911    -619.6167    57699.593   -12739.161     941.8997   -13681.061    112.62013    242.32196 
   30500    77.446753   -320.39573    57674.821    -12731.58     938.1909   -13669.771    112.84786     241.3678 
   30550    75.869671   -601.12339    57706.382   -12762.746     919.0861   -13681.832    113.02261    236.45272 
   30600    76.734307   -883.89577    57718.681   -12746.145    929.56032   -13675.705    113.18005    239.14741 
   30650     77.57392   -1176.8758    57712.189   -12753.283     939.7314   -13693.015     113.3023    241.76412 
   30700    76.667882   -327.35618    57677.195   -12754.788    928.75564   -13683.544    113.66536    238.94039 
   30750    76.452138   -65.023241     57649.12   -12754.002    926.14212   -13680.144    114.23583    238.26801 
   30800     79.14291   -617.78908    57684.706   -12747.163    958.73817   -13705.901    114.61152    246.65398 
   30850    78.197634   -684.81316    57720.366   -12742.601    947.28708   -13689.888    114.58976    243.70796 
   30900    77.146613   -817.43311    57684.814   -12758.199      934.555   -13692.754    114.47085    240.43239 
   30950    76.016089   -719.22052    57662.317   -12743.894    920.85982   -13664.753    114.47824    236.90904 
   31000    79.029897   -660.00006    57635.118   -12762.017    957.36912   -13719.386    114.49589    246.30176 
   31050    77.216891   -539.39901    57639.476   -12767.901    935.40635   -13703.307    114.34692    240.65141 
   31100     77.04453   -689.13567     57684.56   -12786.468    933.31837   -13719.786     114.8639    240.11424 
   31150     79.68111   -359.92081    57696.953   -12768.853    965.25793   -13734.111    115.25516    248.33131 
   31200    77.938519   -656.93189    57649.472   -12770.621    944.14816    -13714.77    115.43561    242.90042 
   31250    79.692458    -708.0008     57623.37   -12740.239    965.39539   -13705.635     115.0324    248.36668 
   31300    76.770301   -597.88737    57626.811   -12733.579    929.99635   -13663.575    115.24219    239.25959 
   31350    79.319213   -471.93508    57658.796   -12714.768     960.8739   -13675.642    115.79106    247.20344 
   31400    76.104458    -1093.742    57589.022   -12758.067    921.93032   -13679.998    115.48036    237.18444 
   31450    78.492843   -831.82021    57512.883   -12759.424    950.86324   -13710.287    115.54024      244.628 
   31500    77.200735   -473.59844    57503.426   -12735.118    935.21063   -13670.329    116.22902    240.60106 
   31550    76.177433   -1089.2977    57463.675   -12757.678    922.81434   -13680.493    116.97592    237.41188 
   31600    75.792883   -535.58026    57462.583   -12738.173     918.1559   -13656.329    117.60053     236.2134 
   31650    76.052919   -775.90807    57485.721   -12742.082    921.30598   -13663.388    117.87221    237.02382 
   31700    73.542277   -912.22464    57424.272   -12780.839    890.89203   -13671.731    118.27817    229.19924 
   31750    76.102117   -604.39256     57435.35   -12787.387    921.90196   -13709.289    118.46068    237.17715 
   31800    75.497717   -753.87417    57435.952   -12784.979    914.58026   -13699.559    118.70252     235.2935 
   31850    77.147087    -738.9889     57415.11   -12784.739    934.56075   -13719.299     119.2435    240.43387 
   31900     76.88285   -248.03238    57421.806   -12772.863    931.35977   -13704.223    119.68707    239.61035 
   31950    77.999343   -216.58361    57490.468    -12738.64    944.88498   -13683.525    119.94298    243.08998 
   32000    75.657504   -670.07083    57506.397   -12754.402    916.51592   -13670.918    120.32121    235.79149 
   32050    77.734142   -719.15931    57515.487   -12798.005    941.67233   -13739.678    120.13599    242.26346 
   32100    72.848854   -645.96591     57573.79   -12797.553     882.4919   -13680.044     119.9871    227.03815 
   32150     77.25416   -490.62755    57606.662    -12775.96    935.85783   -13711.818    120.05386    240.76757 
   32200    76.057799   -864.08825    57633.212   -12764.883    921.36509   -13686.248    120.02976    237.03903 
   32250    79.069354   -571.43176    57636.397   -12756.404    957.84711   -13714.251    120.39842    246.42474 
   32300    78.248952   -760.65455    57626.834   -12755.152    947.90874   -13703.061    120.42876     243.8679 
   32350    76.167146   -457.61408    57630.945   -12763.376    922.68972   -13686.065    120.16668    237.37982 
   32400    76.750767   -952.21592    57664.071   -12750.905    929.75972   -13680.664    120.36713    239.19871 
   32450    76.910493   -829.93363    57629.061   -12764.429    931.69464   -13696.123    120.59224    239.69651 
   32500    74.317446   -1119.0864    57592.273   -12800.987    900.28244   -13701.269    120.79602    231.61511 
   32550    77.443246   -477.12904    57574.239   -12786.289    938.14841   -13724.438     120.8609    241.35686 
   32600    76.337876   -802.35022     57539.33   -12773.216    924.75794   -13697.974    121.45034    237.91191 
   32650    76.322904   -364.17927    57528.647    -12786.96    924.57658   -13711.537    121.44644    237.86525 
   32700    74.444197   -939.22712    57527.004   -12792.289    901.81789   -13694.107    122.09555    232.01013 
   32750    74.233172   -843.71755    57473.415   -12790.684    899.26154   -13689.946    122.47075    231.35246 
   32800    76.531666   -764.98218    57450.342    -12738.21    927.10552   -13665.315    122.88932    238.51587 
   32850    77.407934    -722.6537    57452.864   -12731.805    937.72064   -13669.525    123.17373    241.24681 
   32900    77.445326   -792.31808    57490.692   -12697.882    938.17361   -13636.056    123.54204    241.36335 
   32950    78.238201   -553.96675    57442.653   -12695.453    947.77851   -13643.232    123.43118    243.83439 
   33000    78.622813   -1104.6177    57435.255   -12702.284    952.43771   -13654.722    123.50205    245.03306 
   33050    77.282153   -729.55121    57374.696   -12722.709    936.19694   -13658.906    124.10658    240.85481 
   33100    73.864965   -846.91881    57328.449   -12743.783    894.80107   -13638.584    124.20512    230.20492 
   33150    75.229847   -523.89666    57354.831   -12733.407    911.33527   -13644.742    123.84254    234.45866 
   33200    78.101992   -566.82797    57381.677   -12741.544    946.12847   -13687.672    124.38629    243.40989 
   33250    76.387557   -434.63449    57428.261   -12766.844    925.35978   -13692.203    124.86585    238.06674 
   33300    76.290899   -652.81213    57496.517   -12760.152    924.18887   -13684.341    125.35707     237.7655 
   33350    76.600773   -1091.2348    57531.237   -12770.068    927.94268    -13698.01     125.1082    238.73124 
   33400    75.365153   -932.91315     57487.26   -12759.061    912.97437   -13672.036    124.94989    234.88035 
   33450    78.457387   -871.73313     57444.24   -12741.757    950.43373    -13692.19    124.98236     244.5175 
   33500    79.098043   -822.76889      57420.5    -12715.62    958.19465   -13673.814    124.94116    246.51415 
   33550    78.424222    -815.3458    57460.543   -12704.652    950.03197   -13654.684    124.82075    244.41414 
   33600    78.571829   -541.50004    57514.972   -12694.084    951.82008   -13645.905    125.27061    244.87417 
   33650    78.458429   -676.93111    57525.893   -12685.301    950.44635   -13635.747    125.18105    244.52075 
   33700    80.131014   -687.51921     57511.21   -12665.461    970.70807   -13636.169    125.21629    249.73347 
   33750    78.125844   -464.03272    57512.956   -12699.132    946.41741    -13645.55    125.64814    243.48422 
   33800    78.702823   -517.17379    57554.868   -12707.105    953.40695   -13660.512    126.26658    245.28242 
   33850    78.666826   -403.40364    57545.775   -12690.851    952.97087   -13643.822    126.16644    245.17023 
   33900    79.359543   -858.65166    57512.653   -12686.401    961.36246   -13647.764    125.79293    247.32913 
   33950    75.702148   -499.37025    57533.798   -12722.335    917.05674   -13639.392    125.71238    235.93062 
[...]
   92050    75.450204   -826.32449    57419.132   -12793.155    914.00468    -13707.16    303.70038    235.14542 
   92100    75.507349   -693.93508    57380.042    -12812.04    914.69693   -13726.737    303.03956    235.32352 
   92150     77.10418   -389.17427    57406.003    -12811.52    934.04096   -13745.561    304.20788    240.30014 
   92200     76.25442   -504.90788    57414.014   -12808.223    923.74696    -13731.97     304.4072    237.65181 
   92250    75.727892   -437.86609    57435.997   -12794.522    917.36859    -13711.89     304.6002    236.01085 
   92300    79.018853   -376.33908    57509.436   -12757.759    957.23534   -13714.995     304.8558    246.26735 
   92350    76.136089   -677.20244    57558.155   -12779.817     922.3135   -13702.131    305.56976    237.28303 
   92400    77.435429   -645.41443    57525.382   -12785.294    938.05372   -13723.347    305.74756     241.3325 
   92450    76.111806   -549.06971    57473.648   -12791.225    922.01934   -13713.244    305.85825    237.20735 
   92500    81.267407   -442.41384    57469.474   -12722.098    984.47434   -13706.572    306.79648    253.27511 
   92550    75.028099   -648.63077    57452.791   -12754.214     908.8913   -13663.105    307.76341     233.8299 
   92600    75.584204   -230.55187    57465.752   -12738.581    915.62795   -13654.209    307.57851    235.56304 
   92650    78.373185     -387.841    57501.686   -12730.143    949.41371   -13679.557    308.26547    244.25508 
   92700    76.667719   -339.78513    57553.134   -12736.186    928.75367    -13664.94    309.25183    238.93989 
   92750    77.844681   -663.62169     57553.73   -12741.165     943.0114   -13684.177    309.46872    242.60796 
   92800    76.415824    -265.7652    57584.737   -12723.014    925.70221   -13648.716    309.25324    238.15484 
   92850    77.799313   -709.24642    57600.854   -12713.516    942.46181   -13655.978    309.28765    242.46657 
   92900    74.859052   -487.41654    57582.251   -12767.854    906.84346   -13674.697    309.82307    233.30306 
   92950    74.972319   -859.49236    57536.197   -12801.503    908.21558   -13709.718    310.01173    233.65606 
   93000    76.888108   -876.99629    57526.057   -12767.576    931.42347   -13698.999    309.91936    239.62674 
   93050    75.714751   -590.15819    57533.211   -12787.544    917.20941   -13704.753     310.3192     235.9699 
   93100      75.8584   -402.77947    57501.564   -12757.216    918.94957   -13676.165    310.02402    236.41759 
   93150    77.770686   -551.94261    57544.237   -12753.333    942.11502   -13695.448    309.97024    242.37735 
   93200    77.019955   -509.92575    57567.138   -12780.269    933.02066   -13713.289    309.99359    240.03765 
   93250    76.202128   -539.29718    57544.979   -12791.942     923.1135   -13715.056    309.65894    237.48884 
   93300     76.99755   -555.85693    57521.764    -12788.51    932.74925   -13721.259    310.52594    239.96783 
   93350    75.792887   -751.05139    57502.466   -12776.604    918.15594    -13694.76    310.35581    236.21341 
   93400    76.647885   -793.69431    57503.786   -12754.812    928.51341   -13683.326    310.86875    238.87807 
   93450    77.491921    -498.8222    57530.483   -12780.602    938.73806    -13719.34     310.7072    241.50856 
   93500     76.09544   -944.21354    57477.847   -12809.714    921.82108   -13731.535    310.97632    237.15634 
   93550    76.856034   -412.36498    57449.848   -12814.539    931.03492   -13745.574    311.88377    239.52678 
   93600    76.478638   -213.30763    57491.504   -12818.755    926.46314   -13745.218    312.13578     238.3506 
   93650    74.090223   -211.32655    57555.011   -12838.383    897.52985   -13735.913    312.49441    230.90695 
   93700    76.450829   -568.84722    57605.608   -12819.187    926.12626   -13745.313    312.34544    238.26393 
   93750    75.323783   -548.60315    57581.412   -12804.211    912.47321   -13716.684     313.1145    234.75142 
   93800    75.400877   -348.74009    57543.607   -12808.461    913.40713   -13721.868    313.16476    234.99169 
   93850    75.464235   -527.40982    57533.178   -12774.765    914.17465   -13688.939    313.67867    235.18915 
   93900    79.489854   -637.70997    57530.749   -12757.612    962.94105   -13720.553    313.87323    247.73525 
   93950    77.651959    -508.1832     57545.29   -12761.334    940.67676   -13702.011    313.65386    242.00733 
   94000    78.813444   -446.44685    57547.679   -12732.472      954.747   -13687.219    314.15713    245.62717 
   94050    77.468614   -41.939346    57561.239   -12765.063    938.45573   -13703.519    314.67076    241.43593 
   94100    76.620852   -382.36158    57587.705   -12786.209    928.18592   -13714.395    314.21564    238.79382 
   94150    76.399707   -444.37469    57629.813   -12813.918    925.50697   -13739.425    313.65961    238.10461 
   94200     75.82957   -479.16793    57645.555   -12805.461    918.60032   -13724.061    313.75607    236.32774 
   94250    75.405831   -372.06885     57624.01   -12829.157    913.46714   -13742.624    313.10439    235.00713 
   94300    76.161105   -632.80774    57583.316   -12831.595    922.61655   -13754.212     312.9476    237.36099 
   94350    74.504385   -417.40425    57575.404   -12870.272    902.54702   -13772.819    313.29211    232.19771 
   94400    78.576909   -635.83672    57587.522   -12825.629    951.88163    -13777.51    313.46712       244.89 
   94450    77.665213    -577.1204    57607.537   -12801.055    940.83733   -13741.892    313.24729    242.04864 
   94500    76.399221   -314.18864    57609.396   -12828.147    925.50108   -13753.648    313.17534    238.10309 
   94550      77.6317   -447.66924    57620.479   -12836.132    940.43135   -13776.563    313.52875    241.94419 
   94600    75.910756   -390.82409    57649.263   -12786.016    919.58381     -13705.6    313.42144    236.58076 
   94650     75.35082   -613.10282    57666.305   -12799.783    912.80074   -13712.584    313.63486    234.83569 
   94700    74.931713   -385.45835    57675.323   -12809.513    907.72367   -13717.237    313.72732    233.52951 
   94750    75.782418   -776.28621    57644.231   -12852.332    918.02912   -13770.361    314.36342    236.18079 
   94800    74.331441   -952.64851     57608.19    -12845.95    900.45197   -13746.402    315.13152    231.65872 
   94850    73.261775   -437.65935    57614.581   -12888.154    887.49402   -13775.648    314.49763    228.32504 
   94900    74.374483   -368.39571    57653.205   -12873.449    900.97338   -13774.423    314.45746    231.79287 
   94950    74.332105   -851.80857    57640.682   -12854.899    900.46002   -13755.359    314.75527    231.66079 
   95000     74.70645   -516.53935    57680.023   -12841.042    904.99484   -13746.037    314.68964    232.82746 
   95050    75.131702   -556.36374     57671.69   -12834.182    910.14634   -13744.328    315.24029    234.15279 
   95100    76.792037   -701.61505    57722.334   -12828.711    930.25966   -13758.971    316.12053    239.32733 
   95150    74.581717   -630.34246    57668.255   -12828.384    903.48382   -13731.868    315.75214    232.43873 
   95200    76.289813   -665.57836    57689.235   -12832.872    924.17572   -13757.048    315.72587    237.76212 
   95250    77.197998   -766.81287    57666.412   -12836.878    935.17747   -13772.056    315.74067    240.59253 
   95300    75.371008   -761.59037    57689.629   -12827.829     913.0453   -13740.874    314.79626     234.8986 
   95350    77.674044   -659.43096    57734.155   -12828.168     940.9443   -13769.113    314.28914    242.07616 
   95400    75.446607   -1220.2386     57645.55    -12839.18    913.96111   -13753.141    314.37961    235.13421 
   95450    77.519535   -485.06778    57635.054   -12818.264    939.07258   -13757.336     314.5349    241.59463 
   95500    72.317549   -1027.1842    57587.498   -12880.763    876.05566   -13756.818    314.85411     225.3823 
   95550     76.89065   -457.38546    57532.255   -12831.089    931.45425   -13762.543    314.55111    239.63466 
   95600    75.098834   -787.87985    57493.198   -12845.391    909.74818   -13755.139    314.39596    234.05035 
   95650    75.848378   -458.33248    57473.168   -12831.366    918.82816   -13750.194    314.64412    236.38635 
   95700    75.035727   -753.44103    57483.293   -12815.056     908.9837    -13724.04    314.23972    233.85368 
   95750    74.912948   -486.77895    57443.966   -12820.858    907.49635   -13728.354    314.06416    233.47103 
   95800    79.106827   -686.08483    57448.764   -12814.637    958.30105   -13772.938    314.34929    246.54152 
   95850    75.891855   -487.03468    57460.156   -12817.634    919.35485   -13736.989     314.3494    236.52186 
   95900    78.976466   -414.38319     57502.13   -12771.346    956.72186   -13728.068    314.76026    246.13524 
   95950    76.270029   -661.34364    57574.964   -12752.947    923.93604   -13676.883    314.96208    237.70046 
   96000    79.456011    -494.5589    57601.727   -12746.937    962.53108   -13709.468    315.37423    247.62978 
   96050      76.6199   -624.61101    57640.885   -12752.499     928.1744   -13680.674    315.37468    238.79085 
   96100    79.472689     -250.877    57646.509   -12754.531    962.73312   -13717.264    315.19007    247.68176 
   96150    78.811485   -412.36462    57625.838    -12751.53    954.72328   -13706.253    314.94638    245.62107 
   96200    78.629356   -767.24019    57606.786   -12764.773    952.51696    -13717.29    314.54138    245.05345 
   96250    76.647104   -601.16207    57569.456   -12747.909    928.50394   -13676.413    314.77616    238.87564 
   96300    78.424503   -642.27786    57564.133   -12769.769    950.03537   -13719.804    315.05018    244.41502 
   96350    77.001378   -680.39731    57482.463   -12779.655    932.79562   -13712.451    314.79827    239.97975 
   96400    76.418232   -907.51336     57543.29   -12782.385    925.73138   -13708.117     315.3115    238.16234 
   96450    78.198715   -305.58318    57555.513   -12756.796    947.30017   -13704.096    315.36853    243.71133 
   96500    78.041565   -428.70143    57570.787   -12745.715    945.39646   -13691.112    315.79458    243.22157 
   96550    77.419817    34.220958    57649.384   -12775.712     937.8646   -13713.577    315.82586    241.28385 
   96600     77.02099    -359.7321    57668.572   -12797.486     933.0332   -13730.519    315.74585    240.04088 
   96650    74.201134   -548.95158    57661.632   -12828.695    898.87343   -13727.568    316.16399    231.25261 
   96700    75.194288     -349.747    57622.857   -12819.889    910.90451   -13730.793    316.61975    234.34784 
   96750    74.679652   -530.50371    57557.261   -12825.588     904.6702   -13730.258    317.22581    232.74395 
   96800    75.745853   -719.94317    57578.094    -12804.96    917.58618   -13722.546    317.13777    236.06683 
   96850    77.244495   -551.49754    57566.754   -12811.741    935.74074   -13747.481    317.06287    240.73744 
   96900    76.946717   -677.37527    57567.291   -12784.879    932.13345   -13717.013    316.78092     239.8094 
   96950    75.897173   -494.98829    57566.713   -12796.415    919.41927   -13715.835    317.11084    236.53843 
   97000    77.604013   -761.65154    57523.695   -12803.947    940.09595   -13744.043    316.86446    241.85791 
   97050    76.221259   -899.67093    57449.414   -12789.493    923.34525   -13712.838    317.18216    237.54846 
   97100    75.940972    -579.8522     57493.24   -12780.957    919.94985   -13700.907    316.98189    236.67493 
   97150    76.607846   -300.72338    57494.562   -12782.163    928.02837   -13710.191    317.24925    238.75329 
   97200    77.740244   -984.16506    57516.784   -12763.247    941.74626   -13704.993    317.10911    242.28248 
   97250    78.746609   -757.18277    57478.873   -12743.391    953.93737   -13697.328    316.74937    245.41888 
   97300    77.444096   -926.78296    57455.774   -12739.481    938.15871    -13677.64    317.76357    241.35951 
   97350    80.334714   -564.63208    57473.631   -12718.475    973.17569   -13691.651    317.04344    250.36831 
   97400    80.833381   -370.63446    57462.369    -12697.28    979.21655   -13676.497    317.48147    251.92244 
   97450    77.767062   -315.67733    57454.195   -12735.436    942.07113   -13677.507    318.18605    242.36606 
   97500    77.278303   -669.67306    57417.818   -12742.575     936.1503   -13678.725    318.24109    240.84281 
   97550     77.23254   -419.28527    57419.617   -12722.633    935.59592   -13658.229    318.64046    240.70019 
   97600    78.104287   -370.48588    57402.588   -12743.594    946.15627    -13689.75    318.63013    243.41704 
   97650    79.284195   -752.57579    57426.107   -12771.348    960.44969   -13731.798    319.09601     247.0943 
   97700    77.877123   -82.815274    57436.143    -12765.03     943.4044   -13708.434      319.779    242.70907 
   97750    75.367855   -453.70272    57473.204   -12745.493    913.00711     -13658.5     319.8743    234.88878 
   97800    77.456631   -638.55586    57546.654   -12767.747    938.31056   -13706.057    319.55054    241.39858 
   97850    78.995311   -246.67422      57540.8    -12730.48    956.95015   -13687.431    320.43738    246.19397 
   97900    78.612598    -386.0739     57562.71   -12710.033    952.31395   -13662.347    319.94857    245.00122 
   97950    77.189057   -596.44574    57625.911   -12692.037    935.06917   -13627.106    320.30608    240.56467 
   98000    78.064331     -259.986    57645.972   -12668.248    945.67225    -13613.92    321.30933    243.29252 
   98050    77.949431   -676.19649    57674.342   -12683.131    944.28035   -13627.411    322.47266    242.93442 
   98100    82.620409   -609.36155    57670.641   -12659.465    1000.8646   -13660.329    323.52493    257.49183 
   98150    79.729059   -564.48333     57669.27    -12675.96    965.83878   -13641.799    323.69879    248.48075 
   98200    79.977821   -997.44618    57660.567   -12674.658    968.85228   -13643.511    322.72223    249.25603 
   98250    77.663552   -287.59472    57602.172   -12677.481     940.8172   -13618.298    322.72702    242.04346 
   98300    79.370205   -65.293553    57593.407   -12672.463    961.49162   -13633.955    322.50147    247.36236 
   98350    78.237085   -541.10732    57619.486   -12732.764    947.76499   -13680.529     322.2954    243.83092 
   98400    78.007665   -579.56816    57595.864   -12698.774    944.98579    -13643.76    322.01516    243.11591 
   98450    80.911596   -893.29583    57599.508    -12700.28    980.16405   -13680.444    322.78489     252.1662 
   98500    80.283938   -689.27353    57571.029   -12698.029    972.56059   -13670.589    322.61734    250.21006 
   98550    77.654744   -630.49936    57535.956   -12703.492     940.7105   -13644.202     322.7563    242.01601 
   98600    78.899412   -431.44837    57519.678   -12707.891    955.78843   -13663.679    322.44219     245.8951 
   98650    79.614897   -927.16785    57504.255    -12686.63    964.45582   -13651.086    323.02962    248.12495 
   98700    79.742736   -277.33237    57504.181   -12697.528    966.00446   -13663.532    322.67245    248.52337 
   98750    80.346707   -612.84698    57481.295   -12667.066    973.32098   -13640.387    323.22755    250.40569 
   98800    78.477278   -733.08624     57462.72   -12633.072    950.67469   -13583.747    323.27811    244.57949 
   98850    78.754522   -793.26891    57415.863   -12649.227    954.03323    -13603.26    323.26182    245.44354 
   98900    79.979822    -858.0652    57389.619   -12682.473    968.87653   -13651.349    323.11178    249.26227 
   98950    82.400704   -642.88207    57477.971   -12658.141    998.20312   -13656.345    323.24722     256.8071 
   99000    78.675829   -618.78482    57483.483    -12677.33    953.07994    -13630.41    323.25348    245.19829 
   99050    79.257484   -823.77367    57495.539   -12683.246    960.12611   -13643.372    322.95971    247.01105 
   99100    80.654394    -973.1927    57413.324   -12703.884     977.0483   -13680.932    324.02531    251.36461 
   99150    79.481384   -752.37632    57384.853   -12687.959    962.83844   -13650.797    324.41658    247.70885 
   99200    78.388844   -470.94216    57366.037   -12685.417    949.60341   -13635.021    324.71407    244.30388 
   99250    79.609161   -587.62343    57401.699   -12676.638    964.38634   -13641.025    324.87568    248.10708 
   99300    76.842335   -521.35276    57431.492   -12683.608    930.86898   -13614.477    325.14744    239.48409 
   99350    77.934307    -247.1984    57461.181   -12676.395    944.09714   -13620.492    324.95748    242.88729 
   99400     78.48135   -797.20358      57441.2   -12679.911    950.72401   -13630.635    324.78363    244.59218 
   99450    76.038551   -482.13774    57424.804   -12677.905    921.13192   -13599.037    325.16193    236.97904 
   99500    78.028838   -895.84798    57407.909   -12698.533    945.24228   -13643.775    325.03042     243.1819 
   99550     76.56621   -545.37587     57382.75   -12721.623    927.52399   -13649.147    324.50189    238.62353 
   99600    75.707788   -858.06187    57333.147   -12745.194    917.12505   -13662.319     324.0762     235.9482 
   99650     77.45146   -580.74873    57295.713   -12736.339    938.24791   -13674.587    324.94964    241.38246 
   99700    74.347685    -530.0692     57299.19   -12743.477    900.64875   -13644.126    325.30312    231.70935 
   99750    74.872268    -94.59603    57303.086    -12737.77    907.00356   -13644.773    325.51598    233.34425 
   99800    74.544592   -351.02756    57302.976   -12743.345    903.03409    -13646.38    325.48255    232.32302 
   99850    74.987509   -90.728493    57351.296   -12740.185    908.39958   -13648.585    325.80543     233.7034 
   99900    76.628923   -514.64118    57355.321    -12769.84    928.28369   -13698.124     325.3788    238.81897 
   99950     77.93889   -366.67297     57355.86   -12764.711    944.15265   -13708.863    325.52001    242.90157 
  100000    75.274071   -627.49498    57344.689   -12760.404      911.871   -13672.275    324.91816    234.59649 
Loop time of 64.1771 on 58 procs for 100000 steps with 4065 atoms

Performance: 673.138 ns/day, 0.036 hours/ns, 1558.189 timesteps/s
99.9% CPU use with 58 MPI tasks x no OpenMP threads

MPI task timing breakdown:
Section |  min time  |  avg time  |  max time  |%varavg| %total
---------------------------------------------------------------
Pair    | 30.692     | 33.62      | 41.347     |  48.5 | 52.39
Neigh   | 1.135      | 1.4514     | 2.1033     |  27.7 |  2.26
Comm    | 12.519     | 19.349     | 23.964     |  77.8 | 30.15
Output  | 0.13099    | 0.13718    | 0.15586    |   1.7 |  0.21
Modify  | 6.1631     | 8.7039     | 10.857     |  49.2 | 13.56
Other   |            | 0.9157     |            |       |  1.43

Nlocal:    70.0862 ave 96 max 51 min
Histogram: 12 19 4 1 0 0 0 2 7 13
Nghost:    1455.34 ave 1549 max 1401 min
Histogram: 19 3 8 12 2 0 0 0 5 9
Neighs:    0 ave 0 max 0 min
Histogram: 58 0 0 0 0 0 0 0 0 0
FullNghs:  7785.14 ave 11055 max 5555 min
Histogram: 19 17 0 0 0 0 0 0 8 14

Total # of neighbors = 451538
Ave neighs/atom = 111.079
Neighbor list builds = 5509
Dangerous builds = 0

write_data		${DIR}/data.eq-${NAME}-${TEMP}
write_data		run_10/data.eq-${NAME}-${TEMP}
write_data		run_10/data.eq-het_freeze_10-${TEMP}
write_data		run_10/data.eq-het_freeze_10-240
WARNING: Proc sub-domain size < neighbor skin, could lead to lost atoms (../domain.cpp:937)
undump          1

reset_timestep  0

unfix           2
unfix           3
unfix           4


################################################
#######         Run Simulation         #########
################################################

log				${DIR}/log.run_${NAME}
log				run_10/log.run_${NAME}
log				run_10/log.run_het_freeze_10
