LAMMPS data file via write_data, version 29 Oct 2020, timestep = 100000

6433 atoms
2 atom types

0.0 49.22 xlo xhi
0.0 49.019635930410494 ylo yhi
2.2490444544315196 57.81295554557018 zlo zhi

Masses

1 18.015
2 12.01

Atoms # atomic

2562 1 19.66762030863362 15.442736188655335 10.737684909690197 2 0 1
2740 1 8.254749145679432 9.870402672813944 9.555918661773461 -1 -1 0
4087 1 23.71287876086601 22.245034288590265 4.60001616875908 2 1 1
3002 1 19.423676421876745 47.086100008079725 6.944326818317146 0 0 1
6376 1 0.9978831376889375 44.31227265537404 2.6069377965303966 0 -2 1
3407 1 5.2420652111172945 45.556139865708545 9.584050610124356 0 0 0
2801 1 3.2913084403476813 8.536660421053533 5.780046692532663 0 -1 1
3112 1 14.041803970279437 26.399024992336212 9.67242720500827 0 0 0
3776 1 22.921954925912967 4.017779262734014 6.512099200069659 1 -1 0
3207 1 6.253265986166788 7.228716623902357 5.409476094944462 -1 1 1
2547 1 9.584625667671197 31.680871772426062 4.79283543507141 1 -2 1
3856 1 8.901608521072992 5.028421351248863 2.489046362383139 -1 0 0
749 1 9.974814786490821 46.38515116375034 3.3657629015320474 1 -1 0
368 1 22.995079988561663 31.373613830997712 7.217456253596855 1 0 0
419 1 4.511194010016436 8.515476812851947 10.949743071285017 0 0 0
3122 1 0.5335310678474409 19.56399884117047 7.031147825433083 -1 -1 1
2465 1 16.121091802469522 17.58077467208383 8.040579660436183 -1 2 1
3401 1 16.121991722637063 1.3682864600960254 3.2334461856985306 -1 0 0
3742 1 22.26255915618268 37.751541444270266 10.126486371051197 0 -3 0
4288 1 9.596777570509508 16.36138595294876 4.274268032770356 0 0 1
323 1 1.3248209534696 38.62934622394541 19.741887911229675 1 0 0
522 1 14.509322102104342 36.433757998892595 3.572442741483113 1 1 0
6107 1 1.2212662098143865 22.217413368223223 8.354079685390719 0 0 1
229 1 8.653901485113927 2.795379881679709 4.424739610513 1 1 0
3439 1 19.66364849763575 5.956653593514374 3.370569250172048 1 -1 1
3828 1 21.746306116910468 8.410268544103166 4.490851345512076 -1 -2 0
737 1 1.3336536001796269 30.613918754257583 3.1332614631119506 -1 1 0
1107 1 0.31881051539802485 46.463905213036604 14.814643841783123 1 -1 1
5776 1 12.06000100754249 1.82473045784467 6.75852738872522 0 1 1
2564 1 6.007177910959091 3.010395765211008 4.4932966895257405 2 -1 1
650 1 2.51387282739808 29.803625834080265 14.751929523214294 0 0 1
3057 1 15.68685581839448 31.403291405083746 18.32989192514692 -1 0 0
6292 1 19.630885024590533 36.67237321657454 11.330130693100232 1 0 1
2541 1 22.79617819761199 17.570832958626966 2.9616684924288856 0 2 1
120 1 7.465957774689088 26.88941843730247 8.140596550666762 1 0 1
33 1 1.78567816407603 30.502617202220584 19.704763639944343 0 -2 0
6248 1 6.9760068407809275 38.851638496252995 4.684926282417523 -1 1 0
3895 1 6.66736864195423 23.61302399251443 11.09902746661971 1 -2 0
4024 1 19.98173714101657 11.628772973859888 5.685324101805409 1 0 0
6128 1 14.64046978015994 13.780313556572354 5.007919023711654 -2 0 1
5934 1 14.351042201117613 8.080670783723614 11.193041079569458 1 0 1
581 1 4.758300420672017 19.445480790450034 8.617836813885882 0 0 0
3167 1 7.908661987061437 10.835166685951904 2.3935554091362894 -1 2 1
5980 1 9.131641233453406 29.61795250566904 2.8919086230208375 0 0 0
2949 1 22.94402454440697 20.632697858780652 13.641443462508729 0 1 1
217 1 19.59771447451519 16.93303725200804 6.1865185298527265 -1 0 1
493 1 8.702141365743003 17.362839276030254 10.31227975509122 0 0 0
3278 1 4.8348327596575595 14.380502908303114 6.926316026330454 -1 1 1
5920 1 19.109739430029517 45.45059541996741 4.50951126093071 2 -1 1
3136 1 0.8758288414097373 2.2620744707303224 13.375227526383087 1 0 0
1049 1 7.711935886768481 22.782821585069126 4.14534464168067 1 0 1
2803 1 18.843303520519235 31.352215547450054 6.622202275042146 0 2 1
2543 1 7.792089135109695 16.533082713272925 6.518745848297705 1 1 0
293 1 9.269632810513535 38.35020390591087 15.731402588990274 0 -1 0
3616 1 7.763717080545619 13.708680196856397 7.3474883090493375 -1 1 0
3114 1 22.940475410708082 23.151765513334997 15.451097065716308 0 0 0
182 1 24.160909264242264 26.91449383422019 6.357887586933863 1 0 0
6088 1 16.724781412103077 17.574934771433703 5.249150422297891 0 2 1
3652 1 12.499373646917201 14.041524255764081 15.501476492419203 1 -1 0
844 1 18.716444932851722 17.23807334718326 9.267295451472725 1 1 1
3891 1 14.116810002363048 18.697354733219584 5.106732752248526 -1 0 0
230 1 11.705865209822214 26.864377992217793 4.765622505683152 1 1 1
3667 1 2.8593357600403726 33.741079416308295 11.665786357222444 -2 0 0
3479 1 6.820687616108736 25.14991483875458 5.644229246329166 -1 1 0
482 1 22.87689544178152 26.35673208419667 9.459438714352391 -1 -2 0
3522 1 21.996999571311598 16.049714589235645 5.115082967003413 2 -1 1
2579 1 11.179527543443502 17.22354642390935 6.490151689226543 -1 -1 1
3295 1 4.140722361448041 23.73671939579296 4.90932521560626 0 0 1
2893 1 4.44634488241294 41.85677782118168 3.331277313741219 0 -3 1
6313 1 9.577097868643744 20.621835520319912 9.185067503861307 0 -1 0
6286 1 15.091919152923236 20.469770346033357 8.981896728270605 0 -2 0
3885 1 2.348586241329041 14.74621589212991 9.29252617723439 1 1 1
3544 1 5.895317237049222 10.059083171966764 4.8467810971891865 0 0 0
429 1 19.9769593723372 41.48695093928217 6.159767744107146 -1 0 0
3772 1 17.661892239130278 19.853143915694343 3.574114890018705 1 -1 0
5807 1 2.795270755851457 2.427859908170839 3.335911332908581 1 -1 0
121 1 0.802574108113571 31.58730439481569 16.55519072138837 1 0 0
4322 1 17.061907657353366 23.26305237490195 3.1020292612260154 1 0 1
2790 1 20.655423548956986 20.47099936850641 8.382577111305729 1 0 0
478 1 12.483511451371713 14.028150140654882 3.4633174505478532 -1 1 0
872 1 2.338336030831666 22.68348238130176 11.522349726831187 1 -1 0
3483 1 3.458528555467998 42.35555801117565 20.471443558036363 1 0 0
3769 1 15.065503491285119 22.481098797850297 6.628730805514336 -1 1 0
6302 1 20.38580268104604 18.888500539445726 2.484385790627151 -1 0 0
6309 1 2.7592662739292577 34.14014679150119 19.426682312918338 0 0 1
3199 1 3.306351553309595 10.348887370422087 3.1354049801851924 -1 3 1
6211 1 4.016835435847545 35.12212064802763 7.220398776228858 2 1 0
762 1 5.255711016925851 34.74929132484616 15.732726896889506 0 2 1
4325 1 5.0013265351294 25.43259070714431 8.738881334926273 0 1 1
4170 1 19.319237302217562 23.92250748265134 16.747930553451713 -1 0 1
3569 1 19.96129049650366 26.435843377893544 7.148078198232317 0 0 0
6019 1 12.308441872468492 21.303781734252787 14.766310280307888 -1 0 1
4286 1 10.737006789795743 29.455064823161614 10.098039689776527 0 -1 1
3994 1 2.9062259970139954 26.217250752523267 9.692783693021774 1 -1 0
99 1 13.54456048218761 29.111489844335814 8.650314311001747 0 2 0
5693 1 17.102576487780425 9.1196178394311 6.048786476808875 1 2 1
3787 1 13.677093094422856 0.33021354588264784 4.5818903647462506 2 0 0
756 1 16.14848852295052 26.801142103711072 11.424203343859057 0 0 0
851 1 5.21655235987138 47.948834603928596 7.6575766608515465 0 -1 0
3831 1 16.657563315683205 44.40470430187466 3.6488374965196404 -1 0 0
4102 1 4.33712246700764 42.8737370225074 13.851892002004883 2 0 0
927 1 1.2643015330480671 35.06570065827867 15.505803296898597 1 0 1
4161 1 24.31241856390007 46.90629102504295 20.007273184851154 0 0 1
2765 1 7.873308914949778 18.377246962499502 3.235141508099169 1 0 1
3561 1 15.903497843646871 18.411163634032253 18.8221582065844 1 -1 0
2961 1 14.722201903862183 22.286580240893837 12.778649453678918 -1 0 1
3238 1 23.194676517646162 44.03795909502583 12.625421212413029 1 0 0
4034 1 18.07451336187551 25.00028046601654 8.413222125666564 1 0 1
785 1 7.038456337575801 19.983681297885393 10.28539348315246 0 0 0
4335 1 22.892245389619546 29.447500592703616 5.588008295672717 0 0 1
782 1 7.428080173351347 0.6546698355322523 20.127542621060698 2 2 0
3800 1 18.12584671528597 25.438611976869154 4.620366086095842 -1 2 0
119 1 19.229691919209014 3.333658807232506 3.199877361821315 -1 2 0
544 1 18.624936398621035 38.97279220608276 13.484908282041877 1 -1 0
1063 1 20.694036903444303 40.47843135189696 13.095386268277112 0 0 1
4172 1 8.870644389294176 45.092976079626986 6.007149774258447 1 1 1
712 1 21.414556980516632 43.28140405676828 7.527719945553702 -1 -1 0
3805 1 4.760320833173886 16.75217369149483 2.2662733638688772 2 2 0
4178 1 8.460431128764865 28.79262064666006 6.425012136682992 -2 0 1
3342 1 1.9518457162923994 3.361065929936306 19.650810270143708 2 2 0
3040 1 22.289600862112863 32.737745924245665 13.904536994901903 0 -1 1
767 1 6.401714951347105 4.4162655672775335 7.35219315385275 1 1 1
6408 1 22.043422283302483 11.912732247959374 17.676203235461923 0 -1 1
114 1 11.332697848140107 25.708509664121845 9.176253652127771 0 1 0
5798 1 15.35733112647881 25.14534973024581 7.9533925420619855 2 -3 1
3919 1 18.727094990164517 28.416133936183854 5.192654971076927 0 -1 0
665 1 4.391543699651569 16.736360285510457 8.955297767939918 -1 0 0
763 1 24.001706066143498 35.74436428891583 10.265925603865263 -1 0 0
3422 1 6.371361374495899 44.343797753773856 3.2981695400561515 2 0 0
956 1 20.73777137246523 29.719922475886065 10.413556690613868 0 1 0
2637 1 24.383868199350825 45.99019585791419 10.155875856438936 -1 0 1
2602 1 8.366044088443514 33.51647019296307 7.680754100208634 2 1 1
4196 1 9.330712061919046 3.273684924355058 7.164780406045582 1 -1 1
5770 1 14.46022737550763 47.75387906471467 19.287521753347967 -1 1 1
3950 1 0.24918899761320892 32.83888677387487 20.365970529808298 1 -2 0
10 1 12.85317842291694 22.896294876765673 19.206054880138126 0 1 0
2787 1 6.915384427063605 30.156447648145132 15.853356797322501 1 -2 0
5993 1 0.4299693938505869 37.528073086231686 11.171671087499842 1 -2 1
6069 1 10.359870385269964 37.02380838783911 7.0216984305284855 -2 -1 1
3896 1 2.2237575956817803 36.10072765786455 5.2076189701948215 0 0 0
1021 1 12.620082555437747 24.143864259469638 12.148803219986558 0 0 1
2469 1 14.384117450151836 30.612220161134353 10.638929394223418 1 1 1
2477 1 0.9210472224902622 32.59079996584103 7.508835574581928 1 0 1
2524 1 12.780628982276667 24.076920497104496 4.7448828351905386 2 0 1
322 1 2.064532460212248 43.05575339874881 4.973879673423646 0 1 0
2952 1 6.0528512687422396 20.850072670470944 5.194145921694316 -2 1 1
4188 1 1.44567563039017 41.890654314378345 13.834139205010867 2 -1 1
6001 1 7.118095562006464 7.327952946816164 11.339295459179095 1 1 1
5851 1 6.697789304020034 45.86521749886994 15.477079972119494 1 -1 1
6404 1 0.8389994534622921 19.942977595812096 17.85320809907887 -1 0 1
3871 1 5.155352988097971 5.700735725093103 3.2705032151919777 0 1 1
5947 1 23.785119952318468 25.432633344531336 14.025902920976526 -1 -1 1
2999 1 14.617438381117555 7.767081831079125 4.3232432094344 3 -1 1
831 1 1.8316758840609553 45.737606519748326 8.559335975934454 0 -1 0
2946 1 0.07256900936030775 1.0924974609413016 19.818439351072232 1 0 0
3631 1 1.1698414526589322 46.554841290872766 11.317273641396584 0 -1 0
3000 1 0.6525052919377424 24.952003453469143 11.093197521594405 -1 0 0
699 1 0.15100735448236274 37.295541064248404 17.48998444910937 0 0 0
2518 1 12.149338123092466 19.442011021298285 9.821763013857979 1 0 1
777 1 12.135630240217543 30.680554127142774 6.75464085466537 0 0 0
4307 1 13.126036176306439 41.78952973848286 4.044371494097373 3 -3 0
6123 1 19.23529106716261 37.917008266986336 2.6630892158808153 0 0 0
2744 1 12.370506858006518 16.97554772506477 2.5997768438426756 1 0 1
6197 1 23.82782044110695 24.59487482932732 3.1233627159749573 0 -1 1
939 1 22.00540823419869 18.21215017763178 9.590761733967835 -1 1 1
3557 1 17.62899827837028 12.090958640146452 2.9848003208789455 -3 1 0
3264 1 7.302071072333406 26.545709953391267 3.0847765552057953 0 1 0
2836 1 23.417463473887793 19.954702086282346 7.436520235389521 3 0 0
6009 1 23.25855113171257 37.38220706255347 18.437098338526106 1 1 0
3867 1 11.280623221648924 47.00499991499791 8.980262238691449 1 -1 0
736 1 12.10542093039564 42.54417291160862 15.666962127593935 0 0 0
2804 1 12.203021072534403 42.62598894855007 7.005649436768418 1 0 1
5743 1 3.1748486534898728 19.124316301501906 10.807551357288576 -1 0 1
3860 1 3.9690710750294635 44.30630831188997 7.397264626317864 1 -1 0
4064 1 13.423592845605624 45.18576085490687 6.498676251471634 -1 1 0
559 1 15.73573188056 0.14241949386137034 9.250919330299425 1 0 0
6097 1 19.38530323461416 40.23110587157239 9.344270468900435 0 0 0
1120 1 24.502952880811286 5.799652551977866 8.337691293288032 0 2 1
2695 1 18.880361287596156 25.098332990955264 11.003796054222542 2 1 0
6247 1 18.97585587025285 44.963014324256264 8.612128691267806 1 0 1
6077 1 9.528331184046296 35.44187046200886 14.405256429978635 0 -2 1
2758 1 15.520760139117034 40.63891700093053 19.812444971554065 1 0 1
3842 1 21.568964082325632 26.034590562382387 4.344810130199676 -1 0 0
6117 1 9.412609689084642 6.574032521367402 4.958968073212851 0 1 1
3628 1 19.861806580287713 48.465139450065436 3.3585563882556593 1 1 1
3731 1 2.4547726371260303 6.975093002978439 18.473461522265367 0 0 0
3577 1 3.6916506243359875 37.57292259330378 3.6824141201569374 1 0 0
3060 1 12.46920694028272 4.351882386108639 5.557393196639487 1 0 1
951 1 1.5894105364137057 1.8982558322850978 5.855998810090748 2 -1 1
2954 1 2.1078671413640464 13.334191333242769 11.422686935329134 3 2 1
798 1 0.5429762984029718 42.37064640963766 19.40828888218705 1 -1 0
2566 1 2.235890741531334 20.695548710663974 5.140697108810825 0 0 1
3851 1 10.34242653621288 43.27104490941664 4.693904946178824 0 -1 0
465 1 9.038935403571347 14.16982001620919 2.6628602067275136 2 0 1
2649 1 4.096943735599882 29.90208443748069 6.3905667479404045 2 -1 1
5961 1 24.155483996518804 1.0629219365119542 6.425744475170754 -1 -1 1
2866 1 22.264737423537426 9.921299927658419 2.3174633924114443 1 0 1
3603 1 22.30083529365249 39.90425325500231 8.590953864565758 1 -2 0
6144 1 5.105079046972135 46.857057136503634 3.0585563494055985 0 0 0
3734 1 2.7474869375768654 5.089315726365624 13.146110267503639 1 0 0
5873 1 2.9414267888844257 18.39996886021938 17.821066117454635 1 0 1
3001 1 7.95656705820628 3.009164101882898 11.443340209626474 1 1 1
6106 1 1.0747892274460873 4.944527621631567 9.790157165786425 1 1 1
2607 1 9.041517552987537 10.462546271538924 17.91624431792411 0 -2 1
2951 1 7.910403953358698 11.007382805458002 6.8688934203654375 2 0 1
3011 1 9.641911366755645 7.5959201251863675 7.503716372521034 2 2 1
3097 1 10.615600823240593 0.09001362875698322 4.905841042868099 1 0 0
3314 1 11.236691708009854 1.8813846853665377 14.157345410712999 1 1 1
3760 1 10.990513700343746 7.956365118647978 16.230061074652014 0 -1 0
3189 1 22.506132934293852 8.280951652791702 9.271118726698829 -1 -1 1
2829 1 14.615251739784965 4.98613269693977 10.779282601471378 2 2 1
676 1 22.128508501810096 48.27700527152119 5.238973041118442 -1 0 0
3671 1 18.63162839151977 14.487432092539867 6.792023329124879 0 1 0
3345 1 10.923053102362834 27.714881628772215 7.195977872746738 2 0 1
5715 1 17.403193946042645 12.307547921066329 16.47390460292672 0 -2 0
6387 1 2.290193438771096 38.68689861275228 6.904244959340507 -1 -1 0
5731 1 3.5117604961842313 30.304251142562762 17.721121968312197 -1 1 1
253 1 6.747704164116866 7.543460850613196 8.19472928600089 1 0 0
6411 1 2.4130036149695178 12.905691151136415 7.305451323871334 1 1 1
3412 1 2.3642976308996726 5.73132563731012 4.020562242544886 0 0 1
765 1 15.86171971186132 8.347694140263837 8.600214331792554 1 1 1
228 1 20.732735709081005 13.788663343205146 9.055133412634653 1 -1 1
517 1 1.800016689398102 3.715093304012786 16.26029220895469 1 0 0
400 1 14.024764268641968 2.581065517628109 8.549183265099515 -1 1 0
2650 1 1.7698574944167793 23.7709467243837 3.0873640502151884 -1 0 0
4052 1 2.5036040501759085 48.63520032972088 9.915519977483722 1 0 1
5994 1 21.33643235872185 39.20211322884482 6.14134920535186 -1 -2 1
2873 1 2.4280070919944525 13.009220994991471 4.418522760249806 0 1 1
702 1 0.06790049150759614 17.08834956910127 6.554150762133966 0 0 0
2894 1 15.528380687120608 10.769068080765178 4.417147383946298 -2 -1 1
1088 1 8.686909499558043 5.149548807511517 9.714401069716875 0 0 1
6374 1 10.134475288662873 7.900224995817133 13.629965332923534 0 0 0
4174 1 10.421443819303795 11.026361732113873 5.760805761631644 0 0 1
562 1 16.906122513240476 15.145600297785261 3.7346503972612384 -1 0 1
687 1 17.052353502423987 14.441684316559872 11.090176319658882 0 0 0
3212 1 12.54408866144171 7.244045963332204 5.717944555333016 0 1 1
3487 1 17.997454739046187 6.560024336244839 9.538269663664636 0 -1 0
2903 1 18.191923663593453 22.963544635612507 6.292449285353211 -1 -1 1
4152 1 13.052692853818657 32.29853347891384 18.246875900373517 0 0 1
3502 1 21.61777674745607 2.9755801273927402 18.092011864883183 1 0 0
6078 1 11.93721892530397 48.812689483886956 18.617537657976484 1 0 1
4109 1 23.942233852436154 7.863010008102935 6.341756515267695 0 2 0
2625 1 4.409810338661826 12.592293556548286 18.9127835575221 0 -1 1
2863 1 15.860705567690852 3.2018264574503035 13.971822532765058 0 0 1
4321 1 24.200248863348033 31.49085357792035 15.481232804075036 -1 0 1
850 1 8.464065308498622 22.898388927899028 17.74067986195881 0 0 0
3351 1 13.80726645757081 11.472726655122273 16.59150866626939 1 0 1
3154 1 13.569484028728045 15.424119834185927 6.905121692712812 1 -1 1
6199 1 9.961567462193818 21.063228719099595 16.16853604143956 -1 0 1
3047 1 9.483292507703844 23.17783548412475 10.406624284782788 0 0 1
5801 1 21.8172423155777 10.523320229364652 11.275389196005547 0 0 1
5738 1 19.79745245721703 9.173498619921538 6.624407179727047 1 1 1
6173 1 6.837985487828974 43.11766661715267 16.00593027797191 0 0 0
629 1 16.44130666789008 21.235336321472555 11.066719982287491 -2 0 0
608 1 11.306569717233351 31.882101191781 20.152853080073896 0 0 0
2714 1 7.073950589005563 12.835253320095228 4.263333215611939 0 -1 1
2617 1 20.52649868605182 11.769697028084456 2.8668307848317367 0 0 1
2559 1 10.054828444203771 41.75183495356062 13.567733712868892 2 -3 0
70 1 10.88362473459849 22.192541300640986 12.682135906472897 1 1 1
2839 1 1.4574178108955393 14.147502998672417 13.955670197549198 1 0 0
4030 1 10.399918820478344 23.947425900938413 3.1100038119897127 1 1 1
703 1 7.644980022976106 19.115639268259734 15.70277399335884 1 0 1
2535 1 8.221873744351097 9.893688149909575 12.64379832417011 -1 0 1
5988 1 15.746700804637483 17.96594330855466 13.95266751684967 1 0 1
3651 1 14.673575126502936 15.58344447087506 14.882889796786564 2 -3 0
3386 1 12.63326459419891 19.94734942234112 7.052510589376767 0 1 0
3500 1 20.60845513395143 21.805327815104878 15.634491812739439 0 1 0
889 1 12.10984959395298 17.015217652325585 12.534883866884863 -1 1 1
3300 1 20.13828494191767 20.469197697708516 12.8699788719639 0 -1 1
333 1 4.782478255558552 0.22106471602918967 18.251133509292213 1 0 1
244 1 16.738223127284076 21.678770938980986 17.763509642100903 -1 1 1
2956 1 2.259012988028008 10.462282239885038 17.458204086601683 3 -1 1
1008 1 4.258252382793402 31.119273846229376 12.783728588788378 1 0 1
878 1 3.6881827248842325 22.21868798800822 7.103229695921645 -3 0 0
3960 1 3.7259080985364847 18.6049704540699 13.649005917921182 0 1 0
3592 1 8.457354289167192 32.7631458993253 13.638337556647587 1 -1 0
2953 1 4.279586377289283 28.91455957288483 10.216648080335641 0 1 1
3133 1 12.429255780623958 13.881505059367521 8.794904390568629 0 1 0
3532 1 0.16357018133368162 24.93492574841656 6.917314620669717 2 -1 0
3329 1 9.193776030397471 18.349989687539 13.142140310235845 0 1 1
1089 1 13.406105505458337 30.58196321599757 2.995650531344371 0 0 0
6364 1 17.168324612979276 25.123677116131386 13.720244653874733 -1 0 1
826 1 13.966951619652649 30.884628161646035 14.470906643769549 1 0 1
3406 1 17.572890090724574 22.075183146899747 13.890755651302364 2 0 1
5910 1 17.116788441002576 19.648835813834246 15.132104898145442 -1 0 1
3583 1 23.97856415380039 18.99095231359208 5.09295586703848 -1 -1 0
328 1 15.491148295245154 26.62153853707423 5.041949037065616 -1 1 0
65 1 10.020215879477115 40.808673764274054 17.268649212842732 1 0 1
3670 1 2.429929511316345 28.103613813417194 7.337593672934656 2 -1 0
3564 1 11.38215446003071 39.30283732431162 18.653478353453878 0 0 1
3686 1 0.07486624533834672 35.25946564307792 3.120311602415775 1 -1 0
725 1 3.5068747541115606 33.048693484485874 8.650402355518294 1 -2 0
4031 1 8.022947888505492 48.012596634139754 7.371561289070566 0 -2 0
4028 1 6.13892345005569 29.713977033855393 8.463055058324855 1 -1 0
2733 1 7.511909394272744 28.48046700500731 13.556186994183207 1 0 1
3656 1 16.732796647100542 29.60837492455857 7.560685046704596 0 0 1
541 1 14.560005799551664 29.21132117459644 5.538045567764518 0 -1 0
3712 1 11.627729154250998 22.732196261249218 7.045317599331369 0 1 0
5877 1 8.889650792059614 22.20175398175933 6.599243468833183 2 0 1
6171 1 12.983564442395238 22.444312723796 9.728401723117212 0 0 0
2505 1 18.574136337023592 27.980569444534463 9.417094116772123 0 -1 1
499 1 2.583991439794057 2.851742282446847 10.892731022068013 0 1 0
4279 1 24.347581484274055 26.098354858649042 16.901927445154374 0 0 1
758 1 7.691266547749522 37.106037730468096 2.636698824685944 -1 0 0
4187 1 7.14212914018776 31.534764840432185 6.077275095210429 1 0 1
3528 1 8.899784423047269 26.872151641842674 10.619637446141299 1 -1 0
3801 1 8.60523845566486 28.32513626965785 19.67777549955489 0 0 0
6053 1 5.666951568589884 32.626083577592944 4.01114438805064 -1 0 1
3490 1 5.974236096942219 32.636253312519 10.760957175691361 1 2 1
3621 1 15.98231726224979 33.77092943703589 6.546458724684431 0 1 0
6215 1 15.10165744757713 40.33828639543111 9.343923604032675 2 -1 1
2823 1 13.398423954985217 36.16452230694017 10.008892617334562 0 -1 1
3971 1 13.195565879983112 26.81471770220487 12.535193337501003 -1 -1 0
3920 1 20.800566742803365 30.104307636995994 13.067634996508911 0 -2 0
6114 1 7.1735401789188815 36.86731904399609 13.365963170862958 1 1 1
2768 1 21.96913457057315 1.0914164921082414 16.066090599198553 2 1 1
3837 1 19.656140105933254 32.002266855286436 8.999709708451885 1 0 0
3559 1 12.612255831158583 10.767799593272773 3.8717373497334284 1 1 0
6335 1 5.876243309058679 6.0823663999917965 19.6748555537576 0 1 1
630 1 15.26495776141746 36.988862782309674 19.415479685769878 0 1 0
3589 1 6.607719484646612 35.695797292455545 7.891069314596873 0 1 0
813 1 22.611169048959084 19.10816356011535 19.168007247961793 1 0 0
2699 1 4.572913100557338 41.21875829798098 7.877962708151608 -1 1 0
6259 1 16.174736849436776 42.8725684201251 8.317256871509565 1 -1 1
1105 1 13.022671731335993 46.706411994913495 11.228804568199852 0 -2 1
5966 1 19.823559570735704 16.356560420688254 16.11537676957124 1 3 1
3397 1 11.886675979575095 38.44622025800353 11.00334855622035 1 0 1
4082 1 10.771164541162353 34.21009994163647 4.0083041026675 2 0 0
184 1 21.453243108024036 33.67713763737036 7.660171520297508 1 1 0
3316 1 2.355602615880879 41.81948695061019 11.133843813943317 0 1 0
933 1 5.544343669939164 3.2441982008658603 9.747370392322358 0 1 0
413 1 24.444682052988163 41.25393762349961 4.8904057734965924 0 -1 0
6430 1 4.67410516064163 39.76503034976301 11.259553170710644 -1 0 1
4350 1 11.251146711325694 39.669393768488256 5.4299420443840924 2 -1 0
3523 1 6.491038798826308 38.607174935377785 7.517640968289956 1 -1 0
6121 1 4.459946614912121 39.8634054190816 5.491787068541933 0 -3 1
3639 1 1.2277600732054128 16.109802176600056 4.2339846694033625 0 -1 0
372 1 10.26588123246086 43.76108341149608 11.736922863877842 -1 1 1
6094 1 18.997224313842047 33.877713620087285 11.104996614593398 2 -1 1
390 1 12.380033760608518 42.86465723231122 9.782860051280542 -1 0 1
6229 1 20.54075298213497 36.34622422879013 18.49890882692588 1 0 1
2656 1 8.348569215018752 41.44516039224893 4.53231221505665 0 -2 1
667 1 4.346551224062463 1.6851346022896987 6.407050249247606 0 -2 0
325 1 2.6358786396040137 26.352099743113687 20.351149541258383 2 -1 0
3180 1 18.671667743262425 35.8889361484049 4.861799899366805 1 -2 0
106 1 24.046510573862594 31.30530633816593 20.735157266298366 0 0 0
4302 1 11.865998726237844 4.4474701331514925 2.693809255149106 1 1 1
3262 1 1.1416092454542492 38.21806911587375 3.0406368805213684 1 -2 1
3376 1 7.457761268719461 13.993855272613533 17.803387005889 1 0 1
207 1 17.079215223257737 10.260329901010802 20.646605903649203 1 0 1
3869 1 7.557072102362948 7.858928385185082 18.725956426509562 0 -1 0
580 1 7.991195127402283 41.66918476013246 8.608849919942234 1 0 0
3827 1 3.1222934784367458 38.0187902911552 9.561852731704649 0 0 0
6307 1 10.306906715253502 44.27804760582209 8.297864937227441 0 -1 0
4131 1 17.233484111019163 4.246378955758569 11.679797715328682 -1 0 0
4015 1 14.651028303325923 24.21291757551157 2.495969968980584 0 0 1
4265 1 8.61043290331999 47.44256444154044 10.144653491561154 -1 1 1
975 1 11.475167655203988 5.2233598839656175 8.406501654500595 1 1 1
2812 1 17.730792378121784 33.17733685075374 3.9333657649913576 -1 1 1
4327 1 3.2512904179301287 17.34139760342621 6.239188019081572 1 2 0
3034 1 8.608208256660715 36.41392022667112 18.568559076708855 1 0 1
1123 1 23.689978781625832 44.93484589000115 3.936694920887335 1 0 1
2913 1 6.658228231128081 2.5669355376517062 13.852653623926267 2 0 1
2593 1 6.563255174700191 22.337926296964564 8.430125236086514 1 -2 1
5783 1 2.9734360495295964 47.563792217513765 14.153725391489212 0 -1 1
2924 1 7.489834029614447 48.004585699995346 4.415653534139688 0 -1 1
880 1 11.24591245331445 33.23898280445566 7.10491981334961 -1 0 0
303 1 20.795197013745618 2.146020644600526 6.663191006263615 0 0 0
6260 1 0.24803921487932615 23.909329716100565 17.12646498929491 0 -1 0
6098 1 21.88986382261574 48.94347899456317 10.326045347192633 2 0 0
2774 1 21.779777513030183 35.429887626872016 4.5284076645201345 0 0 1
317 1 17.894337687186283 41.7488985250608 4.126652815219922 1 0 1
55 1 20.419579989230353 38.149121091522396 16.430904374122193 0 -1 0
4077 1 21.462827198441776 43.20176943895104 19.544208610003174 0 2 0
491 1 4.055113724276348 8.089758268702184 16.150725977055874 0 1 0
3508 1 4.636581821122958 32.9193488778172 17.77981631696928 1 -1 0
3519 1 7.150150590040031 7.4029005999058395 14.37169332175649 2 0 1
2503 1 0.38317516671556484 39.942317214067565 16.75225361569558 0 -1 1
3642 1 8.562296739555695 0.10286009261746351 17.475755605772513 -1 0 0
6061 1 19.524155495683594 47.12918477548301 15.226528550490626 2 -1 1
2780 1 13.960659459664749 2.9359155136078794 16.922076406905298 0 0 1
4037 1 16.189508996733345 11.2729750701458 8.392635057601854 0 1 0
2588 1 24.113399415376744 1.9382672252254005 10.653481115266619 0 0 0
3961 1 2.9678297762229424 47.83377749209188 20.075334191402415 2 1 0
3306 1 20.498163600563707 42.26009722405823 11.00115581425908 -1 -1 0
2497 1 9.655426336616129 48.5327811388603 12.698260314540342 0 2 1
3058 1 20.180579723792075 1.6534425981079752 9.314450414296088 -1 0 0
6278 1 13.060272780822253 7.705147957231173 13.701183304728112 0 1 1
197 1 3.9380252854180036 5.749116407423113 10.48116317142649 2 -1 1
601 1 10.56551277026673 2.6246276587854864 16.875098004542792 2 1 0
3323 1 1.9240780862379456 48.37465857511896 7.394690906002406 0 -2 0
2600 1 8.181144448173784 3.8651632470455435 16.157873442812203 1 -1 1
3481 1 3.1661223908865814 10.19523463226479 8.339752028429299 1 -1 0
3245 1 12.653368822448838 14.118124024256955 12.403043418349034 0 0 0
3466 1 0.644309539188978 20.28952012838058 10.876567989995731 1 0 0
5986 1 16.857920475144486 6.239833960524254 5.068983483203676 1 0 1
2818 1 11.082531614056034 9.74145535345226 10.484209414914337 0 -1 1
2915 1 14.777825202092796 5.829346835800176 14.979233325480523 0 0 1
3442 1 18.793727099122595 5.224000334447338 7.072856398146578 0 0 0
276 1 22.58821181594965 12.270310585121688 6.451647359592815 0 -1 0
285 1 21.506560791930365 3.5170235952433972 10.791444251887684 0 0 0
5732 1 22.35809867682068 15.934695044652033 8.170222014935876 -1 0 0
3716 1 22.85660693724669 13.283448136225886 10.893928936820894 0 2 0
3315 1 1.0266128389295275 21.21453404499642 20.159099185421407 1 0 1
4201 1 12.27017463930964 4.788837668302845 11.914141084205632 0 0 1
3336 1 7.127516521036728 12.739280635072417 9.934246461402317 0 1 0
5921 1 3.78124177156731 6.430690568449629 7.779166663983303 1 0 1
3711 1 0.35600017788603866 26.717447359941655 13.187911439548888 0 -1 0
2909 1 22.894155552118193 39.21550152968062 12.965527365345723 0 0 1
6204 1 11.80827953300834 9.540359954430734 7.816956169457695 1 -1 1
6345 1 16.09054710894436 8.473501375620136 17.74234209419821 0 1 0
3578 1 22.97706005802322 7.116622690025364 12.011002157139616 2 0 1
6195 1 10.487741141066872 12.806473448839373 11.03777312292008 -2 -1 0
2881 1 21.761618544849323 9.497102646843215 13.6770768510131 0 -1 1
2868 1 21.394066948686937 22.04581547899869 6.127374938391448 0 0 1
450 1 10.583814712230938 19.662833694114394 4.740662374678837 0 -1 1
4260 1 1.888573211421645 36.37757026299342 13.167640227489942 0 -1 1
768 1 4.946547333042444 15.072845078077288 14.73291923882211 -1 1 1
5787 1 9.968165357001109 15.24555542234963 8.281900709395625 1 1 1
211 1 6.2342706298312445 15.51854369321241 10.684141962268644 1 1 1
708 1 2.8685926112344826 12.967707358218973 16.042045225640983 0 -3 0
4135 1 21.105767746739968 40.36234193033654 18.666166499197256 2 0 1
188 1 10.360429087930637 17.150280178683133 15.79716197625327 -1 0 0
61 1 16.34055344014325 2.659500958273039 18.530682360570584 0 0 0
3035 1 10.439072023326931 6.885433646410647 11.008418141355186 0 0 1
6220 1 17.042479127176225 10.592415696693172 14.15012107948365 1 -1 0
3811 1 18.656141779967868 19.743751160431444 19.015422668628304 -2 1 0
3190 1 19.555854058787794 9.269292441193603 9.447322038217916 0 0 0
4303 1 24.57308337022536 13.769630990278506 13.696139860071789 0 -1 1
3165 1 13.86080865140982 16.571403468673637 10.023010746877278 1 0 0
2754 1 19.154934521191567 8.803385451284626 14.886649051370677 0 1 1
3211 1 16.73391572005423 11.659160347377803 11.08298475145301 2 1 0
6284 1 17.918773707742897 43.19803904813503 19.571076705344815 1 -1 1