LAMMPS data file via write_data, version 29 Oct 2020, timestep = 100681

4609 atoms
1 atom types

0.0 49.22 xlo xhi
0.0 49.019635930410494 ylo yhi
1.5241874577638583 58.53781254223615 zlo zhi

Masses

1 18.015

Atoms # atomic

44 1 21.277514086975817 28.86915752994525 2.069699785183003 0 0 0
797 1 4.031738180147979 46.708947379379325 5.38692668906586 0 -1 0
1140 1 0.21593141862946763 13.343769061675331 18.53985059474878 0 1 0
742 1 6.715266875810689 3.066617601570474 4.751843358603184 0 0 0
293 1 13.374628772055791 3.1636036178265363 2.4873579702414323 0 0 0
4279 1 17.40741932068719 1.384228971513818 3.8975412623197445 0 1 1
3034 1 19.478399028070054 0.7800554980579888 5.748165230992639 0 0 0
3963 1 21.66929227076942 2.265932602766921 5.5763650871315305 0 1 1
1573 1 2.0790417276219513 21.697453979320056 14.239949275466929 0 0 1
2301 1 4.660546025828726 5.44145114905766 4.170324213971853 1 0 0
1922 1 7.84031357457738 46.893342995866846 1.700418715427727 0 -1 1
1038 1 12.067697388968346 6.852117754949811 1.8309675403191583 0 0 1
1934 1 14.997605796039498 2.755523556211293 4.943067122593383 0 1 1
1716 1 12.362475588904358 6.312567711714394 4.463368737410583 0 0 1
2103 1 24.229182905179936 36.171114004732 15.097191177463145 0 -1 1
2819 1 1.0412306383048482 42.90652902516279 17.031819571330033 1 0 0
46 1 4.602768216484552 7.0996677408365185 6.5697685892418045 0 0 0
4590 1 8.055226634324887 1.8598881196899526 2.5557265652624315 1 0 1
2215 1 23.31831209687507 46.569094150937744 2.09182442104824 0 0 1
679 1 1.0759289649009462 33.14348526764184 14.232867039717013 0 0 0
2946 1 9.536273519804864 7.675393156570855 4.810191094380665 1 0 0
4549 1 7.914946962793875 7.707500719971317 2.333574248403634 1 0 1
2172 1 15.11292167710304 5.841058121538687 4.5743384502753095 0 0 1
725 1 18.97229265063684 6.3576179983292045 4.068188413687579 0 1 0
2940 1 21.25994752851389 4.330515634814638 3.6445914453439783 0 0 0
606 1 24.116229710455396 6.154701478842727 7.535254198291896 0 1 0
100 1 23.371054443757444 26.262445197274936 14.693136677618545 0 0 0
462 1 5.55764061055218 11.444596525493997 5.371652909399847 0 0 0
2952 1 8.047582955813153 12.080285631727016 6.075930165705973 1 0 0
707 1 8.925324140789229 12.679685548428951 3.5587994329980934 0 0 0
451 1 12.495994260947338 11.330498257706775 5.206378269384414 0 0 0
4291 1 15.116786759075694 11.998048571949957 5.027717714909149 0 0 1
694 1 15.974269470746929 7.711282846877031 2.2252459260317297 0 0 0
1092 1 22.07635748578666 9.013577466194938 2.1771824042589003 0 1 0
2897 1 1.9572097189111224 14.610473032712207 3.6593739093190285 1 1 0
3953 1 1.1172036087387343 11.482293589724819 2.8932698843611777 1 0 1
3071 1 24.47101415671001 12.52355262656925 14.243878390471725 0 0 0
156 1 13.087435988256336 14.848445201888248 2.766843568070618 0 0 0
4321 1 3.485870359444348 31.33111500051212 2.063291412644087 1 0 1
749 1 15.606061008832567 14.162873266889246 3.2299443652630035 0 0 0
1406 1 24.31244441638025 6.634474830189632 18.882136584324247 0 0 0
1025 1 11.245500462872045 33.76377747034769 1.6282255301499766 0 0 1
384 1 18.37177211225173 0.8236416485419298 18.386807025251937 0 0 0
2226 1 5.267366006804443 14.857962983206914 2.301934184591841 0 0 1
1883 1 8.026339205816443 15.067351902293575 2.430050646567757 0 0 1
1803 1 17.50644435935113 15.551039679418542 4.463618454192798 0 0 1
129 1 20.19842832265941 15.196668421889598 3.6977106594108364 0 0 0
381 1 6.37454271380543 43.343812249609186 2.3697455809918164 0 0 0
3403 1 0.807524872441143 45.719469495043384 17.7760452329594 1 0 0
2155 1 7.0891906860811735 18.115970160658787 2.623824743577163 0 0 1
617 1 13.571675865626236 19.271986810544004 2.6346566988496063 0 0 0
330 1 20.255543892181294 38.179314156899636 2.122144174033555 0 -1 0
374 1 17.46302516478589 18.509008666951864 4.104888754893876 0 0 0
408 1 23.0642578437909 19.235813204328224 3.4719562288138763 0 1 0
644 1 23.406084299401204 23.168443148649576 3.157467606110183 0 0 0
1132 1 24.5784437071511 48.70910459812913 14.920160587724702 0 -1 0
3641 1 6.318174455859805 20.353924951756436 4.373172768029969 1 0 0
2924 1 8.582845289002517 24.643260524527726 3.6510795508821667 0 0 0
2076 1 6.141275547271914 23.31014622993634 4.092903163703717 0 0 1
1645 1 5.2128658115109054 25.173385516084036 2.239659520908069 0 0 1
2741 1 15.084603027677218 22.585717340997153 4.182784536221591 1 0 0
2158 1 17.006872701715956 25.88671835577817 3.4392258190717606 0 0 1
2488 1 20.84771275337685 23.87803519621073 2.060503322517582 0 0 0
234 1 2.842751540783096 26.746093262033273 2.3622354054399395 0 0 0
3942 1 14.272618424044321 25.475320120249066 3.9772623864313523 0 0 1
2749 1 12.582501826750224 28.072773891720797 3.2691238327246714 1 0 0
2329 1 17.552563149390494 28.807725274471636 3.9513956845716085 0 0 0
692 1 22.721393862667018 27.624529770951046 5.06534392034634 0 0 0
2943 1 15.995609590978473 17.92271896545316 1.645461198385834 1 0 0
3101 1 3.6332188272590407 7.839830262028886 3.1909025444586625 1 1 1
2911 1 5.284652434021325 29.5176033711466 3.217283809644384 1 0 0
3184 1 10.096504747905202 28.3849691841149 4.6247104208507395 1 0 1
562 1 11.259974746032618 31.269836196402355 4.980070267609322 0 0 0
2979 1 0.32255533997445085 36.559575050173024 9.576937718043478 1 0 0
724 1 19.870233798189954 26.884300134821853 5.7607804531253715 0 0 0
4594 1 20.62369583670349 46.069016959583486 2.6905071835411185 0 0 1
3862 1 23.950574076333346 29.76074079151131 6.2937271786625555 0 -1 1
2163 1 5.953251295075868 5.565177188162546 1.5711374981476647 0 0 1
1035 1 5.473395229972514 33.38571037045874 3.868071852943465 0 0 0
586 1 7.527149315158206 30.92397720161881 2.402313992987822 0 0 0
375 1 8.711860431296026 32.483732734050946 4.482541845154977 0 0 0
2629 1 11.709810168290323 30.820262589307646 2.08443846650848 0 0 0
2389 1 19.685310179202972 30.85721036404953 3.390262849145968 0 0 0
594 1 22.542663677270316 31.440114083797322 4.037308364583234 0 0 0
2168 1 3.8004540614343805 35.715784874989545 3.671955241478155 0 0 1
1844 1 8.922401837173698 34.76693477513849 3.2623259681164667 0 0 1
1549 1 8.036599718963673 36.45658770973741 5.765941695599033 0 0 1
2433 1 11.003153821130002 34.52051312340211 5.949285288829678 0 0 0
1678 1 17.947353065884396 35.31325192569 5.200486407410401 0 -1 1
98 1 16.661701008766073 36.292501780458785 3.1906639600531594 0 0 0
4065 1 20.716053523176658 36.05632191510725 4.321104528772355 0 0 1
1504 1 22.626059155436998 34.178667040407525 4.51696354928835 0 0 0
4363 1 15.465667125150112 34.34897503473462 1.735908247596034 0 0 1
4567 1 2.6443018375338343 38.857791343195416 3.139485494835661 1 0 1
398 1 5.683385703835595 37.59717434783366 4.968495723552774 0 0 0
4213 1 6.393381098593025 37.48070894674658 1.73114684921559 1 0 1
1674 1 17.983979304692742 22.670408001982285 2.4527616294876218 0 0 1
2321 1 10.859105727907425 37.1986312474719 4.620537135375197 1 0 0
159 1 13.676026187429647 36.461062856947436 4.4369611819355 0 0 0
1995 1 14.575592335081392 38.61129311333044 2.514458091114003 0 0 1
4037 1 17.622020147570634 39.56232872837762 2.6416431344602964 0 -1 1
1308 1 0.5410626735281261 27.220307140487968 9.42567713078116 0 0 0
3486 1 19.82048679211905 45.562494545318025 19.258437718351264 0 0 0
4134 1 6.848732750840941 40.712722028658796 1.564986461629866 1 0 1
4353 1 9.77847029549558 41.69901060785326 3.0807507750433327 1 0 1
92 1 12.920516479037543 44.93914087666956 3.808622506186045 0 -1 0
2755 1 13.421009439656556 14.405471226898763 19.05699053756551 1 0 0
2783 1 1.010986868111004 13.584774059892155 7.853306023726038 1 0 0
1565 1 19.38689672137697 41.96050091814334 3.115091020780476 0 0 1
2667 1 0.5257848255486413 32.11482879149999 9.957734236178029 1 -1 0
2554 1 23.177884299117437 43.16553154514318 5.087076600325137 0 0 0
2145 1 3.1283753162423333 41.7115412378414 4.250018678997448 0 0 1
277 1 4.062433581223422 44.47971294140894 3.454926719236983 0 -1 0
21 1 8.725083006598174 44.667653710058936 2.935575703788759 0 0 0
1493 1 11.353606261432374 46.269518956812064 1.8750832179635928 0 0 0
4080 1 15.359035167304032 43.478294308715306 3.5182009581924545 0 0 1
3066 1 18.104223352027724 44.21465110958913 2.6277005428350515 0 0 1
213 1 9.875214424042214 22.39630863611746 2.498966123530548 0 0 0
533 1 23.091482122547454 46.02182123266406 4.909237509719163 0 0 0
4155 1 6.123555306073185 47.816095277512325 3.7113766215505177 0 -1 1
128 1 0.43488431257924537 18.45812977019125 12.403621548659933 0 0 0
2882 1 11.660494255725553 48.89679639125364 3.657880962341121 1 0 0
2237 1 14.575012787367422 47.40243440003313 2.4876947322955907 0 -1 1
1784 1 20.436932990479782 47.271693285312736 6.097995455399712 0 -1 1
535 1 24.063528942590104 1.0971656556465028 4.575596949593136 0 1 0
3805 1 3.175396305464103 0.9176298628396602 4.345088184969917 1 0 1
3896 1 6.2006137709739715 0.38484330540665784 5.916467406139326 0 0 1
738 1 10.698527831147938 2.9399374473295112 3.172693497870472 0 0 0
2901 1 15.367757978565441 48.6423028511519 8.258449204407597 0 0 0
415 1 18.92797471976961 1.642568645916264 8.338174147622226 0 0 0
1095 1 21.96750890403831 47.028643516191195 8.459233741133314 0 0 0
2107 1 2.4706398059222123 3.732800329657645 5.343855167658206 0 0 1
431 1 18.824218630197482 12.356572154453541 19.83137477474774 0 0 0
1946 1 8.610944892276379 5.051702860869064 5.478172680035997 0 0 1
1600 1 7.494214953984639 3.4402166010474153 7.832634192247894 0 1 1
778 1 11.27602339663153 4.197369484182905 5.9164721410690655 0 1 0
2135 1 13.055803154598838 4.1688406432382985 9.644804779614805 0 0 1
185 1 13.30013089585407 2.0867030971886478 7.109655259073547 -1 1 0
1736 1 16.201543327634987 2.2384612241067248 8.152700614336435 0 0 1
1636 1 23.2474227911062 3.508274749186988 7.679303582035344 0 1 1
2666 1 2.90273983295816 6.575218490686018 8.641222012169774 1 0 0
363 1 5.732211590572156 10.174799803493967 8.873171892606512 0 0 0
36 1 7.085530740220619 6.9565554532756035 7.435698020296951 0 0 0
4407 1 12.563193440618175 8.454745815484598 6.308578056421445 0 1 1
902 1 16.431926863276907 10.199018682476826 3.8652819596613566 0 0 0
3197 1 15.540049072307523 8.60331845777019 6.082217442366233 0 0 0
1967 1 20.215224334653843 4.073695491347775 8.304790606779981 0 0 1
665 1 1.4587563732184219 9.34737026327846 5.191671263891772 0 0 0
3442 1 3.362638973999378 9.870495185193562 6.900222470982615 1 0 0
630 1 8.58025751972558 13.829470559562658 8.323622913434363 0 0 0
1884 1 9.721965543196898 9.963682719513733 6.351079679301311 0 1 1
412 1 20.21583868834396 8.757449950073356 4.08508043888259 0 0 0
2355 1 18.98458164621952 11.440574572842614 4.6993390328154705 0 0 0
2843 1 23.15936879243743 11.231968629860555 5.917987067118201 0 0 0
2635 1 2.249932314939954 15.680311732076754 6.0550891787729615 0 0 0
490 1 3.786162445578063 12.25686396123423 2.5447889717241203 0 0 0
769 1 4.801372439534992 14.016308865606309 5.163546917822037 0 0 0
2458 1 7.197207732414653 15.629566325743012 6.627703306863122 1 0 0
626 1 11.375673439761425 12.887403897042049 6.922838739966752 0 0 0
581 1 11.880971898945567 15.21761512914659 5.298793235944753 0 0 0
2045 1 15.712831655280903 13.317945275275575 7.732669099632931 0 0 1
763 1 16.619453273176333 15.942453109316775 7.242117684827048 0 1 0
471 1 19.37986870965552 12.787271591885 2.0889820810022304 0 0 0
345 1 20.280416490288427 12.522997384797966 6.682108859287687 0 0 0
1919 1 22.319827502992137 14.017973521840277 4.990412381731074 0 0 1
2184 1 12.92876853757432 33.769110193445655 4.039336950559821 0 0 1
4601 1 1.4338963011202626 18.318513396466535 5.628683049510096 0 0 1
2232 1 2.8652472442843515 19.855972261246695 7.540637904324231 0 0 1
55 1 9.026161213856339 16.154890211410326 4.725991146713721 0 0 0
282 1 13.936406363083968 16.629362953033976 6.2024472461161615 0 0 0
614 1 20.342502324825844 18.248722535214025 3.7369334129226957 0 0 0
2688 1 21.84066275119531 37.03271828688457 13.28531462455539 0 0 0
413 1 5.589404729863065 20.091582306847815 6.864237858939931 0 0 0
2516 1 10.905100833148596 20.38920410983855 3.809679118010801 1 0 0
261 1 8.92700603956244 18.893959223339834 5.077121246573057 0 0 0
2840 1 14.080776929954936 19.322936203907567 5.430162818490823 0 0 0
657 1 12.191661255717845 19.56762276020979 7.699941296892604 0 0 0
1911 1 16.364038694499307 20.45841769091805 5.893354463082118 0 0 1
2878 1 20.67951189331051 19.03541232436503 6.35402985678834 0 0 0
1590 1 21.941834392426653 21.25102677015377 7.020475581428034 0 0 1
240 1 14.855693602430511 45.901991558374526 19.178952317543214 0 0 0
189 1 2.138695884748994 22.628227801822 5.330868408125899 0 0 0
1695 1 2.8926854585820774 20.3945682567571 3.8682478747320816 0 0 1
1121 1 8.634880173778424 23.598561585135773 8.192737687118273 0 0 0
1508 1 12.415679655593967 22.03543141289394 5.63300329442017 0 0 1
2187 1 13.009714463246269 23.59570877169326 7.893933878748605 0 0 1
685 1 18.177903767160636 23.162730913048968 5.480314675856427 0 0 0
2518 1 20.874226958805497 23.325028673567488 5.488262148097652 0 0 0
7 1 22.06291945907318 25.359276335653558 7.244115242702404 0 0 0
132 1 2.529670761523801 25.401243543476145 6.175200707401689 0 0 0
1691 1 5.399466239754797 25.337185472537342 5.957502031496514 0 0 1
505 1 9.984896270572525 23.921135136676956 5.842237980999672 0 0 0
2430 1 10.94223189629887 26.426867582757488 6.493893021135593 0 0 0
337 1 13.741928157511866 25.814588861835176 6.607766865256178 0 0 0
4052 1 16.92843552499349 25.882138150511867 6.136065909398954 0 0 1
2311 1 1.7365569544415755 27.68112612579146 4.616654201126014 1 0 0
4013 1 1.5864079113144596 30.3086931330253 6.12782478918717 1 0 1
263 1 6.851741109523154 27.288150354975446 4.76213247042276 0 0 0
203 1 6.882490586354023 29.08776901315566 7.193042956828836 0 0 0
684 1 9.291976586553572 30.168751492199306 7.047688121225096 0 -1 0
1484 1 14.592750561632924 29.455826020265945 4.492991675608978 0 0 0
354 1 20.07149614980433 29.212788968416724 7.333159248802818 0 0 0
730 1 22.66291296225195 30.771418904589208 8.636039381792294 0 0 0
1613 1 0.8755268124541655 31.77889520555142 3.6773863913333655 0 0 1
3005 1 3.3523092075776386 31.872454372357094 7.436584082497238 1 0 0
323 1 5.376159890630706 31.029471626601154 5.751234894062986 0 0 0
4300 1 6.901405222602919 33.80256574299842 6.513854289053114 1 0 1
175 1 9.069693353618657 32.923675248015535 7.932880547944254 0 0 0
3909 1 15.120123539637994 32.100645415139226 4.099082889415042 0 0 1
892 1 13.225757782454936 31.086260250010778 7.213843453510681 -1 0 0
4331 1 17.719650200259196 32.7517417282214 4.82159609213705 1 0 1
551 1 22.189049428946248 33.261514529571095 7.515411338203681 0 0 0
2536 1 2.2959554157267696 34.05011546964681 5.468602037705805 0 0 0
3055 1 15.096386286757655 33.243311999134576 6.804771059778839 1 -1 0
292 1 20.158133889976185 35.43986440454892 7.309534020808581 0 0 0
952 1 24.135401961590382 34.864200234052056 9.060115144251178 0 0 0
4191 1 2.4372951203164606 38.84952407654907 6.268239430342121 1 0 1
1532 1 4.509205466094699 37.525621117704986 7.326128038760054 0 -1 1
2580 1 10.247375938837589 39.969283790466676 5.479749718868811 1 0 0
51 1 9.929415703280212 36.70107254154479 8.013770886198166 0 0 0
4577 1 12.869486823168863 38.28337679953074 7.869109883460574 0 0 1
477 1 15.82538625353978 36.56656658371968 6.622084418151901 0 0 0
409 1 17.629536222580466 38.942439642265775 5.235926029746771 0 -1 0
1816 1 20.51626442191145 38.912174433695995 5.825236796283731 0 0 1
2677 1 0.5940469258790868 22.539828324495517 2.799588908974031 1 0 0
4195 1 23.295267990995956 40.448845913253315 7.227849959158309 0 -1 1
1316 1 2.325383634610405 42.24396241218359 9.41794149358105 0 -1 1
1597 1 4.2054363062635165 41.34310253566684 7.093053009389474 0 -1 1
3814 1 7.310580454440982 40.71757479271127 6.038260366096136 1 0 0
1014 1 12.477602608496973 41.98826920767863 4.537040677591513 0 0 1
262 1 13.934831480450908 39.70085726155768 5.5030409349587766 0 0 0
1628 1 16.14751502343778 41.65951010411687 5.7295069084811345 0 0 1
2888 1 21.402214557061434 40.8032287299606 9.85787210775816 0 -1 0
655 1 23.443077809461478 23.586297630446932 20.26516891753214 -1 0 0
2912 1 0.1870293338428977 20.07369190564207 19.535926201720326 1 0 0
3004 1 5.376602115614616 43.24153165529535 8.75476819731792 1 0 0
4399 1 8.31128037200733 43.054160938837356 7.481599236692078 1 0 1
3978 1 8.30102240853803 45.368118070512935 5.837341782422518 1 0 1
1872 1 9.82909152994209 47.169745821190844 7.0928447859078325 0 0 1
2354 1 11.02540056188922 42.09093693586896 7.417880008775817 1 0 0
1854 1 12.407332745443755 46.23648281082496 6.463387363198664 0 0 1
2108 1 20.68044778014868 41.726275117370015 5.454593260750631 0 0 1
721 1 19.274234034380424 43.56333138163701 6.9058105729735075 0 -1 0
4234 1 21.515531054601645 43.877940497397184 8.64766528228062 0 0 1
1173 1 17.570885670349618 47.371633999504375 19.99822294338839 0 -1 0
549 1 0.5339069011936111 0.07108545575037375 6.698199421478886 0 0 0
103 1 16.731501799367642 26.07081036928909 20.28490332746799 0 -1 0
2890 1 1.1153629805910323 45.891598171768884 6.165431750836772 1 0 0
1359 1 3.259178178653286 48.856556093675934 7.330648483644085 0 0 0
481 1 7.809588858400979 0.6704890300836273 8.624206511508788 0 0 0
59 1 9.26961702733636 0.3384989306984058 5.2218935012342325 0 0 0
1620 1 16.397582185581133 47.99334347234377 4.6533059069830305 0 0 1
640 1 18.130728846588035 45.66219940351615 5.321238785733371 0 0 0
1511 1 15.544396800803884 45.93198595781532 6.810770876901185 0 -1 0
75 1 8.022038765797413 10.664012082900113 1.8513201818699567 0 0 0
3399 1 2.202247308454886 3.492960709150589 8.806785890019732 1 1 0
4557 1 4.305669084127028 2.678760484358073 7.06626584163676 1 1 1
459 1 7.27281266576462 1.8765403042798774 12.215496758575545 0 1 0
2333 1 10.474756597877473 1.4412927472975443 7.614953985752168 1 0 0
344 1 13.460772548587288 48.7369250441909 5.643083116183133 0 0 0
3108 1 12.633534261291064 48.20440581934143 8.99958469742695 1 -1 0
2177 1 19.850392412916847 0.42817970669660854 10.572767609387943 0 0 1
729 1 21.598293817740323 47.56470471258471 11.764349915394888 0 0 0
2134 1 11.60744973959767 12.486445121297448 2.8727344930697116 0 0 1
241 1 4.312234648007395 4.597418967891071 10.731560156155217 0 0 0
359 1 10.404510141558344 4.292535573728412 8.86155041361772 0 0 0
1009 1 9.833010262803546 2.6159407282588303 11.1648312606764 0 1 0
2046 1 18.107143090326378 7.297395778352637 6.516167659881483 0 1 1
1614 1 16.285991925525945 5.0388930356939055 7.047064740744665 0 0 1
461 1 0.35359603781315435 5.699007907073539 7.28768582090654 0 0 0
745 1 5.344158884553817 9.28189023810804 11.386490417589801 0 1 0
2293 1 6.813968807433342 5.2160652208239116 9.846985045837416 1 0 0
1855 1 13.301753984572112 8.022823904005884 8.941741729661722 0 1 1
454 1 10.64557940490536 7.082547690438514 9.385696410714079 0 0 0
4121 1 14.931336586987777 6.065269624560109 9.140788417737374 0 0 1
2399 1 20.227927945238914 7.1451192836847595 8.582401786831594 0 0 0
2064 1 10.07702780133514 39.44917144593359 18.271507493285256 0 0 1
2003 1 20.517757682149494 20.864128234246095 1.8548667678110966 0 0 1
2848 1 2.9678876915776002 11.999623329794625 9.403641713584985 1 0 0
163 1 1.9097541495808354 10.651939575488598 11.705048701256029 0 0 0
2894 1 8.598427224436454 9.058302253040928 8.55165773449507 0 0 0
741 1 8.053922388469001 9.309409204001453 11.2508384017348 0 0 0
1008 1 14.192440799224123 10.274820303167475 10.070702027697148 0 0 0
2814 1 18.925769243929594 9.914605066092044 9.272759973627725 0 0 0
1335 1 16.410489945026196 10.493369261155646 7.990136360024685 0 0 0
2705 1 22.086718081074487 8.188833589654825 6.274934559696057 0 0 0
525 1 12.713180686874944 44.51476160169001 20.519827292165562 0 0 0
4118 1 0.8183070838095677 36.76147244798104 5.572351692699309 1 -1 1
458 1 5.767241880397916 12.931780565259585 9.37933377262482 0 0 0
632 1 10.203315951899931 14.127398374480377 10.809628692700812 0 0 0
4570 1 13.17144492707603 12.617854296134164 8.947104677696458 0 0 1
1491 1 12.801713929014767 14.69750985762347 10.298144392627457 0 0 0
780 1 18.32648784691212 12.821424582849305 9.042471669211203 0 0 0
545 1 21.60408688466832 10.412977436867623 8.316269409021569 0 0 0
1198 1 1.0534865471148986 18.15360042226831 9.464677907865052 0 0 0
1271 1 5.664966038642692 17.53510217931572 7.928847867642228 0 0 0
506 1 6.643746935812519 18.174524314183724 10.483539499868922 0 0 0
77 1 8.811567660067881 16.740207251752242 9.518852288372376 0 0 0
168 1 9.671106287574737 18.781886247124365 7.677396481014478 0 1 0
314 1 13.118032916514338 17.182158175398385 8.86986835588431 0 0 0
2930 1 19.39288564643727 15.282079192794502 6.916659801228726 0 0 0
1810 1 21.360064665783476 16.856535503891223 8.142627409708414 0 0 1
2547 1 23.496941375204255 16.07910285225624 6.665922082506782 0 0 0
2685 1 2.9917761991269147 20.782118870181424 10.252677734844905 1 0 0
781 1 4.345423304245076 22.66774326322831 7.702727791277153 0 0 0
1333 1 7.935516676218015 20.760312573082203 9.267512117448664 0 0 0
297 1 9.069207597305251 21.684677957788296 11.600128169607505 0 0 0
633 1 12.381725469990284 21.404545454022266 10.392036171105863 0 0 0
62 1 16.01473669026532 16.941942450747998 9.937220418409728 0 0 0
697 1 16.276276182114625 20.1996213969412 8.36588249130661 0 0 0
200 1 19.102280968060924 19.698293380028886 8.675925749565362 0 0 0
276 1 21.86886183099838 18.77425306437433 10.279068232413461 0 0 0
3047 1 1.7542910160076304 24.668065396863785 8.823700225963371 1 0 0
171 1 5.551041609200774 10.35334651642694 2.860106785743735 0 0 0
3153 1 5.521767814323624 22.184680463804128 10.266548547119402 1 0 0
220 1 15.247734845280547 22.708028512810728 9.473816875349623 0 0 0
1715 1 17.39459908614303 23.81828706495734 8.235097750113681 0 0 1
455 1 19.685800996362783 24.382484655902196 10.063611474821727 0 0 0
1852 1 6.332612119319187 24.960721581615857 8.502213665367698 0 0 1
4051 1 6.745298462199488 27.501085513356536 9.700656495233378 1 0 1
2479 1 10.521911289909852 23.854454939426383 9.954943091358453 0 0 0
326 1 10.779138741634984 27.087823222002385 9.53668743477821 0 0 0
2737 1 17.155968492560422 26.226399410260285 9.893869722197831 0 0 0
88 1 21.40199489357073 26.50927296983559 9.663319685555438 0 0 0
1348 1 23.58220310506303 25.417553823252724 10.94700902431771 0 0 0
2018 1 2.572422761369534 28.192760011938386 7.8114108583835575 0 0 1
111 1 5.083799042599614 30.448179925403867 9.187120008169117 0 0 0
1118 1 10.935199956041247 29.81161246254738 9.084779316493643 0 0 0
411 1 14.592743770524466 28.546787622494385 6.975061242370776 0 0 0
1542 1 17.067610297140764 28.624517514484666 8.14345799473434 0 0 1
1082 1 17.451635617230416 29.986446094753237 11.054316111693222 0 0 0
3031 1 21.51665092828735 29.306639634224016 10.45668502128049 0 0 0
4451 1 20.032879942782227 30.862578118082595 12.034616771480838 0 0 1
1001 1 11.196756199700804 47.41782834728462 19.88813645763246 0 -1 0
223 1 6.2168450540287425 32.21989661657899 11.148055461099464 0 0 0
3258 1 8.723125505976379 32.35557823947515 12.821958555041618 1 -1 0
2219 1 9.038139213425483 34.13097744534032 10.573423673036427 0 0 1
379 1 15.974546899199229 31.975228521922354 9.667490475956894 0 0 0
3820 1 17.671305513959485 31.389181301453387 7.514785002475093 0 0 1
2524 1 19.698896229164273 32.70227972920189 9.247967776242458 0 -1 0
1656 1 10.58240547414971 5.406365647302453 19.872528805510175 0 0 1
243 1 1.828434779321086 34.41086469448653 9.60546280118601 0 0 0
690 1 4.2738210545913535 34.72538933531185 7.706963403657954 0 0 0
2298 1 5.204122541042022 34.78729633173664 10.583787834362049 1 0 0
112 1 8.932002561394695 36.93602013189341 10.744550107410943 0 0 0
82 1 16.407010181852208 34.249702779748674 11.16359633094609 0 0 0
4324 1 19.04430966915928 35.161201618358774 10.719503502239146 0 0 1
2970 1 21.974323102834532 35.54663123171075 10.873541045108553 0 0 0
1246 1 24.133142725978715 42.724740991231826 19.449420564651835 0 -1 0
4209 1 1.4092861823225589 39.28396434100993 9.10611390296896 1 -1 1
4178 1 6.57381830412319 39.21515024968828 8.414407000354045 1 0 1
3865 1 6.10551555293671 37.45583440036456 11.17712035292075 1 0 1
787 1 8.192021916266532 40.33317666191591 13.08620635223733 0 0 0
493 1 12.995925806575107 35.165791371312864 7.703382948461007 0 0 0
3459 1 12.939143635715446 36.73838071976447 10.981400870482478 1 -1 0
1708 1 15.90333920795761 37.22818638793071 10.681186144651628 0 -1 1
52 1 15.763908068901436 38.8859825723282 8.33928458039782 0 0 0
2733 1 21.018006470076248 37.92504859839478 8.186098070503466 0 0 0
1072 1 18.602915855713555 38.77719310291719 9.878614516810593 0 0 0
669 1 23.77415143842249 8.73167367449503 9.071394449605304 0 0 0
2958 1 3.849831224348435 42.93249775410961 11.90523108889394 1 0 0
668 1 2.439295544912411 40.27364287821985 12.064250924184837 0 0 0
300 1 9.573532409483994 39.64353002235722 8.511425633301702 0 0 0
2436 1 9.125752170200784 42.22835218285504 10.435174032831348 1 0 0
2110 1 12.571770304141916 40.69555726780581 9.393397568900621 0 0 1
229 1 14.963760078420936 41.71836565880808 8.463784541197036 0 0 0
2118 1 18.7391876702536 41.3998564027078 9.107333790240968 0 -1 1
351 1 23.771963491028135 38.48360746989293 11.881727620694868 0 0 0
3838 1 1.3487145873806663 44.65817972127784 8.737945290912982 1 0 1
777 1 6.145892344372732 41.18733218816072 10.418371495491556 0 -1 0
1181 1 7.964551783771772 44.78096722917329 10.973774456371252 0 -1 0
1867 1 13.292680230845683 44.06698736286136 8.156642930365036 0 0 1
2522 1 17.0188855190085 44.331604487630656 8.790505145226316 0 0 0
343 1 20.181613382323206 44.86860215337752 12.266829472848505 0 0 0
3880 1 23.878053747930277 42.26442340211423 11.04416881595534 0 -1 1
2371 1 23.12945507967394 44.70817220538175 11.752915969836849 0 -1 0
4217 1 1.7783229325292802 0.045140305116412094 9.857280821836886 1 1 1
1499 1 5.6544432968261775 45.36536169901398 6.943738936520901 0 -1 0
192 1 5.620239162711705 47.68970885132938 8.550314777573814 0 0 0
99 1 9.329188244074391 47.13476374814819 9.786818252844586 0 0 0
4021 1 11.991620765104301 45.61308332296213 10.373020813206479 1 0 1
2456 1 19.49455697985094 45.88176081958056 9.997240757910435 0 -1 0
160 1 5.211333663557841 1.2658193562993942 10.443935456001446 0 0 0
320 1 13.672913850984866 0.39624675770066686 13.562847482449717 0 1 0
4142 1 22.584944015661307 1.740797795271215 14.464971916794136 1 1 1
127 1 3.401317058912053 3.113660517255929 13.363578279394707 0 0 0
597 1 6.028690048306497 3.4794238974563965 14.13555159263647 0 0 0
3804 1 8.398401966000026 5.050053795397641 12.54744254957583 1 1 0
1751 1 12.221997013859667 3.6626726254141797 12.538209017452438 0 1 1
3847 1 13.346348044217393 1.4276277225802483 10.807659378425296 0 1 1
467 1 15.906247409291044 2.3395701585919544 10.964482203856535 0 1 0
380 1 18.376093375481812 4.906965955015875 12.732573002436768 0 0 0
1599 1 20.438037977784706 2.5113565185612208 12.19778173111337 0 1 1
1567 1 21.35149500407321 4.55086158548623 10.666944778342769 0 1 1
1340 1 1.7813114763684208 7.6970880348445725 12.040023843700158 0 0 0
496 1 4.487849520518983 6.635165778138268 12.54084758092069 0 0 0
126 1 7.164239027643259 6.7624908742199 14.42854434511661 0 0 0
2016 1 10.835172002544086 6.448281709560613 12.04539017591158 0 1 0
1060 1 15.505557048928257 5.284976133801081 12.004370466958893 0 0 0
978 1 13.323926147448654 6.962303704331774 13.303719535723154 0 1 0
1912 1 20.97296624828382 7.2824507152345825 11.688520303075471 0 0 1
2450 1 23.46979563380299 8.653182525363396 12.354211686899284 0 0 0
19 1 0.7218601236065754 6.57337291161955 4.606321996675954 0 0 0
206 1 4.323508758194595 11.117574811511119 13.352296372549342 0 0 0
2693 1 9.485620379975204 8.331532830166704 13.493069499170074 1 0 0
2117 1 14.034514538366869 9.42183883326002 12.763495628978156 0 0 1
117 1 18.933772374787825 9.320344625763463 11.95542883236979 0 0 0
645 1 16.748495533971973 10.151203474094228 13.521157786721082 0 1 0
432 1 20.36215008604307 11.389704440787275 13.055196021480914 0 0 0
598 1 22.79846978148649 11.33347618539185 12.46861788026992 0 0 0
2513 1 1.050154389656501 14.077912438318027 13.084230792905178 1 0 0
1732 1 6.102377701896523 12.985209470877976 12.11662560524651 0 0 1
1054 1 8.551587001210825 11.980999020681006 11.81569903077831 0 0 0
768 1 13.816144631382617 15.241858607708657 12.855831934919646 0 0 0
573 1 21.19801751684659 14.811378563118268 10.222732999356008 0 0 0
2194 1 22.84711689526985 12.649580356381128 10.096755784461696 0 1 1
2083 1 7.791231511946804 14.929804496495198 19.005343709101123 0 0 1
2913 1 3.2040625098150524 16.32597630780524 8.673628721229653 0 1 0
294 1 3.39806604653669 14.80934369296361 11.151967814740926 0 0 0
3021 1 4.938147133448443 16.885485292630097 12.232883535684964 1 0 0
890 1 10.176026042726843 15.61804984610128 13.330793910713908 0 0 0
2148 1 14.482274059370992 18.310222918621626 13.20096402599866 0 0 1
1650 1 16.50641840341532 15.609425569610718 12.387842651146295 0 0 1
2835 1 15.819053129640952 12.855591469351326 11.276400546809056 0 0 0
611 1 22.986257558078616 16.740684443090547 11.857659457639643 0 0 0
4357 1 24.191886317926322 41.440627955154454 13.647487844868762 0 0 1
2025 1 24.080157942964497 10.264566322563635 3.473867986348826 0 1 1
195 1 3.4510719601103346 19.322449568079886 12.882840263140034 0 0 0
766 1 6.239202777899593 20.525996733406753 12.79998278432345 0 0 0
1989 1 10.982417419690055 17.44432296588257 11.35838978628968 0 0 1
190 1 14.370020741214468 19.401278671979163 10.566277741127504 0 0 0
1853 1 17.51791242635809 19.850477924430553 12.973746896266409 0 1 1
2246 1 18.97135592752508 17.70812926080826 11.118236312917315 0 0 1
265 1 20.989098369018187 18.98540529507513 13.50997725152012 0 0 0
352 1 22.364815716720805 9.178736108575714 16.60999770096052 0 1 0
1671 1 5.096375259178244 24.006539250485154 12.073964621271257 0 1 1
1945 1 7.9598213756670235 24.33251864663243 12.379641596938086 0 0 1
3996 1 10.813671947627284 19.889504913206203 12.470717352008334 1 0 0