LAMMPS data file via write_data, version 16 Mar 2018, timestep = 100000

4545 atoms
2 atom types

0.0000000000000000e+00 4.9219999999999999e+01 xlo xhi
0.0000000000000000e+00 4.9019635930410494e+01 ylo yhi
1.7357076750005191e+00 3.1899632111521477e+01 zlo zhi

Masses

1 18.015
2 12.01

Atoms # atomic

91 2 0.0000000000000000e+00 2.8417180249513345e+00 3.2396288959872983e+00 0 0 0
93 2 0.0000000000000000e+00 0.0000000000000000e+00 3.2396288959872983e+00 0 0 0
95 2 1.2305000000000001e+00 7.1042950623783474e-01 3.2396288959872983e+00 0 0 0
102 2 1.2305000000000001e+00 2.1312885187134998e+00 3.2396288959872983e+00 0 0 0
104 2 2.4610000000000003e+00 2.8417180249513345e+00 3.2396288959872983e+00 0 0 0
106 2 2.4610000000000003e+00 0.0000000000000000e+00 3.2396288959872983e+00 0 0 0
108 2 3.6915000000000004e+00 7.1042950623783474e-01 3.2396288959872983e+00 0 0 0
123 2 3.6914999999999996e+00 2.1312885187134998e+00 3.2396288959872983e+00 0 0 0
125 2 4.9220000000000006e+00 2.8417180249513332e+00 3.2396288959872983e+00 0 0 0
127 2 4.9220000000000006e+00 0.0000000000000000e+00 3.2396288959872983e+00 0 0 0
129 2 6.1524999999999999e+00 7.1042950623783407e-01 3.2396288959872983e+00 0 0 0
152 2 6.1524999999999999e+00 2.1312885187134989e+00 3.2396288959872983e+00 0 0 0
154 2 7.3829999999999991e+00 2.8417180249513345e+00 3.2396288959872983e+00 0 0 0
156 2 7.3829999999999991e+00 0.0000000000000000e+00 3.2396288959872983e+00 0 0 0
158 2 8.6134999999999984e+00 7.1042950623783407e-01 3.2396288959872983e+00 0 0 0
189 2 8.6134999999999984e+00 2.1312885187135002e+00 3.2396288959872983e+00 0 0 0
191 2 9.8440000000000012e+00 2.8417180249513332e+00 3.2396288959872983e+00 0 0 0
193 2 9.8440000000000012e+00 0.0000000000000000e+00 3.2396288959872983e+00 0 0 0
195 2 1.1074500000000002e+01 7.1042950623783330e-01 3.2396288959872983e+00 0 0 0
234 2 1.1074500000000002e+01 2.1312885187135002e+00 3.2396288959872983e+00 0 0 0
98 2 0.0000000000000000e+00 4.2625770374269996e+00 3.2396288959872983e+00 0 0 0
100 2 1.2305000000000001e+00 4.9730065436648339e+00 3.2396288959872983e+00 0 0 0
115 2 1.2305000000000001e+00 6.3938655561404980e+00 3.2396288959872983e+00 0 0 0
119 2 2.4610000000000003e+00 4.2625770374269996e+00 3.2396288959872983e+00 0 0 0
121 2 3.6914999999999996e+00 4.9730065436648339e+00 3.2396288959872983e+00 0 0 0
144 2 3.6914999999999996e+00 6.3938655561404980e+00 3.2396288959872983e+00 0 0 0
96 2 0.0000000000000000e+00 7.1042950623783341e+00 3.2396288959872983e+00 0 0 0
117 2 2.4610000000000003e+00 7.1042950623783341e+00 3.2396288959872983e+00 0 0 0
148 2 4.9220000000000006e+00 4.2625770374269978e+00 3.2396288959872983e+00 0 0 0
150 2 6.1524999999999999e+00 4.9730065436648339e+00 3.2396288959872983e+00 0 0 0
181 2 6.1524999999999999e+00 6.3938655561404980e+00 3.2396288959872983e+00 0 0 0
185 2 7.3829999999999991e+00 4.2625770374269996e+00 3.2396288959872983e+00 0 0 0
146 2 4.9220000000000006e+00 7.1042950623783341e+00 3.2396288959872983e+00 0 0 0
183 2 7.3830000000000009e+00 7.1042950623783341e+00 3.2396288959872983e+00 0 0 0
187 2 8.6135000000000002e+00 4.9730065436648339e+00 3.2396288959872983e+00 0 0 0
226 2 8.6135000000000002e+00 6.3938655561404980e+00 3.2396288959872983e+00 0 0 0
230 2 9.8440000000000012e+00 4.2625770374270004e+00 3.2396288959872983e+00 0 0 0
232 2 1.1074500000000002e+01 4.9730065436648339e+00 3.2396288959872983e+00 0 0 0
273 2 1.1074500000000002e+01 6.3938655561404980e+00 3.2396288959872983e+00 0 0 0
228 2 9.8440000000000012e+00 7.1042950623783341e+00 3.2396288959872983e+00 0 0 0
111 2 0.0000000000000000e+00 8.5251540748539991e+00 3.2396288959872983e+00 0 0 0
113 2 1.2305000000000001e+00 9.2355835810918343e+00 3.2396288959872983e+00 0 0 0
140 2 2.4610000000000003e+00 8.5251540748539991e+00 3.2396288959872983e+00 0 0 0
142 2 3.6915000000000004e+00 9.2355835810918343e+00 3.2396288959872983e+00 0 0 0
109 2 0.0000000000000000e+00 1.1366872099805333e+01 3.2396288959872983e+00 0 0 0
136 2 1.2305000000000001e+00 1.0656442593567498e+01 3.2396288959872983e+00 0 0 0
138 2 2.4610000000000003e+00 1.1366872099805333e+01 3.2396288959872983e+00 0 0 0
173 2 3.6914999999999996e+00 1.0656442593567499e+01 3.2396288959872983e+00 0 0 0
177 2 4.9220000000000006e+00 8.5251540748539991e+00 3.2396288959872983e+00 0 0 0
179 2 6.1524999999999999e+00 9.2355835810918343e+00 3.2396288959872983e+00 0 0 0
222 2 7.3830000000000009e+00 8.5251540748539991e+00 3.2396288959872983e+00 0 0 0
175 2 4.9220000000000006e+00 1.1366872099805333e+01 3.2396288959872983e+00 0 0 0
218 2 6.1524999999999999e+00 1.0656442593567499e+01 3.2396288959872983e+00 0 0 0
220 2 7.3829999999999991e+00 1.1366872099805333e+01 3.2396288959872983e+00 0 0 0
224 2 8.6134999999999984e+00 9.2355835810918343e+00 3.2396288959872983e+00 0 0 0
269 2 9.8440000000000012e+00 8.5251540748539956e+00 3.2396288959872983e+00 0 0 0
271 2 1.1074500000000002e+01 9.2355835810918343e+00 3.2396288959872983e+00 0 0 0
265 2 8.6134999999999984e+00 1.0656442593567498e+01 3.2396288959872983e+00 0 0 0
267 2 9.8440000000000012e+00 1.1366872099805333e+01 3.2396288959872983e+00 0 0 0
312 2 1.1074500000000002e+01 1.0656442593567498e+01 3.2396288959872983e+00 0 0 0
314 2 1.2304999999999998e+01 1.1366872099805333e+01 3.2396288959872983e+00 0 0 0
92 2 0.0000000000000000e+00 1.4208590124756650e+00 6.2474713379602873e+00 0 0 0
94 2 0.0000000000000000e+00 0.0000000000000000e+00 6.2474713379602873e+00 0 0 0
103 2 1.2305000000000001e+00 2.1312885187134998e+00 6.2474713379602873e+00 0 0 0
105 2 2.4610000000000003e+00 1.4208590124756650e+00 6.2474713379602873e+00 0 0 0
107 2 2.4610000000000003e+00 0.0000000000000000e+00 6.2474713379602873e+00 0 0 0
124 2 3.6914999999999996e+00 2.1312885187134998e+00 6.2474713379602873e+00 0 0 0
420 2 0.0000000000000000e+00 2.8417180249513345e+00 9.2553137799338856e+00 0 0 0
421 2 0.0000000000000000e+00 0.0000000000000000e+00 9.2553137799338856e+00 0 0 0
422 2 1.2305000000000001e+00 7.1042950623783474e-01 9.2553137799338856e+00 0 0 0
426 2 1.2305000000000001e+00 2.1312885187134998e+00 9.2553137799338856e+00 0 0 0
427 2 2.4610000000000003e+00 2.8417180249513345e+00 9.2553137799338856e+00 0 0 0
428 2 2.4610000000000003e+00 0.0000000000000000e+00 9.2553137799338856e+00 0 0 0
429 2 3.6915000000000004e+00 7.1042950623783474e-01 9.2553137799338856e+00 0 0 0
437 2 3.6914999999999996e+00 2.1312885187134998e+00 9.2553137799338856e+00 0 0 0
101 2 1.2305000000000001e+00 3.5521475311891644e+00 6.2474713379602873e+00 0 0 0
122 2 3.6914999999999996e+00 3.5521475311891644e+00 6.2474713379602873e+00 0 0 0
126 2 4.9220000000000006e+00 1.4208590124756650e+00 6.2474713379602873e+00 0 0 0
128 2 4.9220000000000006e+00 0.0000000000000000e+00 6.2474713379602873e+00 0 0 0
153 2 6.1524999999999999e+00 2.1312885187134989e+00 6.2474713379602873e+00 0 0 0
155 2 7.3829999999999991e+00 1.4208590124756659e+00 6.2474713379602873e+00 0 0 0
157 2 7.3829999999999991e+00 0.0000000000000000e+00 6.2474713379602873e+00 0 0 0
438 2 4.9220000000000006e+00 2.8417180249513332e+00 9.2553137799338856e+00 0 0 0
439 2 4.9220000000000006e+00 0.0000000000000000e+00 9.2553137799338856e+00 0 0 0
440 2 6.1524999999999999e+00 7.1042950623783407e-01 9.2553137799338856e+00 0 0 0
452 2 6.1524999999999999e+00 2.1312885187134989e+00 9.2553137799338856e+00 0 0 0
453 2 7.3829999999999991e+00 2.8417180249513345e+00 9.2553137799338856e+00 0 0 0
454 2 7.3829999999999991e+00 0.0000000000000000e+00 9.2553137799338856e+00 0 0 0
151 2 6.1524999999999999e+00 3.5521475311891644e+00 6.2474713379602873e+00 0 0 0
190 2 8.6134999999999984e+00 2.1312885187135002e+00 6.2474713379602873e+00 0 0 0
192 2 9.8440000000000012e+00 1.4208590124756659e+00 6.2474713379602873e+00 0 0 0
194 2 9.8440000000000012e+00 0.0000000000000000e+00 6.2474713379602873e+00 0 0 0
235 2 1.1074500000000002e+01 2.1312885187135002e+00 6.2474713379602873e+00 0 0 0
455 2 8.6134999999999984e+00 7.1042950623783407e-01 9.2553137799338856e+00 0 0 0
471 2 8.6134999999999984e+00 2.1312885187135002e+00 9.2553137799338856e+00 0 0 0
472 2 9.8440000000000012e+00 2.8417180249513332e+00 9.2553137799338856e+00 0 0 0
473 2 9.8440000000000012e+00 0.0000000000000000e+00 9.2553137799338856e+00 0 0 0
474 2 1.1074500000000002e+01 7.1042950623783330e-01 9.2553137799338856e+00 0 0 0
494 2 1.1074500000000002e+01 2.1312885187135002e+00 9.2553137799338856e+00 0 0 0
188 2 8.6134999999999984e+00 3.5521475311891657e+00 6.2474713379602873e+00 0 0 0
233 2 1.1074500000000002e+01 3.5521475311891644e+00 6.2474713379602873e+00 0 0 0
97 2 0.0000000000000000e+00 5.6834360499026637e+00 6.2474713379602873e+00 0 0 0
99 2 0.0000000000000000e+00 4.2625770374269996e+00 6.2474713379602873e+00 0 0 0
116 2 1.2305000000000001e+00 6.3938655561404980e+00 6.2474713379602873e+00 0 0 0
118 2 2.4610000000000003e+00 5.6834360499026637e+00 6.2474713379602873e+00 0 0 0
120 2 2.4610000000000003e+00 4.2625770374269996e+00 6.2474713379602873e+00 0 0 0
145 2 3.6914999999999996e+00 6.3938655561404980e+00 6.2474713379602873e+00 0 0 0
424 2 0.0000000000000000e+00 4.2625770374269996e+00 9.2553137799338856e+00 0 0 0
425 2 1.2305000000000001e+00 4.9730065436648339e+00 9.2553137799338856e+00 0 0 0
433 2 1.2305000000000001e+00 6.3938655561404980e+00 9.2553137799338856e+00 0 0 0
435 2 2.4610000000000003e+00 4.2625770374269996e+00 9.2553137799338856e+00 0 0 0
436 2 3.6914999999999996e+00 4.9730065436648339e+00 9.2553137799338856e+00 0 0 0
448 2 3.6914999999999996e+00 6.3938655561404980e+00 9.2553137799338856e+00 0 0 0
114 2 1.2305000000000001e+00 7.8147245686161639e+00 6.2474713379602873e+00 0 0 0
143 2 3.6914999999999996e+00 7.8147245686161639e+00 6.2474713379602873e+00 0 0 0
423 2 0.0000000000000000e+00 7.1042950623783341e+00 9.2553137799338856e+00 0 0 0
434 2 2.4610000000000003e+00 7.1042950623783341e+00 9.2553137799338856e+00 0 0 0
147 2 4.9220000000000006e+00 5.6834360499026637e+00 6.2474713379602873e+00 0 0 0
149 2 4.9220000000000006e+00 4.2625770374269978e+00 6.2474713379602873e+00 0 0 0
182 2 6.1524999999999999e+00 6.3938655561404980e+00 6.2474713379602873e+00 0 0 0
184 2 7.3829999999999991e+00 5.6834360499026637e+00 6.2474713379602873e+00 0 0 0
186 2 7.3829999999999991e+00 4.2625770374269996e+00 6.2474713379602873e+00 0 0 0
450 2 4.9220000000000006e+00 4.2625770374269978e+00 9.2553137799338856e+00 0 0 0
451 2 6.1524999999999999e+00 4.9730065436648339e+00 9.2553137799338856e+00 0 0 0
467 2 6.1524999999999999e+00 6.3938655561404980e+00 9.2553137799338856e+00 0 0 0
469 2 7.3829999999999991e+00 4.2625770374269996e+00 9.2553137799338856e+00 0 0 0
180 2 6.1524999999999999e+00 7.8147245686161639e+00 6.2474713379602873e+00 0 0 0
449 2 4.9220000000000006e+00 7.1042950623783341e+00 9.2553137799338856e+00 0 0 0
468 2 7.3830000000000009e+00 7.1042950623783341e+00 9.2553137799338856e+00 0 0 0
227 2 8.6135000000000002e+00 6.3938655561404980e+00 6.2474713379602873e+00 0 0 0
229 2 9.8440000000000012e+00 5.6834360499026637e+00 6.2474713379602873e+00 0 0 0
231 2 9.8440000000000012e+00 4.2625770374270004e+00 6.2474713379602873e+00 0 0 0
274 2 1.1074500000000002e+01 6.3938655561404980e+00 6.2474713379602873e+00 0 0 0
470 2 8.6135000000000002e+00 4.9730065436648339e+00 9.2553137799338856e+00 0 0 0
490 2 8.6135000000000002e+00 6.3938655561404980e+00 9.2553137799338856e+00 0 0 0
492 2 9.8440000000000012e+00 4.2625770374270004e+00 9.2553137799338856e+00 0 0 0
493 2 1.1074500000000002e+01 4.9730065436648339e+00 9.2553137799338856e+00 0 0 0
514 2 1.1074500000000002e+01 6.3938655561404980e+00 9.2553137799338856e+00 0 0 0
225 2 8.6135000000000002e+00 7.8147245686161639e+00 6.2474713379602873e+00 0 0 0
272 2 1.1074500000000002e+01 7.8147245686161639e+00 6.2474713379602873e+00 0 0 0
491 2 9.8440000000000012e+00 7.1042950623783341e+00 9.2553137799338856e+00 0 0 0
110 2 0.0000000000000000e+00 9.9460130873296642e+00 6.2474713379602873e+00 0 0 0
112 2 0.0000000000000000e+00 8.5251540748539991e+00 6.2474713379602873e+00 0 0 0
139 2 2.4610000000000003e+00 9.9460130873296642e+00 6.2474713379602873e+00 0 0 0
141 2 2.4610000000000003e+00 8.5251540748539991e+00 6.2474713379602873e+00 0 0 0
431 2 0.0000000000000000e+00 8.5251540748539991e+00 9.2553137799338856e+00 0 0 0
432 2 1.2305000000000001e+00 9.2355835810918343e+00 9.2553137799338856e+00 0 0 0
446 2 2.4610000000000003e+00 8.5251540748539991e+00 9.2553137799338856e+00 0 0 0
447 2 3.6915000000000004e+00 9.2355835810918343e+00 9.2553137799338856e+00 0 0 0
135 2 1.2305000000000001e+00 1.2077301606043163e+01 6.2474713379602873e+00 0 0 0
137 2 1.2305000000000001e+00 1.0656442593567498e+01 6.2474713379602873e+00 0 0 0
172 2 3.6914999999999996e+00 1.2077301606043163e+01 6.2474713379602873e+00 0 0 0
174 2 3.6914999999999996e+00 1.0656442593567499e+01 6.2474713379602873e+00 0 0 0
430 2 0.0000000000000000e+00 1.1366872099805333e+01 9.2553137799338856e+00 0 0 0
444 2 1.2305000000000001e+00 1.0656442593567498e+01 9.2553137799338856e+00 0 0 0
445 2 2.4610000000000003e+00 1.1366872099805333e+01 9.2553137799338856e+00 0 0 0
463 2 3.6914999999999996e+00 1.0656442593567499e+01 9.2553137799338856e+00 0 0 0
176 2 4.9220000000000006e+00 9.9460130873296642e+00 6.2474713379602873e+00 0 0 0
178 2 4.9220000000000006e+00 8.5251540748539991e+00 6.2474713379602873e+00 0 0 0
221 2 7.3830000000000009e+00 9.9460130873296642e+00 6.2474713379602873e+00 0 0 0
223 2 7.3830000000000009e+00 8.5251540748539991e+00 6.2474713379602873e+00 0 0 0
465 2 4.9220000000000006e+00 8.5251540748539991e+00 9.2553137799338856e+00 0 0 0
466 2 6.1524999999999999e+00 9.2355835810918343e+00 9.2553137799338856e+00 0 0 0
488 2 7.3830000000000009e+00 8.5251540748539991e+00 9.2553137799338856e+00 0 0 0
217 2 6.1524999999999999e+00 1.2077301606043163e+01 6.2474713379602873e+00 0 0 0
219 2 6.1524999999999999e+00 1.0656442593567499e+01 6.2474713379602873e+00 0 0 0
464 2 4.9220000000000006e+00 1.1366872099805333e+01 9.2553137799338856e+00 0 0 0
486 2 6.1524999999999999e+00 1.0656442593567499e+01 9.2553137799338856e+00 0 0 0
487 2 7.3829999999999991e+00 1.1366872099805333e+01 9.2553137799338856e+00 0 0 0
268 2 9.8440000000000012e+00 9.9460130873296642e+00 6.2474713379602873e+00 0 0 0
270 2 9.8440000000000012e+00 8.5251540748539956e+00 6.2474713379602873e+00 0 0 0
489 2 8.6134999999999984e+00 9.2355835810918343e+00 9.2553137799338856e+00 0 0 0
512 2 9.8440000000000012e+00 8.5251540748539956e+00 9.2553137799338856e+00 0 0 0
513 2 1.1074500000000002e+01 9.2355835810918343e+00 9.2553137799338856e+00 0 0 0
264 2 8.6135000000000002e+00 1.2077301606043163e+01 6.2474713379602873e+00 0 0 0
266 2 8.6134999999999984e+00 1.0656442593567498e+01 6.2474713379602873e+00 0 0 0
311 2 1.1074500000000002e+01 1.2077301606043163e+01 6.2474713379602873e+00 0 0 0
313 2 1.1074500000000002e+01 1.0656442593567498e+01 6.2474713379602873e+00 0 0 0
510 2 8.6134999999999984e+00 1.0656442593567498e+01 9.2553137799338856e+00 0 0 0
511 2 9.8440000000000012e+00 1.1366872099805333e+01 9.2553137799338856e+00 0 0 0
534 2 1.1074500000000002e+01 1.0656442593567498e+01 9.2553137799338856e+00 0 0 0
535 2 1.2304999999999998e+01 1.1366872099805333e+01 9.2553137799338856e+00 0 0 0
1593 1 4.3097530157853479e+00 1.4932081178908354e+00 1.2078939149160311e+01 -1 1 0
3893 1 1.1691136115775653e+00 1.4619876651278265e+00 1.1971553475148848e+01 0 1 -1
2898 1 1.0822719460015399e+01 6.8580378968530438e+00 1.4797903319174953e+01 0 0 0
1596 1 1.0132044400348960e+01 1.0080075861610279e+01 1.4737188519781544e+01 0 0 0
870 1 7.7326941410917058e+00 5.2500143402387787e+00 1.6696771586163820e+01 1 1 0
72 1 1.1401123014013413e+01 2.3060904197539980e+00 1.1886492977003607e+01 1 0 0
2192 1 2.5103006656364175e+00 6.3111725700096644e+00 1.1775677514112150e+01 -1 0 0
4385 1 4.9888874914722594e+00 4.3393052222747146e+00 1.1354598332254247e+01 1 0 -1
2375 1 7.5760296149193511e+00 3.9746594022865001e+00 1.2386894883304253e+01 0 1 1
3790 1 1.0108958055709076e+01 4.8447289026072360e+00 1.1842126984284729e+01 -1 0 -1
742 1 1.4636682063697690e+00 4.5971528017092869e+00 1.5375007194622821e+01 0 0 0
873 1 4.5001292378274442e+00 1.0490497840352129e+01 1.1646873898053938e+01 1 0 0
773 1 4.8669795554154627e+00 7.7933054140499749e+00 1.2190201995934157e+01 1 0 0
4336 1 8.8547047632986455e+00 1.1310408264318299e+00 1.1997589236751461e+01 1 1 0
3779 1 5.0081836976495913e+00 2.1696865132121270e+00 1.5316115690691239e+01 -1 0 0
1560 1 2.5167118277871472e+00 8.3386696413020567e-01 1.4532069578537266e+01 1 1 1
1474 1 7.8578321214149520e+00 2.5939590618619084e+00 1.4948295315494414e+01 0 1 0
3866 1 1.5422677528170585e+00 1.1865252674110712e+01 1.1702004441299039e+01 1 0 0
1516 1 7.2262299520207742e+00 6.7096100551951015e+00 1.2825496828122091e+01 0 0 0
704 1 6.5382143912975348e+00 1.2010051185962997e+01 1.2456562888215968e+01 1 1 -1
3140 1 5.2642219005053315e-01 2.1461704619486088e+00 1.5859923017264046e+01 1 1 0
3677 1 4.0952461258012294e+00 4.6078030983727105e+00 1.4419964298609585e+01 0 1 0
3717 1 4.6636776604117163e+00 8.2647265970283978e+00 1.4971437158200771e+01 0 1 -1
3644 1 5.7768146531021332e+00 1.0704214948985575e+01 1.6465552295790928e+01 -1 0 -1
882 1 9.2602770517342261e+00 1.0700346451922869e+01 1.1862086551396770e+01 1 0 -1
888 1 9.7252944887237494e+00 7.9859112803693915e+00 1.1992039876196012e+01 0 0 0
602 1 1.0305258381922169e+01 4.2458249171995881e+00 1.4902490683788420e+01 0 0 -1
81 1 7.7827799356689429e+00 7.9193605867196615e+00 1.5289639279048769e+01 0 0 0
14 1 2.6226837222560989e-01 9.7692181248157848e+00 1.5063216748832517e+01 1 1 0
661 1 6.1066233117971791e-01 4.3502860959572320e+00 1.2516416873803996e+01 1 1 0
1575 1 2.6873240654439763e+00 1.0369549389967617e+01 1.3979231822898649e+01 -1 1 1
2199 1 5.1953674912274765e+00 5.7978333070861305e+00 1.6738101672011261e+01 0 1 -1
856 1 1.2251391109143533e+01 8.2812404037152962e+00 1.6674129980150415e+01 1 1 0
69 1 4.4792577550921653e+00 2.3430446425582829e+00 1.7890912240148385e+01 0 1 0
3808 1 7.2974314898022001e+00 3.0651382844968733e+00 1.8858491498626670e+01 0 1 0
1511 1 9.1608303621188902e+00 5.7882013728516482e+00 1.9305693886427598e+01 0 1 -1
2868 1 1.1136392370944977e+01 1.9969620576500504e+00 1.8481819885496808e+01 1 1 1
4440 1 1.1547550036148641e+01 4.3812799026020564e+00 2.0331470242299176e+01 0 -1 0
709 1 3.2348080415005560e+00 4.5891793565714387e+00 1.9103474891391514e+01 1 1 0
4488 1 2.0955312906162052e-01 4.6838543812708267e+00 2.5002056449003067e+01 1 0 0
4356 1 6.9298859316260186e+00 8.3698581694649672e+00 1.7976503431241746e+01 1 0 -1
4494 1 5.0450583393633535e+00 6.6821097697631489e+00 1.9831286444145100e+01 -1 1 -1
604 1 5.1219850225068244e+00 1.1169177393372649e+01 2.3613946458353848e+01 2 0 0
2350 1 1.1926023624893807e+01 1.0440594985369843e+01 3.0405994642539969e+01 0 0 -1
4516 1 1.3191706654847495e+00 1.0812359855459837e+01 1.7355019893077976e+01 1 0 -1
2886 1 3.7004003303866102e+00 1.1686595189743649e+01 1.8368209934556461e+01 1 0 0
642 1 4.7046361157773005e+00 1.0555073733885070e+01 2.7604507956610277e+01 -1 1 -1
4435 1 2.7424585340528531e+00 2.0458431603365250e+00 2.8048282862117784e+01 1 0 0
2296 1 7.0475539739603166e+00 1.3159645696823222e-01 2.7798043970896739e+01 0 1 -1
2839 1 1.5389872404419418e+00 3.7244539763985203e+00 2.1414635036471999e+01 2 0 0
1657 1 1.1338645865655868e+01 3.0360002888037259e+00 2.7650717633877044e+01 -1 0 0
2844 1 6.8408808967907309e+00 3.5746576966594414e+00 2.2662163543629489e+01 0 1 -1
685 1 7.3065094014182064e+00 1.2783825160962576e+00 2.1318767867518009e+01 1 0 0
1367 1 1.1485577586866063e+01 4.1180183229453302e+00 2.3110422767513860e+01 0 1 0
858 1 2.6872768484026741e+00 5.3827145821604052e+00 2.3309940817116146e+01 0 0 0
1654 1 1.1870771664936672e+00 8.0371925909769786e+00 2.1909636346555381e+01 1 0 0
1425 1 4.0266626863233048e+00 7.9588892045715829e+00 2.2344520317969312e+01 1 0 -1
3692 1 7.3020478732893341e+00 5.7275457253815238e+00 2.1282572295565203e+01 1 1 0
2249 1 9.8474465699948510e+00 8.4413657668331741e+00 1.8398212895736371e+01 0 0 -2
3124 1 7.2622099635958892e-01 1.0454156204742626e+01 2.5361819848356628e+01 2 -1 0
1562 1 9.1513092711703692e+00 1.0576209293360137e+01 2.5762143117049970e+01 1 0 -1
2878 1 5.0758757493945472e+00 1.0003189316819467e+01 2.0602028423531511e+01 2 1 0
624 1 3.3633700060850633e+00 9.4600969358992604e+00 2.4892188728022766e+01 1 1 -1
3088 1 7.6592027730761059e+00 1.0724084179466228e+01 2.0087890086148111e+01 0 0 -1
4448 1 3.2212384686817037e+00 9.3391461738646131e-01 2.3502765585636887e+01 1 1 0
2145 1 8.5246866595171955e+00 8.4780384803601183e-01 1.7655867290045670e+01 1 1 -1
3092 1 1.8314423997884074e-01 2.3483035893176836e+00 2.6371406882154041e+01 -1 1 0
27 1 2.1352860803406521e+00 8.3520084088626430e+00 3.0696140883434218e+01 0 0 1
4350 1 4.6994098238412825e+00 3.6951971349428252e+00 2.7212014026513465e+01 1 -1 0
592 1 4.6291121977321001e+00 3.3453070650075012e+00 2.4395826177974879e+01 0 -1 0
42 1 7.4432707983623492e-01 1.0677197712703512e+01 2.2380015677226101e+01 0 0 -1
4442 1 1.5439101241742887e+00 1.1745323939379901e+01 3.0878453587607691e+01 1 -1 0
2253 1 1.1087840974862395e+01 7.2876586605060405e+00 2.7754549764560998e+01 0 0 0
702 1 1.0075814074034279e+00 8.0457024157891388e-01 2.1084275710159069e+01 0 1 0
3688 1 8.9065109419844433e+00 3.7359161619784036e+00 2.4018206190303513e+01 1 1 0
1616 1 4.4034349930860532e+00 9.8430447506737302e+00 3.0487543622099736e+01 1 2 0
2244 1 1.0722572372175527e+01 1.1626424375449982e+01 2.1563659250561074e+01 0 -1 1
1483 1 2.2669553907810687e+00 6.8525780771617804e+00 2.6074141585542829e+01 0 1 0
2282 1 7.2739604907657629e+00 7.9701415359639451e+00 2.3488557893192940e+01 0 0 0
52 1 8.5706469904184086e+00 6.3410633437216477e+00 2.5405436158444942e+01 -1 0 1
1489 1 4.4860184738308273e-01 8.6248719841713548e+00 2.8046911157381299e+01 0 -1 0
656 1 1.0528081452544706e+01 7.2597317963182784e+00 2.2703971153342607e+01 1 0 0
3872 1 8.2313604754290530e+00 6.3113551334833193e+00 2.7998685497088598e+01 0 -1 0
3038 1 7.3998751098331850e-01 8.4887012719013235e+00 1.9225984980658946e+01 0 0 0
2986 1 8.5032857755956144e+00 1.0666912948335833e+01 2.2879039854790239e+01 1 0 -1
1513 1 6.8079826419597120e+00 9.1726181257182056e+00 2.5922925933558240e+01 2 1 0
673 1 9.6673542026006878e+00 1.0981375985056815e+01 2.8339614926332494e+01 1 -1 0
3123 1 5.8554121653731599e+00 7.7546981691907693e+00 2.8409112685118046e+01 1 -1 1
3714 1 8.8387811029835888e+00 1.0462408403673225e+01 3.0819946136368060e+01 0 0 0
2935 1 1.1113301175410836e+01 9.3046092267212597e+00 2.0715940343188301e+01 1 1 0
752 1 1.1290295596717115e+01 7.8796972699409533e+00 3.0678876991099681e+01 0 1 -1
3862 1 2.2736295721463611e+00 2.4265864497277483e+00 3.0529097363941432e+01 0 1 0
3894 1 4.3589635999067706e+00 7.8480051368278969e-01 3.0974787199311113e+01 0 -1 0
1400 1 7.0848168334512094e+00 9.8340062001045792e-01 3.0451826567016955e+01 1 0 1
784 1 3.1239936751566217e+00 1.4008256351529513e-01 1.9273420790130864e+01 0 1 0
1500 1 1.9719211869672122e+00 5.4059865801263562e+00 3.0298877406649108e+01 2 0 0
1612 1 7.4461952123435129e+00 3.5292579703950802e+00 2.8238332842709653e+01 0 1 0
1609 1 3.9015995655686289e+00 5.9712802642640943e+00 2.7995762691488757e+01 -1 2 0
1510 1 7.0420185187991349e+00 8.4878420644540711e+00 3.1045255792632176e+01 0 0 0
1411 1 8.9289564324503274e+00 6.2253571740339053e+00 3.0909308096283556e+01 1 0 1
2390 1 8.7473121616456222e+00 3.2123621489581224e+00 3.0928964108846817e+01 1 0 1
31 1 3.1718654728524043e+00 1.1769074243777533e+01 2.1575727701968873e+01 0 1 1
1589 1 8.9128590392584464e+00 2.0263696133960378e+00 2.6055556567642398e+01 0 1 0
2880 1 8.8661604529261917e-01 5.9647569160206002e+00 1.7722590199124781e+01 0 2 0
1594 1 1.0895224282380140e+01 8.4570205907580309e+00 2.5003459223728338e+01 1 0 0
1591 1 1.9906671365916302e+00 1.1777202850024064e+01 2.7781107672460063e+01 0 -1 1
1567 1 1.1228556682130140e+01 1.1969831009336106e+01 2.4229132348795922e+01 0 0 0
4531 1 1.1537931828580131e+01 3.0794384678577775e+00 3.0457467786796080e+01 0 1 1
4506 1 4.5972705425122991e+00 2.5934977647341612e-01 2.1424204598828599e+01 1 1 -2
132 2 0.0000000000000000e+00 1.2787731112280996e+01 3.2396288959872983e+00 0 0 0
134 2 1.2305000000000001e+00 1.3498160618518829e+01 3.2396288959872983e+00 0 0 0
169 2 2.4610000000000003e+00 1.2787731112280996e+01 3.2396288959872983e+00 0 0 0
171 2 3.6915000000000004e+00 1.3498160618518829e+01 3.2396288959872983e+00 0 0 0
130 2 0.0000000000000000e+00 1.5629449137232333e+01 3.2396288959872983e+00 0 0 0
165 2 1.2305000000000001e+00 1.4919019630994494e+01 3.2396288959872983e+00 0 0 0
167 2 2.4610000000000003e+00 1.5629449137232328e+01 3.2396288959872983e+00 0 0 0
210 2 3.6915000000000004e+00 1.4919019630994494e+01 3.2396288959872983e+00 0 0 0
214 2 4.9220000000000006e+00 1.2787731112280996e+01 3.2396288959872983e+00 0 0 0
216 2 6.1524999999999990e+00 1.3498160618518829e+01 3.2396288959872983e+00 0 0 0
261 2 7.3829999999999991e+00 1.2787731112280996e+01 3.2396288959872983e+00 0 0 0
212 2 4.9220000000000006e+00 1.5629449137232333e+01 3.2396288959872983e+00 0 0 0
257 2 6.1524999999999990e+00 1.4919019630994494e+01 3.2396288959872983e+00 0 0 0
259 2 7.3829999999999991e+00 1.5629449137232333e+01 3.2396288959872983e+00 0 0 0
263 2 8.6135000000000002e+00 1.3498160618518835e+01 3.2396288959872983e+00 0 0 0
308 2 9.8440000000000012e+00 1.2787731112280996e+01 3.2396288959872983e+00 0 0 0
310 2 1.1074500000000002e+01 1.3498160618518829e+01 3.2396288959872983e+00 0 0 0
304 2 8.6135000000000002e+00 1.4919019630994494e+01 3.2396288959872983e+00 0 0 0
306 2 9.8440000000000012e+00 1.5629449137232328e+01 3.2396288959872983e+00 0 0 0
346 2 1.1074500000000002e+01 1.4919019630994494e+01 3.2396288959872983e+00 0 0 0
161 2 0.0000000000000000e+00 1.7050308149707998e+01 3.2396288959872983e+00 0 0 0
206 2 2.4610000000000003e+00 1.7050308149707998e+01 3.2396288959872983e+00 0 0 0
159 2 0.0000000000000000e+00 1.9892026174659328e+01 3.2396288959872983e+00 0 0 0
163 2 1.2305000000000001e+00 1.7760737655945832e+01 3.2396288959872983e+00 0 0 0
202 2 1.2305000000000001e+00 1.9181596668421495e+01 3.2396288959872983e+00 0 0 0
204 2 2.4610000000000003e+00 1.9892026174659328e+01 3.2396288959872983e+00 0 0 0
208 2 3.6914999999999996e+00 1.7760737655945832e+01 3.2396288959872983e+00 0 0 0
249 2 3.6914999999999996e+00 1.9181596668421495e+01 3.2396288959872983e+00 0 0 0
253 2 4.9220000000000006e+00 1.7050308149707998e+01 3.2396288959872983e+00 0 0 0
300 2 7.3830000000000009e+00 1.7050308149707998e+01 3.2396288959872983e+00 0 0 0
251 2 4.9220000000000006e+00 1.9892026174659328e+01 3.2396288959872983e+00 0 0 0
255 2 6.1524999999999999e+00 1.7760737655945832e+01 3.2396288959872983e+00 0 0 0
296 2 6.1524999999999999e+00 1.9181596668421495e+01 3.2396288959872983e+00 0 0 0
298 2 7.3829999999999991e+00 1.9892026174659328e+01 3.2396288959872983e+00 0 0 0
342 2 9.8440000000000012e+00 1.7050308149707998e+01 3.2396288959872983e+00 0 0 0
376 2 1.2304999999999998e+01 1.7050308149707998e+01 3.2396288959872983e+00 0 0 0
302 2 8.6134999999999984e+00 1.7760737655945832e+01 3.2396288959872983e+00 0 0 0
338 2 8.6135000000000002e+00 1.9181596668421495e+01 3.2396288959872983e+00 0 0 0
340 2 9.8440000000000012e+00 1.9892026174659335e+01 3.2396288959872983e+00 0 0 0
344 2 1.1074500000000002e+01 1.7760737655945835e+01 3.2396288959872983e+00 0 0 0
372 2 1.1074500000000002e+01 1.9181596668421495e+01 3.2396288959872983e+00 0 0 0
196 2 0.0000000000000000e+00 2.4154603212086325e+01 3.2396288959872983e+00 0 0 0
198 2 0.0000000000000000e+00 2.1312885187134999e+01 3.2396288959872983e+00 0 0 0
200 2 1.2304999999999993e+00 2.2023314693372832e+01 3.2396288959872983e+00 0 0 0
241 2 1.2304999999999993e+00 2.3444173705848499e+01 3.2396288959872983e+00 0 0 0
243 2 2.4610000000000003e+00 2.4154603212086325e+01 3.2396288959872983e+00 0 0 0
245 2 2.4610000000000003e+00 2.1312885187134995e+01 3.2396288959872983e+00 0 0 0
247 2 3.6914999999999996e+00 2.2023314693372832e+01 3.2396288959872983e+00 0 0 0
288 2 3.6915000000000004e+00 2.3444173705848499e+01 3.2396288959872983e+00 0 0 0
290 2 4.9220000000000006e+00 2.4154603212086325e+01 3.2396288959872983e+00 0 0 0
292 2 4.9220000000000006e+00 2.1312885187134995e+01 3.2396288959872983e+00 0 0 0
294 2 6.1524999999999990e+00 2.2023314693372832e+01 3.2396288959872983e+00 0 0 0
330 2 6.1524999999999999e+00 2.3444173705848499e+01 3.2396288959872983e+00 0 0 0
332 2 7.3830000000000009e+00 2.4154603212086336e+01 3.2396288959872983e+00 0 0 0
334 2 7.3829999999999991e+00 2.1312885187134999e+01 3.2396288959872983e+00 0 0 0
336 2 8.6135000000000002e+00 2.2023314693372832e+01 3.2396288959872983e+00 0 0 0
364 2 8.6134999999999984e+00 2.3444173705848499e+01 3.2396288959872983e+00 0 0 0
366 2 9.8440000000000012e+00 2.4154603212086336e+01 3.2396288959872983e+00 0 0 0
368 2 9.8440000000000012e+00 2.1312885187134999e+01 3.2396288959872983e+00 0 0 0
370 2 1.1074500000000002e+01 2.2023314693372832e+01 3.2396288959872983e+00 0 0 0
390 2 1.1074500000000002e+01 2.3444173705848499e+01 3.2396288959872983e+00 0 0 0
133 2 0.0000000000000000e+00 1.2787731112280996e+01 6.2474713379602873e+00 0 0 0
170 2 2.4610000000000003e+00 1.2787731112280996e+01 6.2474713379602873e+00 0 0 0
442 2 0.0000000000000000e+00 1.2787731112280996e+01 9.2553137799338856e+00 0 0 0
443 2 1.2305000000000001e+00 1.3498160618518829e+01 9.2553137799338856e+00 0 0 0
461 2 2.4610000000000003e+00 1.2787731112280996e+01 9.2553137799338856e+00 0 0 0
462 2 3.6915000000000004e+00 1.3498160618518829e+01 9.2553137799338856e+00 0 0 0
131 2 0.0000000000000000e+00 1.4208590124756663e+01 6.2474713379602873e+00 0 0 0
166 2 1.2305000000000001e+00 1.4919019630994494e+01 6.2474713379602873e+00 0 0 0
168 2 2.4610000000000003e+00 1.4208590124756663e+01 6.2474713379602873e+00 0 0 0
211 2 3.6915000000000004e+00 1.4919019630994494e+01 6.2474713379602873e+00 0 0 0
441 2 0.0000000000000000e+00 1.5629449137232333e+01 9.2553137799338856e+00 0 0 0
459 2 1.2305000000000001e+00 1.4919019630994494e+01 9.2553137799338856e+00 0 0 0
460 2 2.4610000000000003e+00 1.5629449137232328e+01 9.2553137799338856e+00 0 0 0