LAMMPS data file via write_data, version 16 Mar 2018, timestep = 8000000

4545 atoms
2 atom types

0.0000000000000000e+00 4.9219999999999999e+01 xlo xhi
0.0000000000000000e+00 4.9019635930410494e+01 ylo yhi
5.2317709847486071e-01 3.3112162688030679e+01 zlo zhi

Masses

1 18.015
2 12.01

Atoms # atomic

91 2 0.0000000000000000e+00 2.8417180249513345e+00 2.1480076838218864e+00 0 0 0
93 2 0.0000000000000000e+00 0.0000000000000000e+00 2.1480076838218864e+00 0 0 0
95 2 1.2305000000000001e+00 7.1042950623783474e-01 2.1480076838218864e+00 0 0 0
102 2 1.2305000000000001e+00 2.1312885187134998e+00 2.1480076838218864e+00 0 0 0
104 2 2.4610000000000003e+00 2.8417180249513345e+00 2.1480076838218864e+00 0 0 0
106 2 2.4610000000000003e+00 0.0000000000000000e+00 2.1480076838218864e+00 0 0 0
108 2 3.6915000000000004e+00 7.1042950623783474e-01 2.1480076838218864e+00 0 0 0
123 2 3.6914999999999996e+00 2.1312885187134998e+00 2.1480076838218864e+00 0 0 0
125 2 4.9220000000000006e+00 2.8417180249513332e+00 2.1480076838218864e+00 0 0 0
127 2 4.9220000000000006e+00 0.0000000000000000e+00 2.1480076838218864e+00 0 0 0
129 2 6.1524999999999999e+00 7.1042950623783407e-01 2.1480076838218864e+00 0 0 0
152 2 6.1524999999999999e+00 2.1312885187134989e+00 2.1480076838218864e+00 0 0 0
154 2 7.3829999999999991e+00 2.8417180249513345e+00 2.1480076838218864e+00 0 0 0
156 2 7.3829999999999991e+00 0.0000000000000000e+00 2.1480076838218864e+00 0 0 0
158 2 8.6134999999999984e+00 7.1042950623783407e-01 2.1480076838218864e+00 0 0 0
189 2 8.6134999999999984e+00 2.1312885187135002e+00 2.1480076838218864e+00 0 0 0
191 2 9.8440000000000012e+00 2.8417180249513332e+00 2.1480076838218864e+00 0 0 0
193 2 9.8440000000000012e+00 0.0000000000000000e+00 2.1480076838218864e+00 0 0 0
195 2 1.1074500000000002e+01 7.1042950623783330e-01 2.1480076838218864e+00 0 0 0
234 2 1.1074500000000002e+01 2.1312885187135002e+00 2.1480076838218864e+00 0 0 0
98 2 0.0000000000000000e+00 4.2625770374269996e+00 2.1480076838218864e+00 0 0 0
100 2 1.2305000000000001e+00 4.9730065436648339e+00 2.1480076838218864e+00 0 0 0
115 2 1.2305000000000001e+00 6.3938655561404980e+00 2.1480076838218864e+00 0 0 0
119 2 2.4610000000000003e+00 4.2625770374269996e+00 2.1480076838218864e+00 0 0 0
121 2 3.6914999999999996e+00 4.9730065436648339e+00 2.1480076838218864e+00 0 0 0
144 2 3.6914999999999996e+00 6.3938655561404980e+00 2.1480076838218864e+00 0 0 0
96 2 0.0000000000000000e+00 7.1042950623783341e+00 2.1480076838218864e+00 0 0 0
117 2 2.4610000000000003e+00 7.1042950623783341e+00 2.1480076838218864e+00 0 0 0
148 2 4.9220000000000006e+00 4.2625770374269978e+00 2.1480076838218864e+00 0 0 0
150 2 6.1524999999999999e+00 4.9730065436648339e+00 2.1480076838218864e+00 0 0 0
181 2 6.1524999999999999e+00 6.3938655561404980e+00 2.1480076838218864e+00 0 0 0
185 2 7.3829999999999991e+00 4.2625770374269996e+00 2.1480076838218864e+00 0 0 0
146 2 4.9220000000000006e+00 7.1042950623783341e+00 2.1480076838218864e+00 0 0 0
183 2 7.3830000000000009e+00 7.1042950623783341e+00 2.1480076838218864e+00 0 0 0
187 2 8.6135000000000002e+00 4.9730065436648339e+00 2.1480076838218864e+00 0 0 0
226 2 8.6135000000000002e+00 6.3938655561404980e+00 2.1480076838218864e+00 0 0 0
230 2 9.8440000000000012e+00 4.2625770374270004e+00 2.1480076838218864e+00 0 0 0
232 2 1.1074500000000002e+01 4.9730065436648339e+00 2.1480076838218864e+00 0 0 0
273 2 1.1074500000000002e+01 6.3938655561404980e+00 2.1480076838218864e+00 0 0 0
228 2 9.8440000000000012e+00 7.1042950623783341e+00 2.1480076838218864e+00 0 0 0
111 2 0.0000000000000000e+00 8.5251540748539991e+00 2.1480076838218864e+00 0 0 0
113 2 1.2305000000000001e+00 9.2355835810918343e+00 2.1480076838218864e+00 0 0 0
140 2 2.4610000000000003e+00 8.5251540748539991e+00 2.1480076838218864e+00 0 0 0
142 2 3.6915000000000004e+00 9.2355835810918343e+00 2.1480076838218864e+00 0 0 0
109 2 0.0000000000000000e+00 1.1366872099805333e+01 2.1480076838218864e+00 0 0 0
136 2 1.2305000000000001e+00 1.0656442593567498e+01 2.1480076838218864e+00 0 0 0
138 2 2.4610000000000003e+00 1.1366872099805333e+01 2.1480076838218864e+00 0 0 0
173 2 3.6914999999999996e+00 1.0656442593567499e+01 2.1480076838218864e+00 0 0 0
177 2 4.9220000000000006e+00 8.5251540748539991e+00 2.1480076838218864e+00 0 0 0
179 2 6.1524999999999999e+00 9.2355835810918343e+00 2.1480076838218864e+00 0 0 0
222 2 7.3830000000000009e+00 8.5251540748539991e+00 2.1480076838218864e+00 0 0 0
175 2 4.9220000000000006e+00 1.1366872099805333e+01 2.1480076838218864e+00 0 0 0
218 2 6.1524999999999999e+00 1.0656442593567499e+01 2.1480076838218864e+00 0 0 0
220 2 7.3829999999999991e+00 1.1366872099805333e+01 2.1480076838218864e+00 0 0 0
224 2 8.6134999999999984e+00 9.2355835810918343e+00 2.1480076838218864e+00 0 0 0
269 2 9.8440000000000012e+00 8.5251540748539956e+00 2.1480076838218864e+00 0 0 0
271 2 1.1074500000000002e+01 9.2355835810918343e+00 2.1480076838218864e+00 0 0 0
265 2 8.6134999999999984e+00 1.0656442593567498e+01 2.1480076838218864e+00 0 0 0
267 2 9.8440000000000012e+00 1.1366872099805333e+01 2.1480076838218864e+00 0 0 0
312 2 1.1074500000000002e+01 1.0656442593567498e+01 2.1480076838218864e+00 0 0 0
314 2 1.2304999999999998e+01 1.1366872099805333e+01 2.1480076838218864e+00 0 0 0
92 2 0.0000000000000000e+00 1.4208590124756650e+00 5.3976688545135421e+00 0 0 0
94 2 0.0000000000000000e+00 0.0000000000000000e+00 5.3976688545135421e+00 0 0 0
103 2 1.2305000000000001e+00 2.1312885187134998e+00 5.3976688545135421e+00 0 0 0
105 2 2.4610000000000003e+00 1.4208590124756650e+00 5.3976688545135421e+00 0 0 0
107 2 2.4610000000000003e+00 0.0000000000000000e+00 5.3976688545135421e+00 0 0 0
124 2 3.6914999999999996e+00 2.1312885187134998e+00 5.3976688545135421e+00 0 0 0
420 2 0.0000000000000000e+00 2.8417180249513345e+00 8.6473300252077223e+00 0 0 0
421 2 0.0000000000000000e+00 0.0000000000000000e+00 8.6473300252077223e+00 0 0 0
422 2 1.2305000000000001e+00 7.1042950623783474e-01 8.6473300252077223e+00 0 0 0
426 2 1.2305000000000001e+00 2.1312885187134998e+00 8.6473300252077223e+00 0 0 0
427 2 2.4610000000000003e+00 2.8417180249513345e+00 8.6473300252077223e+00 0 0 0
428 2 2.4610000000000003e+00 0.0000000000000000e+00 8.6473300252077223e+00 0 0 0
429 2 3.6915000000000004e+00 7.1042950623783474e-01 8.6473300252077223e+00 0 0 0
437 2 3.6914999999999996e+00 2.1312885187134998e+00 8.6473300252077223e+00 0 0 0
101 2 1.2305000000000001e+00 3.5521475311891644e+00 5.3976688545135421e+00 0 0 0
122 2 3.6914999999999996e+00 3.5521475311891644e+00 5.3976688545135421e+00 0 0 0
126 2 4.9220000000000006e+00 1.4208590124756650e+00 5.3976688545135421e+00 0 0 0
128 2 4.9220000000000006e+00 0.0000000000000000e+00 5.3976688545135421e+00 0 0 0
153 2 6.1524999999999999e+00 2.1312885187134989e+00 5.3976688545135421e+00 0 0 0
155 2 7.3829999999999991e+00 1.4208590124756659e+00 5.3976688545135421e+00 0 0 0
157 2 7.3829999999999991e+00 0.0000000000000000e+00 5.3976688545135421e+00 0 0 0
438 2 4.9220000000000006e+00 2.8417180249513332e+00 8.6473300252077223e+00 0 0 0
439 2 4.9220000000000006e+00 0.0000000000000000e+00 8.6473300252077223e+00 0 0 0
440 2 6.1524999999999999e+00 7.1042950623783407e-01 8.6473300252077223e+00 0 0 0
452 2 6.1524999999999999e+00 2.1312885187134989e+00 8.6473300252077223e+00 0 0 0
453 2 7.3829999999999991e+00 2.8417180249513345e+00 8.6473300252077223e+00 0 0 0
454 2 7.3829999999999991e+00 0.0000000000000000e+00 8.6473300252077223e+00 0 0 0
151 2 6.1524999999999999e+00 3.5521475311891644e+00 5.3976688545135421e+00 0 0 0
190 2 8.6134999999999984e+00 2.1312885187135002e+00 5.3976688545135421e+00 0 0 0
192 2 9.8440000000000012e+00 1.4208590124756659e+00 5.3976688545135421e+00 0 0 0
194 2 9.8440000000000012e+00 0.0000000000000000e+00 5.3976688545135421e+00 0 0 0
235 2 1.1074500000000002e+01 2.1312885187135002e+00 5.3976688545135421e+00 0 0 0
455 2 8.6134999999999984e+00 7.1042950623783407e-01 8.6473300252077223e+00 0 0 0
471 2 8.6134999999999984e+00 2.1312885187135002e+00 8.6473300252077223e+00 0 0 0
472 2 9.8440000000000012e+00 2.8417180249513332e+00 8.6473300252077223e+00 0 0 0
473 2 9.8440000000000012e+00 0.0000000000000000e+00 8.6473300252077223e+00 0 0 0
474 2 1.1074500000000002e+01 7.1042950623783330e-01 8.6473300252077223e+00 0 0 0
494 2 1.1074500000000002e+01 2.1312885187135002e+00 8.6473300252077223e+00 0 0 0
188 2 8.6134999999999984e+00 3.5521475311891657e+00 5.3976688545135421e+00 0 0 0
233 2 1.1074500000000002e+01 3.5521475311891644e+00 5.3976688545135421e+00 0 0 0
97 2 0.0000000000000000e+00 5.6834360499026637e+00 5.3976688545135421e+00 0 0 0
99 2 0.0000000000000000e+00 4.2625770374269996e+00 5.3976688545135421e+00 0 0 0
116 2 1.2305000000000001e+00 6.3938655561404980e+00 5.3976688545135421e+00 0 0 0
118 2 2.4610000000000003e+00 5.6834360499026637e+00 5.3976688545135421e+00 0 0 0
120 2 2.4610000000000003e+00 4.2625770374269996e+00 5.3976688545135421e+00 0 0 0
145 2 3.6914999999999996e+00 6.3938655561404980e+00 5.3976688545135421e+00 0 0 0
424 2 0.0000000000000000e+00 4.2625770374269996e+00 8.6473300252077223e+00 0 0 0
425 2 1.2305000000000001e+00 4.9730065436648339e+00 8.6473300252077223e+00 0 0 0
433 2 1.2305000000000001e+00 6.3938655561404980e+00 8.6473300252077223e+00 0 0 0
435 2 2.4610000000000003e+00 4.2625770374269996e+00 8.6473300252077223e+00 0 0 0
436 2 3.6914999999999996e+00 4.9730065436648339e+00 8.6473300252077223e+00 0 0 0
448 2 3.6914999999999996e+00 6.3938655561404980e+00 8.6473300252077223e+00 0 0 0
114 2 1.2305000000000001e+00 7.8147245686161639e+00 5.3976688545135421e+00 0 0 0
143 2 3.6914999999999996e+00 7.8147245686161639e+00 5.3976688545135421e+00 0 0 0
423 2 0.0000000000000000e+00 7.1042950623783341e+00 8.6473300252077223e+00 0 0 0
434 2 2.4610000000000003e+00 7.1042950623783341e+00 8.6473300252077223e+00 0 0 0
147 2 4.9220000000000006e+00 5.6834360499026637e+00 5.3976688545135421e+00 0 0 0
149 2 4.9220000000000006e+00 4.2625770374269978e+00 5.3976688545135421e+00 0 0 0
182 2 6.1524999999999999e+00 6.3938655561404980e+00 5.3976688545135421e+00 0 0 0
184 2 7.3829999999999991e+00 5.6834360499026637e+00 5.3976688545135421e+00 0 0 0
186 2 7.3829999999999991e+00 4.2625770374269996e+00 5.3976688545135421e+00 0 0 0
450 2 4.9220000000000006e+00 4.2625770374269978e+00 8.6473300252077223e+00 0 0 0
451 2 6.1524999999999999e+00 4.9730065436648339e+00 8.6473300252077223e+00 0 0 0
467 2 6.1524999999999999e+00 6.3938655561404980e+00 8.6473300252077223e+00 0 0 0
469 2 7.3829999999999991e+00 4.2625770374269996e+00 8.6473300252077223e+00 0 0 0
180 2 6.1524999999999999e+00 7.8147245686161639e+00 5.3976688545135421e+00 0 0 0
449 2 4.9220000000000006e+00 7.1042950623783341e+00 8.6473300252077223e+00 0 0 0
468 2 7.3830000000000009e+00 7.1042950623783341e+00 8.6473300252077223e+00 0 0 0
227 2 8.6135000000000002e+00 6.3938655561404980e+00 5.3976688545135421e+00 0 0 0
229 2 9.8440000000000012e+00 5.6834360499026637e+00 5.3976688545135421e+00 0 0 0
231 2 9.8440000000000012e+00 4.2625770374270004e+00 5.3976688545135421e+00 0 0 0
274 2 1.1074500000000002e+01 6.3938655561404980e+00 5.3976688545135421e+00 0 0 0
470 2 8.6135000000000002e+00 4.9730065436648339e+00 8.6473300252077223e+00 0 0 0
490 2 8.6135000000000002e+00 6.3938655561404980e+00 8.6473300252077223e+00 0 0 0
492 2 9.8440000000000012e+00 4.2625770374270004e+00 8.6473300252077223e+00 0 0 0
493 2 1.1074500000000002e+01 4.9730065436648339e+00 8.6473300252077223e+00 0 0 0
514 2 1.1074500000000002e+01 6.3938655561404980e+00 8.6473300252077223e+00 0 0 0
225 2 8.6135000000000002e+00 7.8147245686161639e+00 5.3976688545135421e+00 0 0 0
272 2 1.1074500000000002e+01 7.8147245686161639e+00 5.3976688545135421e+00 0 0 0
491 2 9.8440000000000012e+00 7.1042950623783341e+00 8.6473300252077223e+00 0 0 0
110 2 0.0000000000000000e+00 9.9460130873296642e+00 5.3976688545135421e+00 0 0 0
112 2 0.0000000000000000e+00 8.5251540748539991e+00 5.3976688545135421e+00 0 0 0
139 2 2.4610000000000003e+00 9.9460130873296642e+00 5.3976688545135421e+00 0 0 0
141 2 2.4610000000000003e+00 8.5251540748539991e+00 5.3976688545135421e+00 0 0 0
431 2 0.0000000000000000e+00 8.5251540748539991e+00 8.6473300252077223e+00 0 0 0
432 2 1.2305000000000001e+00 9.2355835810918343e+00 8.6473300252077223e+00 0 0 0
446 2 2.4610000000000003e+00 8.5251540748539991e+00 8.6473300252077223e+00 0 0 0
447 2 3.6915000000000004e+00 9.2355835810918343e+00 8.6473300252077223e+00 0 0 0
135 2 1.2305000000000001e+00 1.2077301606043163e+01 5.3976688545135421e+00 0 0 0
137 2 1.2305000000000001e+00 1.0656442593567498e+01 5.3976688545135421e+00 0 0 0
172 2 3.6914999999999996e+00 1.2077301606043163e+01 5.3976688545135421e+00 0 0 0
174 2 3.6914999999999996e+00 1.0656442593567499e+01 5.3976688545135421e+00 0 0 0
430 2 0.0000000000000000e+00 1.1366872099805333e+01 8.6473300252077223e+00 0 0 0
444 2 1.2305000000000001e+00 1.0656442593567498e+01 8.6473300252077223e+00 0 0 0
445 2 2.4610000000000003e+00 1.1366872099805333e+01 8.6473300252077223e+00 0 0 0
463 2 3.6914999999999996e+00 1.0656442593567499e+01 8.6473300252077223e+00 0 0 0
176 2 4.9220000000000006e+00 9.9460130873296642e+00 5.3976688545135421e+00 0 0 0
178 2 4.9220000000000006e+00 8.5251540748539991e+00 5.3976688545135421e+00 0 0 0
221 2 7.3830000000000009e+00 9.9460130873296642e+00 5.3976688545135421e+00 0 0 0
223 2 7.3830000000000009e+00 8.5251540748539991e+00 5.3976688545135421e+00 0 0 0
465 2 4.9220000000000006e+00 8.5251540748539991e+00 8.6473300252077223e+00 0 0 0
466 2 6.1524999999999999e+00 9.2355835810918343e+00 8.6473300252077223e+00 0 0 0
488 2 7.3830000000000009e+00 8.5251540748539991e+00 8.6473300252077223e+00 0 0 0
217 2 6.1524999999999999e+00 1.2077301606043163e+01 5.3976688545135421e+00 0 0 0
219 2 6.1524999999999999e+00 1.0656442593567499e+01 5.3976688545135421e+00 0 0 0
464 2 4.9220000000000006e+00 1.1366872099805333e+01 8.6473300252077223e+00 0 0 0
486 2 6.1524999999999999e+00 1.0656442593567499e+01 8.6473300252077223e+00 0 0 0
487 2 7.3829999999999991e+00 1.1366872099805333e+01 8.6473300252077223e+00 0 0 0
268 2 9.8440000000000012e+00 9.9460130873296642e+00 5.3976688545135421e+00 0 0 0
270 2 9.8440000000000012e+00 8.5251540748539956e+00 5.3976688545135421e+00 0 0 0
489 2 8.6134999999999984e+00 9.2355835810918343e+00 8.6473300252077223e+00 0 0 0
512 2 9.8440000000000012e+00 8.5251540748539956e+00 8.6473300252077223e+00 0 0 0
513 2 1.1074500000000002e+01 9.2355835810918343e+00 8.6473300252077223e+00 0 0 0
264 2 8.6135000000000002e+00 1.2077301606043163e+01 5.3976688545135421e+00 0 0 0
266 2 8.6134999999999984e+00 1.0656442593567498e+01 5.3976688545135421e+00 0 0 0
311 2 1.1074500000000002e+01 1.2077301606043163e+01 5.3976688545135421e+00 0 0 0
313 2 1.1074500000000002e+01 1.0656442593567498e+01 5.3976688545135421e+00 0 0 0
510 2 8.6134999999999984e+00 1.0656442593567498e+01 8.6473300252077223e+00 0 0 0
511 2 9.8440000000000012e+00 1.1366872099805333e+01 8.6473300252077223e+00 0 0 0
534 2 1.1074500000000002e+01 1.0656442593567498e+01 8.6473300252077223e+00 0 0 0
535 2 1.2304999999999998e+01 1.1366872099805333e+01 8.6473300252077223e+00 0 0 0
3081 1 1.0760396803026482e+00 2.1837060240752142e+00 1.1338379742374874e+01 -3 -3 0
3135 1 3.8377100251816101e+00 2.8557283711793700e+00 1.1495002282023206e+01 -4 2 0
2152 1 6.0615941014030295e+00 1.1761654279871971e+00 1.1315582256936391e+01 1 5 0
3660 1 8.4522383558789915e+00 2.4510511337773999e+00 1.0915788073104025e+01 1 6 -1
2316 1 1.0562316551807985e+01 1.0790691632231419e+00 1.1706893879940097e+01 1 1 -2
3026 1 1.8026608064970233e+00 7.4840766158282239e+00 1.1287170278560920e+01 0 -1 -1
1644 1 3.8437388196085438e+00 5.6657671728202406e+00 1.1466860892998993e+01 3 -2 0
3802 1 6.4970775918175176e+00 6.9335407865535261e+00 1.1212138191552995e+01 -3 0 -1
3613 1 8.7645966732445331e+00 5.3824188283464514e+00 1.1219089332868382e+01 2 6 -1
4332 1 1.1044146035036393e+01 6.6824927146387081e+00 1.0890980126503710e+01 1 7 1
3648 1 2.2142319098251688e+00 1.0201806332687937e+01 1.1399952058867882e+01 1 -4 0
2287 1 4.6678781703600141e+00 1.1412998772171573e+01 1.1673007877832523e+01 2 0 0
859 1 6.6851352465646441e+00 9.5522055426324002e+00 1.1327814221858628e+01 1 3 0
817 1 1.1052560232542923e+01 9.3111635107964315e+00 1.1566469417520903e+01 -1 3 0
2155 1 9.0081818366202810e+00 1.0848756918345897e+01 1.1100376236605342e+01 4 4 -1
1624 1 1.0746925887356362e+00 2.0436214414580118e+00 1.4085247363339478e+01 -2 -1 1
2936 1 3.8666019982421718e+00 2.8836877962320986e+00 1.4534993094518672e+01 2 -2 0
2334 1 6.0315071282681574e+00 1.2889820114560231e+00 1.4045662899134223e+01 0 -3 0
1554 1 8.4821109359024121e+00 2.3370528092082252e+00 1.4782792539097708e+01 3 -5 0
830 1 1.0784329097287124e+01 9.6590083754380363e-01 1.4394495531368547e+01 3 0 -1
3755 1 2.1456906765087682e+00 7.5182931457319517e+00 1.4547439656596053e+01 2 -1 -1
2864 1 4.2087529895036813e+00 5.7136962750272495e+00 1.4312853116954493e+01 6 2 0
3650 1 6.7186997641261383e+00 6.7809244966932729e+00 1.4495166769921619e+01 -3 0 1
18 1 8.8206976505399961e+00 5.1095576962926534e+00 1.4026620009241100e+01 1 3 -1
1424 1 1.1092403732900845e+01 6.3765611227442376e+00 1.5122568385950327e+01 4 -3 1
643 1 2.4353687339657570e+00 1.0252703463798580e+01 1.4043159857188545e+01 -1 2 -1
2283 1 5.1209674288103262e+00 1.1230525571382294e+01 1.4795996217500933e+01 -6 5 -1
875 1 7.3763179424591030e+00 9.6443115868663885e+00 1.4132692731954283e+01 3 -3 0
607 1 9.6096466980083584e+00 1.0809192142003651e+01 1.5369570976928081e+01 -3 -5 -1
2330 1 1.1502309014825958e+01 8.9909505234706497e+00 1.4205690286743639e+01 0 1 0
3756 1 1.7705982237007459e-01 1.1897584588601759e+01 1.4074656055104711e+01 0 -2 0
2147 1 5.0273899246818465e-01 1.1940874690485247e+01 1.6776262599379624e+01 0 2 0
2974 1 3.1053785021491942e-01 6.6146009103208971e+00 2.1711617243271405e+01 7 -2 -1
1432 1 2.9563224333003459e+00 1.9815218885035862e-01 2.8188150755487122e+01 -1 4 -1
2290 1 3.6665966914801960e+00 1.4018487248005729e-01 2.1385871488516521e+01 -1 1 -1
4446 1 3.7880546478848456e+00 2.9112629878617597e+00 1.7427127698426343e+01 6 -2 0
3783 1 8.3042530652073108e+00 2.1580383004270902e+00 1.7717355466342081e+01 -3 -6 0
626 1 1.0653243428714141e+01 3.7953223763863573e+00 1.8417425496978925e+01 -4 -1 0
822 1 2.3923454446166943e+00 7.4050504713458816e+00 1.7231433903012352e+01 1 2 1
3881 1 2.0718608034730006e+00 4.7868599152395905e+00 1.8419459713241441e+01 -1 5 1
725 1 6.2072235764714110e+00 3.9631967769967131e+00 1.8518820831033654e+01 -2 1 0
832 1 6.3800750442843599e+00 6.6012361340488885e+00 1.7561968383333785e+01 -2 -2 0
788 1 1.0650431333701814e+01 6.4784421266237047e+00 1.7924909771358500e+01 0 0 0
1491 1 8.5101702766000518e+00 7.9773438005704458e+00 1.8391228792409880e+01 0 0 0
2159 1 1.1677513925411100e+01 1.1620048078332859e+01 3.2130691412053039e+01 1 0 1
636 1 1.1085099114410326e+01 8.9411639392384039e+00 2.9105795335435985e+01 3 -1 0
2216 1 1.7488578573514926e+00 9.7987010110825032e+00 2.8946822816213611e+01 5 2 -1
64 1 4.7388909566436661e+00 8.3882643197666482e+00 1.8420338276851293e+01 0 5 0
4335 1 5.0011762759196463e+00 1.1051601579211951e+01 1.7710254031663098e+01 -5 2 1
1426 1 9.2730855018868876e+00 1.0571207422948802e+01 1.8198334939848625e+01 2 -3 1
3114 1 3.9742588358104114e+00 2.4453924697989168e-01 1.8487382096241308e+01 -5 -3 -1
611 1 1.9647761834882209e+00 2.0783952244043697e+00 2.1955618225132895e+01 -3 1 0
4463 1 1.9005334600098640e+00 9.8296543320125647e+00 3.1682999834243663e+01 -2 1 0
843 1 6.1888377375240484e+00 1.1722809923918576e+00 2.1982805011527272e+01 4 2 0
3038 1 1.0762744620394416e+01 6.9801082638796497e-01 2.2090429538551923e+01 -3 -2 0
3789 1 1.1026408876336905e+01 3.3568240490532251e+00 2.1248597679497969e+01 -6 1 0
2930 1 1.0481774330626408e+01 1.0249052100194163e+00 2.4849901826794639e+01 4 4 -1
1619 1 1.1078489147460520e+01 8.9588477834526756e+00 3.1861117960238669e+01 1 -2 -1
4491 1 2.3650332321753962e+00 4.5858633360281855e+00 2.1189945613071231e+01 2 -3 -1
3762 1 4.0202771489659517e+00 8.4625479946148765e+00 3.2392286525865458e+01 0 4 0
1490 1 6.4176233917896530e+00 3.9398515166067978e+00 2.1238612099961291e+01 -2 -3 0
877 1 4.6073312870016085e+00 5.7813698700315674e+00 2.2068866768568920e+01 -1 1 0
1473 1 3.8441350934090699e+00 5.8118867214297563e+00 2.4749885470631430e+01 0 2 0
837 1 8.9139610389262032e+00 5.0693666684102929e+00 2.1797585502426845e+01 -4 -1 -1
1567 1 8.7388320101015697e+00 4.9637463692846211e+00 2.4571052353009598e+01 -1 1 0
2278 1 2.4644965624243569e+00 1.0075622799104483e+01 2.2010885317707753e+01 -1 4 0
2197 1 2.1320398271859604e+00 9.7935456417484250e+00 2.4793493370612843e+01 5 1 -1
1506 1 4.6634326876094354e+00 8.4405055944125351e+00 2.1193316447227581e+01 -2 -1 0
2902 1 6.9222601601713984e+00 9.4163819208893660e+00 2.1868569145955810e+01 -2 0 -1
646 1 6.7114859684075974e+00 9.5381288879683375e+00 2.4547679241634938e+01 0 -1 0
870 1 2.3581581681891581e-01 9.3432371037890665e+00 2.0859064985262311e+01 0 1 0
4357 1 9.0063999634564631e+00 7.7803276244125392e+00 2.0990419343583742e+01 -1 -1 0
699 1 1.0991121917903291e+01 9.2223596964603480e+00 2.2157612550358813e+01 -2 -3 0
2995 1 6.6306687960622028e+00 9.1545890784933146e+00 2.8991192083522666e+01 0 0 0
4536 1 9.8581488647028837e-01 2.0101012193180114e+00 2.4370543439270349e+01 -2 5 0
766 1 8.9582627686176819e-01 1.6493499983557376e+00 2.8999377391575635e+01 0 4 1
15 1 1.1595964443349263e+01 1.1840537060558132e+01 1.8860786962682539e+01 -2 2 -1
1593 1 5.7246705469793220e+00 1.5565241477009466e+00 2.4682713153830921e+01 0 3 0
2895 1 5.7141542429697854e+00 1.0925989776480927e+00 2.8813530089178364e+01 2 1 -1
3686 1 1.0812639424924029e+01 3.5507766205256490e+00 2.5668051614936576e+01 5 0 0
2845 1 1.0438923199581184e+01 3.3651893681717233e+00 2.8405357606860566e+01 0 1 0
2301 1 1.0491234801950698e+01 8.9303157231881081e-01 2.9272836379097360e+01 3 -1 0
634 1 1.2656004814137256e+00 4.2775153864147333e+00 2.8264868088129841e+01 -2 1 0
3787 1 1.4533674404985426e+00 4.8507001799579390e+00 2.5673525215352381e+01 3 3 0
3649 1 6.2260346451644235e+00 4.2169451700127727e+00 2.5379174093048501e+01 0 -2 0
749 1 5.8099113325544316e+00 3.9700727949079933e+00 2.8035245162622239e+01 1 0 0
3086 1 4.0962029200308203e+00 8.2150148492242323e+00 2.8421438812801313e+01 -2 1 0
12 1 4.3165386843370932e+00 8.4859148608967914e+00 2.5720277340508918e+01 3 6 0
839 1 3.0343926122019460e+00 6.6125559163206993e-01 2.5443173449275815e+01 4 1 0
2273 1 6.4237565813530439e+00 9.4948824253375737e+00 3.1704945742382012e+01 0 -1 0
3662 1 8.7515733416168739e+00 7.6537961898360098e+00 2.5172111412600845e+01 4 -2 0
2904 1 1.1384505997473834e+01 8.6422683191836160e+00 2.4821908395603725e+01 -2 -2 0
2973 1 1.1543634630528390e+00 1.8629770155190812e+00 3.1724458404100645e+01 3 -2 0
2907 1 5.6571090454715938e+00 1.3462220045204134e+00 3.1554677559481092e+01 10 2 0
2989 1 5.6700779011691491e+00 4.1666486745972726e+00 3.2172875386543993e+01 2 -6 0
3820 1 1.0333936571020191e+01 1.0270279739091042e+00 3.2021541254419382e+01 2 -1 0
3618 1 1.0364811182315506e+01 3.7714752241675513e+00 3.2197185219664036e+01 -6 4 -1
1403 1 3.9060065845706355e+00 5.7144101110508405e+00 2.9092418177634883e+01 -2 -2 1
4436 1 1.0521851744840238e+00 4.6446013666180486e+00 3.2232591756385489e+01 3 -1 -1
1604 1 3.6286103243709285e+00 5.7859214353607591e+00 3.1857159685846646e+01 3 0 0
3858 1 8.2604920118632350e+00 5.2897766927694487e+00 3.1531705215146165e+01 0 3 0
759 1 8.8598461481081703e+00 7.6756140957569015e+00 2.8041338630596268e+01 2 3 -2
3898 1 8.5907710425794992e+00 7.8231743440705186e+00 3.2284842981974442e+01 -4 0 0
2383 1 8.2613747139386700e+00 5.0329886955528611e+00 2.8963029861845929e+01 0 1 0
659 1 1.1621579239404497e+01 1.1496376209296963e+01 2.5322079887311780e+01 -2 -2 0
4428 1 1.1667350220882508e+01 1.2044716636803564e+01 2.1405122684320592e+01 -1 5 -1
69 1 1.1591057084533752e+01 1.1633630006819836e+01 2.8398665666425625e+01 3 0 0
4363 1 3.2459671487737358e+00 2.3821413791440105e-01 3.2477338116275327e+01 2 3 0
2275 1 1.4650807809516767e-01 1.3479498526405280e+00 2.0226815193828010e+01 2 -2 -1
1368 1 4.8740593273009036e-01 9.3565747605928706e+00 1.7851476869630204e+01 -2 1 0
4503 1 7.0280220589432085e+00 1.2009622952047362e+01 2.5420953236279956e+01 3 -2 -1
1358 1 6.9939967279259383e+00 1.2016673087527042e+01 3.2597572910722192e+01 -3 -2 0
4541 1 7.0081072824481492e+00 1.1770809523951822e+01 2.8067266174767859e+01 -3 5 -1
2289 1 7.1457154040137594e+00 1.2134864670637942e+01 1.8826375652195704e+01 0 3 -1
4356 1 6.8904443212934403e+00 1.2179998332026690e+01 2.1564530582370665e+01 -3 -2 -1
3635 1 2.1280703203083058e+00 1.2225067258074356e+01 3.2516273222882049e+01 5 3 1
132 2 0.0000000000000000e+00 1.2787731112280996e+01 2.1480076838218864e+00 0 0 0
134 2 1.2305000000000001e+00 1.3498160618518829e+01 2.1480076838218864e+00 0 0 0
169 2 2.4610000000000003e+00 1.2787731112280996e+01 2.1480076838218864e+00 0 0 0
171 2 3.6915000000000004e+00 1.3498160618518829e+01 2.1480076838218864e+00 0 0 0
130 2 0.0000000000000000e+00 1.5629449137232333e+01 2.1480076838218864e+00 0 0 0
165 2 1.2305000000000001e+00 1.4919019630994494e+01 2.1480076838218864e+00 0 0 0
167 2 2.4610000000000003e+00 1.5629449137232328e+01 2.1480076838218864e+00 0 0 0
210 2 3.6915000000000004e+00 1.4919019630994494e+01 2.1480076838218864e+00 0 0 0
214 2 4.9220000000000006e+00 1.2787731112280996e+01 2.1480076838218864e+00 0 0 0
216 2 6.1524999999999990e+00 1.3498160618518829e+01 2.1480076838218864e+00 0 0 0
261 2 7.3829999999999991e+00 1.2787731112280996e+01 2.1480076838218864e+00 0 0 0
212 2 4.9220000000000006e+00 1.5629449137232333e+01 2.1480076838218864e+00 0 0 0
257 2 6.1524999999999990e+00 1.4919019630994494e+01 2.1480076838218864e+00 0 0 0
259 2 7.3829999999999991e+00 1.5629449137232333e+01 2.1480076838218864e+00 0 0 0
263 2 8.6135000000000002e+00 1.3498160618518835e+01 2.1480076838218864e+00 0 0 0
308 2 9.8440000000000012e+00 1.2787731112280996e+01 2.1480076838218864e+00 0 0 0
310 2 1.1074500000000002e+01 1.3498160618518829e+01 2.1480076838218864e+00 0 0 0
304 2 8.6135000000000002e+00 1.4919019630994494e+01 2.1480076838218864e+00 0 0 0
306 2 9.8440000000000012e+00 1.5629449137232328e+01 2.1480076838218864e+00 0 0 0
346 2 1.1074500000000002e+01 1.4919019630994494e+01 2.1480076838218864e+00 0 0 0
161 2 0.0000000000000000e+00 1.7050308149707998e+01 2.1480076838218864e+00 0 0 0
206 2 2.4610000000000003e+00 1.7050308149707998e+01 2.1480076838218864e+00 0 0 0
159 2 0.0000000000000000e+00 1.9892026174659328e+01 2.1480076838218864e+00 0 0 0
163 2 1.2305000000000001e+00 1.7760737655945832e+01 2.1480076838218864e+00 0 0 0
202 2 1.2305000000000001e+00 1.9181596668421495e+01 2.1480076838218864e+00 0 0 0
204 2 2.4610000000000003e+00 1.9892026174659328e+01 2.1480076838218864e+00 0 0 0
208 2 3.6914999999999996e+00 1.7760737655945832e+01 2.1480076838218864e+00 0 0 0
249 2 3.6914999999999996e+00 1.9181596668421495e+01 2.1480076838218864e+00 0 0 0
253 2 4.9220000000000006e+00 1.7050308149707998e+01 2.1480076838218864e+00 0 0 0
300 2 7.3830000000000009e+00 1.7050308149707998e+01 2.1480076838218864e+00 0 0 0
251 2 4.9220000000000006e+00 1.9892026174659328e+01 2.1480076838218864e+00 0 0 0
255 2 6.1524999999999999e+00 1.7760737655945832e+01 2.1480076838218864e+00 0 0 0
296 2 6.1524999999999999e+00 1.9181596668421495e+01 2.1480076838218864e+00 0 0 0
298 2 7.3829999999999991e+00 1.9892026174659328e+01 2.1480076838218864e+00 0 0 0
342 2 9.8440000000000012e+00 1.7050308149707998e+01 2.1480076838218864e+00 0 0 0
376 2 1.2304999999999998e+01 1.7050308149707998e+01 2.1480076838218864e+00 0 0 0
302 2 8.6134999999999984e+00 1.7760737655945832e+01 2.1480076838218864e+00 0 0 0
338 2 8.6135000000000002e+00 1.9181596668421495e+01 2.1480076838218864e+00 0 0 0
340 2 9.8440000000000012e+00 1.9892026174659335e+01 2.1480076838218864e+00 0 0 0
344 2 1.1074500000000002e+01 1.7760737655945835e+01 2.1480076838218864e+00 0 0 0
372 2 1.1074500000000002e+01 1.9181596668421495e+01 2.1480076838218864e+00 0 0 0
196 2 0.0000000000000000e+00 2.4154603212086325e+01 2.1480076838218864e+00 0 0 0
198 2 0.0000000000000000e+00 2.1312885187134999e+01 2.1480076838218864e+00 0 0 0
200 2 1.2304999999999993e+00 2.2023314693372832e+01 2.1480076838218864e+00 0 0 0
241 2 1.2304999999999993e+00 2.3444173705848499e+01 2.1480076838218864e+00 0 0 0
243 2 2.4610000000000003e+00 2.4154603212086325e+01 2.1480076838218864e+00 0 0 0
245 2 2.4610000000000003e+00 2.1312885187134995e+01 2.1480076838218864e+00 0 0 0
247 2 3.6914999999999996e+00 2.2023314693372832e+01 2.1480076838218864e+00 0 0 0
288 2 3.6915000000000004e+00 2.3444173705848499e+01 2.1480076838218864e+00 0 0 0
290 2 4.9220000000000006e+00 2.4154603212086325e+01 2.1480076838218864e+00 0 0 0
292 2 4.9220000000000006e+00 2.1312885187134995e+01 2.1480076838218864e+00 0 0 0
294 2 6.1524999999999990e+00 2.2023314693372832e+01 2.1480076838218864e+00 0 0 0
330 2 6.1524999999999999e+00 2.3444173705848499e+01 2.1480076838218864e+00 0 0 0
332 2 7.3830000000000009e+00 2.4154603212086336e+01 2.1480076838218864e+00 0 0 0
334 2 7.3829999999999991e+00 2.1312885187134999e+01 2.1480076838218864e+00 0 0 0
336 2 8.6135000000000002e+00 2.2023314693372832e+01 2.1480076838218864e+00 0 0 0
364 2 8.6134999999999984e+00 2.3444173705848499e+01 2.1480076838218864e+00 0 0 0
366 2 9.8440000000000012e+00 2.4154603212086336e+01 2.1480076838218864e+00 0 0 0
368 2 9.8440000000000012e+00 2.1312885187134999e+01 2.1480076838218864e+00 0 0 0
370 2 1.1074500000000002e+01 2.2023314693372832e+01 2.1480076838218864e+00 0 0 0
390 2 1.1074500000000002e+01 2.3444173705848499e+01 2.1480076838218864e+00 0 0 0
133 2 0.0000000000000000e+00 1.2787731112280996e+01 5.3976688545135421e+00 0 0 0
170 2 2.4610000000000003e+00 1.2787731112280996e+01 5.3976688545135421e+00 0 0 0
442 2 0.0000000000000000e+00 1.2787731112280996e+01 8.6473300252077223e+00 0 0 0
443 2 1.2305000000000001e+00 1.3498160618518829e+01 8.6473300252077223e+00 0 0 0
461 2 2.4610000000000003e+00 1.2787731112280996e+01 8.6473300252077223e+00 0 0 0