
# Create simulation box and atoms

read_data data.ML_graphite_1atm_240K
  orthogonal box = (0 0 1.76685) to (49.22 49.0196 31.8685)
  4 by 4 by 2 MPI processor grid
  reading atoms ...
  4545 atoms
  reading velocities ...
  4545 velocities
group water type 1
1785 atoms in group water
group graphite type 2
2760 atoms in group graphite

# Define potential

pair_style sw
pair_coeff * * MLC_e.sw mW C


# Fix graphite atoms in place

fix 5 graphite setforce 0.0 0.0 0.0
velocity graphite set 0.0 0.0 0.0


# Equilibration of molecular water

# Add velocity/set timestep

velocity	    water create ${TEMP} ${SEED} rot yes dist gaussian
velocity	    water create 240 ${SEED} rot yes dist gaussian
velocity	    water create 240 10424 rot yes dist gaussian
timestep	    5.0

# Define output

compute			1 water msd
compute			3 water temp
thermo	    	50
thermo_style	custom step temp press vol etotal ke pe c_1[4] c_3

# Neighbor lists

neigh_modify    delay 0 every 1 check yes

# Set fixes

fix             1 water momentum 10 linear 1 1 1 rescale
fix             2 water nve
fix             3 water temp/csvr ${TEMP} ${TEMP} 500.0 ${SEED}
fix             3 water temp/csvr 240 ${TEMP} 500.0 ${SEED}
fix             3 water temp/csvr 240 240 500.0 ${SEED}
fix             3 water temp/csvr 240 240 500.0 10424
fix             4 water press/berendsen z ${PRES} ${PRES} 1000.0 modulus 20000
fix             4 water press/berendsen z 1 ${PRES} 1000.0 modulus 20000
fix             4 water press/berendsen z 1 1 1000.0 modulus 20000

# Run 0.5 ns equilibration

dump		    1 all atom 2000 ${DIR}/eq.${NAME}-${TEMP}.dump
dump		    1 all atom 2000 run_15/eq.${NAME}-${TEMP}.dump
dump		    1 all atom 2000 run_15/eq.het_freeze_15-${TEMP}.dump
dump		    1 all atom 2000 run_15/eq.het_freeze_15-240.dump

reset_timestep  0

run	            100000
Neighbor list info ...
  update every 1 steps, delay 0 steps, check yes
  max neighbors/atom: 2000, page size: 100000
  master list distance cutoff = 6.67472
  ghost atom cutoff = 6.67472
  binsize = 3.33736, bins = 15 15 10
  1 neighbor lists, perpetual/occasional/extra = 1 0 0
  (1) pair sw, perpetual
      attributes: full, newton on
      pair build: full/bin/atomonly
      stencil: full/bin/3d
      bin: standard
Per MPI rank memory allocation (min/avg/max) = 4.115 | 4.302 | 4.489 Mbytes
Step Temp Press Volume TotEng KinEng PotEng c_1[4] c_3 
       0    94.225352   -657.89738    72627.636   -17236.286    1276.2636    -18512.55            0          240 
      50    95.016635   -315.27548    72653.132   -17225.281    1286.9814   -18512.262   0.52400235    242.01547 
     100    96.172197   -781.42701    72638.973   -17187.683    1302.6333   -18490.316   0.92366251    244.95878 
     150    96.132059   -245.01871    72658.168   -17196.065    1302.0896   -18498.154    1.1943205    244.85655 
     200    95.503601    -455.4977    72730.971   -17191.147    1293.5773   -18484.725     1.417613    243.25581 
     250    95.580974   -315.37694    72724.169   -17173.035    1294.6253   -18467.661    1.7245988    243.45288 
     300    93.888525   -343.71543     72799.29   -17183.553    1271.7014   -18455.255    2.0268843    239.14207 
     350    96.069425   -321.49383     72835.74   -17154.258    1301.2412   -18455.499    2.2725134    244.69701 
     400    97.075834   -620.62056    72839.362    -17166.19    1314.8728   -18481.063     2.467763    247.26042 
     450    95.810387   -292.90527    72869.438   -17153.651    1297.7326   -18451.384    2.6245086    244.03722 
     500    95.912441   -476.21696    72859.604   -17142.589    1299.1149   -18441.704    2.8221661    244.29716 
     550    96.174798   -549.22851    72862.387   -17144.058    1302.6685   -18446.726    3.0011602     244.9654 
     600    94.287198   -411.82164    72833.689   -17160.299    1277.1013     -18437.4    3.2256145    240.15753 
     650    97.245122   -181.75882     72879.53   -17167.933    1317.1658   -18485.099    3.4496033    247.69161 
     700     91.51068   -701.97393    72872.833   -17194.994    1239.4939   -18434.488    3.7489225     233.0855 
     750     96.08722   -655.09904    72824.554    -17196.57    1301.4823   -18498.052    4.0033851    244.74234 
     800    94.793791   -667.54104    72816.554   -17202.479     1283.963   -18486.442    4.2076301    241.44786 
     850     92.45935   -604.69676    72816.081   -17213.212    1252.3435   -18465.555    4.3543576    235.50184 
     900    94.161746   -690.85065    72837.291   -17217.054    1275.4021   -18492.456    4.6261315    239.83799 
     950     94.85731   -976.84312    72811.645   -17214.271    1284.8234   -18499.095    4.9407896    241.60965 
    1000    95.958899   -310.69573    72780.474   -17199.822    1299.7442   -18499.566    5.2667675    244.41549 
    1050    94.946898    -497.6615    72716.128   -17191.763    1286.0368     -18477.8     5.457767    241.83784 
    1100    94.087792   -327.59946    72637.169   -17194.284    1274.4004   -18468.685    5.6008997    239.64962 
    1150    97.951582   -401.95691    72664.776    -17188.17    1326.7347   -18514.905    5.7220364    249.49103 
    1200    96.145555   -347.97677     72688.18   -17192.308    1302.2724    -18494.58    5.9517624    244.89092 
    1250    98.908736   -758.39888    72700.562   -17190.966    1339.6991   -18530.665     6.158121    251.92898 
    1300    97.044986   -176.75736    72708.456   -17186.315     1314.455    -18500.77    6.3447791    247.18185 
    1350    94.393588   -303.61643    72789.525   -17212.019    1278.5424   -18490.561    6.5482007    240.42851 
    1400    93.292831   -865.13698    72782.657   -17198.151    1263.6328   -18461.784    6.6265918    237.62479 
    1450    96.454822     -514.456    72788.911   -17203.111    1306.4614   -18509.572    6.7017153    245.67865 
    1500    94.475735   -587.02243    72845.536   -17224.774     1279.655   -18504.429     6.951975    240.63775 
    1550    93.904617   -444.43925    72814.965   -17211.281    1271.9193     -18483.2    7.1672504    239.18306 
    1600    96.051182    -123.4278    72802.573   -17214.324    1300.9941   -18515.318    7.2478934    244.65054 
    1650    97.063676   -787.81115     72807.21   -17213.333    1314.7082   -18528.041    7.3890748    247.22945 
    1700    94.718258    -441.9915    72771.989    -17201.45    1282.9399    -18484.39    7.7051802    241.25547 
    1750     96.41859   -756.86077    72822.007   -17208.236    1305.9706   -18514.207     7.905267    245.58636 
    1800    94.644861   -619.45708    72833.866   -17193.162    1281.9458   -18475.107    8.1049471    241.06853 
    1850    95.412456   -569.12642    72829.444   -17195.407    1292.3427   -18487.749    8.2999484    243.02366 
    1900    93.695628   -779.88046    72782.667    -17178.25    1269.0886   -18447.338    8.4528198    238.65075 
    1950    94.785181   -439.48161    72808.866   -17187.946    1283.8464   -18471.792    8.6477646    241.42593 
    2000    91.720749   -425.18943    72832.533    -17188.16    1242.3393     -18430.5    8.9303677    233.62056 
    2050    93.102417   -804.66684    72791.487    -17204.15    1261.0537   -18465.204    9.1664183    237.13979 
    2100    92.304025   -366.63888    72799.573    -17200.75    1250.2396   -18450.989    9.4580595    235.10622 
    2150    93.518918   -547.15722    72731.067   -17209.609    1266.6951   -18476.304    9.8194323    238.20065 
    2200    93.026766   -629.25295    72713.948   -17236.127     1260.029   -18496.156    10.038807     236.9471 
    2250    90.785045   -486.61214    72659.227     -17232.1    1229.6654   -18461.765    10.275288    231.23725 
    2300    94.318422   -402.79977    72641.057   -17222.854    1277.5242   -18500.378    10.569939    240.23706 
    2350    93.280356   -557.67107    72636.675   -17241.028    1263.4638   -18504.492    11.021502    237.59301 
    2400     94.72987   -277.41166    72686.215   -17243.329    1283.0972   -18526.426    11.286522    241.28505 
    2450    96.233343   -577.35826    72761.938   -17242.078    1303.4615   -18545.539    11.475678    245.11452 
    2500    92.703257   -717.02726    72772.782   -17226.028    1255.6472   -18481.675    11.761791    236.12309 
    2550    97.065397   -449.78667     72765.79   -17218.905    1314.7315   -18533.637    12.033694    247.23384 
    2600    93.902353   -550.88669    72824.397   -17195.915    1271.8887   -18467.803    12.290708    239.17729 
    2650    97.681984   -380.33804    72819.542    -17191.61     1323.083   -18514.693    12.282168    248.80434 
    2700     95.30033   -243.86752    72882.264   -17216.305     1290.824   -18507.129    12.387612    242.73806 
    2750    96.199561   -185.62282    72921.034    -17207.27    1303.0039   -18510.274    12.679622    245.02848 
    2800    95.268607   -133.59192    72959.712   -17200.534    1290.3943   -18490.928    12.934191    242.65726 
    2850     94.80613   -222.70102    73004.163    -17216.19    1284.1301    -18500.32     13.05373    241.47929 
    2900    94.661613   -806.24203    73003.586   -17202.224    1282.1727   -18484.396    13.117213    241.11119 
    2950    94.745549   -531.35793    72985.437   -17222.591    1283.3096   -18505.901    13.143129    241.32499 
    3000    93.089216   -554.56589    72891.074   -17211.862    1260.8749   -18472.737    13.267663    237.10616 
    3050    94.730064   -428.99168    72839.396   -17235.843    1283.0999   -18518.943    13.437241    241.28555 
    3100    92.692382   -604.01735    72869.853   -17260.071    1255.4998    -18515.57    13.662606    236.09539 
    3150    94.605096   -457.41055    72893.873    -17256.58    1281.4072   -18537.987    13.998605    240.96724 
    3200    94.204956   -727.95443     72877.19   -17245.841    1275.9874   -18521.828    14.152016    239.94805 
    3250    93.234818   -787.10015    72818.764   -17253.509     1262.847   -18516.356    14.293498    237.47703 
    3300    94.381804   -703.35064    72801.211    -17238.59    1278.3827   -18516.972    14.546705     240.3985 
    3350      92.6206   -772.13254    72710.043   -17265.592    1254.5276   -18520.119    14.701271    235.91256 
    3400    94.433418    126.76497     72667.49   -17247.262    1279.0818   -18526.344    14.927546    240.52996 
    3450    92.263864   -300.91087    72751.549   -17237.973    1249.6957   -18487.669    15.233636    235.00392 
    3500     92.96721    -332.9051    72759.212   -17232.632    1259.2223   -18491.854    15.463377     236.7954 
    3550    94.238701   -181.23652    72801.717   -17227.703    1276.4444   -18504.147     15.61781      240.034 
    3600    97.040628   -461.89904    72826.827   -17261.251     1314.396   -18575.647    15.635992    247.17075 
    3650    92.637319   -632.46962    72745.347   -17275.556     1254.754    -18530.31    15.720414    235.95515 
    3700    93.773752   -139.70196     72725.97   -17299.108    1270.1468   -18569.255    15.864662    238.84974 
    3750    93.645703   -361.40238    72803.109   -17305.745    1268.4124   -18574.157    15.906538    238.52358 
    3800     93.18033   -350.74149     72822.65   -17313.598     1262.109   -18575.707    16.109263    237.33824 
    3850    91.256762   -218.78889    72770.356   -17313.821    1236.0547   -18549.876    16.288036    232.43875 
    3900    90.341938   -618.41367    72807.655   -17331.732    1223.6636   -18555.396     16.49074    230.10861 
    3950    92.608301   -194.56884    72819.638   -17305.173     1254.361   -18559.534    16.514619    235.88123 
    4000    95.405151   -635.03873    72910.156   -17285.978    1292.2438   -18578.222    16.578107    243.00505 
    4050    92.909191   -604.39609    72872.615   -17283.022    1258.4365   -18541.458    16.797638    236.64763 
    4100    93.338071   -313.60371    72883.452   -17265.693    1264.2456   -18529.939    16.997356    237.74002 
    4150    95.461769    199.39794    72899.071   -17281.304    1293.0106   -18574.315    17.104192    243.14926 
    4200    95.164978   -340.83341    72913.317   -17262.086    1288.9907   -18551.077      17.3675    242.39331 
    4250    90.839666   -455.43849    72853.623   -17276.825    1230.4052   -18507.231    17.558828    231.37637 
    4300    90.813125    -704.5934    72832.532    -17289.94    1230.0457   -18519.986    17.593668    231.30877 
    4350    93.779472   -231.27155    72832.486   -17278.206    1270.2243    -18548.43    17.839298    238.86431 
    4400    92.694868   -382.48078    72819.764    -17276.06    1255.5335   -18531.594    18.106093    236.10173 
    4450    94.061491   -383.21052    72795.684   -17277.106    1274.0442    -18551.15    18.446275    239.58263 
    4500    93.033762   -748.91885    72846.459    -17293.66    1260.1238   -18553.784    18.643245    236.96492 
    4550     93.75534   -230.80342    72839.457   -17275.082    1269.8974    -18544.98    18.784988    238.80284 
    4600    95.955803    -362.2653    72857.796    -17228.45    1299.7022   -18528.153     19.04338    244.40761 
    4650    94.686802   -395.06719    72893.732   -17249.984    1282.5139   -18532.498    19.172464    241.17535 
    4700    91.697814   -677.87221    72877.716   -17286.828    1242.0286   -18528.857     19.27496    233.56214 
    4750    94.198166   -43.835037    72822.407   -17267.932    1275.8954   -18543.828    19.350542    239.93076 
    4800    94.899175   -180.81105    72826.931   -17256.209    1285.3904     -18541.6    19.429145    241.71629 
    4850    96.475301   -117.70142    72898.007   -17221.549    1306.7387   -18528.288    19.590158    245.73081 
    4900    96.858113   -523.73893    72962.262   -17227.284    1311.9239   -18539.208    19.830009    246.70587 
    4950    95.355331   -502.46988    72984.521   -17242.026     1291.569   -18533.595    19.968676    242.87815 
    5000    95.042654   -609.79386    72987.232   -17228.922    1287.3338   -18516.256    20.090976    242.08174 
    5050    93.621962     -625.897    72929.156   -17225.996    1268.0908   -18494.087    20.331581    238.46311 
    5100    93.980415   -317.73124    72923.825   -17241.481     1272.946   -18514.427    20.521655    239.37612 
    5150    94.138173   -648.28061    72986.447   -17224.482    1275.0828   -18499.565    20.914276    239.77795 
    5200    94.737837   -611.65963    72960.924   -17196.702    1283.2051   -18479.907    21.092814    241.30534 
    5250    96.743318   -414.30994    72942.857   -17181.328     1310.369   -18491.697    21.335327    246.41347 
    5300    96.656277   -773.39762    72930.474   -17190.837      1309.19   -18500.028    21.480938    246.19177 
    5350    95.641798   -577.44914    72904.585   -17191.097    1295.4491   -18486.546    21.570762    243.60781 
    5400    96.373038   -343.97452    72862.574     -17221.9    1305.3536   -18527.254    21.707815    245.47034 
    5450    94.368827   -311.80817     72903.31   -17239.199     1278.207   -18517.406    22.231195    240.36544 
    5500    94.760373   -228.46554    72892.431   -17213.565    1283.5104   -18497.075    22.526901    241.36274 
    5550    96.360381   -390.06955    72865.287   -17207.188    1305.1822    -18512.37     22.85412     245.4381 
    5600    96.412092   -749.06302    72938.512   -17238.233    1305.8826   -18544.116    23.308264    245.56981 
    5650    93.673272   -197.26345    72925.831   -17238.244    1268.7858    -18507.03    23.671556     238.5938 
    5700    91.727228    -261.6768    72934.932   -17263.226     1242.427   -18505.653    23.750725    233.63707 
    5750    93.750858   -610.37503    72931.289   -17257.855    1269.8367   -18527.692    23.959782    238.79142 
    5800     94.47769   -886.09206    72912.512   -17253.685    1279.6815   -18533.367    24.055611    240.64273 
    5850    95.628673    -564.1941     72912.04   -17220.145    1295.2713   -18515.416    24.270838    243.57438 
    5900    97.037592   -477.59563     72939.04   -17202.924    1314.3549   -18517.278    24.565369    247.16301 
    5950    96.745941   -491.94052    72940.024   -17224.607    1310.4045   -18535.012    24.839674    246.42015 
    6000     95.46789   -321.44782     72931.64   -17246.772    1293.0936   -18539.865    24.928273    243.16485 
    6050    95.077917   -606.71159    72918.902   -17255.377    1287.8115   -18543.188    24.948154    242.17156 
    6100    95.679873   -775.21572    72892.294   -17251.811    1295.9648   -18547.776    25.002804    243.70479 
    6150    92.767386   -702.96857    72834.085    -17270.47    1256.5158   -18526.985    25.355379    236.28644 
    6200    93.599507    -916.9729    72834.082   -17272.202    1267.7867   -18539.988    25.674799    238.40592 
    6250      94.0606   -537.49624    72828.844   -17244.243    1274.0321   -18518.275    26.028077    239.58036 
    6300    95.036412   -93.928414    72816.577    -17231.48    1287.2493   -18518.729     26.44622    242.06584 
    6350    93.302894   -866.15502    72834.832   -17265.332    1263.7691   -18529.101    26.801602    237.65042 
    6400    92.603969   -465.63895    72779.712    -17269.71    1254.3023   -18524.012    26.918334     235.8702 
    6450    91.540027    -792.1186    72744.382   -17274.749    1239.8914    -18514.64     26.87307    233.16025 
    6500    90.569559   -526.63513    72731.317   -17310.318    1226.7466   -18537.065      27.0353    230.68838 
    6550    92.215675   -55.200621    72776.844   -17337.859     1249.043   -18586.902    27.390814    234.88118 
    6600    92.320758   -395.71944    72812.168   -17315.855    1250.4663   -18566.321     27.55308    235.14884 
    6650    95.744007    -641.7357    72854.154   -17270.801    1296.8335   -18567.635    27.752014    243.86814 
    6700    93.570076   -345.52001     72919.05   -17247.639     1267.388   -18515.027    27.936252    238.33096 
    6750    94.840411   -484.64272    72956.833   -17283.511    1284.5945   -18568.106    28.015641    241.56661 
    6800    92.171714   -379.69252    73000.346    -17308.04    1248.4475   -18556.487    28.143769    234.76921 
    6850    96.096201   -850.75639    72948.606   -17289.352    1301.6039   -18590.956    28.407645    244.76521 
    6900    94.761609   -338.57289    72902.657   -17295.044    1283.5271   -18578.572    28.485361    241.36589 
    6950    92.013721   -702.80022    72952.458   -17285.318    1246.3075   -18531.626    28.589423    234.36679 
    7000    94.012763   -600.97476    72936.129   -17316.332    1273.3842   -18589.716    28.789367    239.45852 
    7050    91.862457    -217.5746    72956.997   -17299.957    1244.2587   -18544.216    28.944883     233.9815 
    7100    96.189437   -286.26848    73003.335   -17270.548    1302.8668   -18573.414    29.209777    245.00269 
    7150     93.52451   -648.07767    73032.838   -17256.593    1266.7709   -18523.364    29.467828     238.2149 
    7200    93.375993   -378.30715    73044.869     -17271.5    1264.7592   -18536.259    29.701113    237.83661 
    7250    95.194615   -255.09155    73064.079   -17266.926    1289.3921   -18556.318    30.048044     242.4688 
    7300    95.106686   -484.74824     73152.49   -17264.337    1288.2011   -18552.538    30.391894    242.24483 
    7350    93.253935   -543.92497    73170.126   -17298.668     1263.106   -18561.774    30.590882    237.52572 
    7400     92.91289   -566.49896    73132.367   -17286.971    1258.4866   -18545.457    30.903796    236.65705 
    7450    94.488362   -422.92477    73086.137   -17298.717     1279.826   -18578.543    30.872821    240.66991 
    7500    93.215673   -568.07138    73084.637   -17300.866    1262.5877   -18563.453    30.875855    237.42826 
    7550    93.627099   -368.70921    73073.003   -17315.896    1268.1604   -18584.057     31.11261     238.4762 
    7600    94.627128    -371.6064    73119.572    -17316.71    1281.7056   -18598.416    31.087205    241.02336 
    7650    95.237807   -516.73787    73148.906   -17297.114    1289.9771   -18587.091    31.246509    242.57881 
    7700    93.132034   -629.74467    73110.959   -17268.508    1261.4549   -18529.962    31.291108    237.21523 
    7750    92.755487   -405.11932    73034.783   -17322.812    1256.3546   -18579.166    31.427832    236.25613 
    7800    93.286129   -491.30067    73038.236   -17338.423     1263.542   -18601.965    31.703981    237.60772 
    7850    92.821444   -522.05496    73023.848    -17335.01     1257.248   -18592.258    31.878045    236.42413 
    7900    93.166993    -464.8925    73044.058   -17332.489    1261.9284   -18594.417    31.818824    237.30427 
    7950    90.975832   -202.13589    73017.566   -17315.993    1232.2495   -18548.243    31.967846    231.72319 
    8000    94.085647   -118.75061    73037.415   -17304.889    1274.3713   -18579.261    32.161699    239.64416 
    8050    92.089143   -509.68075    72999.719   -17297.124    1247.3291   -18544.453    32.462244    234.55889 
    8100    93.814974   -579.69768    72955.915   -17274.787    1270.7051   -18545.492     32.51078    238.95473 
    8150    92.505992   -472.00337    72942.153   -17263.703    1252.9752   -18516.678    32.840192    235.62064 
    8200    93.536781    -440.7461    72954.963   -17233.076    1266.9371   -18500.013    33.218154    238.24615 
    8250      94.2877   -649.28593    72893.936   -17219.795    1277.1081   -18496.903    33.074539     240.1588 
    8300    94.052151   -813.45804    72866.504   -17240.318    1273.9177   -18514.236    33.167267    239.55884 
    8350    93.328179   -111.93341    72832.245   -17224.968    1264.1116    -18489.08    33.336402    237.71482 
    8400    96.017134   -482.31099    72888.486   -17244.378     1300.533   -18544.911    33.737997    244.56382 
    8450    94.552261   -766.65994      72854.2   -17242.043    1280.6915   -18522.735    34.134157    240.83266 
    8500    94.213662   -522.26055    72790.566   -17252.603    1276.1053   -18528.708    34.303603    239.97023 
    8550    94.419266   -463.29087    72814.561   -17241.328    1278.8902   -18520.218    34.623797    240.49391 
    8600    95.139388   -569.78567    72861.769   -17204.145    1288.6441   -18492.789    34.692099    242.32813 
    8650    97.736647   -609.37882    72828.961   -17208.387    1323.8234    -18532.21    34.977031    248.94357 
    8700    95.297612   -436.33863    72773.712   -17190.301    1290.7872   -18481.089    35.559332    242.73114 
    8750     93.75816   -612.67449    72684.491   -17231.476    1269.9356   -18501.412    35.798471    238.81002 
    8800    93.121919   -763.78858    72601.431   -17248.808    1261.3179   -18510.126    35.940414    237.18946 
    8850     94.82653   -305.43393    72619.188    -17265.89    1284.4065   -18550.296    36.063734    241.53125 
    8900     91.16372    -948.0007    72627.518   -17279.308    1234.7944   -18514.102    36.421041    232.20176 
    8950    93.767967   -817.37773    72586.974   -17272.777    1270.0684   -18542.845    36.628384      238.835 
    9000    94.029211   -393.07735    72615.638   -17213.741    1273.6069   -18487.348    36.856653    239.50041 
    9050    93.432504   -223.27978    72738.543   -17239.086    1265.5247    -18504.61    37.098007    237.98055 
    9100    95.060457   -787.81797    72754.056   -17226.027     1287.575   -18513.602    37.196717    242.12708 
    9150    93.516356   -657.99208    72701.671   -17228.236    1266.6604   -18494.896    37.346069    238.19413 
    9200    93.685803   -722.70322    72680.903   -17249.596    1268.9556   -18518.551    37.512285    238.62572 
    9250    90.618763   -420.51885    72627.018   -17263.768    1227.4131   -18491.181    37.540087    230.81371 
    9300    96.632496   -499.52682    72563.424   -17219.193    1308.8679   -18528.061    37.732149     246.1312 
    9350    94.255165   -340.64206    72581.643   -17229.959    1276.6674   -18506.627     38.12476    240.07594 
    9400    94.985028    -44.87254    72665.433   -17223.623    1286.5533   -18510.176    38.347445    241.93496 
    9450    95.335228   -385.20563    72733.206   -17235.318    1291.2967   -18526.615    38.693748    242.82695 
    9500    94.011943   -604.26155    72751.331   -17250.196    1273.3731    -18523.57    38.998471    239.45643 
    9550     95.98326   -189.20871    72834.371   -17232.216    1300.0741    -18532.29    39.171231    244.47754 
    9600    95.636197   -527.43476    72863.247   -17212.713    1295.3732   -18508.086    39.338887    243.59354 
    9650    93.949762   -244.89195    72885.705   -17235.491    1272.5308   -18508.022    39.429656    239.29805 
    9700    90.802538    -447.6271    72851.638   -17279.253    1229.9023   -18509.155    39.460706     231.2818 
    9750    91.100675   -487.64332     72872.56   -17266.285    1233.9405   -18500.225    39.627222    232.04118 
    9800    91.478683    -818.2987    72879.827   -17286.744    1239.0605   -18525.805    39.722887      233.004 
    9850    93.220139    -480.4778    72844.033   -17293.687    1262.6482   -18556.336    39.819604    237.43964 
    9900    93.251116   -645.61211    72838.917   -17312.274    1263.0678   -18575.342     40.18671    237.51854 
    9950      96.1289   -338.24814    72809.623   -17271.625    1302.0468   -18573.672    40.340745     244.8485 
   10000    96.001073   -506.29134    72825.583   -17219.733    1300.3154   -18520.048    40.500813    244.52291 
   10050    95.419216   -233.76316    72827.477   -17211.517    1292.4343   -18503.951    40.865055    243.04087 
   10100    95.527921   -509.51281    72869.871   -17222.424    1293.9067   -18516.331    40.892156    243.31775 
   10150    93.776024   -525.72282    72890.197   -17216.355    1270.1776   -18486.533    41.016969    238.85552 
   10200    93.596366   -521.75051    72850.516    -17212.43    1267.7441   -18480.175    41.114563    238.39792 
   10250    94.749169   -975.70255    72799.795   -17238.932    1283.3586    -18522.29     41.23642    241.33421 
   10300    92.649065   -894.50064    72780.031   -17212.287    1254.9131     -18467.2    41.572487    235.98506 
   10350    96.471947   -904.07614    72808.461   -17192.668    1306.6933   -18499.361    41.707251    245.72227 
   10400    99.491922   -711.73416    72773.726   -17192.084    1347.5983   -18539.682    41.776671     253.4144 
   10450      93.5981   -515.87388     72746.14    -17201.59    1267.7676   -18469.357     42.10844    238.40233 
   10500    93.560676    -278.8406    72742.548   -17202.857    1267.2607   -18470.118     42.34091    238.30701 
   10550    92.370956   -579.77228    72742.539   -17207.738    1251.1462   -18458.884    42.550548    235.27669 
   10600    95.073845   -251.62887    72737.895   -17210.364    1287.7563    -18498.12    42.756097    242.16118 
   10650    96.150635   -714.27061    72736.562   -17206.562    1302.3412   -18508.903    42.940733    244.90386 
   10700    95.963635   -143.37956    72693.806   -17197.693    1299.8083   -18497.501    43.053466    244.42755 
   10750    94.869684   -420.58336    72708.454   -17200.425     1284.991   -18485.416    43.357986    241.64117 
   10800    96.240875   -551.77737    72717.652   -17238.216    1303.5635    -18541.78    43.395275    245.13371 
   10850    93.860276   -766.48362    72794.454     -17256.8    1271.3188   -18528.119    43.821888    239.07012 
   10900    92.599362   -704.08614    72804.263    -17283.69    1254.2399    -18537.93     44.08198    235.85847 
   10950    95.631448   -438.54707    72846.337    -17250.39    1295.3089   -18545.699    44.255651    243.58145 
   11000    94.360901   -544.41124    72863.716   -17264.435    1278.0996   -18542.535     44.18873    240.34525 
   11050    92.567773   -413.31152    72804.937   -17305.155    1253.8121   -18558.967    44.461295      235.778 
   11100    92.414979   -766.05565    72767.949   -17292.204    1251.7425   -18543.947    44.767344    235.38883 
   11150    92.815032   -387.84836     72706.23   -17267.773    1257.1611   -18524.934    44.761992    236.40779 
   11200    92.381101    -219.9315     72702.51   -17263.336    1251.2836   -18514.619    44.904328    235.30253 
   11250    96.295357   -468.28046    72705.267   -17257.469    1304.3014    -18561.77     44.99314    245.27248 
   11300    96.035696   -401.30461    72651.468   -17233.888    1300.7844   -18534.673    45.420546     244.6111 
   11350    94.326523   -525.45413    72699.051   -17235.767     1277.634   -18513.401    45.589071    240.25769 
   11400    90.675108     -564.774    72708.454   -17259.787    1228.1763   -18487.964    45.953676    230.95723 
   11450    90.808534   -332.94463    72715.624    -17245.42    1229.9835   -18475.403    46.046596    231.29707 
   11500    94.240477   -250.45811    72718.726   -17209.958    1276.4685   -18486.426    46.158325    240.03853 
   11550    98.094571   -22.172899     72837.56   -17221.419    1328.6714    -18550.09    46.562581    249.85523 
   11600    97.622334   -189.92373    72903.936   -17216.989    1322.2751   -18539.264    46.891752     248.6524 
   11650    93.449841   -340.09913    72944.483   -17237.815    1265.7595   -18503.574    47.115757    238.02471 
   11700    94.194986   -253.82465    73001.613   -17228.336    1275.8523   -18504.188    47.036267    239.92266 
   11750    94.482398   -400.17635    73010.918   -17245.172    1279.7453   -18524.917    47.556201    240.65472 
   11800    99.213499   -69.939711    73048.837   -17179.875    1343.8271   -18523.702    47.786448    252.70523 
   11850    94.080407   -212.77548    73096.223   -17218.347    1274.3004   -18492.647    47.906066    239.63081 
   11900    93.307099   -401.88965    73069.885   -17238.882    1263.8261   -18502.708    47.946569    237.66113 
   11950    95.983246   -320.60347    73082.027   -17238.503     1300.074   -18538.577     48.25535    244.47751 
   12000    94.235774   -557.63616    73086.581   -17254.275    1276.4048   -18530.679    48.518889    240.02655 
   12050    93.744226   -246.88556    73134.334   -17219.093    1269.7469    -18488.84    48.757031    238.77453 
   12100    96.246291   -498.93306    73183.906   -17197.805    1303.6368   -18501.442    48.814506     245.1475 
   12150    95.346058   -832.04531    73135.667   -17200.034    1291.4434   -18491.477    49.084183    242.85453 
   12200     97.55655   -417.13039    73078.846   -17194.262     1321.384   -18515.646     49.31686    248.48485 
   12250    96.418615   -602.31135    73117.359    -17177.76    1305.9709   -18483.731    49.479114    245.58643 
   12300    95.371393   -632.37855    73114.505   -17237.035    1291.7865   -18528.822      49.6933    242.91906 
   12350    93.760661   -701.98348    73137.267   -17272.775    1269.9695   -18542.744    50.107408    238.81639 
   12400    93.603181   -393.07847    73164.616   -17274.173    1267.8364    -18542.01    50.345858    238.41528 
   12450    93.681115   -402.44954    73174.444   -17287.034     1268.892   -18555.926    50.581304    238.61378 
   12500    94.471863   -1025.2569     73078.53   -17302.679    1279.6026   -18582.282    50.442272    240.62788 
   12550    96.098879   -239.52082    73073.682   -17270.797    1301.6402   -18572.437    50.436433    244.77203 
   12600    94.479298   -830.67166    73087.935   -17254.662    1279.7033   -18534.366    50.535668    240.64682 
   12650    96.913783   -973.84305    73113.311   -17224.196    1312.6779   -18536.874    50.779345    246.84766 
   12700    97.095282   -613.08705    73112.847   -17243.863    1315.1363   -18558.999    51.108887    247.30996 
   12750    95.381129   -349.94013    73122.763   -17243.135    1291.9184   -18535.053    51.445801    242.94386 
   12800     93.25964   -462.07691    73111.038   -17245.521    1263.1833   -18508.704     51.66168    237.54025 
   12850    93.580159   -389.03473    73123.746    -17200.84    1267.5246   -18468.365    51.913473    238.35664 
   12900    98.060408   -887.11777    73082.143   -17175.693    1328.2087   -18503.902    52.079057    249.76822 
   12950    95.994623   -540.28712     73088.38   -17209.034    1300.2281   -18509.262    52.244024    244.50648 
   13000    96.910817   -601.13095    73107.892   -17220.531    1312.6377   -18533.169    52.685301    246.84011 
   13050    96.989845   -946.24582    73039.769    -17209.11    1313.7081   -18522.818    52.791272     247.0414 
   13100     99.05551   -378.56911    73023.611   -17159.526    1341.6872   -18501.213    52.968415    252.30282 
   13150    94.607118   -766.15509    73033.188   -17163.802    1281.4346   -18445.237    53.319142    240.97239 
   13200    98.094277   -634.71766    73018.097   -17203.228    1328.6675   -18531.895    53.402965    249.85448 
   13250    96.748717   -524.57264    73047.954   -17216.266    1310.4421   -18526.708    53.325508    246.42723 
   13300    95.491347      -875.75    72960.279   -17237.941    1293.4113   -18531.353    53.484304     243.2246 
   13350    94.771635   -383.85246    73011.914   -17222.722    1283.6629   -18506.385    54.088848    241.39143 
   13400    96.118604   -378.48425    73011.028    -17224.16    1301.9073   -18526.067    54.332186    244.82227 
   13450     92.42923     -339.448    73071.639   -17219.644    1251.9355    -18471.58    54.375278    235.42512 
   13500    95.564501   -560.10873    73101.335   -17238.331    1294.4021   -18532.733    54.605534    243.41093 
   13550    95.646966   -115.91142     73135.24   -17250.534    1295.5191   -18546.053    54.858615    243.62097 
   13600    93.796708   -956.19068    73106.218   -17252.906    1270.4577   -18523.364    55.331063    238.90821 
   13650    92.508818   -770.53387    72994.772   -17236.306    1253.0135   -18489.319    55.287859    235.62784 
   13700    95.080235   -489.46682    72970.497   -17224.309    1287.8429   -18512.152    55.345312    242.17746 
   13750    94.446202   -433.54228     72978.02   -17237.432     1279.255   -18516.687      55.5511    240.56252 
   13800    93.277583   -613.68169    72904.527   -17263.224    1263.4263    -18526.65    55.529305    237.58595 
   13850    94.362655   -631.43436    72828.537   -17249.476    1278.1234     -18527.6    55.831004    240.34972 
   13900    94.705543   -274.13901    72673.076   -17259.821    1282.7677   -18542.589    56.049527    241.22309 
   13950    96.062877   -590.47475    72668.457   -17201.456    1301.1525   -18502.609    56.092014    244.68033 
   14000    95.986392   -456.90359    72593.398   -17203.626    1300.1166   -18503.742    56.367044    244.48552 
   14050    94.271488   -923.36217     72605.45   -17214.624    1276.8885   -18491.512    56.902177    240.11751 
   14100    94.153632   -521.90616     72561.32   -17228.105    1275.2922   -18503.397    57.097187    239.81732 
   14150    94.522933   -305.99402    72615.256   -17219.367    1280.2943   -18499.662    57.095154    240.75796 
   14200     93.15232   -829.91876    72654.435   -17212.637    1261.7296   -18474.367    57.190535     237.2669 
   14250    97.304617   -345.90561    72681.699   -17217.373    1317.9717   -18535.345    57.299714    247.84315 
   14300     94.25947    -450.2374    72709.887   -17203.327    1276.7257   -18480.053    57.936248     240.0869 
   14350     92.14331   -324.74392    72742.751    -17248.61    1248.0628   -18496.672     58.04899    234.69686 
   14400    92.196007   -426.47941    72790.476   -17257.346    1248.7766   -18506.122    58.299316    234.83109 
   14450     93.30747   -340.06978    72768.606   -17233.898    1263.8311   -18497.729    58.472377    237.66207 
   14500    94.398776   -382.17272    72776.584     -17238.4    1278.6126   -18517.013    58.741925    240.44172 
   14550    94.656967   -332.32708    72838.544   -17201.252    1282.1098   -18483.362     58.75339    241.09936 
   14600    96.954809   -371.47597    72833.452   -17217.218    1313.2336   -18530.452    58.960308    246.95216 
   14650    95.867565   -364.00656    72821.593   -17210.186    1298.5071   -18508.693    59.118111    244.18286 
   14700    92.553545   -415.97186    72825.717   -17236.858    1253.6193   -18490.477     59.16887    235.74177 
   14750    94.091794    -474.2888    72776.034    -17236.33    1274.4546   -18510.784    59.184083    239.65982 
   14800    94.582018   -438.79131    72748.992   -17247.031    1281.0946   -18528.126    59.223747    240.90846 
   14850    94.147135   -495.86661    72789.881   -17268.397    1275.2042   -18543.601    59.292362    239.80078 
   14900    95.268361   -572.81354    72840.215   -17301.997     1290.391   -18592.388    59.687805    242.65663 
   14950     92.73544   -482.71107    72879.726   -17298.538    1256.0831   -18554.621    59.718374    236.20507 
   15000     94.09108   -114.21285    72944.635     -17308.7    1274.4449   -18583.145    59.870092      239.658 
   15050    92.862452   -450.02417    73002.488   -17297.695    1257.8034   -18555.499     60.03557    236.52858 
   15100    92.310694   -571.37968    72983.408   -17311.333      1250.33   -18561.663    60.413605     235.1232 
   15150    96.333525   -338.00267    73024.002   -17292.654    1304.8184   -18597.472    60.743962     245.3697 
   15200    95.070692   -231.46329    72993.047   -17289.144    1287.7136   -18576.858     60.86867    242.15315 
   15250    93.912822   -563.52008    73038.676   -17344.739    1272.0305   -18616.769    60.973264    239.20396 
   15300    93.074957   -390.86514    73063.279   -17340.439    1260.6818    -18601.12    61.100682    237.06985 
   15350    93.534554   -647.93053    73063.486   -17333.414    1266.9069   -18600.321    61.449136    238.24048 
   15400    92.470673   -450.20861    73057.725   -17292.917    1252.4969   -18545.414    61.858197    235.53068 
   15450    94.410486   -523.29703     73048.16   -17326.302    1278.7712   -18605.074    61.756953    240.47155 
   15500    92.492401   -936.17204    73016.101   -17324.576    1252.7911   -18577.367    61.688025    235.58603 
   15550    92.151281   -680.35503    72943.604   -17366.644    1248.1708   -18614.814    61.841206    234.71716 
   15600    92.011053   -475.15379    72944.146   -17353.455    1246.2714   -18599.727    62.179218    234.35999 
   15650    92.070807   -424.30936    72885.003   -17326.926    1247.0808   -18574.007    62.430863    234.51219 
   15700    92.649865    -59.27644    72873.161   -17346.511     1254.924   -18601.435    62.699512     235.9871 
   15750    91.352135   -466.75873    72890.218   -17330.581    1237.3465   -18567.928    62.895889    232.68167 
   15800    94.356774   -432.25923     72955.02   -17314.804    1278.0437   -18592.848    63.224959    240.33474 
   15850    94.875792   -421.83012    72910.413   -17265.385    1285.0737   -18550.459    63.631073    241.65672 
   15900    94.529801   -813.89585    72930.885   -17287.115    1280.3873   -18567.502    64.026316    240.77546 
   15950    93.548006    -941.5318    72917.686   -17288.857    1267.0891   -18555.947    64.197539    238.27474 
   16000    94.702799   -740.46766    72845.846   -17271.595    1282.7306   -18554.326    64.177168     241.2161 
   16050    94.881062   -663.78907     72801.97   -17280.593    1285.1451   -18565.738    64.356436    241.67015 
   16100    91.388767   -767.05993    72731.856   -17294.486    1237.8426   -18532.329     64.49338    232.77498 
   16150    91.735216   -470.81685    72714.795   -17309.546    1242.5352   -18552.082     64.52657    233.65741 
   16200    93.793494   -717.72723    72674.797   -17275.484    1270.4142   -18545.898    64.848254    238.90002 
   16250    92.936896    -404.7254    72655.628   -17296.678    1258.8117    -18555.49    65.109194    236.71819 
   16300    92.219296   -969.52564     72626.06   -17305.848     1249.092    -18554.94    65.467935    234.89041 
   16350    93.164108   -530.73158    72620.064   -17272.636    1261.8893   -18534.525    65.682016    237.29692 
   16400    90.487546   -574.96859    72636.467   -17311.448    1225.6358   -18537.084     65.97702    230.47949 
   16450    92.746557   -362.73014     72648.05   -17291.402    1256.2336   -18547.636    66.221036    236.23338 
   16500    93.420057   -479.85201    72691.553   -17299.032    1265.3561   -18564.388    66.374692    237.94885 
   16550    93.150454    -435.2339    72686.915   -17274.445    1261.7043   -18536.149    66.750905    237.26214 
   16600    95.091722   -503.49884    72665.858    -17268.35    1287.9984   -18556.349     66.88341    242.20672 
   16650    92.505541   -403.01558    72747.608   -17279.373    1252.9691   -18532.342    66.807404    235.61949 
   16700    90.950415   -365.31524    72786.282   -17298.198    1231.9053   -18530.103    67.072645    231.65846 
   16750    92.109811   -420.66122    72759.532    -17298.18    1247.6091   -18545.789    66.987723    234.61154 
   16800    92.551906   -436.39042    72662.478   -17303.712    1253.5971    -18557.31    67.101774    235.73759 
   16850      92.1554   -614.57551    72660.535    -17308.21    1248.2265   -18556.436    67.423024    234.72766 
   16900    89.706501   -137.60066    72676.496   -17347.698    1215.0567   -18562.755    67.507203     228.4901 
   16950    93.433195   -126.43162     72709.05    -17315.71     1265.534   -18581.244    67.577698    237.98231 
   17000    91.379474   -327.70297    72728.301   -17361.583    1237.7168     -18599.3    67.658049    232.75131 
   17050    94.454602    -382.0379    72736.945    -17333.98    1279.3688   -18613.348    68.214941    240.58392 
   17100    92.898101    -431.4236    72754.615   -17328.169    1258.2863   -18586.455    68.897055    236.61938 
   17150    93.639128   -105.95524    72787.103   -17328.844    1268.3233   -18597.167    69.212586    238.50684 
   17200    94.864013   -101.24455    72797.783   -17308.561    1284.9142   -18593.476    69.653039    241.62672 
   17250    96.837919   -324.89952     72793.12   -17279.497    1311.6503   -18591.147    69.955735    246.65443 
   17300    96.375219   -255.28471    72794.487   -17282.141    1305.3831   -18587.524    69.945409    245.47589 
   17350    94.274327   -183.24421    72878.462   -17258.915     1276.927   -18535.842    70.135136    240.12474 
   17400    96.983191   -569.97189    72908.009   -17250.389     1313.618   -18564.007    70.102119    247.02445 
   17450    92.136879   -933.64697      72938.2   -17270.881    1247.9757   -18518.856    69.931294    234.68048 
   17500    97.202458   -714.14311    72845.553   -17242.318    1316.5879   -18558.906    70.107247    247.58294 
   17550    95.011255   -398.95614    72800.035   -17293.805    1286.9085   -18580.713    70.207837    242.00176 
   17600    95.423925   -729.74095    72762.055   -17287.707    1292.4981   -18580.205    70.430541    243.05287 
   17650    92.718699   -268.37413    72759.348    -17302.49    1255.8563   -18558.346    70.734898    236.16243 
   17700    94.721296   -411.06948     72807.89   -17274.727    1282.9811   -18557.708    71.016798    241.26321 
   17750    91.718722    -111.7786    72817.327   -17312.661    1242.3118   -18554.973    71.251205     233.6154 
   17800    93.535669   -436.69436    72804.398   -17315.158     1266.922    -18582.08    71.384475    238.24332 
   17850    94.735552   -474.11882    72817.002   -17304.428    1283.1742   -18587.603     71.42293    241.29952 
   17900    95.144539   -684.97083    72859.597   -17290.347    1288.7138    -18579.06    71.591023    242.34125 
   17950    92.835313   -184.64499    72952.374   -17303.993    1257.4358   -18561.429    71.696785    236.45945 
   18000    93.392076    -268.2197    73051.039   -17273.566    1264.9771   -18538.544    71.746893    237.87757 
   18050    95.113505    -280.1143    73125.641   -17267.628    1288.2935   -18555.921    71.843703     242.2622 
   18100    94.809787   -577.13042    73135.999   -17259.121    1284.1797     -18543.3    72.271988     241.4886 
   18150    93.652616   -370.12243    73138.387   -17266.517     1268.506   -18535.023    72.603772    238.54119 
   18200    93.681871    -646.8485    73124.989    -17254.97    1268.9023   -18523.872    72.687079    238.61571 
   18250     93.87367   -728.48934    73117.303   -17237.348    1271.5002   -18508.848    72.777263    239.10424 
   18300    94.195687   -922.00077    73023.918   -17264.177    1275.8618   -18540.038    72.945985    239.92444 
   18350    95.095643    -553.0144    73011.913   -17291.199    1288.0515    -18579.25    72.942025     242.2167 
   18400    93.806986   -533.00938    72932.201   -17299.505    1270.5969   -18570.102    73.247412    238.93439 
   18450    94.669765   -329.11132    72905.667   -17304.652    1282.2831   -18586.935    73.241965    241.13196 
   18500    94.716873   -408.96634    72933.114   -17311.764    1282.9212   -18594.685    73.425169    241.25195 
   18550    93.013948    -509.3835    72928.566   -17343.932    1259.8554   -18603.788    73.484793    236.91445 
   18600    88.945192    -676.4188    72907.049   -17340.483    1204.7449   -18545.228    73.645045    226.55098 
   18650    92.928045   -438.79974    72860.362    -17317.07    1258.6919   -18575.762    73.817694    236.69565 
   18700    94.154899   -290.88306    72821.937   -17324.895    1275.3094   -18600.205    74.145559    239.82055 
   18750    94.600438   -602.63767    72800.378    -17293.55    1281.3441   -18574.894    74.115621    240.95538 
   18800    93.751022   -970.51799    72747.534   -17272.544    1269.8389   -18542.383    74.154009    238.79184 
   18850    94.529085   -412.53068    72706.101   -17248.399    1280.3776   -18528.776    74.528768    240.77363 
   18900    95.895217   -406.73511    72759.765   -17245.175    1298.8816   -18544.056    74.653827    244.25329 
   18950    94.776077   -503.89176     72791.22   -17257.031    1283.7231   -18540.754    74.733944    241.40274 
   19000    94.564231   -460.54596    72758.504   -17270.019    1280.8537   -18550.872    74.813412    240.86315 
   19050    94.015193   -842.62971    72754.357   -17285.149    1273.4171   -18558.566    75.172676    239.46471 
   19100    93.661792   -503.41062    72716.617   -17304.717    1268.6303   -18573.348    75.433711    238.56456 
   19150    90.784324   -337.98935    72710.898   -17258.226    1229.6556   -18487.881     75.42166    231.23541 
   19200    91.551567   -649.20286    72708.478   -17282.137    1240.0477   -18522.185    75.376839    233.18964 
   19250    92.752451   -846.97362    72733.543   -17284.193    1256.3135   -18540.507    75.324488     236.2484 
   19300    92.400595   -533.78314    72673.469   -17281.338    1251.5477   -18532.886    75.317667    235.35219 
   19350    92.379258   -686.01128    72641.446   -17269.479    1251.2587   -18520.738    75.306594    235.29784 
   19400    95.247444   -401.75069    72598.707   -17230.321    1290.1077   -18520.428    75.627434    242.60335 
   19450    92.935512   -207.81125    72576.528   -17243.444     1258.793   -18502.237    75.813274    236.71467 
   19500    94.562659   -370.58598    72582.339   -17230.163    1280.8324   -18510.995    76.407695    240.85915 
   19550    96.571892   -533.22462    72555.084    -17219.79    1308.0471   -18527.837    76.580763    245.97684 
   19600    98.985563   -342.27597    72624.792   -17179.929    1340.7397   -18520.669    76.675821    252.12466 
   19650    96.739184   -388.97868     72716.56   -17196.744     1310.313   -18507.057    76.594591    246.40294 
   19700    98.581109   -158.20734    72846.877   -17185.591    1335.2615   -18520.852    76.611361    251.09448 
   19750    95.441202   -2.8052436    72936.146   -17184.559    1292.7321   -18477.291    76.829534    243.09687 
   19800    97.571188   -592.17255    72976.733   -17165.616    1321.5823   -18487.198    76.958051    248.52213 
   19850    98.534529   -491.72553    73015.726   -17145.103    1334.6306   -18479.734    77.211481    250.97584 
   19900    100.53975   -467.49882    73026.114   -17129.316    1361.7909   -18491.106    77.112253     256.0833 
   19950    101.45029   -311.68893    73078.782   -17144.073     1374.124   -18518.197    77.027228    258.40254 
   20000    97.518814   -489.24356    73100.191   -17171.005    1320.8729   -18491.878    77.589204    248.38873 
   20050    94.198264   -522.74503    73108.773   -17192.503    1275.8967     -18468.4    77.862957      239.931 
   20100    93.465161   -390.69067    73039.526   -17218.367     1265.967   -18484.334    77.906008    238.06373 
   20150     92.25869   -630.15648     73001.51   -17271.765    1249.6256    -18521.39    77.543647    234.99074 
   20200    94.243765   -835.10621    72965.423   -17272.973     1276.513   -18549.486    77.596816     240.0469 
   20250    94.048595   -405.35823    72971.385   -17239.778    1273.8695   -18513.647    77.619336    239.54979 
   20300    92.562752   -850.95978    72940.697   -17245.799     1253.744   -18499.543    78.055929    235.76522 
   20350    96.310656   -559.09279    73015.066   -17247.994    1304.5087   -18552.502    78.136649    245.31145 
   20400    95.524833   -470.22112    73002.659   -17239.405    1293.8648    -18533.27     78.37328    243.30989 
   20450    93.426614   -444.74071    72999.992   -17227.336    1265.4449   -18492.781    78.480638    237.96555 
   20500    95.757289   -499.83887    72996.236   -17231.239    1297.0134   -18528.252    78.786498    243.90197 
   20550    96.131391   -772.08355    72984.761   -17225.768    1302.0806   -18527.849    79.169392    244.85484 
   20600    95.831574   -381.68142    73011.123   -17194.896    1298.0196   -18492.916    79.514095    244.09118 
   20650    95.047639   -851.49551    72914.955   -17228.017    1287.4013   -18515.418    79.873232    242.09443 
   20700    94.206111   -638.13397    72842.188   -17228.004     1276.003   -18504.007    79.985384    239.95099 
   20750    97.376751   -303.87304      72902.6   -17249.677    1318.9487   -18568.626    80.077856    248.02688 
   20800    95.576649   -508.17258    72940.335   -17278.291    1294.5667   -18572.858    80.219474    243.44187 
   20850    94.296258   -373.53565    72914.895   -17274.857     1277.224   -18552.081    80.509638     240.1806 
   20900     97.02238   -510.85504    72886.175    -17245.62    1314.1488   -18559.769    80.704717    247.12427 
   20950    94.931778   -573.54668    72881.606   -17270.679     1285.832   -18556.511    81.083816    241.79933 
   21000    93.947777   -358.63368    72882.049   -17305.019    1272.5039   -18577.523    81.014647    239.29299 
   21050    93.074053   -706.69015    72830.933   -17302.178    1260.6695   -18562.847    81.142598    237.06754 
   21100    94.306035    8.9958167    72815.845    -17295.31    1277.3565   -18572.666    81.474123    240.20551 
   21150    93.239664   -397.55337    72852.477   -17294.669    1262.9127   -18557.582    81.083506    237.48937 
   21200     96.24075   -284.10855    72844.122   -17281.296    1303.5618   -18584.858    81.286783    245.13339 
   21250    94.738144   -670.94425    72839.549   -17270.701    1283.2093    -18553.91    81.581085    241.30612 
   21300     93.73962   -554.86592    72820.767   -17303.891    1269.6845   -18573.575    81.209631     238.7628 
   21350    90.484608   -884.12079    72808.165   -17262.321     1225.596   -18487.917     81.55142    230.47201 
   21400    94.976213   -283.71439    72820.781   -17283.349    1286.4339   -18569.783    81.274416    241.91251 
   21450    92.010649   -408.53723    72851.715   -17293.826    1246.2659   -18540.092    81.067852    234.35896 
   21500    93.862276   -164.25532    72841.422   -17298.508    1271.3458   -18569.854    81.295498    239.07521 
   21550    92.961791   -201.88309    72832.108   -17315.161    1259.1489    -18574.31    81.112336     236.7816 
   21600    91.373217   -433.45132    72878.168   -17326.621     1237.632   -18564.253    81.422366    232.73537 
   21650    92.522132   -378.91096     72874.05   -17321.307    1253.1939   -18574.501    81.733422    235.66175 
   21700    89.311411   -340.47682    72960.268   -17310.089    1209.7053   -18519.794     81.57021    227.48377 
   21750     95.01362   -494.30085    73019.013   -17299.279    1286.9406    -18586.22    82.013108    242.00779 
   21800    94.751196   -432.41161    73032.561   -17245.536    1283.3861   -18528.922    81.999653    241.33937 
   21850    95.308475   -375.95912    73088.488    -17252.55    1290.9343   -18543.484     82.45443    242.75881 
   21900    93.092076   -518.38434    73077.751   -17283.316    1260.9136   -18544.229    82.483745    237.11345 
   21950    92.398684   -272.67164    73107.594   -17289.605    1251.5218   -18541.127     82.59832    235.34732 
   22000    93.479294   -365.71151    73134.518   -17300.878    1266.1584   -18567.036    82.809746    238.09973 
   22050    94.021867   -554.67869     73157.62   -17312.282    1273.5075   -18585.789    83.273049    239.48171 
   22100    95.097363   -631.54861    73153.583   -17304.913    1288.0748   -18592.988    83.038702    242.22109 
   22150    94.888942   -422.26155    73192.343   -17318.105    1285.2518   -18603.357    83.063757    241.69022 
   22200     94.75386   -531.32907    73186.792   -17310.283    1283.4222   -18593.705    83.511103    241.34615 
   22250    94.211186   -628.75542    73141.615   -17338.347    1276.0718   -18614.419    83.471443    239.96392 
   22300    95.117363   -299.26677    73107.693    -17307.46    1288.3457   -18595.806    83.933567    242.27203 
   22350    94.932541   -384.04657    73144.196   -17309.364    1285.8424   -18595.206    84.278596    241.80127 
   22400    94.337118   -315.55607    73264.962   -17276.733    1277.7775    -18554.51    84.321101    240.28468 
   22450    94.590528   -763.31375    73259.096   -17326.452    1281.2099   -18607.662    84.208506    240.93013 
   22500    93.338988   -376.25654    73249.514   -17371.746     1264.258   -18636.004    84.785915    237.74236 
   22550     94.72612   -516.15633    73215.964   -17328.928    1283.0464   -18611.974    84.742992     241.2755 
   22600    92.524644   -134.77117    73110.706   -17336.113    1253.2279   -18589.341    84.532225    235.66815 
   22650     91.23589   -409.63899    73105.646   -17329.175     1235.772   -18564.947    84.863505    232.38559 
   22700    94.119269   -323.48294     73131.59   -17330.338    1274.8268   -18605.165    84.746523     239.7298 
   22750    95.429762   -249.44285    73141.742   -17341.372    1292.5771   -18633.949    85.032873    243.06773 
   22800    96.018717   -320.74384    73175.575   -17317.289    1300.5544   -18617.844    85.395729    244.56785 
   22850    95.695178   -287.84529    73197.969   -17306.347    1296.1721    -18602.52    85.593903    243.74377 
   22900    96.346361   -458.23027    73289.099   -17310.576    1304.9923   -18615.568    85.704991    245.40239 
   22950    94.682511   -307.16451    73303.557   -17311.205    1282.4558   -18593.661    85.699527    241.16442 
   23000    96.225548   -213.94543    73359.645   -17295.109    1303.3559   -18598.465    85.817728    245.09467 
   23050    96.449007   -338.02335    73449.232   -17286.788    1306.3826    -18593.17    85.994046    245.66384 
   23100    93.821062   -814.61931    73468.478   -17358.201    1270.7876   -18628.989    86.323766    238.97024 
   23150    93.129252    -324.2058    73439.799   -17366.211    1261.4172   -18627.628    86.370886    237.20814 
   23200    91.189979   -240.50092    73463.183   -17395.069    1235.1501    -18630.22    86.643401    232.26865 
   23250    90.258183   -185.54502    73494.854   -17410.282    1222.5291   -18632.811    86.710756    229.89528 
   23300    94.169576   -570.10471    73500.426     -17337.1    1275.5082   -18612.608    86.958746    239.85793 
   23350    91.361171   -420.36245    73413.442   -17373.569    1237.4689   -18611.037    87.215076    232.70469 
   23400    92.211134   -578.57399    73393.564   -17366.101    1248.9815   -18615.083    87.307522    234.86962 
   23450    91.901161   -494.11471    73327.066   -17372.026    1244.7829   -18616.809    87.671516    234.08009 
   23500    93.501599   -259.00921    73314.132   -17365.855    1266.4605   -18632.315    87.653535    238.15654 
   23550    93.853922   -278.76508    73334.439   -17341.407    1271.2327    -18612.64    88.001921    239.05394 
   23600    93.450255    -122.2371    73358.691   -17319.094    1265.7651    -18584.86    88.148242    238.02576 
   23650    93.426832   -420.77197     73386.51   -17327.219    1265.4478   -18592.667    87.916251     237.9661 
   23700    92.522781   -729.87118    73309.898   -17365.595    1253.2026   -18618.797    87.938163    235.66341 
   23750    93.892197   -738.94593    73279.983   -17356.438    1271.7511   -18628.189    87.859433    239.15143 
   23800     94.95858   -573.69294    73278.057   -17338.734    1286.1951   -18624.929    88.178525    241.86759 
   23850    94.971146   -478.99762    73314.287   -17337.245    1286.3653    -18623.61    88.091068     241.8996 
   23900     92.01284   -628.12745    73326.594   -17356.691    1246.2956   -18602.987    88.314535    234.36454 
   23950    93.781568   -936.28484    73238.845   -17325.899    1270.2527   -18596.151    88.588363    238.86964 
   24000    90.851535   -549.85653    73184.696   -17375.187     1230.566   -18605.753    88.789554     231.4066 
   24050     92.35356   -339.77535    73110.634   -17331.801    1250.9106   -18582.712    89.267848    235.23239 
   24100    95.108887   -591.40073    73204.563   -17337.573    1288.2309   -18625.804    89.728921    242.25044 
   24150    90.629982   -455.46912     73174.12   -17362.821    1227.5651   -18590.386    89.783013    230.84229 
   24200     91.79039   -89.544616    73241.681   -17380.358    1243.2826   -18623.641     90.09653    233.79795 
   24250    93.449771   -636.81482    73229.928   -17374.505    1265.7585   -18640.263    90.331465    238.02453 
   24300    93.604221   -244.28324    73244.601   -17345.748    1267.8505   -18613.599    90.517184    238.41793 
   24350     91.36168   -503.40593    73332.623   -17355.232    1237.4758   -18592.708    90.422751    232.70598 
   24400    90.026006   -847.03555    73379.472    -17368.05    1219.3843   -18587.434    90.440408    229.30391 
   24450    95.678324    -467.8854    73353.417   -17336.819    1295.9438   -18632.763    90.651837    243.70084 
   24500    94.141821   -552.44109    73348.645   -17289.232    1275.1322   -18564.364    90.969511    239.78724 
   24550    96.152121   -561.19574    73342.466   -17273.428    1302.3613   -18575.789    91.021502    244.90764 
   24600    94.529951   -757.67695    73272.196   -17281.949    1280.3894   -18562.339     91.04048    240.77584 
   24650    94.798774   -444.83226    73250.958   -17249.032    1284.0305   -18533.062    91.330257    241.46055 
   24700     96.32641    -701.6163    73273.279   -17257.999     1304.722   -18562.721    91.473842    245.35157 
   24750    94.616982   -643.47087    73299.233    -17250.13    1281.5682   -18531.698    91.822405    240.99752 
   24800    97.946874   -541.84503     73341.37   -17243.562    1326.6709   -18570.233     91.81458    249.47903 
   24850    96.409075   -859.46977    73388.605   -17242.113    1305.8417   -18547.954    91.880253    245.56213 
   24900     94.88541   -310.51727    73421.381   -17256.322     1285.204   -18541.526    91.904466    241.68122 
   24950     94.76632   -350.39599    73404.211   -17262.809    1283.5909     -18546.4    92.026443    241.37789 
   25000    94.559614   -691.04435    73378.844   -17253.085    1280.7911   -18533.876    92.023852    240.85139 
   25050      92.4865   -456.28643    73330.557   -17249.255    1252.7112   -18501.966    92.021195      235.571 
   25100    92.496653   -708.48266     73347.64    -17286.23    1252.8487   -18539.079     92.46917    235.59685 
   25150    92.964603   -456.67216    73360.018   -17305.907     1259.187   -18565.094    92.339678    236.78876 
   25200    91.517145   -590.13544    73310.887   -17287.019    1239.5815   -18526.601    92.710843    233.10197 
   25250    91.732223   -1129.5181    73249.087   -17263.996    1242.4947   -18506.491      92.9048    233.64979 
   25300    96.061339   -531.56479     73200.51   -17263.661    1301.1317   -18564.793    93.221269    244.67641 
   25350    96.377733   -805.54509    73130.301   -17242.013    1305.4172   -18547.431    93.427661     245.4823 
   25400    98.003596   -171.61966     73117.91   -17234.445    1327.4392   -18561.884    93.828558    249.62351 
   25450    92.908506   -748.42606     73099.27    -17282.21    1258.4272   -18540.637    94.312752    236.64588 
   25500    93.224115   -386.95861    73082.295   -17259.621    1262.7021   -18522.323     94.66356    237.44976 
   25550    93.177238   -375.03231    73048.152   -17252.462    1262.0671   -18514.529    94.639486    237.33036 
   25600    94.227692   -368.49943    73062.567   -17297.503    1276.2953   -18573.798    95.219773    240.00596 
   25650    95.262175   -279.02572    73068.733   -17301.303    1290.3072   -18591.611    95.497268    242.64088 
   25700    91.624254   -188.67289    73137.137   -17316.159    1241.0323   -18557.192    95.598487    233.37478 
   25750    91.797163   -455.69414    73142.767   -17306.395    1243.3743   -18549.769      96.0098     233.8152 
   25800    92.025116   -21.302809    73159.907   -17300.932    1246.4619   -18547.394    96.078554    234.39581 
   25850    91.655506   -165.85667    73215.214   -17350.949    1241.4556   -18592.404    96.328511    233.45438 
   25900    93.887665   -724.62205    73244.047    -17324.05    1271.6897    -18595.74     96.72106    239.13988 
   25950    92.101549   -396.35944    73231.097   -17328.745    1247.4971   -18576.243    96.823116    234.59049 
   26000    94.332013   -494.49887    73183.655   -17328.385    1277.7083   -18606.093    97.124548    240.27168 
   26050    92.355869   -142.61627    73163.859   -17314.102    1250.9419   -18565.043    97.211801    235.23827 
   26100    95.682864   -549.16887    73192.226   -17302.038    1296.0053   -18598.043    97.098796    243.71241 
   26150    95.959608   -686.38179    73112.653   -17285.353    1299.7538   -18585.106    96.749929     244.4173 
   26200    96.676139   -401.74893    73172.755   -17286.198    1309.4591   -18595.657     96.94602    246.24236 
   26250    94.157739   -289.73274     73207.91   -17304.006    1275.3478   -18579.354    96.557736    239.82778 
   26300    97.231198   -40.020301    73218.118   -17265.838    1316.9772   -18582.815    96.554217    247.65614 
   26350    93.128952   -250.81785    73239.908   -17248.602    1261.4131   -18510.015    96.485721    237.20737 
   26400    93.971218   -667.98068    73239.156   -17261.959    1272.8214    -18534.78    96.954561     239.3527 
   26450    93.579432   -462.79996    73201.039   -17264.159    1267.5148   -18531.673    97.051636    238.35479 
   26500    96.271816   -478.86596    73143.798   -17257.543    1303.9826   -18561.525    97.291027    245.21252 
   26550    96.745009    82.245274     73190.09   -17243.237    1310.3919   -18553.629      97.5096    246.41778 
   26600    94.412337    -691.9536    73277.805   -17262.223    1278.7963   -18541.019    97.296714    240.47627 
   26650    98.314402   -453.40876    73289.904   -17259.741     1331.649    -18591.39    97.472136    250.41516 
   26700    93.901358   -844.72444    73201.674    -17243.59    1271.8752   -18515.466    97.734988    239.17476 
   26750    93.719269   -715.61582    73137.706   -17238.936    1269.4088   -18508.345    97.735608    238.71096 
   26800    96.324665   -377.65959    73130.234   -17258.734    1304.6984   -18563.432    97.851506    245.34713 
   26850    96.424629   -302.28597    73139.562   -17239.145    1306.0524   -18545.197    98.336297    245.60174 
   26900    91.778847   -549.40586    73244.983   -17258.345    1243.1262   -18501.471    98.476247    233.76854 
   26950    92.856139   -721.26254    73249.923   -17246.122    1257.7179    -18503.84     98.93393     236.5125 
   27000    97.062202   -556.23183    73322.009   -17264.366    1314.6882   -18579.055    99.041608     247.2257 
   27050    94.340294   -621.35382    73292.216   -17265.985    1277.8205   -18543.805    99.367077    240.29277 
   27100    92.722958   -344.35264    73315.678   -17267.913     1255.914   -18523.827    99.348472    236.17327 
   27150    95.893155   -474.64689    73321.571   -17232.251    1298.8537   -18531.104    99.845776    244.24804 
   27200    97.052048   -342.91399    73282.009   -17247.742    1314.5507   -18562.292    100.22926    247.19983 
   27250    95.573386   -382.42242    73266.041   -17261.239    1294.5225   -18555.762    100.50478    243.43356 
   27300    96.726772   -547.64994     73245.19   -17257.518    1310.1449   -18567.663    100.87674    246.37133 
   27350    95.110287   -697.86391    73226.551   -17265.076    1288.2499   -18553.326    101.47004    242.25401 
   27400    93.339598   -672.37636    73207.553   -17266.103    1264.2663   -18530.369    101.22762    237.74391 
   27450    97.442089   -480.62172    73224.623   -17263.246    1319.8337    -18583.08     101.4033     248.1933 
   27500    92.599435   -636.82088    73252.583   -17288.246    1254.2409   -18542.487    101.91373    235.85865 
   27550     93.80519    -524.5604     73235.61   -17284.707    1270.5726    -18555.28    101.88421    238.92981 
   27600    94.692567   -772.31779    73230.297   -17288.805     1282.592   -18571.397    102.19887    241.19004 
   27650    94.420032   -664.66424    73181.101   -17292.422    1278.9005   -18571.322    102.38326    240.49587 
   27700    93.144133   -643.78757    73163.996   -17259.491    1261.6187    -18521.11    102.26272    237.24604 
   27750    96.863684   -983.15759    73109.079   -17284.976    1311.9993   -18596.975    102.32624    246.72006 
   27800    95.354725   -506.63097     73064.52   -17286.928    1291.5608   -18578.489    102.65353    242.87661 
   27850     91.78164   -517.53953    73029.563   -17305.945     1243.164   -18549.109    103.05758    233.77566 
   27900    95.735509   -317.72979     73039.77   -17310.593    1296.7184   -18607.311    103.18529     243.8465 
   27950    94.157798   -295.73039    73090.941   -17305.066    1275.3486   -18580.415     103.4952    239.82793 
   28000    94.875188   -431.50947    73154.535   -17265.475    1285.0655   -18550.541    104.04593    241.65519 
   28050    92.128399   -354.33245    73172.391   -17300.803    1247.8608   -18548.663    104.27746    234.65888 
   28100    95.958447   -824.02413     73176.87    -17302.43    1299.7381   -18602.168    104.36263    244.41434 
   28150    95.568135   -538.55916    73168.217   -17273.835    1294.4514   -18568.286    104.38736    243.42018 
   28200    94.923557   -631.16462    73219.426   -17293.343    1285.7207   -18579.064    104.59957    241.77839 
   28250    95.820182   -510.20511     73230.11   -17263.458    1297.8653   -18561.323     104.2085    244.06217 
   28300    93.559846   -717.96471    73199.394   -17303.418    1267.2495   -18570.668    104.69051     238.3049 
   28350    92.425512   -204.38907     73125.49   -17310.358    1251.8852   -18562.243    104.88088    235.41565 
   28400     96.78466    -342.2947     73082.24   -17287.529    1310.9289   -18598.458    105.43244    246.51877 
   28450    91.030859   -154.23083    73096.663   -17293.079    1232.9949   -18526.074    105.55877    231.86335 
   28500    93.850028   -216.10732    73125.214   -17281.765    1271.1799   -18552.945    105.48306    239.04402 
   28550    94.383807   -389.63451    73164.275   -17288.262    1278.4099   -18566.672    105.66156     240.4036 
   28600     92.42716    -480.2169     73183.16   -17274.275    1251.9075   -18526.182    105.77877    235.41985 
   28650    93.507086   -301.16469    73208.903   -17264.079    1266.5349   -18530.613    105.70997    238.17051 
   28700    96.404105   -416.06169    73208.187   -17264.643    1305.7744   -18570.417    105.89248    245.54947 
   28750    89.332889   -453.95104    73214.443   -17290.385    1209.9962   -18500.381    105.97307    227.53848 
   28800    93.009688   -669.07758    73077.736   -17282.592    1259.7977    -18542.39    106.01561     236.9036 
   28850      91.9849   -506.02386    73070.584   -17317.453    1245.9172    -18563.37     106.5344    234.29338 
   28900    93.548616   -404.65408    73053.389   -17297.736    1267.0974   -18564.833    106.58242    238.27629 
   28950    92.865169   -563.46618    73004.077   -17285.244    1257.8402   -18543.085    106.74043     236.5355 
   29000    93.990498   -239.61908    73021.233   -17324.349    1273.0826   -18597.432    107.00415    239.40181 
   29050    94.082117    -535.8747    73034.236   -17313.655    1274.3235   -18587.979    107.35456    239.63517 
   29100    94.352594   -238.73771    73039.971   -17287.244    1277.9871   -18565.231    107.77625     240.3241 
   29150    92.920614   -553.72458    73011.166   -17336.432    1258.5912   -18595.023    107.90648    236.67672 
   29200    92.245046   -384.33252    73007.944   -17340.015    1249.4408   -18589.456    107.86511    234.95599 
   29250    90.112241   -737.39451    73022.585   -17348.291    1220.5524   -18568.843    108.21104    229.52356 
   29300    91.665903   -208.22222    73024.335   -17327.955    1241.5964   -18569.552    107.96015    233.48087 
   29350    94.058715   -460.11534     73046.97    -17303.65    1274.0066   -18577.657    107.58159    239.57556 
   29400     92.94892   -661.57924    73049.403   -17309.357    1258.9746   -18568.332    108.32186    236.74882 
   29450     91.13397   -149.12911    73016.155   -17307.093    1234.3915   -18541.485      108.045    232.12599 
   29500    94.800098   -619.38745    73061.322   -17290.592    1284.0485   -18574.641    108.29712    241.46393 
   29550    94.445873   -454.07909    73022.325   -17302.127    1279.2505   -18581.378    108.31442    240.56168 
   29600    91.682098   -606.47517     72998.09   -17327.529    1241.8158   -18569.345    108.19065    233.52211 
   29650    96.243408   -538.26746    73006.128   -17302.733    1303.5978   -18606.331    108.75045    245.14016 
   29700    93.509728   -490.95493    73053.961   -17296.885    1266.5706   -18563.455    109.11037    238.17724 
   29750    93.065749    -189.5934    73077.226   -17248.476     1260.557   -18509.033    108.99156    237.04639 
   29800    93.159056   -628.49537    73043.119   -17274.333    1261.8209   -18536.153    109.22801    237.28405 
   29850    97.276658   -445.56001    73051.589   -17270.918     1317.593   -18588.511    109.73181    247.77194 
   29900    94.515943   -465.24906    73147.506   -17270.863    1280.1996   -18551.063    110.14577    240.74016 
   29950    94.386326   -773.00237    73093.233    -17286.88     1278.444   -18565.324    110.14574    240.41001 
   30000    93.289413   -756.11239    73017.609    -17304.39    1263.5865   -18567.977    110.52773    237.61608 
   30050    92.310626   -430.06073    73036.059   -17333.999     1250.329   -18584.328    110.52782    235.12303 
   30100    91.977434   -157.74714    73105.143   -17310.029     1245.816   -18555.845    110.67122    234.27436 
   30150    93.084648   -635.49551    73110.478   -17287.419     1260.813   -18548.232    110.91757    237.09453 
   30200    92.174903   -686.80941    73098.525   -17299.656    1248.4907   -18548.147    110.90759    234.77733 
   30250    91.405127   -762.68196    73031.575   -17283.633    1238.0642   -18521.697    111.24854    232.81665 
   30300    94.276179   -684.61171    72923.881   -17264.933    1276.9521   -18541.885    111.35823    240.12946 
   30350    92.485695   -485.43893     72899.47   -17243.363    1252.7003   -18496.063    111.82309    235.56895 
   30400    96.159632   -388.03186    72901.469   -17247.836    1302.4631   -18550.299    112.13269    244.92678 
   30450    92.076212    -551.7351    72836.383   -17214.734     1247.154   -18461.888    112.23329    234.52596 
   30500    94.243183   -310.86738    72843.047   -17216.015    1276.5051    -18492.52     112.3321    240.04542 
   30550    94.416426   -610.61583     72819.82   -17236.596    1278.8517   -18515.448    113.09457    240.48668 
   30600    92.205581   -356.39004    72793.566   -17267.632    1248.9062   -18516.538     113.1359    234.85547 
   30650    94.392462   -673.51279    72760.765   -17290.979    1278.5271   -18569.506    113.20864    240.42564 
   30700    93.478736   -346.55197    72759.215   -17289.378    1266.1509   -18555.529    113.45486    238.09831 
   30750    94.935098   -494.50865    72730.899   -17298.432     1285.877   -18584.309    113.79504    241.80778 
   30800    94.778715   -414.70031    72681.838   -17302.065    1283.7588   -18585.824    114.09854    241.40946 
   30850    96.099232   -296.45372    72682.275   -17280.185     1301.645    -18581.83    114.77274    244.77293 
   30900    93.915107   -496.94747    72737.633   -17314.111    1272.0614   -18586.172     114.6664    239.20978 
   30950     92.65986   -413.71004     72792.12   -17313.725    1255.0593   -18568.784    114.82484    236.01256 
   31000    90.628358    -549.8598    72831.134   -17301.579    1227.5431   -18529.122    114.99871    230.83815 
   31050    93.077688   -597.88028    72845.515   -17300.265    1260.7187   -18560.983    115.38239     237.0768 
   31100     92.34721   -570.16984    72852.515   -17299.598    1250.8246   -18550.423     116.1642    235.21621 
   31150     92.60321   -716.15255    72818.065   -17300.318     1254.292    -18554.61    116.47792    235.86827 
   31200    95.128674   -884.10431    72766.179   -17250.333    1288.4989   -18538.832    116.69966    242.30084 
   31250    93.533782   -521.41295    72809.713   -17253.665    1266.8965   -18520.561    116.84786    238.23851 
   31300    93.597464   -740.24908    72791.574   -17297.436     1267.759   -18565.195    116.87499    238.40071 
   31350    91.340094   -583.07333    72812.975   -17322.521    1237.1834   -18559.705     117.0565      232.651 
   31400    92.006687   -474.95971    72796.423   -17294.308    1246.2123    -18540.52    117.75913    234.34887 
   31450    94.056053   -470.27858    72832.208   -17285.723    1273.9705   -18559.693    117.98494    239.56878 
   31500    92.765049   -547.01031     72796.33   -17263.031    1256.4841   -18519.515    118.20916    236.28048 
   31550    95.030049   -545.53705    72782.398   -17249.371    1287.1631   -18536.534    118.64526    242.04963 
   31600    92.510071   -666.18232    72724.548   -17258.002    1253.0305   -18511.033    118.73555    235.63103 
   31650    91.495374   -741.10631    72712.843   -17302.054    1239.2866   -18541.341    118.81236    233.04651 
   31700    95.687954   -540.50474    72679.455   -17263.466    1296.0743    -18559.54    119.01135    243.72537 
   31750    96.507134   -724.55026    72720.291   -17233.839    1307.1699   -18541.009    119.40656    245.81189 
   31800    96.631658   -683.97431    72764.614   -17277.409    1308.8566   -18586.266    119.77257    246.12907 
   31850    94.657565   -485.66651    72783.902   -17249.447    1282.1179   -18531.564    119.61714    241.10088 
   31900    93.260208   -687.24236    72814.076   -17251.764    1263.1909   -18514.955    119.36155     237.5417 
   31950    96.115246    -373.0032    72845.898   -17237.589    1301.8619   -18539.451    119.42135    244.81372 
   32000    92.871458   -597.83657     72941.09   -17265.219    1257.9254   -18523.144    119.60532    236.55152 
   32050    94.430428   -498.36865    72999.574   -17244.387    1279.0413   -18523.428    119.95747    240.52235 
   32100    94.565863   -640.76015    73050.034   -17261.523    1280.8758   -18542.399    120.02537    240.86731 
   32150    96.750126    -516.7284    73059.417   -17235.867    1310.4612   -18546.328     120.4612    246.43081 
   32200     91.88264   -367.61249    73112.404   -17263.857    1244.5321   -18508.389    120.73743    234.03291 
   32250    92.773654    -412.4986    73136.583   -17262.886    1256.6007   -18519.487    120.93898     236.3024 
   32300    95.663075   -522.01028    73137.118   -17257.354    1295.7373   -18553.092    121.07212      243.662 
   32350    92.631941   -342.02903    73110.335   -17266.734    1254.6812   -18521.415    121.38825    235.94145 
   32400    91.857312   -615.85458    73059.296   -17300.768     1244.189   -18544.957    121.85894     233.9684 
   32450    92.076465   -396.37359    73033.559   -17321.021    1247.1574   -18568.179    122.10808     234.5266 
   32500    97.303444   -788.13775    72998.693   -17284.111    1317.9558   -18602.066    122.71391    247.84016 
   32550    90.449604   -394.66302    72977.749   -17302.275    1225.1219   -18527.397    123.07643    230.38285 
   32600    92.979472   -366.85192    73092.837   -17319.866    1259.3884   -18579.254     123.4161    236.82664 
   32650    91.952702   -840.42209     73096.87   -17307.044     1245.481   -18552.525    124.04989    234.21137 
   32700    91.798199   -475.44989    73083.545   -17291.392    1243.3883    -18534.78    124.05115    233.81783 
   32750    93.317644   -675.90683    73068.025   -17295.561    1263.9689    -18559.53    124.32946    237.68799 
   32800    95.737721   -428.35202    73031.958    -17291.16    1296.7484   -18587.909    124.84581    243.85213 
   32850    95.423318   -681.60693    73057.317   -17257.374    1292.4898   -18549.864    124.87528    243.05132 
   32900    98.429473   -681.79355    73020.773   -17260.823    1333.2076    -18594.03    125.22473    250.70825 
   32950    93.004807   -357.96067     72986.59   -17266.067    1259.7316   -18525.799    125.23769    236.89117 
   33000    90.139035   -604.46208    72966.508   -17284.939    1220.9153   -18505.854    125.39637     229.5918 
   33050    92.306633   -594.35494     72888.89   -17313.391     1250.275   -18563.666     125.6374    235.11286 
   33100    93.603334   -536.56276    72811.842   -17323.726    1267.8385   -18591.564    125.83791    238.41567 
   33150    91.575263   -553.36805    72792.312   -17326.819    1240.3687   -18567.188    126.09081       233.25 
   33200    92.799394   -148.82933    72846.321   -17308.858    1256.9493   -18565.807    126.46016    236.36796 
   33250    93.737826   -470.92715    72930.162   -17299.637    1269.6602   -18569.297    126.65864    238.75823 
   33300    95.078867   -626.06761    72994.659   -17293.138    1287.8243   -18580.962    127.04044    242.17398 
   33350    92.251028    -725.4268    73000.358   -17295.335    1249.5218   -18544.857    127.44034    234.97123 
   33400    96.105067   -391.21707    73000.362   -17254.449     1301.724   -18556.173    127.59542    244.78779 
   33450      96.1634   -738.87777    73030.597   -17247.009    1302.5141   -18549.523    127.92482    244.93637 
   33500     91.84137   -829.71373    72993.898   -17277.674    1243.9731   -18521.647    128.08472    233.92779 
   33550    93.037353   -838.56078    72905.448    -17272.59    1260.1724   -18532.763    127.83786    236.97407 
   33600    92.707831   -495.76655    72966.448   -17267.509    1255.7091   -18523.218    127.68411    236.13474 
   33650     89.48877   -731.89078    72929.902   -17315.586    1212.1076   -18527.694    128.00415    227.93552 
   33700    97.513691   -301.51798    72870.243   -17278.901    1320.8035   -18599.704    128.79947    248.37568 
   33750    98.553291   -533.77636    72884.804   -17273.205    1334.8847   -18608.089    128.99388    251.02363 
   33800    95.493067   -437.20705    72895.305   -17309.064    1293.4346   -18602.498    129.00693    243.22898 
   33850    96.167749   -465.98623    72882.503   -17281.394     1302.573   -18583.967    128.75993    244.94745 
   33900    93.869675   -526.46631     72904.89   -17271.034    1271.4461    -18542.48    128.92292    239.09406 
   33950    98.272471   -471.25392    72954.847   -17233.613    1331.0811   -18564.694    128.91707    250.30836 
[...]
   92000    97.646465     -246.934    72962.153   -17190.415    1322.6019   -18513.017    354.45796    248.71387 
   92050    95.019522   -649.62801    72947.615   -17232.486    1287.0205   -18519.507     354.0604    242.02282 
   92100    95.291489   -398.09657    72933.713   -17249.461    1290.7042   -18540.165    354.09523    242.71554 
   92150    97.598374   -447.66712    72854.047   -17221.296    1321.9505   -18543.247    354.21653    248.59137 
   92200    94.837432   -329.68391    72838.203   -17217.564    1284.5541   -18502.119    354.43047    241.55902 
   92250    93.781209   -548.09141    72828.279   -17224.799    1270.2478   -18495.047    354.18897    238.86873 
   92300     98.31635   -496.13312    72797.506   -17188.974    1331.6754   -18520.649     354.7322    250.42012 
   92350    95.677424   -496.50234     72850.77    -17205.67    1295.9317   -18501.602    355.36169    243.69855 
   92400    95.279009   -618.01461    72847.109   -17218.885    1290.5352   -18509.421    355.40512    242.68375 
   92450    95.307355   -767.20366    72802.046   -17208.043    1290.9191   -18498.962    356.25422    242.75595 
   92500    95.960774   -462.28253    72838.642   -17215.264    1299.7696   -18515.033    356.52322    244.42027 
   92550    93.467174   -411.35773    72887.566   -17247.553    1265.9943   -18513.548    357.33213    238.06885 
   92600    96.254447    -138.8744    72908.641   -17262.837    1303.7473   -18566.584    357.62027    245.16828 
   92650    94.792099   -187.94142    72931.182     -17254.4    1283.9401    -18538.34    357.85162    241.44355 
   92700    94.037696   -288.69384    72938.014   -17257.336    1273.7219   -18531.058    357.58438    239.52202 
   92750    93.999896   -398.68959    72941.877   -17242.989    1273.2099   -18516.199    357.69603    239.42574 
   92800    97.583365   -660.28173    72922.724   -17251.089    1321.7472   -18572.837    358.03512    248.55315 
   92850    95.130302   -148.21353    72851.902   -17242.895     1288.521   -18531.416    358.34207    242.30498 
   92900    96.917185   -264.77809    72905.785   -17220.957     1312.724   -18533.681    358.30248    246.85633 
   92950    96.559112    -261.4146    72919.331   -17221.977    1307.8739   -18529.851    357.91965    245.94428 
   93000    94.147744   -352.67251    72954.395   -17236.679    1275.2124   -18511.892    358.42245    239.80233 
   93050    94.943715   -222.54679    72961.388   -17255.618    1285.9937   -18541.611    358.03349    241.82973 
   93100    94.823189   -598.83866    72979.867   -17257.705    1284.3612   -18542.067     359.2341    241.52274 
   93150    93.473711    -357.0387    72998.868   -17264.507    1266.0828    -18530.59    359.33194    238.08551 
   93200    95.156043   -522.83294    73000.912   -17243.596    1288.8697   -18532.466    359.07014    242.37055 
   93250    94.643173   -163.19456    72967.219   -17272.729    1281.9229   -18554.652    359.32819    241.06423 
   93300    94.587879   -295.74476    72929.209   -17300.529     1281.174   -18581.703    359.69897    240.92339 
   93350    93.313512   -493.61382    72904.933   -17307.154    1263.9129   -18571.067    360.30568    237.67747 
   93400    93.256229   -143.47443    72896.849   -17333.142    1263.1371   -18596.279    359.74414    237.53156 
   93450    94.991025   -699.40037    72944.417   -17326.562    1286.6345   -18613.196    359.87599    241.95023 
   93500    93.658155   -222.00944    72965.738   -17303.992    1268.5811   -18572.573    359.82317     238.5553 
   93550    94.363235   -413.28716    73014.276   -17301.971    1278.1312   -18580.102    360.38745     240.3512 
   93600    94.398099   -533.05196    73089.817   -17305.159    1278.6035   -18583.763    360.67219       240.44 
   93650    94.901037   -432.69866    73093.064   -17243.746    1285.4156   -18529.162    361.33905    241.72103 
   93700    97.810059   -662.41414    73074.922   -17185.398    1324.8178   -18510.215    361.52706    249.13055 
   93750    96.661357   -630.23843    73058.995   -17207.493    1309.2588   -18516.751    361.33385    246.20471 
   93800    94.917435   -533.88816    73101.897   -17216.008    1285.6378   -18501.646    361.53705     241.7628 
   93850    95.883567   -163.79325    73105.146   -17205.825    1298.7238   -18504.549    361.86688    244.22361 
   93900    99.084891   -522.16717    73127.182   -17164.023    1342.0851   -18506.108    362.01952    252.37766 
   93950    95.502527   -469.74394    73113.425   -17205.235    1293.5627   -18498.798    361.75816    243.25307 
   94000    97.193024   -737.81378    73110.038   -17215.981    1316.4602   -18532.441    362.52264    247.55891 
   94050    93.820351    -769.7073    73074.191    -17235.08     1270.778   -18505.858    362.59417    238.96843 
   94100    93.546874    -539.5567    73022.322   -17234.362    1267.0738   -18501.436    362.70465    238.27186 
   94150    95.828519   -354.46183    72991.874   -17260.148    1297.9782   -18558.126    362.81473     244.0834 
   94200    94.084868   -583.50176    72989.254   -17288.728    1274.3608   -18563.089    363.22769    239.64217 
   94250    93.198665   -576.54013    72924.892   -17282.849    1262.3574   -18545.206    363.30519    237.38494 
   94300    92.841897   -354.66985    72901.265   -17268.989     1257.525   -18526.514     363.2568    236.47622 
   94350    92.188441   -228.78795    72923.076   -17215.614    1248.6741   -18464.288    363.80707    234.81181 
   94400    95.020521   -726.71965    72940.815    -17236.44     1287.034   -18523.474    364.36726    242.02536 
   94450    91.380925    -576.0553    72922.745   -17263.924    1237.7364    -18501.66     363.9812      232.755 
   94500    93.161483   -470.94233    72935.442   -17267.899    1261.8537   -18529.753    363.93576    237.29023 
   94550    95.260058   -771.21486     72922.23   -17259.599    1290.2785   -18549.878    364.34814    242.63548 
   94600    96.003423   -382.06634    72929.426   -17230.194    1300.3473   -18530.541    364.24642     244.5289 
   94650    95.773649   -239.51265    72915.895   -17228.925     1297.235    -18526.16    364.70162    243.94364 
   94700    96.435443   -504.82112    72976.533   -17239.813    1306.1989   -18546.012    364.99322    245.62929 
   94750    93.281775   -411.02633    73070.758   -17257.877    1263.4831    -18521.36    365.67032    237.59663 
   94800    90.701104   -271.07067    73105.445   -17268.276    1228.5284   -18496.804    365.67422    231.02344 
   94850    91.540287   -466.64329    73123.356   -17263.327     1239.895   -18503.222    365.76533    233.16091 
   94900    92.380269   -372.37431    73206.084   -17247.063    1251.2724   -18498.335    366.16465    235.30042 
   94950    96.341833   -464.02422    73235.175   -17241.935    1304.9309   -18546.866    366.14312    245.39086 
   95000    94.863967   -430.01255    73286.982   -17240.402    1284.9135   -18525.316    365.68027    241.62661 
   95050    94.273863   -513.49636    73312.716   -17227.404    1276.9207   -18504.324    366.23337    240.12356 
   95100    92.943261   -379.14107    73339.501   -17257.616     1258.898   -18516.514    367.85647     236.7344 
   95150    92.846884   -765.08459    73338.695   -17268.184    1257.5926   -18525.777    367.68651    236.48892 
   95200    93.321033   -649.85727    73327.353    -17281.36    1264.0148   -18545.375    367.42772    237.69662 
   95250    91.842252   -577.09222    73300.684   -17258.907     1243.985   -18502.892    367.99035    233.93004 
   95300    93.656957   -456.88117    73272.415   -17256.545    1268.5648    -18525.11    368.00596    238.55225 
   95350    91.258623   -161.49496    73243.774   -17262.038    1236.0799   -18498.118    368.28038    232.44349 
   95400    93.624516   -449.05601    73299.936   -17227.615    1268.1254    -18495.74    368.99376    238.46962 
   95450     92.68157   -612.67965    73301.544   -17267.999    1255.3534   -18523.353    368.97979    236.06786 
   95500    94.784626    -394.4511    73314.072   -17258.968    1283.8389   -18542.807    369.19415    241.42452 
   95550    91.618511   -424.47843     73282.26   -17231.492    1240.9545   -18472.446     369.5911    233.36015 
   95600    93.862164   -715.95319    73282.017   -17223.625    1271.3443   -18494.969    369.42075    239.07493 
   95650    96.748485   -720.16509    73257.398   -17204.766     1310.439   -18515.205    369.53528    246.42663 
   95700    100.02099   -600.59971    73263.636   -17152.913    1354.7644   -18507.677    369.60836    254.76199 
   95750    95.188868   -604.34893     73265.59   -17177.743    1289.3143   -18467.057    369.77392    242.45416 
   95800     93.05516   -413.93887     73216.13   -17237.303    1260.4136   -18497.716    369.82113    237.01942 
   95850    93.519986   -859.69492    73131.401   -17235.455    1266.7096   -18502.165    370.12526    238.20337 
   95900    93.034888    -573.3162    73133.034   -17233.853     1260.139   -18493.992    369.87565    236.96779 
   95950    92.132024   -587.85759    73110.426   -17278.013    1247.9099   -18525.923    369.76742    234.66811 
   96000    94.744025   -234.93826    73094.837   -17280.897     1283.289   -18564.186    369.57528     241.3211 
   96050    91.129874   -444.86521    73078.271   -17294.458     1234.336   -18528.794    370.33868    232.11555 
   96100    90.778234   -706.94213    73059.586   -17293.668    1229.5731   -18523.241     370.9698     231.2199 
   96150    94.594416   -902.79817    73017.993   -17309.021    1281.2625   -18590.283    371.66482    240.94004 
   96200     93.10084   -407.34133    73011.943   -17302.257    1261.0323   -18563.289    371.87865    237.13577 
   96250    94.857667   -691.18965    73028.243   -17309.771    1284.8282   -18594.599     372.3931    241.61056 
   96300    91.895204   -278.54793    73051.768   -17330.274    1244.7022   -18574.976    372.52443    234.06492 
   96350    96.336961   -707.25239    73047.426    -17317.65    1304.8649   -18622.515    373.09332    245.37845 
   96400    94.263134   -516.41676    73047.592   -17327.586    1276.7754   -18604.362    372.29167    240.09623 
   96450     94.27883   -530.95881    73006.836   -17316.108     1276.988   -18593.096    372.17001    240.13621 
   96500    95.142202   -546.02673    73001.135   -17341.234    1288.6822   -18629.916    372.63599     242.3353 
   96550    95.009551    -650.7717    73035.066   -17313.663    1286.8854   -18600.549    372.75214    241.99742 
   96600    93.145294    -504.7434    73001.432   -17303.124    1261.6345   -18564.758    372.50952      237.249 
   96650    91.728896   -298.92476     73063.77   -17328.398    1242.4496   -18570.848    372.71859    233.64131 
   96700    92.896545   -743.51655    73117.055   -17318.378    1258.2652   -18576.643    372.35885    236.61541 
   96750    92.427774   -594.32696    73046.944   -17307.856    1251.9158   -18559.772    372.46152    235.42142 
   96800    91.984823    -701.6561    73013.257   -17310.577    1245.9161   -18556.493    372.61457    234.29318 
   96850    92.341181   -719.05841    73002.537   -17334.642    1250.7429   -18585.384    372.47582    235.20086 
   96900    90.945899   -834.13062    73046.429   -17358.644    1231.8441   -18590.488    372.71177    231.64695 
   96950    91.650618   -764.03683    72974.696    -17329.15    1241.3894    -18570.54    372.71658    233.44193 
   97000     91.72454   -626.23761    72958.667   -17332.371    1242.3906   -18574.761    373.06647    233.63022 
   97050    92.083215     -551.688    72904.392   -17347.919    1247.2488   -18595.167    373.42561    234.54379 
   97100    93.219278   -397.19617    72920.657   -17347.821    1262.6366   -18610.458     373.3246    237.43744 
   97150     93.55461   -693.77317    72905.077   -17338.218    1267.1786   -18605.396    373.03309    238.29156 
   97200    95.073248   -571.75466    72920.636   -17273.362    1287.7482   -18561.111     372.5995    242.15966 
   97250    93.052115   -447.21389    72870.902   -17255.058    1260.3724    -18515.43    372.45063    237.01167 
   97300    94.388524   -345.81963    72844.918   -17308.804    1278.4738   -18587.278    372.99464    240.41561 
   97350    91.729689    -157.2653    72847.542   -17279.543    1242.4604   -18522.003    373.62143    233.64333 
   97400    94.554191   -114.44242    72874.011   -17275.896    1280.7177   -18556.613    373.34412    240.83758 
   97450    91.779314   -305.43579    72887.171   -17295.972    1243.1325   -18539.105    373.82153    233.76973 
   97500    93.591246   -603.01206    72866.586   -17292.102    1267.6748   -18559.777    374.47225    238.38488 
   97550    91.572154   -471.14474      72863.3   -17257.133    1240.3266    -18497.46    374.61812    233.24208 
   97600     95.16666   -291.47952    72865.189   -17251.568    1289.0135   -18540.581    374.55826    242.39759 
   97650    92.481111   -751.71397    72896.025   -17269.803    1252.6382   -18522.441    374.80888    235.55727 
   97700    92.355521   -565.66424    72899.213   -17251.861    1250.9371   -18502.798    374.93241    235.23738 
   97750    95.658679   -531.18814    72893.543   -17213.338    1295.6778   -18509.016     375.8427    243.65081 
   97800    93.862752   -135.69448    72927.664   -17241.061    1271.3523   -18512.413    376.58221    239.07643 
   97850    92.463309   -643.51512    72998.612   -17265.641    1252.3971   -18518.038    376.95498    235.51193 
   97900    95.970891   -264.40549    72980.719   -17269.607    1299.9066   -18569.513    376.81487    244.44604 
   97950     96.34001   -565.62148    72935.577   -17257.332    1304.9063   -18562.238    376.79797    245.38621 
   98000    93.477842   -473.37812    72927.628   -17288.101    1266.1388    -18554.24    376.89234    238.09603 
   98050    92.987294    -459.5505    72887.593   -17268.245    1259.4944   -18527.739    377.35054    236.84656 
   98100    92.998137   -793.78179      72912.4    -17248.35    1259.6413   -18507.992    377.67833    236.87418 
   98150    94.068267   -97.131357    72940.795   -17254.796    1274.1359   -18528.931    378.05708    239.59989 
   98200    94.694468   -522.24206    72979.938   -17256.492    1282.6177    -18539.11    377.77206    241.19488 
   98250    93.316909   -74.012754    73056.102    -17266.06    1263.9589   -18530.019    377.50938    237.68612 
   98300    93.515663   -468.29508    73074.184   -17294.862     1266.651   -18561.513    377.45534    238.19236 
   98350    93.469819   -703.12538    73079.413   -17288.969    1266.0301   -18554.999    377.60705    238.07559 
   98400    97.007913   -413.38402    73015.698    -17293.09    1313.9529   -18607.042    377.26895    247.08742 
   98450    93.675949   -519.82875     73033.78   -17280.526    1268.8221   -18549.348    376.99098    238.60062 
   98500     93.11849   -627.37748    72960.967   -17295.205    1261.2714   -18556.476    376.95667    237.18073 
   98550    89.955621   -454.81614    72948.758   -17310.313     1218.431   -18528.743    377.31987    229.12463 
   98600    92.708323   -397.89426     72906.74   -17291.569    1255.7158   -18547.285    378.04443      236.136 
   98650    93.178836   -244.69457    72901.285   -17280.516    1262.0888   -18542.605    378.48947    237.33444 
   98700    91.271166   -661.22606     72892.57   -17289.161    1236.2498   -18525.411     378.5221    232.47544 
   98750    95.352562   -352.66808    72861.155   -17277.114    1291.5315   -18568.645    378.41682     242.8711 
   98800    95.658981   -684.98966    72895.059    -17268.47    1295.6818   -18564.152    379.32586    243.65157 
   98850    94.335195   -833.42218    72858.602   -17271.345    1277.7514   -18549.097    379.00582    240.27978 
   98900    93.624756   -930.56568    72894.133   -17301.127    1268.1287   -18569.256    379.58173    238.47023 
   98950    93.359566   -533.77401    72846.876   -17251.934    1264.5367   -18516.471    379.87994    237.79477 
   99000    91.856429   -592.79254     72766.13   -17279.856     1244.177   -18524.033    379.78596    233.96615 
   99050    95.764874   -670.56738    72729.871   -17242.979    1297.1161   -18540.095    379.69592    243.92129 
   99100    93.714732   -190.40888    72765.221   -17254.425    1269.3474   -18523.772    379.81536    238.69941 
   99150    92.839858   -497.75522     72790.78   -17241.549    1257.4974   -18499.046    381.09154    236.47103 
   99200    94.739604   -332.10629    72827.762   -17251.442    1283.2291   -18534.671    380.63213    241.30984 
   99250    93.461502   -526.58154    72822.617   -17251.297    1265.9174   -18517.214    380.43905    238.05441 
   99300    95.869345   -378.15146    72775.903   -17229.659    1298.5312    -18528.19    380.54131    244.18739 
   99350    95.690133   -405.49694    72822.274   -17197.088    1296.1038   -18493.192    380.87268    243.73092 
   99400    94.759275   -7.0940505     72803.24    -17187.95    1283.4955   -18471.445    381.30581    241.35995 
   99450    94.863233   -171.54328    72826.492   -17194.192    1284.9036   -18479.096    381.08897    241.62474 
   99500    95.951808   -285.65918    72808.923   -17225.904    1299.6481   -18525.552    381.21306    244.39743 
   99550    92.487254   -548.54168    72847.654   -17251.325    1252.7214   -18504.046    381.15698    235.57292 
   99600    96.260276   -290.07362    72852.649   -17216.733    1303.8263   -18520.559    380.98281    245.18312 
   99650    94.769291   -384.09538    72829.314   -17196.284    1283.6312   -18479.915    381.30817    241.38546 
   99700    95.277406   -748.79552    72834.657   -17210.618    1290.5135   -18501.132    381.24625    242.67967 
   99750    95.398821   -632.94151    72793.115   -17199.442     1292.158     -18491.6    382.02723    242.98892 
   99800    95.525977   -464.51142    72805.237   -17210.659    1293.8803    -18504.54    381.91282     243.3128 
   99850    92.265676   -330.05411    72796.905   -17202.061    1249.7202   -18451.782    381.84611    235.00854 
   99900    91.601593    -424.4385    72784.342   -17242.212    1240.7253   -18482.938    382.10279    233.31706 
   99950    94.965614   -364.41489    72770.938   -17239.413    1286.2903   -18525.703    381.02595    241.88551 
  100000    94.740728   -353.80186    72777.903   -17226.843    1283.2443   -18510.088    380.99034    241.31271 
Loop time of 95.8174 on 32 procs for 100000 steps with 4545 atoms

Performance: 450.858 ns/day, 0.053 hours/ns, 1043.652 timesteps/s
100.0% CPU use with 32 MPI tasks x no OpenMP threads

MPI task timing breakdown:
Section |  min time  |  avg time  |  max time  |%varavg| %total
---------------------------------------------------------------
Pair    | 56.661     | 64.08      | 72.567     |  81.6 | 66.88
Neigh   | 1.2223     | 2.9057     | 4.7775     |  97.1 |  3.03
Comm    | 13.015     | 22.485     | 31.162     | 165.2 | 23.47
Output  | 0.10064    | 0.10307    | 0.11394    |   0.7 |  0.11
Modify  | 4.5212     | 5.4714     | 6.8293     |  23.7 |  5.71
Other   |            | 0.772      |            |       |  0.81

Nlocal:    142.031 ave 217 max 76 min
Histogram: 16 0 0 0 0 0 0 0 7 9
Nghost:    951.688 ave 1005 max 901 min
Histogram: 8 8 0 0 0 0 0 4 5 7
Neighs:    0 ave 0 max 0 min
Histogram: 32 0 0 0 0 0 0 0 0 0
FullNghs:  14587.6 ave 26467 max 3757 min
Histogram: 16 0 0 0 0 0 0 0 3 13

Total # of neighbors = 466802
Ave neighs/atom = 102.707
Neighbor list builds = 5675
Dangerous builds = 0

write_data		${DIR}/data.eq-${NAME}-${TEMP}
write_data		run_15/data.eq-${NAME}-${TEMP}
write_data		run_15/data.eq-het_freeze_15-${TEMP}
write_data		run_15/data.eq-het_freeze_15-240
undump          1

reset_timestep  0

unfix           2
unfix           3
unfix           4


################################################
#######         Run Simulation         #########
################################################

log				${DIR}/log.run_${NAME}
log				run_15/log.run_${NAME}
log				run_15/log.run_het_freeze_15
