LAMMPS data file via write_data, version 16 Mar 2018, timestep = 6000000

6337 atoms
2 atom types

0.0000000000000000e+00 4.9219999999999999e+01 xlo xhi
0.0000000000000000e+00 4.9019635930410494e+01 ylo yhi
1.5764384407081309e+00 5.8485561559283084e+01 zlo zhi

Masses

1 18.015
2 12.01

Atoms # atomic

198 1 1.7622248850386997e+00 8.3292148506661086e+00 5.3833840449040311e+00 1 -2 1
6267 1 2.6043573116638967e+00 3.8650094840863247e-01 8.4240904350980177e+00 2 -1 1
2065 1 4.4458527119754185e+00 2.1391272006231201e+00 4.2628331997300934e+00 1 1 0
1794 1 4.3534794269826405e+00 4.5467262364937504e+00 8.1885077251944818e+00 -1 0 1
1756 1 9.2033624208261351e+00 2.2792773597332339e+00 4.3181955708733524e+00 0 1 0
2141 1 8.7202223432662098e+00 9.9404370101557742e+00 1.8786856311484690e+00 -1 -1 1
1454 1 1.0490380985962167e+01 4.4365021454814790e-01 6.0263608403034894e+00 2 2 1
1277 1 1.9713620003678849e+00 5.7271712394844387e+00 4.3804913579573572e+00 4 1 1
2070 1 1.6007117848432979e+00 8.2687924283349883e+00 8.2187069037198768e+00 2 1 1
5302 1 7.0256114575114443e+00 6.1011378004386616e+00 4.6776393804530931e+00 0 2 1
4552 1 1.1540270008338481e+01 5.7796970371686385e+00 4.3434514440842538e+00 0 0 1
4850 1 1.1874899172209931e+01 7.6899768667036508e+00 6.4363482355770705e+00 2 2 0
5160 1 3.7457557179371888e+00 9.6141997166856967e+00 4.3520774707641969e+00 -2 1 1
124 1 8.4090060868885299e+00 1.0426673525729978e+01 4.6171212126092538e+00 -1 1 0
2889 1 2.4008917135419847e+00 5.9257262269671240e-01 5.4510794321613485e+00 2 2 1
106 1 1.1712798848660691e+01 1.1369122601225381e+01 7.2988762447072766e+00 -1 1 0
1485 1 6.9447870998629657e+00 1.0404233621203574e+00 5.1294130135311828e+00 3 1 0
3127 1 9.4493708735605395e+00 4.7372053926511750e+00 5.4245571662219749e+00 0 3 0
4598 1 6.2119071898958680e+00 8.7877086745602870e+00 5.6206288566933571e+00 -2 2 1
4789 1 5.7285310546977142e+00 8.8309128448741703e+00 8.3592966566761007e+00 1 0 0
1833 1 1.1371021418367386e+01 1.0066187955022411e+01 5.0196960881759090e+00 2 0 0
4555 1 4.3901663977694501e+00 4.7407766993072675e+00 5.4043713799699109e+00 -4 0 1
4996 1 8.0675560947013877e-02 1.8456940504200565e+00 4.3644790210591751e+00 3 -2 0
5031 1 8.7358040143853355e+00 4.9282027712572418e+00 8.2117486236508146e+00 -2 1 0
1521 1 6.8233390149568436e+00 9.7863533362419408e-01 7.9668589422814025e+00 -1 2 0
3029 1 3.0615049622745982e-01 1.7685299174441345e+00 1.7161513833253130e+00 1 2 1
4489 1 2.2032727101016318e+00 5.7645959880697077e+00 1.7086363862574856e+00 2 2 1
2994 1 7.0731689712934740e+00 5.8600828408311401e+00 1.8633317579367721e+00 3 2 1
1993 1 1.1121668117866363e+01 8.6960394334759583e-01 8.6890487359071322e+00 0 -2 1
3686 1 4.7778585163355114e+00 2.3250065347771587e+00 1.1981385249051128e+01 -1 -1 1
1244 1 4.4936997087469654e+00 1.9622804910675116e+00 9.1432437018532617e+00 0 -1 0
3137 1 9.0358510818118862e+00 2.3201368118052490e+00 9.3656561597155683e+00 1 -2 1
4927 1 8.9308383376860601e+00 2.2113867106295433e+00 1.2298539643916119e+01 3 1 0
2899 1 2.4060169955205493e+00 5.8169769596158396e+00 1.1705442604717582e+01 1 1 1
4809 1 9.5677868918510747e+00 1.1545640976574237e+01 1.2927299189523852e+01 0 2 0
258 1 6.7489755347044618e+00 6.1314522154978608e+00 1.1856677912213314e+01 3 0 0
4798 1 1.1736488857922514e+00 1.1897111963960997e+01 1.1800620184417729e+01 1 -2 0
139 1 1.0908052094124518e+01 6.5795451362552928e+00 9.1605530324553932e+00 0 0 0
1719 1 1.1412532874467789e+01 5.6776511429127199e+00 1.1793523623459100e+01 1 -1 0
1272 1 4.1222969123644617e+00 1.1959611752512179e+01 1.5226924835995806e+01 0 1 0
3657 1 3.5209757983738048e+00 1.0774548295067969e+01 1.1568493545554098e+01 -2 1 0
1766 1 7.9306306800331763e+00 1.0400353474865939e+01 9.2410529221088424e+00 1 2 0
6140 1 7.2309559499643949e+00 1.0563490817356854e+01 1.2021950387852446e+01 1 0 1
2088 1 1.1426229558400363e+01 1.0177111885836215e+01 1.1385483217934079e+01 -2 3 1
5205 1 1.1642119908570724e+01 8.6047165666469159e+00 1.5129175831821080e+01 0 1 0
1434 1 9.5069331843331977e+00 1.0474293317618679e+01 1.5339808708194694e+01 1 0 1
3345 1 2.8443717942352391e+00 5.6167806459248193e-01 1.2807735446818892e+01 0 -1 0
6160 1 6.9194225175705171e+00 8.0892219496867723e-01 1.3210115661636868e+01 0 -1 0
4917 1 1.1281207831552118e+01 9.9591703945854537e-01 1.3355628351686910e+01 1 -1 0
4795 1 3.4418897127612236e+00 1.0054288649798060e+01 8.9897314659563499e+00 -1 2 0
271 1 6.2346336487114282e+00 8.1807421304937691e+00 1.3300576093788520e+01 -1 1 0
4493 1 4.6908075819823836e+00 4.7996135914768061e+00 1.3124792058365312e+01 1 3 1
6033 1 6.4164484112003422e+00 6.2110333860675517e+00 9.1569709620606439e+00 3 2 1
1984 1 8.8510124510187307e+00 4.8099923731516094e+00 1.2948496427802695e+01 -2 2 0
4722 1 1.8878259567204270e+00 5.5392644460955003e+00 8.9831396678987758e+00 4 0 0
5227 1 3.1953349695475102e+00 8.4619810261084165e+00 1.2891355063820042e+01 -3 3 0
81 1 1.2835876541521489e+00 1.1883558176028364e+01 1.4527588594889787e+01 0 2 0
1613 1 3.3532050750286491e-01 1.7822117327364351e+00 9.1867508087776493e+00 3 2 1
4527 1 1.0388767692519000e+01 9.3142049662061375e+00 9.1144039002719772e+00 -1 1 1
5109 1 1.9553011515475965e-01 4.7503720369860343e+00 1.3042122713842778e+01 0 4 0
3411 1 9.3359388559357939e+00 4.6730320998603405e+00 1.5771280308368731e+01 1 -2 0
3481 1 2.7447672369557083e+00 8.6247733047848563e+00 1.5743278639831431e+01 0 2 0
2866 1 4.3350497046921455e-01 1.8470462593841561e+00 1.2120221784042725e+01 0 0 1
6194 1 2.5025446091421379e+00 8.6155463638537488e-01 1.5607889683829139e+01 -2 1 1
4479 1 4.5765840485788656e-01 1.0017997422841876e+01 1.6322898977755351e+01 -1 -1 1
3364 1 6.9334647592613745e+00 8.8622610395218668e+00 2.0511630608619118e+01 1 2 1
321 1 4.4467542810633427e+00 2.2285431367200990e+00 1.6728195125856203e+01 3 3 0
3380 1 1.1086483192394748e+01 9.0356027925517708e+00 2.1078827690841603e+01 1 0 0
2949 1 8.9227550344786337e+00 2.0859683814013681e+00 1.6925427973142064e+01 3 1 1
2837 1 4.6621811749923490e+00 1.0403966611084716e+01 1.9694650202134330e+01 0 -1 1
2856 1 2.5676371319404661e+00 6.2180803169889725e+00 1.7021797493699246e+01 1 -1 1
1398 1 2.6960029584768432e+00 6.6061365786357396e+00 1.9632311535074628e+01 -1 -1 1
5053 1 6.9189095220106465e+00 6.0191529839602627e+00 1.6733702952000364e+01 1 3 0
3699 1 1.1244273190418097e+01 6.3542259501641762e+00 1.6784242122171364e+01 1 1 1
5293 1 9.1083626529471093e+00 1.0611845207378817e+01 1.9809577635790763e+01 -1 -6 0
1411 1 1.2437842784995849e-01 2.6908262629968496e+00 1.9584396439095173e+01 2 1 1
3225 1 4.7303414886467605e+00 9.8076808302169081e+00 1.7008817685096581e+01 1 -1 0
1467 1 2.2819497180751398e+00 9.4632268665496899e-01 2.0775235082987511e+01 -1 -1 1
6120 1 2.5357632650106217e+00 9.0923345643975875e+00 2.0569018377245566e+01 0 3 0
392 1 4.6740212558278245e+00 1.9467015958525791e+00 1.9520980230341340e+01 7 4 1
1369 1 6.8833712820447310e+00 7.4133056752724702e-01 2.0666349005056649e+01 -3 -2 1
3644 1 9.2543175589888840e+00 2.3177277245351862e+00 1.9695136519699432e+01 0 -1 0
5278 1 1.1377945695017820e+01 6.5831070732782482e-01 2.0761532887206950e+01 2 3 1
6011 1 9.9041450919088128e+00 1.1997071669235659e+01 1.7540714426034935e+01 -2 -2 1
3643 1 7.1006924562199405e+00 5.9773805445808383e+00 1.9450566526697429e+01 2 -2 0
188 1 4.8278994966674347e+00 4.6330121279557144e+00 2.0340220750866091e+01 -3 0 0
3169 1 9.2161580271050063e+00 4.8154482749774488e+00 2.0511573009621255e+01 0 0 1
4897 1 1.1651038303780760e+01 6.3480955735662334e+00 1.9671613863039216e+01 2 -1 0
86 1 5.9166183508551062e-01 5.1033470903000477e+00 2.1001051279809559e+01 2 -1 0
1262 1 4.0580957244442384e-01 1.0498263240154262e+01 2.0936009375614077e+01 0 1 1
3735 1 4.7356796008647484e-01 2.3303444932969626e+00 1.6853518181333943e+01 -1 1 1
5172 1 1.1452091231120388e+01 8.3064556631324482e-01 1.6051303008911059e+01 0 0 1
1403 1 7.1645523273632765e+00 8.8303361334084709e+00 1.6016146997595918e+01 2 -2 1
1784 1 2.9973190599798227e-01 4.8225365161217963e+00 1.5905586033054977e+01 1 2 0
1344 1 6.8112634276701582e+00 8.4161269864843713e-01 1.6172171412383189e+01 2 3 1
5193 1 4.5626143353430129e+00 4.7818947894250510e+00 1.5877143534114017e+01 0 1 1
1591 1 2.5538488100216705e+00 8.0089135507856901e-01 2.3498028423681795e+01 0 3 1
775 2 1.1074500000000002e+01 1.0656442593567498e+01 2.6753779382320733e+01 0 0 0
2951 1 4.9126678393339969e+00 2.2393513019216384e+00 2.4353094722422593e+01 -1 -1 0
6329 1 4.5876911772084608e+00 4.7743489888610524e+00 2.3180911517341887e+01 1 0 1
229 1 1.1320598559911778e+01 7.3888832457346321e-01 2.3237878634354040e+01 1 0 0
5112 1 9.2582283737874427e+00 2.2904131387004418e+00 2.4319197815715388e+01 2 0 1
1663 1 2.5483550869053704e+00 6.5865191765635780e+00 2.4264941164069597e+01 1 0 0
687 2 8.6134999999999984e+00 9.2355835810918343e+00 2.6753779382320733e+01 0 0 0
5975 1 6.4429687360482548e+00 6.2831736581254258e+00 2.4071984613156584e+01 2 -1 1
3170 1 7.0338820525383534e+00 7.9409449940295229e-01 2.3588966307709882e+01 0 1 1
243 1 1.1483533733194681e+01 6.0005246999038615e+00 2.4400480481454764e+01 2 0 0
249 1 3.4791764816952453e-01 2.1217068664104115e+00 2.4184337094988539e+01 -1 2 1
777 2 1.2304999999999998e+01 1.1366872099805333e+01 2.6753779382320733e+01 0 0 0
3083 1 8.9560599280574049e+00 4.9550138032222550e+00 2.3181535784715091e+01 1 -2 1
17 1 2.8645610715607210e+00 9.2069829469082762e+00 2.3489457706491407e+01 1 0 0
2016 1 5.1081237744085328e+00 1.0681442558054924e+01 2.3870064400262397e+01 -2 2 0
4928 1 1.1245321439443964e+01 8.8810869677424513e+00 2.3955316797880300e+01 1 0 1
4513 1 8.9087489952863361e+00 1.0340647962787694e+01 2.4174463733172512e+01 0 0 1
554 2 0.0000000000000000e+00 2.8417180249513345e+00 2.6753779382320733e+01 0 0 0
556 2 0.0000000000000000e+00 0.0000000000000000e+00 2.6753779382320733e+01 0 0 0
558 2 1.2305000000000001e+00 7.1042950623783474e-01 2.6753779382320733e+01 0 0 0
565 2 1.2305000000000001e+00 2.1312885187134998e+00 2.6753779382320733e+01 0 0 0
567 2 2.4610000000000003e+00 2.8417180249513345e+00 2.6753779382320733e+01 0 0 0
569 2 2.4610000000000003e+00 0.0000000000000000e+00 2.6753779382320733e+01 0 0 0
571 2 3.6915000000000004e+00 7.1042950623783474e-01 2.6753779382320733e+01 0 0 0
586 2 3.6914999999999996e+00 2.1312885187134998e+00 2.6753779382320733e+01 0 0 0
588 2 4.9220000000000006e+00 2.8417180249513332e+00 2.6753779382320733e+01 0 0 0
590 2 4.9220000000000006e+00 0.0000000000000000e+00 2.6753779382320733e+01 0 0 0
592 2 6.1524999999999999e+00 7.1042950623783407e-01 2.6753779382320733e+01 0 0 0
615 2 6.1524999999999999e+00 2.1312885187134989e+00 2.6753779382320733e+01 0 0 0
617 2 7.3829999999999991e+00 2.8417180249513345e+00 2.6753779382320733e+01 0 0 0
619 2 7.3829999999999991e+00 0.0000000000000000e+00 2.6753779382320733e+01 0 0 0
621 2 8.6134999999999984e+00 7.1042950623783407e-01 2.6753779382320733e+01 0 0 0
652 2 8.6134999999999984e+00 2.1312885187135002e+00 2.6753779382320733e+01 0 0 0
654 2 9.8440000000000012e+00 2.8417180249513332e+00 2.6753779382320733e+01 0 0 0
656 2 9.8440000000000012e+00 0.0000000000000000e+00 2.6753779382320733e+01 0 0 0
658 2 1.1074500000000002e+01 7.1042950623783330e-01 2.6753779382320733e+01 0 0 0
697 2 1.1074500000000002e+01 2.1312885187135002e+00 2.6753779382320733e+01 0 0 0
561 2 0.0000000000000000e+00 4.2625770374269996e+00 2.6753779382320733e+01 0 0 0
563 2 1.2305000000000001e+00 4.9730065436648339e+00 2.6753779382320733e+01 0 0 0
578 2 1.2305000000000001e+00 6.3938655561404980e+00 2.6753779382320733e+01 0 0 0
582 2 2.4610000000000003e+00 4.2625770374269996e+00 2.6753779382320733e+01 0 0 0
584 2 3.6914999999999996e+00 4.9730065436648339e+00 2.6753779382320733e+01 0 0 0
607 2 3.6914999999999996e+00 6.3938655561404980e+00 2.6753779382320733e+01 0 0 0
559 2 0.0000000000000000e+00 7.1042950623783341e+00 2.6753779382320733e+01 0 0 0
580 2 2.4610000000000003e+00 7.1042950623783341e+00 2.6753779382320733e+01 0 0 0
611 2 4.9220000000000006e+00 4.2625770374269978e+00 2.6753779382320733e+01 0 0 0
613 2 6.1524999999999999e+00 4.9730065436648339e+00 2.6753779382320733e+01 0 0 0
644 2 6.1524999999999999e+00 6.3938655561404980e+00 2.6753779382320733e+01 0 0 0
648 2 7.3829999999999991e+00 4.2625770374269996e+00 2.6753779382320733e+01 0 0 0
609 2 4.9220000000000006e+00 7.1042950623783341e+00 2.6753779382320733e+01 0 0 0
646 2 7.3830000000000009e+00 7.1042950623783341e+00 2.6753779382320733e+01 0 0 0
650 2 8.6135000000000002e+00 4.9730065436648339e+00 2.6753779382320733e+01 0 0 0
689 2 8.6135000000000002e+00 6.3938655561404980e+00 2.6753779382320733e+01 0 0 0
693 2 9.8440000000000012e+00 4.2625770374270004e+00 2.6753779382320733e+01 0 0 0
695 2 1.1074500000000002e+01 4.9730065436648339e+00 2.6753779382320733e+01 0 0 0
736 2 1.1074500000000002e+01 6.3938655561404980e+00 2.6753779382320733e+01 0 0 0
691 2 9.8440000000000012e+00 7.1042950623783341e+00 2.6753779382320733e+01 0 0 0
574 2 0.0000000000000000e+00 8.5251540748539991e+00 2.6753779382320733e+01 0 0 0
576 2 1.2305000000000001e+00 9.2355835810918343e+00 2.6753779382320733e+01 0 0 0
603 2 2.4610000000000003e+00 8.5251540748539991e+00 2.6753779382320733e+01 0 0 0
605 2 3.6915000000000004e+00 9.2355835810918343e+00 2.6753779382320733e+01 0 0 0
572 2 0.0000000000000000e+00 1.1366872099805333e+01 2.6753779382320733e+01 0 0 0
599 2 1.2305000000000001e+00 1.0656442593567498e+01 2.6753779382320733e+01 0 0 0
601 2 2.4610000000000003e+00 1.1366872099805333e+01 2.6753779382320733e+01 0 0 0
636 2 3.6914999999999996e+00 1.0656442593567499e+01 2.6753779382320733e+01 0 0 0
642 2 6.1524999999999999e+00 9.2355835810918343e+00 2.6753779382320733e+01 0 0 0
640 2 4.9220000000000006e+00 8.5251540748539991e+00 2.6753779382320733e+01 0 0 0
685 2 7.3830000000000009e+00 8.5251540748539991e+00 2.6753779382320733e+01 0 0 0
638 2 4.9220000000000006e+00 1.1366872099805333e+01 2.6753779382320733e+01 0 0 0
681 2 6.1524999999999999e+00 1.0656442593567499e+01 2.6753779382320733e+01 0 0 0
683 2 7.3829999999999991e+00 1.1366872099805333e+01 2.6753779382320733e+01 0 0 0
730 2 9.8440000000000012e+00 1.1366872099805333e+01 2.6753779382320733e+01 0 0 0
734 2 1.1074500000000002e+01 9.2355835810918343e+00 2.6753779382320733e+01 0 0 0
728 2 8.6134999999999984e+00 1.0656442593567498e+01 2.6753779382320733e+01 0 0 0
732 2 9.8440000000000012e+00 8.5251540748539956e+00 2.6753779382320733e+01 0 0 0
206 1 3.7663556211432347e-01 1.0538991956595241e+01 2.3897894747763246e+01 3 -2 0
1967 1 3.2580795790771089e-01 5.1600217674252988e+00 2.3868821813043265e+01 2 2 0
120 1 6.9698920332737995e+00 8.8795392461374032e+00 2.3122023138693375e+01 0 0 1
555 2 0.0000000000000000e+00 1.4208590124756650e+00 3.0030999999995647e+01 0 0 0
557 2 0.0000000000000000e+00 0.0000000000000000e+00 3.0030999999995647e+01 0 0 0
566 2 1.2305000000000001e+00 2.1312885187134998e+00 3.0030999999995647e+01 0 0 0
568 2 2.4610000000000003e+00 1.4208590124756650e+00 3.0030999999995647e+01 0 0 0
570 2 2.4610000000000003e+00 0.0000000000000000e+00 3.0030999999995647e+01 0 0 0
587 2 3.6914999999999996e+00 2.1312885187134998e+00 3.0030999999995647e+01 0 0 0
564 2 1.2305000000000001e+00 3.5521475311891644e+00 3.0030999999995647e+01 0 0 0
585 2 3.6914999999999996e+00 3.5521475311891644e+00 3.0030999999995647e+01 0 0 0
883 2 0.0000000000000000e+00 2.8417180249513345e+00 3.3308220617655053e+01 0 0 0
884 2 0.0000000000000000e+00 0.0000000000000000e+00 3.3308220617655053e+01 0 0 0
885 2 1.2305000000000001e+00 7.1042950623783474e-01 3.3308220617655053e+01 0 0 0
889 2 1.2305000000000001e+00 2.1312885187134998e+00 3.3308220617655053e+01 0 0 0
890 2 2.4610000000000003e+00 2.8417180249513345e+00 3.3308220617655053e+01 0 0 0
891 2 2.4610000000000003e+00 0.0000000000000000e+00 3.3308220617655053e+01 0 0 0
892 2 3.6915000000000004e+00 7.1042950623783474e-01 3.3308220617655053e+01 0 0 0
900 2 3.6914999999999996e+00 2.1312885187134998e+00 3.3308220617655053e+01 0 0 0
589 2 4.9220000000000006e+00 1.4208590124756650e+00 3.0030999999995647e+01 0 0 0
591 2 4.9220000000000006e+00 0.0000000000000000e+00 3.0030999999995647e+01 0 0 0
616 2 6.1524999999999999e+00 2.1312885187134989e+00 3.0030999999995647e+01 0 0 0
618 2 7.3829999999999991e+00 1.4208590124756659e+00 3.0030999999995647e+01 0 0 0
620 2 7.3829999999999991e+00 0.0000000000000000e+00 3.0030999999995647e+01 0 0 0
614 2 6.1524999999999999e+00 3.5521475311891644e+00 3.0030999999995647e+01 0 0 0
901 2 4.9220000000000006e+00 2.8417180249513332e+00 3.3308220617655053e+01 0 0 0
902 2 4.9220000000000006e+00 0.0000000000000000e+00 3.3308220617655053e+01 0 0 0
903 2 6.1524999999999999e+00 7.1042950623783407e-01 3.3308220617655053e+01 0 0 0
915 2 6.1524999999999999e+00 2.1312885187134989e+00 3.3308220617655053e+01 0 0 0
916 2 7.3829999999999991e+00 2.8417180249513345e+00 3.3308220617655053e+01 0 0 0
917 2 7.3829999999999991e+00 0.0000000000000000e+00 3.3308220617655053e+01 0 0 0
653 2 8.6134999999999984e+00 2.1312885187135002e+00 3.0030999999995647e+01 0 0 0
655 2 9.8440000000000012e+00 1.4208590124756659e+00 3.0030999999995647e+01 0 0 0
657 2 9.8440000000000012e+00 0.0000000000000000e+00 3.0030999999995647e+01 0 0 0
698 2 1.1074500000000002e+01 2.1312885187135002e+00 3.0030999999995647e+01 0 0 0
651 2 8.6134999999999984e+00 3.5521475311891657e+00 3.0030999999995647e+01 0 0 0
696 2 1.1074500000000002e+01 3.5521475311891644e+00 3.0030999999995647e+01 0 0 0
918 2 8.6134999999999984e+00 7.1042950623783407e-01 3.3308220617655053e+01 0 0 0
934 2 8.6134999999999984e+00 2.1312885187135002e+00 3.3308220617655053e+01 0 0 0
935 2 9.8440000000000012e+00 2.8417180249513332e+00 3.3308220617655053e+01 0 0 0
936 2 9.8440000000000012e+00 0.0000000000000000e+00 3.3308220617655053e+01 0 0 0
937 2 1.1074500000000002e+01 7.1042950623783330e-01 3.3308220617655053e+01 0 0 0
957 2 1.1074500000000002e+01 2.1312885187135002e+00 3.3308220617655053e+01 0 0 0
560 2 0.0000000000000000e+00 5.6834360499026637e+00 3.0030999999995647e+01 0 0 0
562 2 0.0000000000000000e+00 4.2625770374269996e+00 3.0030999999995647e+01 0 0 0
579 2 1.2305000000000001e+00 6.3938655561404980e+00 3.0030999999995647e+01 0 0 0
581 2 2.4610000000000003e+00 5.6834360499026637e+00 3.0030999999995647e+01 0 0 0
583 2 2.4610000000000003e+00 4.2625770374269996e+00 3.0030999999995647e+01 0 0 0
608 2 3.6914999999999996e+00 6.3938655561404980e+00 3.0030999999995647e+01 0 0 0
577 2 1.2305000000000001e+00 7.8147245686161639e+00 3.0030999999995647e+01 0 0 0
606 2 3.6914999999999996e+00 7.8147245686161639e+00 3.0030999999995647e+01 0 0 0
887 2 0.0000000000000000e+00 4.2625770374269996e+00 3.3308220617655053e+01 0 0 0
888 2 1.2305000000000001e+00 4.9730065436648339e+00 3.3308220617655053e+01 0 0 0
896 2 1.2305000000000001e+00 6.3938655561404980e+00 3.3308220617655053e+01 0 0 0
898 2 2.4610000000000003e+00 4.2625770374269996e+00 3.3308220617655053e+01 0 0 0
899 2 3.6914999999999996e+00 4.9730065436648339e+00 3.3308220617655053e+01 0 0 0
911 2 3.6914999999999996e+00 6.3938655561404980e+00 3.3308220617655053e+01 0 0 0
886 2 0.0000000000000000e+00 7.1042950623783341e+00 3.3308220617655053e+01 0 0 0
897 2 2.4610000000000003e+00 7.1042950623783341e+00 3.3308220617655053e+01 0 0 0
610 2 4.9220000000000006e+00 5.6834360499026637e+00 3.0030999999995647e+01 0 0 0
612 2 4.9220000000000006e+00 4.2625770374269978e+00 3.0030999999995647e+01 0 0 0
645 2 6.1524999999999999e+00 6.3938655561404980e+00 3.0030999999995647e+01 0 0 0
647 2 7.3829999999999991e+00 5.6834360499026637e+00 3.0030999999995647e+01 0 0 0
649 2 7.3829999999999991e+00 4.2625770374269996e+00 3.0030999999995647e+01 0 0 0
643 2 6.1524999999999999e+00 7.8147245686161639e+00 3.0030999999995647e+01 0 0 0
913 2 4.9220000000000006e+00 4.2625770374269978e+00 3.3308220617655053e+01 0 0 0
914 2 6.1524999999999999e+00 4.9730065436648339e+00 3.3308220617655053e+01 0 0 0
930 2 6.1524999999999999e+00 6.3938655561404980e+00 3.3308220617655053e+01 0 0 0
932 2 7.3829999999999991e+00 4.2625770374269996e+00 3.3308220617655053e+01 0 0 0
912 2 4.9220000000000006e+00 7.1042950623783341e+00 3.3308220617655053e+01 0 0 0
931 2 7.3830000000000009e+00 7.1042950623783341e+00 3.3308220617655053e+01 0 0 0
690 2 8.6135000000000002e+00 6.3938655561404980e+00 3.0030999999995647e+01 0 0 0
692 2 9.8440000000000012e+00 5.6834360499026637e+00 3.0030999999995647e+01 0 0 0
694 2 9.8440000000000012e+00 4.2625770374270004e+00 3.0030999999995647e+01 0 0 0
737 2 1.1074500000000002e+01 6.3938655561404980e+00 3.0030999999995647e+01 0 0 0
688 2 8.6135000000000002e+00 7.8147245686161639e+00 3.0030999999995647e+01 0 0 0
735 2 1.1074500000000002e+01 7.8147245686161639e+00 3.0030999999995647e+01 0 0 0
933 2 8.6135000000000002e+00 4.9730065436648339e+00 3.3308220617655053e+01 0 0 0
953 2 8.6135000000000002e+00 6.3938655561404980e+00 3.3308220617655053e+01 0 0 0
955 2 9.8440000000000012e+00 4.2625770374270004e+00 3.3308220617655053e+01 0 0 0
956 2 1.1074500000000002e+01 4.9730065436648339e+00 3.3308220617655053e+01 0 0 0
977 2 1.1074500000000002e+01 6.3938655561404980e+00 3.3308220617655053e+01 0 0 0
954 2 9.8440000000000012e+00 7.1042950623783341e+00 3.3308220617655053e+01 0 0 0
573 2 0.0000000000000000e+00 9.9460130873296642e+00 3.0030999999995647e+01 0 0 0
575 2 0.0000000000000000e+00 8.5251540748539991e+00 3.0030999999995647e+01 0 0 0
602 2 2.4610000000000003e+00 9.9460130873296642e+00 3.0030999999995647e+01 0 0 0
604 2 2.4610000000000003e+00 8.5251540748539991e+00 3.0030999999995647e+01 0 0 0
598 2 1.2305000000000001e+00 1.2077301606043163e+01 3.0030999999995647e+01 0 0 0
600 2 1.2305000000000001e+00 1.0656442593567498e+01 3.0030999999995647e+01 0 0 0
635 2 3.6914999999999996e+00 1.2077301606043163e+01 3.0030999999995647e+01 0 0 0
637 2 3.6914999999999996e+00 1.0656442593567499e+01 3.0030999999995647e+01 0 0 0
894 2 0.0000000000000000e+00 8.5251540748539991e+00 3.3308220617655053e+01 0 0 0
895 2 1.2305000000000001e+00 9.2355835810918343e+00 3.3308220617655053e+01 0 0 0
909 2 2.4610000000000003e+00 8.5251540748539991e+00 3.3308220617655053e+01 0 0 0
910 2 3.6915000000000004e+00 9.2355835810918343e+00 3.3308220617655053e+01 0 0 0
893 2 0.0000000000000000e+00 1.1366872099805333e+01 3.3308220617655053e+01 0 0 0
907 2 1.2305000000000001e+00 1.0656442593567498e+01 3.3308220617655053e+01 0 0 0
908 2 2.4610000000000003e+00 1.1366872099805333e+01 3.3308220617655053e+01 0 0 0
926 2 3.6914999999999996e+00 1.0656442593567499e+01 3.3308220617655053e+01 0 0 0
639 2 4.9220000000000006e+00 9.9460130873296642e+00 3.0030999999995647e+01 0 0 0
641 2 4.9220000000000006e+00 8.5251540748539991e+00 3.0030999999995647e+01 0 0 0
684 2 7.3830000000000009e+00 9.9460130873296642e+00 3.0030999999995647e+01 0 0 0
686 2 7.3830000000000009e+00 8.5251540748539991e+00 3.0030999999995647e+01 0 0 0
680 2 6.1524999999999999e+00 1.2077301606043163e+01 3.0030999999995647e+01 0 0 0
682 2 6.1524999999999999e+00 1.0656442593567499e+01 3.0030999999995647e+01 0 0 0
928 2 4.9220000000000006e+00 8.5251540748539991e+00 3.3308220617655053e+01 0 0 0
929 2 6.1524999999999999e+00 9.2355835810918343e+00 3.3308220617655053e+01 0 0 0
951 2 7.3830000000000009e+00 8.5251540748539991e+00 3.3308220617655053e+01 0 0 0
927 2 4.9220000000000006e+00 1.1366872099805333e+01 3.3308220617655053e+01 0 0 0
949 2 6.1524999999999999e+00 1.0656442593567499e+01 3.3308220617655053e+01 0 0 0
950 2 7.3829999999999991e+00 1.1366872099805333e+01 3.3308220617655053e+01 0 0 0
731 2 9.8440000000000012e+00 9.9460130873296642e+00 3.0030999999995647e+01 0 0 0
733 2 9.8440000000000012e+00 8.5251540748539956e+00 3.0030999999995647e+01 0 0 0
727 2 8.6135000000000002e+00 1.2077301606043163e+01 3.0030999999995647e+01 0 0 0
729 2 8.6134999999999984e+00 1.0656442593567498e+01 3.0030999999995647e+01 0 0 0
774 2 1.1074500000000002e+01 1.2077301606043163e+01 3.0030999999995647e+01 0 0 0
776 2 1.1074500000000002e+01 1.0656442593567498e+01 3.0030999999995647e+01 0 0 0
952 2 8.6134999999999984e+00 9.2355835810918343e+00 3.3308220617655053e+01 0 0 0
975 2 9.8440000000000012e+00 8.5251540748539956e+00 3.3308220617655053e+01 0 0 0
976 2 1.1074500000000002e+01 9.2355835810918343e+00 3.3308220617655053e+01 0 0 0
973 2 8.6134999999999984e+00 1.0656442593567498e+01 3.3308220617655053e+01 0 0 0
974 2 9.8440000000000012e+00 1.1366872099805333e+01 3.3308220617655053e+01 0 0 0
997 2 1.1074500000000002e+01 1.0656442593567498e+01 3.3308220617655053e+01 0 0 0
998 2 1.2304999999999998e+01 1.1366872099805333e+01 3.3308220617655053e+01 0 0 0
6169 1 4.3967144116283494e+00 9.1545257264221842e+00 3.5584673009906567e+01 1 1 0
2075 1 7.2992539663488794e+00 1.9966016638200031e-02 3.6125747181377676e+01 -1 -2 0
1314 1 1.1543395526311770e+01 8.0900759286526771e+00 3.6648114712232569e+01 -1 0 0
3002 1 4.7245485461774557e+00 1.0390888569388810e+00 3.5539464518837363e+01 -1 0 0
4525 1 4.7740993311413700e+00 3.8070291577937514e+00 3.6193809757855128e+01 0 0 0
2143 1 9.0549039649579637e+00 9.1364589642702949e+00 3.5706260574629241e+01 2 0 0
4943 1 1.2130121296607410e+01 4.3588091886703578e-01 3.6545121066518853e+01 0 0 -1
365 1 9.7315712160582990e+00 1.4896511886463697e+00 3.5801198541118382e+01 -1 -2 -1
396 1 2.2368074436829497e+00 7.9604465048111956e+00 3.6557475272694511e+01 -1 -4 -1
1849 1 2.3706356446940182e+00 5.3524109042134951e+00 3.5883318010545125e+01 0 1 -1
3313 1 6.9846130619597790e+00 5.3364946546903935e+00 3.5899157714612699e+01 0 0 -1
3740 1 6.5961083682931729e+00 7.9062258857129866e+00 3.6546467101318036e+01 -1 0 0
4812 1 9.4172351912123009e+00 4.0603717390510914e+00 3.6843070311543045e+01 0 1 0
482 1 1.1527624748281092e+01 5.3430884482798158e+00 3.5678609132706292e+01 3 1 0
1867 1 4.1461381352005171e+00 1.1623984589251556e+01 3.6734199051989457e+01 -1 2 -1
1394 1 5.8164824640775284e-02 8.0829499735627330e-01 3.5502011167256633e+01 2 3 0
3407 1 8.7433807172123625e+00 1.1699241511811213e+01 3.6549494136648526e+01 4 -1 -1
5159 1 4.6412991543410959e-01 3.4569873881268207e+00 3.6426339583264010e+01 -1 -1 0
1847 1 7.1506621306292164e+00 2.9883973238088368e-01 3.8906718468610457e+01 -3 2 -1
6208 1 4.0516786447517408e+00 9.0603292263880864e+00 4.2799472244445077e+01 1 0 0
3189 1 4.1178291366623307e+00 1.1899620581097466e+01 4.3338321262533654e+01 -1 1 0
6258 1 4.5847773247847003e+00 1.5839889742399675e+00 3.9969511253824479e+01 -1 -1 -1
3675 1 4.8814761942539882e+00 4.0831366428754272e+00 3.9066383580974787e+01 -2 1 0
3003 1 8.6591726654295424e+00 1.2105512418633779e+01 3.9152254186228731e+01 -1 2 0
6211 1 1.2149107247615648e+01 9.8286149292105707e-01 3.9156706462755125e+01 -3 -2 0
1372 1 2.2909529468492993e+00 5.4084905840253636e+00 3.9994448654900395e+01 3 3 0
3066 1 2.2424797740597242e+00 7.8053754640354072e+00 3.9273196810588693e+01 -3 1 -1
4766 1 7.1653477484973314e+00 5.4922396842641881e+00 4.0290851520342983e+01 -1 1 -1
343 1 6.8229779426539912e+00 8.0677370214298296e+00 3.9234579261301143e+01 -1 2 -1
3402 1 9.5256838857147308e+00 4.3850539275072231e+00 3.9467497720403607e+01 0 -3 -1
4752 1 1.1766614913117563e+01 5.8919703698387211e+00 4.0301772656916796e+01 1 3 0
5067 1 4.0605059616674017e+00 1.2026333715487329e+01 3.9427604265118497e+01 2 0 0
375 1 4.4707733034264923e+00 9.4538018380948881e+00 4.0035141142167127e+01 0 2 0
5178 1 1.2520041231837623e-02 1.1047781597036668e+00 3.9992207856079865e+01 -1 1 -1
6172 1 1.1519014246691054e+01 8.3856694391762119e+00 3.9323868092325043e+01 0 1 -1
3269 1 9.0357963784400059e+00 9.3856578064823815e+00 4.0461107484250491e+01 2 1 0
1273 1 1.1499922084129892e+01 5.7966743897689019e+00 4.3044181652171190e+01 1 0 0
6294 1 9.0525982879148081e+00 9.6474418929792574e+00 4.3215293146363955e+01 3 2 0
412 1 4.7491566474984861e+00 1.5915869225766137e+00 4.2665874852090063e+01 -1 -1 -1
1427 1 4.5277728055300539e+00 4.2250857128819748e+00 4.3646983000869731e+01 2 0 -1
425 1 7.3404470298631050e+00 5.0988032533810956e-01 4.3529832987572107e+01 2 -1 -1
1920 1 9.4530814374876559e+00 1.4797085132488621e+00 4.0042122543496184e+01 3 -1 -1
2872 1 1.1496226183168719e+01 8.4061762982043629e+00 4.3986060338369697e+01 0 -1 -1
4639 1 9.7005624587729926e+00 1.8459439618946714e+00 4.2689502742368759e+01 -1 2 0
4606 1 2.0111170350901073e+00 7.5427622795360181e+00 4.3792374280239528e+01 3 1 0
215 1 2.2214000174697337e+00 5.1457295178081344e+00 4.2754929061578721e+01 2 0 -1
1590 1 6.6090029300796242e+00 8.1139276088551799e+00 4.3969595166818820e+01 1 1 -1
2946 1 6.9035191595234870e+00 5.5177082069299859e+00 4.2995007757230610e+01 1 0 0
181 1 2.5848772959724022e+00 1.4343130792599260e-01 4.3567367649365600e+01 -1 3 -1
3231 1 1.1144066412533185e-01 1.1877749912952351e+00 4.2885253005614160e+01 0 1 -1
5301 1 1.1954711370695952e+01 8.6708201687511155e-01 4.3803559517000785e+01 1 1 0
1571 1 8.6191628828942939e+00 1.2213568022423358e+01 4.3663303691052818e+01 1 1 -1
4448 1 9.2154218129276106e+00 4.3470364941594832e+00 4.3680255024426607e+01 2 -1 0
2067 1 2.6372772390096877e-01 3.7039803088126986e+00 3.9154940240640748e+01 -1 0 0
6021 1 2.4820342012458174e+00 9.5220468203533873e-02 3.9224717053176455e+01 3 2 0
1841 1 2.4123117052727365e+00 2.7001924221807703e+00 4.7477573422672251e+01 0 -1 -1
72 1 9.2239221293701963e+00 9.7890350373769941e+00 5.1276734940565973e+01 1 -3 -1
3661 1 7.1208224731273946e+00 3.1902436314205223e+00 4.7375843777002025e+01 2 1 -1
423 1 7.2611551271602872e+00 7.5956023187898558e-01 4.6392011487500284e+01 2 0 -1
6104 1 2.2482674700304992e+00 5.1828445407456556e+00 5.1189862192036870e+01 0 1 0
2846 1 1.1918542117876873e+01 3.4079399426175518e+00 4.7581405960318477e+01 2 2 0
6240 1 1.8943470153170650e+00 7.5483456360725398e+00 4.6744936244947809e+01 1 2 0
4763 1 4.4377684091318184e+00 6.6650667582701013e+00 4.7713379223697800e+01 0 2 0
5042 1 4.4748841198814935e+00 4.2855732470979184e+00 4.6380451285170039e+01 2 0 -1
1934 1 6.7132669247792753e+00 8.0805913171735799e+00 4.6737431035901572e+01 -1 -2 -1
5016 1 9.4508629889594182e+00 4.4523221904148196e+00 4.6439267584351477e+01 2 2 -1
5054 1 9.2289153253691776e+00 6.9507880258286727e+00 4.7441786446045910e+01 1 1 -1