LAMMPS data file via write_data, version 16 Mar 2018, timestep = 100000

6337 atoms
2 atom types

0.0000000000000000e+00 4.9219999999999999e+01 xlo xhi
0.0000000000000000e+00 4.9019635930410494e+01 ylo yhi
2.4175923599236739e+00 5.7644407640072707e+01 zlo zhi

Masses

1 18.015
2 12.01

Atoms # atomic

2976 1 3.4128902220780106e+00 1.7784213016706751e+00 4.2392976663774551e+00 0 1 1
467 1 5.5073780551149198e+00 9.6722958857814110e+00 3.8102545667337706e+00 0 -1 1
1579 1 4.2373901318092146e+00 1.1611552065094255e+01 5.5335307022521594e+00 0 0 0
2003 1 7.5427757117047012e+00 4.4703467065959064e+00 4.3306698637991197e+00 0 0 1
3321 1 1.6389101769070493e+00 7.5177157724176347e+00 6.6740105645487420e+00 1 0 1
3465 1 1.1282746530574885e+01 1.1023048124623163e+01 8.8210317605699622e+00 0 0 0
2111 1 9.6870650207233915e+00 6.3037687356974041e+00 3.9078038926239875e+00 0 0 0
1407 1 8.8163662756831362e-01 8.2719382817560760e-01 3.7153037165769600e+00 0 0 1
5143 1 2.4467678280688183e+00 9.8557740114813459e+00 4.9262911701880281e+00 1 0 0
1997 1 2.9627479145274740e+00 1.0637575464003515e+00 8.7575942801268063e+00 0 0 0
545 1 9.5866078735646063e+00 1.0483291202168642e+01 3.6239956696282176e+00 1 0 1
5278 1 1.2065076644339307e+01 5.6793845763344164e+00 7.2755165265678734e+00 0 1 1
3673 1 1.2071766608779944e+01 5.4462390869685349e+00 4.6014238491958750e+00 1 0 1
6226 1 3.8187524136193076e+00 4.7842546370391359e+00 3.0394935831496142e+00 1 1 0
2913 1 7.2562644612310798e+00 1.1386333284979068e+01 2.8156088674241389e+00 0 0 1
4441 1 1.1829320304771567e+01 1.0856186659730886e+00 3.4362345336850209e+00 0 1 1
1676 1 7.8662391876494580e+00 1.9953494069690301e+00 5.9990378974356817e+00 1 1 0
1872 1 3.6395100618283163e+00 3.8658820687882591e+00 8.3865134995275845e+00 1 0 1
490 1 3.6824581100271780e+00 5.9166478431549123e+00 5.8927436420183525e+00 0 0 1
6181 1 6.2174531037862684e+00 6.0585823086112383e+00 6.3901902440313396e+00 1 0 1
3219 1 6.8578207450077935e+00 8.7706304542993152e+00 6.0083945077840504e+00 0 2 1
2992 1 8.8838045773499150e+00 9.3416784532774366e-01 3.6943135738043633e+00 0 0 0
2874 1 3.6661568546496830e+00 1.1543033599275747e+01 8.6604779097686375e+00 0 -1 1
4707 1 6.2308169169321275e+00 1.0587455018645944e+01 7.9913622612355111e+00 0 0 1
3185 1 9.6132078470424958e+00 8.4703620330182812e+00 5.4266640349700168e+00 0 1 1
2899 1 1.1332799860398186e+01 8.4041360478370848e+00 7.6304547448195059e+00 0 0 1
3333 1 1.3079752622383540e+00 9.5735351820453420e+00 8.3383268912112634e+00 1 0 0
6271 1 4.5131767009961887e-01 1.1597466864961650e+01 6.1592970111063732e+00 1 0 0
2903 1 9.7753077333719371e+00 2.2627063121450752e+00 8.1811526936385697e+00 0 0 1
3470 1 9.1081469614605115e-01 4.4946380468679008e+00 8.6816379373615753e+00 0 0 0
2889 1 6.4702107841570378e+00 2.2167325645512062e-01 8.0094056060356706e+00 0 1 1
4835 1 1.1844775624460476e+01 2.7639107636935449e+00 6.2097519558846948e+00 1 1 0
4674 1 9.8459318072728710e+00 5.2030158460035443e+00 8.9498609763187673e+00 -1 0 1
1703 1 7.3170946580334597e+00 5.7715832434452965e+00 9.1234681226117420e+00 -1 1 0
15 1 6.0587969936228161e+00 3.3219001256524936e+00 2.4238459681948896e+00 0 0 1
3023 1 8.9871447205660782e-01 2.3738542588484912e+00 1.2293330186578443e+01 0 1 1
6121 1 6.1546814494117053e+00 9.2411853593257187e-01 1.4019882541978852e+01 1 0 1
2906 1 7.3111390968244345e+00 1.9021787521044216e+00 1.0073671753396310e+01 0 0 1
2101 1 6.2176335065878590e+00 8.4553491939612613e+00 9.6001159319271601e+00 1 0 0
1815 1 6.4980646263193531e+00 9.3278092294304624e+00 1.5512084518564254e+01 0 0 0
286 1 1.1745486689421361e+01 1.1201976009072297e+01 1.5083433626365217e+01 0 1 1
149 1 1.9281386151770719e+00 7.1193771438192099e+00 9.7704739135020340e+00 1 -1 0
1501 1 5.5929172286703102e+00 3.9207490055797609e+00 1.0454325376498607e+01 0 0 0
1552 1 8.5476574565933117e+00 4.1375052110184685e-01 1.2396322191997683e+01 1 1 1
3639 1 1.0320806528344775e+01 8.0302685897946926e+00 1.0190412111954235e+01 1 0 0
1948 1 1.0279707924908982e+01 2.2440594186311327e-01 1.0064889777915855e+01 0 1 0
418 1 9.7953196197585424e-01 1.0116588519022990e+01 1.3373325149490645e+01 1 0 0
4931 1 3.1213594964314826e+00 1.0679715902453667e+01 1.1349935326780409e+01 0 0 0
4766 1 4.0032128396714777e+00 8.0803950002366864e+00 1.1282498889926401e+01 0 1 0
294 1 8.0773683038391155e+00 9.8205595302206188e+00 1.0913565619856552e+01 -1 1 0
1514 1 9.1705568520338190e+00 1.2176132419470033e+01 1.0173696662249661e+01 1 0 1
3314 1 3.9016138426231439e+00 2.6940526601056676e+00 1.3056919729338524e+01 1 0 1
85 1 1.1094647718337969e+01 4.4251580541059505e+00 1.1406596497959729e+01 1 0 1
5214 1 4.5553367688130670e+00 7.1976496563588166e-01 1.0934391305269884e+01 1 1 0
5328 1 1.0784837207310254e+01 8.3760417614085614e-01 1.4063126396528382e+01 0 1 0
3183 1 2.2661162516009292e+00 2.5163883356991303e+00 1.5556022602216691e+01 0 1 1
108 1 1.6009542117047226e+00 7.9917953512545061e+00 1.4942057141874592e+01 0 0 0
2037 1 4.4366364189215171e+00 7.4792687488671747e+00 1.4566147059785045e+01 1 0 0
1426 1 5.5971103633717822e+00 5.4230853413154474e+00 1.2955019466186194e+01 0 1 0
1524 1 7.1864702523995625e+00 4.2827475844739151e+00 1.4732213853065582e+01 0 1 1
1697 1 9.8624987408451794e+00 3.5541883035724950e+00 1.3850135163304904e+01 1 0 1
5177 1 7.5118116144054961e+00 1.0850702772274420e+01 1.3465555524130094e+01 0 1 0
2036 1 2.9858897346592528e-02 2.0659132472927806e+00 9.7930974896996403e+00 1 1 0
1248 1 1.1964841699037859e+01 3.5505607977149127e+00 1.5917153502177923e+01 1 0 1
3332 1 1.0283324344818828e+01 1.1431880830740718e+01 2.1405167450797865e+01 -1 1 0
3451 1 1.1856031604248487e+01 9.5652077386454195e+00 1.9765255974393263e+01 0 0 0
3293 1 2.8909718330738179e+00 4.2340172128243714e-01 1.8049036872012010e+01 -1 0 0
1752 1 1.0684840975346983e+01 3.2698048258323742e+00 1.8231252061937806e+01 1 0 0
238 1 3.2188888250110717e+00 9.5994616483589059e+00 1.8629582045467465e+01 0 1 0
1986 1 3.5119955076196576e+00 1.0745444871141846e+01 2.1394363836038472e+01 1 1 0
3353 1 1.0505250671899239e+01 9.5930232906829911e+00 1.7337389295191208e+01 1 0 0
2870 1 2.9027770586929621e-02 3.8647106559237723e+00 1.6546408235195219e+01 0 1 1
3507 1 4.0785793236186194e+00 6.9941508390504019e+00 1.9156048069232686e+01 0 0 0
1918 1 9.4383008250847382e+00 5.7614280295480027e+00 1.8223705548721099e+01 0 0 0
3243 1 4.7280408608660451e+00 1.1514014700546456e+01 1.7222551181300609e+01 0 0 0
1578 1 6.7880755969716911e-01 9.5364386289979830e+00 1.7699768519970302e+01 1 0 1
5285 1 1.1181286756165305e+01 7.0332456087144504e+00 1.6314750618258518e+01 -1 0 0
5188 1 9.8494989516902525e+00 8.2637187285341280e+00 2.1950360230834679e+01 1 1 0
236 1 6.9519433352194424e+00 8.3854817349718047e+00 2.2318667410131891e+01 0 0 0
3741 1 6.0493608380720643e+00 1.1085203976756640e+01 2.1756659993211375e+01 -1 0 0
100 1 7.7262909991976016e+00 9.8519272815199006e+00 1.8092259461911162e+01 0 0 0
1957 1 6.0485485340559748e+00 4.0863603535872972e-01 2.1008888606836315e+01 0 1 0
1903 1 2.6454877843239801e+00 2.9665930409543022e+00 2.1751186987043582e+01 1 1 0
4845 1 6.5630602492987178e+00 2.0506763759433868e+00 1.6403799600651027e+01 1 1 0
2846 1 7.4515125748893034e+00 5.0475928769510654e+00 2.1077810995278412e+01 0 1 1
1653 1 5.4342344307451214e+00 3.0079789720466410e+00 2.0360266696337376e+01 0 0 0
3484 1 1.1194123122049858e+01 2.4498830289308988e+00 2.1282467445467841e+01 1 0 0
1830 1 4.5514287500890553e+00 2.8420609240570727e+00 1.7863722504174543e+01 0 1 1
1828 1 2.0266868430113201e+00 5.7305918780228762e+00 2.0877510824591486e+01 0 1 0
1547 1 6.8133856051411437e+00 7.2917110583891356e+00 1.9716090324926906e+01 1 0 0
6250 1 1.0472433481111699e+01 5.3501169823947397e+00 2.0942677032122610e+01 0 1 1
88 1 8.7151798168893979e+00 1.4089473762291080e+00 1.7617166513832039e+01 0 0 0
3404 1 1.1286867170502068e+00 8.8102487763643129e+00 2.1246626565592230e+01 1 0 0
361 1 2.1652736537754822e+00 3.9259107719817821e-01 2.1064308314837074e+01 0 0 0
1442 1 4.2417430123487359e+00 5.6876614955185740e+00 1.6875838720606161e+01 1 0 1
101 1 7.0533995379822727e+00 6.4915308440428658e+00 1.6543322027118499e+01 -1 0 0
730 2 9.8440000000000012e+00 1.1366872099805333e+01 2.6850658294376949e+01 0 0 0
3582 1 5.2172215286968182e+00 2.9286007579691282e+00 2.4492405851826820e+01 1 1 0
5112 1 2.2956894508333576e+00 6.2666294124369371e+00 2.3721034226639723e+01 1 0 1
1926 1 1.0903841673539395e+01 4.6093892508013754e+00 2.3881064705219035e+01 0 1 0
1636 1 1.0882076651474764e+01 1.9337780953509722e+00 2.4437757088060621e+01 1 1 0
5054 1 3.3686581675789262e-01 1.8725879987007754e+00 2.4456874940794584e+01 1 1 0
3453 1 2.6231188399272352e+00 3.4992385263060566e+00 2.4412670146966104e+01 1 0 0
5320 1 6.3639440211402976e+00 5.1336956684336013e+00 2.3750355797756242e+01 0 0 0
3551 1 1.0023444409265428e+01 1.0823494623545660e+01 2.3926635366296232e+01 0 1 0
1943 1 2.1073920082977953e+00 1.0925429576535006e+01 2.3895866262818103e+01 0 -1 0
4998 1 4.9776221294107179e+00 7.4721207353224610e+00 2.4046732582542202e+01 1 0 0
3416 1 6.7057159241167330e-01 8.5470170505312382e+00 2.3937810109105296e+01 0 0 1
3198 1 8.8505620183392022e+00 6.3356693102200934e+00 2.4171727034281034e+01 0 0 0
114 1 1.1842304793257208e+01 8.4862496467596209e+00 2.3979058638213026e+01 1 1 0
554 2 0.0000000000000000e+00 2.8417180249513345e+00 2.6850658294376949e+01 0 0 0
556 2 0.0000000000000000e+00 0.0000000000000000e+00 2.6850658294376949e+01 0 0 0
558 2 1.2305000000000001e+00 7.1042950623783474e-01 2.6850658294376949e+01 0 0 0
565 2 1.2305000000000001e+00 2.1312885187134998e+00 2.6850658294376949e+01 0 0 0
567 2 2.4610000000000003e+00 2.8417180249513345e+00 2.6850658294376949e+01 0 0 0
569 2 2.4610000000000003e+00 0.0000000000000000e+00 2.6850658294376949e+01 0 0 0
571 2 3.6915000000000004e+00 7.1042950623783474e-01 2.6850658294376949e+01 0 0 0
586 2 3.6914999999999996e+00 2.1312885187134998e+00 2.6850658294376949e+01 0 0 0
588 2 4.9220000000000006e+00 2.8417180249513332e+00 2.6850658294376949e+01 0 0 0
590 2 4.9220000000000006e+00 0.0000000000000000e+00 2.6850658294376949e+01 0 0 0
592 2 6.1524999999999999e+00 7.1042950623783407e-01 2.6850658294376949e+01 0 0 0
615 2 6.1524999999999999e+00 2.1312885187134989e+00 2.6850658294376949e+01 0 0 0
617 2 7.3829999999999991e+00 2.8417180249513345e+00 2.6850658294376949e+01 0 0 0
619 2 7.3829999999999991e+00 0.0000000000000000e+00 2.6850658294376949e+01 0 0 0
621 2 8.6134999999999984e+00 7.1042950623783407e-01 2.6850658294376949e+01 0 0 0
652 2 8.6134999999999984e+00 2.1312885187135002e+00 2.6850658294376949e+01 0 0 0
654 2 9.8440000000000012e+00 2.8417180249513332e+00 2.6850658294376949e+01 0 0 0
656 2 9.8440000000000012e+00 0.0000000000000000e+00 2.6850658294376949e+01 0 0 0
658 2 1.1074500000000002e+01 7.1042950623783330e-01 2.6850658294376949e+01 0 0 0
697 2 1.1074500000000002e+01 2.1312885187135002e+00 2.6850658294376949e+01 0 0 0
561 2 0.0000000000000000e+00 4.2625770374269996e+00 2.6850658294376949e+01 0 0 0
563 2 1.2305000000000001e+00 4.9730065436648339e+00 2.6850658294376949e+01 0 0 0
578 2 1.2305000000000001e+00 6.3938655561404980e+00 2.6850658294376949e+01 0 0 0
582 2 2.4610000000000003e+00 4.2625770374269996e+00 2.6850658294376949e+01 0 0 0
584 2 3.6914999999999996e+00 4.9730065436648339e+00 2.6850658294376949e+01 0 0 0
607 2 3.6914999999999996e+00 6.3938655561404980e+00 2.6850658294376949e+01 0 0 0
559 2 0.0000000000000000e+00 7.1042950623783341e+00 2.6850658294376949e+01 0 0 0
580 2 2.4610000000000003e+00 7.1042950623783341e+00 2.6850658294376949e+01 0 0 0
611 2 4.9220000000000006e+00 4.2625770374269978e+00 2.6850658294376949e+01 0 0 0
613 2 6.1524999999999999e+00 4.9730065436648339e+00 2.6850658294376949e+01 0 0 0
644 2 6.1524999999999999e+00 6.3938655561404980e+00 2.6850658294376949e+01 0 0 0
648 2 7.3829999999999991e+00 4.2625770374269996e+00 2.6850658294376949e+01 0 0 0
609 2 4.9220000000000006e+00 7.1042950623783341e+00 2.6850658294376949e+01 0 0 0
646 2 7.3830000000000009e+00 7.1042950623783341e+00 2.6850658294376949e+01 0 0 0
650 2 8.6135000000000002e+00 4.9730065436648339e+00 2.6850658294376949e+01 0 0 0
689 2 8.6135000000000002e+00 6.3938655561404980e+00 2.6850658294376949e+01 0 0 0
693 2 9.8440000000000012e+00 4.2625770374270004e+00 2.6850658294376949e+01 0 0 0
695 2 1.1074500000000002e+01 4.9730065436648339e+00 2.6850658294376949e+01 0 0 0
736 2 1.1074500000000002e+01 6.3938655561404980e+00 2.6850658294376949e+01 0 0 0
691 2 9.8440000000000012e+00 7.1042950623783341e+00 2.6850658294376949e+01 0 0 0
574 2 0.0000000000000000e+00 8.5251540748539991e+00 2.6850658294376949e+01 0 0 0
576 2 1.2305000000000001e+00 9.2355835810918343e+00 2.6850658294376949e+01 0 0 0
603 2 2.4610000000000003e+00 8.5251540748539991e+00 2.6850658294376949e+01 0 0 0
605 2 3.6915000000000004e+00 9.2355835810918343e+00 2.6850658294376949e+01 0 0 0
572 2 0.0000000000000000e+00 1.1366872099805333e+01 2.6850658294376949e+01 0 0 0
599 2 1.2305000000000001e+00 1.0656442593567498e+01 2.6850658294376949e+01 0 0 0
601 2 2.4610000000000003e+00 1.1366872099805333e+01 2.6850658294376949e+01 0 0 0
636 2 3.6914999999999996e+00 1.0656442593567499e+01 2.6850658294376949e+01 0 0 0
640 2 4.9220000000000006e+00 8.5251540748539991e+00 2.6850658294376949e+01 0 0 0
642 2 6.1524999999999999e+00 9.2355835810918343e+00 2.6850658294376949e+01 0 0 0
685 2 7.3830000000000009e+00 8.5251540748539991e+00 2.6850658294376949e+01 0 0 0
638 2 4.9220000000000006e+00 1.1366872099805333e+01 2.6850658294376949e+01 0 0 0
681 2 6.1524999999999999e+00 1.0656442593567499e+01 2.6850658294376949e+01 0 0 0
683 2 7.3829999999999991e+00 1.1366872099805333e+01 2.6850658294376949e+01 0 0 0
777 2 1.2304999999999998e+01 1.1366872099805333e+01 2.6850658294376949e+01 0 0 0
732 2 9.8440000000000012e+00 8.5251540748539956e+00 2.6850658294376949e+01 0 0 0
775 2 1.1074500000000002e+01 1.0656442593567498e+01 2.6850658294376949e+01 0 0 0
728 2 8.6134999999999984e+00 1.0656442593567498e+01 2.6850658294376949e+01 0 0 0
687 2 8.6134999999999984e+00 9.2355835810918343e+00 2.6850658294376949e+01 0 0 0
734 2 1.1074500000000002e+01 9.2355835810918343e+00 2.6850658294376949e+01 0 0 0
4689 1 7.3762683724053266e+00 1.1963323009957122e+01 2.4169273941638785e+01 1 0 1
389 1 6.5701952876799927e+00 3.8063868003334383e-01 2.4098780736012639e+01 1 0 0
555 2 0.0000000000000000e+00 1.4208590124756650e+00 3.0030999999998222e+01 0 0 0
557 2 0.0000000000000000e+00 0.0000000000000000e+00 3.0030999999998222e+01 0 0 0
566 2 1.2305000000000001e+00 2.1312885187134998e+00 3.0030999999998222e+01 0 0 0
568 2 2.4610000000000003e+00 1.4208590124756650e+00 3.0030999999998222e+01 0 0 0
570 2 2.4610000000000003e+00 0.0000000000000000e+00 3.0030999999998222e+01 0 0 0
587 2 3.6914999999999996e+00 2.1312885187134998e+00 3.0030999999998222e+01 0 0 0
564 2 1.2305000000000001e+00 3.5521475311891644e+00 3.0030999999998222e+01 0 0 0
585 2 3.6914999999999996e+00 3.5521475311891644e+00 3.0030999999998222e+01 0 0 0
883 2 0.0000000000000000e+00 2.8417180249513345e+00 3.3211341705614792e+01 0 0 0
884 2 0.0000000000000000e+00 0.0000000000000000e+00 3.3211341705614792e+01 0 0 0
885 2 1.2305000000000001e+00 7.1042950623783474e-01 3.3211341705614792e+01 0 0 0
889 2 1.2305000000000001e+00 2.1312885187134998e+00 3.3211341705614792e+01 0 0 0
890 2 2.4610000000000003e+00 2.8417180249513345e+00 3.3211341705614792e+01 0 0 0
891 2 2.4610000000000003e+00 0.0000000000000000e+00 3.3211341705614792e+01 0 0 0
892 2 3.6915000000000004e+00 7.1042950623783474e-01 3.3211341705614792e+01 0 0 0
900 2 3.6914999999999996e+00 2.1312885187134998e+00 3.3211341705614792e+01 0 0 0
589 2 4.9220000000000006e+00 1.4208590124756650e+00 3.0030999999998222e+01 0 0 0
591 2 4.9220000000000006e+00 0.0000000000000000e+00 3.0030999999998222e+01 0 0 0
616 2 6.1524999999999999e+00 2.1312885187134989e+00 3.0030999999998222e+01 0 0 0
618 2 7.3829999999999991e+00 1.4208590124756659e+00 3.0030999999998222e+01 0 0 0
620 2 7.3829999999999991e+00 0.0000000000000000e+00 3.0030999999998222e+01 0 0 0
614 2 6.1524999999999999e+00 3.5521475311891644e+00 3.0030999999998222e+01 0 0 0
901 2 4.9220000000000006e+00 2.8417180249513332e+00 3.3211341705614792e+01 0 0 0
902 2 4.9220000000000006e+00 0.0000000000000000e+00 3.3211341705614792e+01 0 0 0
903 2 6.1524999999999999e+00 7.1042950623783407e-01 3.3211341705614792e+01 0 0 0
915 2 6.1524999999999999e+00 2.1312885187134989e+00 3.3211341705614792e+01 0 0 0
916 2 7.3829999999999991e+00 2.8417180249513345e+00 3.3211341705614792e+01 0 0 0
917 2 7.3829999999999991e+00 0.0000000000000000e+00 3.3211341705614792e+01 0 0 0
653 2 8.6134999999999984e+00 2.1312885187135002e+00 3.0030999999998222e+01 0 0 0
655 2 9.8440000000000012e+00 1.4208590124756659e+00 3.0030999999998222e+01 0 0 0
657 2 9.8440000000000012e+00 0.0000000000000000e+00 3.0030999999998222e+01 0 0 0
698 2 1.1074500000000002e+01 2.1312885187135002e+00 3.0030999999998222e+01 0 0 0
651 2 8.6134999999999984e+00 3.5521475311891657e+00 3.0030999999998222e+01 0 0 0
696 2 1.1074500000000002e+01 3.5521475311891644e+00 3.0030999999998222e+01 0 0 0
918 2 8.6134999999999984e+00 7.1042950623783407e-01 3.3211341705614792e+01 0 0 0
934 2 8.6134999999999984e+00 2.1312885187135002e+00 3.3211341705614792e+01 0 0 0
935 2 9.8440000000000012e+00 2.8417180249513332e+00 3.3211341705614792e+01 0 0 0
936 2 9.8440000000000012e+00 0.0000000000000000e+00 3.3211341705614792e+01 0 0 0
937 2 1.1074500000000002e+01 7.1042950623783330e-01 3.3211341705614792e+01 0 0 0
957 2 1.1074500000000002e+01 2.1312885187135002e+00 3.3211341705614792e+01 0 0 0
560 2 0.0000000000000000e+00 5.6834360499026637e+00 3.0030999999998222e+01 0 0 0
562 2 0.0000000000000000e+00 4.2625770374269996e+00 3.0030999999998222e+01 0 0 0
579 2 1.2305000000000001e+00 6.3938655561404980e+00 3.0030999999998222e+01 0 0 0
581 2 2.4610000000000003e+00 5.6834360499026637e+00 3.0030999999998222e+01 0 0 0
583 2 2.4610000000000003e+00 4.2625770374269996e+00 3.0030999999998222e+01 0 0 0
608 2 3.6914999999999996e+00 6.3938655561404980e+00 3.0030999999998222e+01 0 0 0
577 2 1.2305000000000001e+00 7.8147245686161639e+00 3.0030999999998222e+01 0 0 0
606 2 3.6914999999999996e+00 7.8147245686161639e+00 3.0030999999998222e+01 0 0 0
887 2 0.0000000000000000e+00 4.2625770374269996e+00 3.3211341705614792e+01 0 0 0
888 2 1.2305000000000001e+00 4.9730065436648339e+00 3.3211341705614792e+01 0 0 0
896 2 1.2305000000000001e+00 6.3938655561404980e+00 3.3211341705614792e+01 0 0 0
898 2 2.4610000000000003e+00 4.2625770374269996e+00 3.3211341705614792e+01 0 0 0
899 2 3.6914999999999996e+00 4.9730065436648339e+00 3.3211341705614792e+01 0 0 0
911 2 3.6914999999999996e+00 6.3938655561404980e+00 3.3211341705614792e+01 0 0 0
886 2 0.0000000000000000e+00 7.1042950623783341e+00 3.3211341705614792e+01 0 0 0
897 2 2.4610000000000003e+00 7.1042950623783341e+00 3.3211341705614792e+01 0 0 0
610 2 4.9220000000000006e+00 5.6834360499026637e+00 3.0030999999998222e+01 0 0 0
612 2 4.9220000000000006e+00 4.2625770374269978e+00 3.0030999999998222e+01 0 0 0
645 2 6.1524999999999999e+00 6.3938655561404980e+00 3.0030999999998222e+01 0 0 0
647 2 7.3829999999999991e+00 5.6834360499026637e+00 3.0030999999998222e+01 0 0 0
649 2 7.3829999999999991e+00 4.2625770374269996e+00 3.0030999999998222e+01 0 0 0
643 2 6.1524999999999999e+00 7.8147245686161639e+00 3.0030999999998222e+01 0 0 0
913 2 4.9220000000000006e+00 4.2625770374269978e+00 3.3211341705614792e+01 0 0 0
914 2 6.1524999999999999e+00 4.9730065436648339e+00 3.3211341705614792e+01 0 0 0
930 2 6.1524999999999999e+00 6.3938655561404980e+00 3.3211341705614792e+01 0 0 0
932 2 7.3829999999999991e+00 4.2625770374269996e+00 3.3211341705614792e+01 0 0 0
912 2 4.9220000000000006e+00 7.1042950623783341e+00 3.3211341705614792e+01 0 0 0
931 2 7.3830000000000009e+00 7.1042950623783341e+00 3.3211341705614792e+01 0 0 0
690 2 8.6135000000000002e+00 6.3938655561404980e+00 3.0030999999998222e+01 0 0 0
692 2 9.8440000000000012e+00 5.6834360499026637e+00 3.0030999999998222e+01 0 0 0
694 2 9.8440000000000012e+00 4.2625770374270004e+00 3.0030999999998222e+01 0 0 0
737 2 1.1074500000000002e+01 6.3938655561404980e+00 3.0030999999998222e+01 0 0 0
688 2 8.6135000000000002e+00 7.8147245686161639e+00 3.0030999999998222e+01 0 0 0
735 2 1.1074500000000002e+01 7.8147245686161639e+00 3.0030999999998222e+01 0 0 0
933 2 8.6135000000000002e+00 4.9730065436648339e+00 3.3211341705614792e+01 0 0 0
953 2 8.6135000000000002e+00 6.3938655561404980e+00 3.3211341705614792e+01 0 0 0
955 2 9.8440000000000012e+00 4.2625770374270004e+00 3.3211341705614792e+01 0 0 0
956 2 1.1074500000000002e+01 4.9730065436648339e+00 3.3211341705614792e+01 0 0 0
977 2 1.1074500000000002e+01 6.3938655561404980e+00 3.3211341705614792e+01 0 0 0
954 2 9.8440000000000012e+00 7.1042950623783341e+00 3.3211341705614792e+01 0 0 0
573 2 0.0000000000000000e+00 9.9460130873296642e+00 3.0030999999998222e+01 0 0 0
575 2 0.0000000000000000e+00 8.5251540748539991e+00 3.0030999999998222e+01 0 0 0
602 2 2.4610000000000003e+00 9.9460130873296642e+00 3.0030999999998222e+01 0 0 0
604 2 2.4610000000000003e+00 8.5251540748539991e+00 3.0030999999998222e+01 0 0 0
598 2 1.2305000000000001e+00 1.2077301606043163e+01 3.0030999999998222e+01 0 0 0
600 2 1.2305000000000001e+00 1.0656442593567498e+01 3.0030999999998222e+01 0 0 0
635 2 3.6914999999999996e+00 1.2077301606043163e+01 3.0030999999998222e+01 0 0 0
637 2 3.6914999999999996e+00 1.0656442593567499e+01 3.0030999999998222e+01 0 0 0
894 2 0.0000000000000000e+00 8.5251540748539991e+00 3.3211341705614792e+01 0 0 0
895 2 1.2305000000000001e+00 9.2355835810918343e+00 3.3211341705614792e+01 0 0 0
909 2 2.4610000000000003e+00 8.5251540748539991e+00 3.3211341705614792e+01 0 0 0
910 2 3.6915000000000004e+00 9.2355835810918343e+00 3.3211341705614792e+01 0 0 0
893 2 0.0000000000000000e+00 1.1366872099805333e+01 3.3211341705614792e+01 0 0 0
907 2 1.2305000000000001e+00 1.0656442593567498e+01 3.3211341705614792e+01 0 0 0
908 2 2.4610000000000003e+00 1.1366872099805333e+01 3.3211341705614792e+01 0 0 0
926 2 3.6914999999999996e+00 1.0656442593567499e+01 3.3211341705614792e+01 0 0 0
639 2 4.9220000000000006e+00 9.9460130873296642e+00 3.0030999999998222e+01 0 0 0
641 2 4.9220000000000006e+00 8.5251540748539991e+00 3.0030999999998222e+01 0 0 0
684 2 7.3830000000000009e+00 9.9460130873296642e+00 3.0030999999998222e+01 0 0 0
686 2 7.3830000000000009e+00 8.5251540748539991e+00 3.0030999999998222e+01 0 0 0
680 2 6.1524999999999999e+00 1.2077301606043163e+01 3.0030999999998222e+01 0 0 0
682 2 6.1524999999999999e+00 1.0656442593567499e+01 3.0030999999998222e+01 0 0 0
928 2 4.9220000000000006e+00 8.5251540748539991e+00 3.3211341705614792e+01 0 0 0
929 2 6.1524999999999999e+00 9.2355835810918343e+00 3.3211341705614792e+01 0 0 0
951 2 7.3830000000000009e+00 8.5251540748539991e+00 3.3211341705614792e+01 0 0 0
927 2 4.9220000000000006e+00 1.1366872099805333e+01 3.3211341705614792e+01 0 0 0
949 2 6.1524999999999999e+00 1.0656442593567499e+01 3.3211341705614792e+01 0 0 0
950 2 7.3829999999999991e+00 1.1366872099805333e+01 3.3211341705614792e+01 0 0 0
731 2 9.8440000000000012e+00 9.9460130873296642e+00 3.0030999999998222e+01 0 0 0
733 2 9.8440000000000012e+00 8.5251540748539956e+00 3.0030999999998222e+01 0 0 0
727 2 8.6135000000000002e+00 1.2077301606043163e+01 3.0030999999998222e+01 0 0 0
729 2 8.6134999999999984e+00 1.0656442593567498e+01 3.0030999999998222e+01 0 0 0
774 2 1.1074500000000002e+01 1.2077301606043163e+01 3.0030999999998222e+01 0 0 0
776 2 1.1074500000000002e+01 1.0656442593567498e+01 3.0030999999998222e+01 0 0 0
952 2 8.6134999999999984e+00 9.2355835810918343e+00 3.3211341705614792e+01 0 0 0
975 2 9.8440000000000012e+00 8.5251540748539956e+00 3.3211341705614792e+01 0 0 0
976 2 1.1074500000000002e+01 9.2355835810918343e+00 3.3211341705614792e+01 0 0 0
973 2 8.6134999999999984e+00 1.0656442593567498e+01 3.3211341705614792e+01 0 0 0
974 2 9.8440000000000012e+00 1.1366872099805333e+01 3.3211341705614792e+01 0 0 0
997 2 1.1074500000000002e+01 1.0656442593567498e+01 3.3211341705614792e+01 0 0 0
998 2 1.2304999999999998e+01 1.1366872099805333e+01 3.3211341705614792e+01 0 0 0
1846 1 3.4674020216086663e+00 2.9177598381894283e+00 3.5566440177103004e+01 0 1 -1
1689 1 3.3538218213348698e+00 5.6103418502415963e+00 3.6380667668765916e+01 0 0 -1
3699 1 4.8942956339443491e+00 1.1147674552436538e+01 3.5694590144208142e+01 1 0 0
5053 1 8.7731089557062987e+00 4.5301069532265981e+00 3.6262060334052684e+01 0 1 -1
4609 1 1.0868318732704742e+01 1.4400318578085827e+00 3.6552497586492777e+01 1 0 0
4873 1 6.8891511678337931e+00 2.2839600318055804e+00 3.5786459498670681e+01 1 0 -1
3020 1 8.0753275895681487e+00 7.3262586163369017e+00 3.5811128312875582e+01 0 1 0
6031 1 5.0395752283123816e+00 7.9389514885585317e+00 3.5916688366697812e+01 0 0 0
2826 1 1.1386154361318301e+00 7.2609747631585382e+00 3.5686853681698082e+01 1 0 0
5999 1 1.1844228325503853e+01 4.3302183876791807e+00 3.6285283734946681e+01 0 -1 0
3670 1 2.3111138387491490e+00 9.8459810558333487e+00 3.5994180510818296e+01 0 0 0
1869 1 1.0516465891667670e+01 9.4210506694803353e+00 3.6082733321564909e+01 0 0 -1
4942 1 7.6297358331218703e+00 1.0344685930263227e+01 3.6130333820108532e+01 1 0 0
1804 1 6.4596291200126965e-01 3.1570649186377273e+00 3.6048720692038252e+01 1 0 0
517 1 1.1138650202833771e+01 1.2175232077268200e+01 3.5959619003096662e+01 1 0 0
6093 1 1.6404216188723113e+00 1.9582693120274925e+00 4.3475539704113942e+01 1 1 -1
2967 1 4.5210674565306377e+00 1.7395683629820085e+00 3.8094447267959715e+01 1 0 0
1391 1 4.1411857255230000e+00 6.6882375247114147e+00 3.9108504259544688e+01 0 0 0
1812 1 7.1742016314721875e+00 1.5789938394446414e+00 3.9072764770153270e+01 0 1 -1
2078 1 4.1705141158597464e-01 8.2237888928604530e+00 3.8681228287963819e+01 1 0 0
2872 1 6.9383536444733229e+00 7.2828104235042357e-01 4.1785895675238365e+01 0 0 -1
1539 1 1.7649710715415314e+00 6.7679997117914548e+00 4.0759415234481160e+01 0 0 -1
6044 1 5.3570411137241418e+00 9.2740962669526148e+00 3.8612557399328423e+01 1 0 0
2861 1 8.0619527199445997e+00 4.1213255258847559e+00 3.8881438594507514e+01 0 0 0
4865 1 6.5464363329401793e+00 6.2102974072629564e+00 4.0435136219033147e+01 0 1 -1
1771 1 1.2121742078681933e+01 1.1829151638834681e+01 4.1052899994634068e+01 0 0 -1
3417 1 2.2625867690307282e+00 1.0307877859404572e+01 3.8734718292052719e+01 0 0 -1
5247 1 1.1033835918734400e+01 8.5825082830169264e-01 4.0567509759996462e+01 0 0 0
5314 1 7.2937038952222784e+00 1.1842022121504101e+01 3.8445106183933369e+01 0 0 0
1457 1 6.4200999811480548e+00 8.9391896367654873e+00 4.1161647560160773e+01 0 0 0
2159 1 1.0290536491768082e+01 9.5481596572680640e+00 3.8932573178049637e+01 0 1 0
2911 1 3.6875731585156007e-01 5.0697554382703176e+00 3.8446489521162157e+01 0 0 0
1605 1 2.3324706769340247e+00 2.7097403897058188e+00 3.9585360468809363e+01 0 0 0
2842 1 8.2639233495459425e+00 7.6662525112405921e+00 3.8522061194756283e+01 -1 1 0
3152 1 3.3771127181915994e+00 9.1029783814802867e-01 4.1491722013878892e+01 -1 0 0
5185 1 9.5288581848695646e+00 9.1326577492998751e-01 4.2944795816380939e+01 1 1 -1
1536 1 1.0307964744638261e+01 3.5735278540276525e+00 4.0248275545125118e+01 0 0 0
4576 1 1.2965581149962924e+00 4.1783809288373925e+00 4.1829322003812713e+01 1 1 0
6216 1 6.9809906881167105e+00 4.7486099789482710e+00 4.2899070000262967e+01 1 0 0
3057 1 1.1422217653759843e+01 5.9033033658915572e+00 4.1742403107367167e+01 0 1 0
6173 1 1.1472341939796419e+01 8.8781077748761739e+00 4.1871022734593573e+01 1 1 0
1818 1 2.3021012648395200e+00 8.3974618446823310e+00 4.3009599246932936e+01 1 1 -1
2088 1 4.0239320021293850e+00 1.0520210821233208e+01 4.1710415953363643e+01 0 0 0
405 1 8.6757143677155817e+00 1.0698792189037752e+01 4.1203722740482746e+01 1 0 -1
2145 1 9.5277209388726494e+00 5.6645905286441307e+00 4.3663773448643099e+01 1 0 0
6247 1 5.1555999826909895e+00 2.6228256361010063e+00 4.3176464332006780e+01 0 -1 -1
1502 1 1.1713109261117438e-01 1.1567595655247633e+00 3.8654450721905981e+01 0 1 -1
4453 1 1.2201064233809001e+01 2.8274999224455222e+00 4.6542974028906485e+01 0 0 0
3412 1 8.0228663343391418e+00 2.7576058544959214e+00 4.7890482012579405e+01 1 0 -1
2108 1 6.4179903696896066e+00 1.4242636447373025e+00 4.5461334376792735e+01 0 1 0
3675 1 1.0199561839386469e+01 3.1274465819852288e+00 4.4576937118116732e+01 0 1 0
6116 1 6.0961142534031030e+00 2.7773795267592458e+00 5.0297209467890788e+01 1 0 0
1259 1 6.2548569430626699e+00 6.8978495707701182e+00 4.4929593899128385e+01 0 1 0
3347 1 4.2711346609607403e-02 3.9289478070298003e+00 4.5347434328044457e+01 0 0 -1
4432 1 2.7041695012009979e+00 7.7637698209032768e+00 4.7472873278158850e+01 1 1 0
3146 1 3.4579850262674103e+00 6.8995964493574196e+00 4.5034534299018659e+01 0 0 0
4621 1 1.6280890092503597e-01 1.1679585586397877e+01 4.9739796773853882e+01 1 0 -1
1410 1 5.9327106315522853e+00 6.7508309756984302e+00 4.7795747745792809e+01 0 0 0
3510 1 8.5656401257234922e+00 5.3597733580908855e+00 4.8076215376618627e+01 1 1 -1
3711 1 3.3618451773637328e+00 3.4977251620106653e+00 4.7623806009578217e+01 0 1 0
1619 1 8.7181916275859468e+00 1.0743149012958765e+01 4.9726226740532852e+01 2 1 0
1289 1 5.2616103336653008e-01 1.0160686509602186e+00 4.9319563402545022e+01 1 0 -1
2939 1 1.1801280323780354e+01 1.1616374121687363e+01 4.7153801932298748e+01 0 1 0
6107 1 3.4325678534941924e+00 1.0568676924225144e+01 4.7233639691279365e+01 1 0 0
3089 1 1.0167008052319746e+01 6.7382420060384023e+00 4.5958988693864242e+01 0 0 0
1475 1 1.1041228565421711e+01 9.0962886307576607e+00 4.8880655721345086e+01 0 0 0
1366 1 6.5963058399678198e-01 3.4687773718522372e+00 4.8103405369387559e+01 0 2 0
4801 1 1.0137950861435627e+01 6.6341360448261542e+00 5.0013645462557960e+01 1 1 -1
1505 1 2.8932307125807086e+00 4.1980381884324700e+00 4.5138539567583280e+01 0 0 -1
4809 1 4.9492041796584170e+00 1.3570461692808629e+00 4.7873218370164714e+01 1 1 -1
243 1 1.0248774661735885e+01 1.4320365410642055e+00 4.8532760251275107e+01 0 1 -1