
# Create simulation box and atoms

read_data data.ML_graphite_m1000atm_245K
  orthogonal box = (0 0 2.62195) to (49.22 49.0196 57.4401)
  4 by 4 by 8 MPI processor grid
  reading atoms ...
  6337 atoms
  reading velocities ...
  6337 velocities
group water type 1
3577 atoms in group water
group graphite type 2
2760 atoms in group graphite

# Define potential

pair_style sw
pair_coeff * * MLC_e.sw mW C


# Fix graphite atoms in place

fix 5 graphite setforce 0.0 0.0 0.0
velocity graphite set 0.0 0.0 0.0


# Equilibration of molecular water

# Add velocity/set timestep

velocity	    water create ${TEMP} ${SEED} rot yes dist gaussian
velocity	    water create 248 ${SEED} rot yes dist gaussian
velocity	    water create 248 15274 rot yes dist gaussian
timestep	    5.0

# Define output

compute			1 water msd
compute			3 water temp
thermo	    	50
thermo_style	custom step temp press vol etotal ke pe c_1[4] c_3

# Neighbor lists

neigh_modify    delay 0 every 1 check yes

# Set fixes

fix             1 water momentum 10 linear 1 1 1 rescale
fix             2 water nve
fix             3 water temp/csvr ${TEMP} ${TEMP} 500.0 ${SEED}
fix             3 water temp/csvr 248 ${TEMP} 500.0 ${SEED}
fix             3 water temp/csvr 248 248 500.0 ${SEED}
fix             3 water temp/csvr 248 248 500.0 15274
fix             4 water press/berendsen z ${PRES} ${PRES} 1000.0 modulus 20000
fix             4 water press/berendsen z -1000 ${PRES} 1000.0 modulus 20000
fix             4 water press/berendsen z -1000 -1000 1000.0 modulus 20000

# Run 0.5 ns equilibration

dump		    1 all atom 2000 ${DIR}/eq.${NAME}-${TEMP}.dump
dump		    1 all atom 2000 run_11/eq.${NAME}-${TEMP}.dump
dump		    1 all atom 2000 run_11/eq.het_freeze_11-${TEMP}.dump
dump		    1 all atom 2000 run_11/eq.het_freeze_11-248.dump

reset_timestep  0

run	            100000
Neighbor list info ...
  update every 1 steps, delay 0 steps, check yes
  max neighbors/atom: 2000, page size: 100000
  master list distance cutoff = 6.67472
  ghost atom cutoff = 6.67472
  binsize = 3.33736, bins = 15 15 17
  1 neighbor lists, perpetual/occasional/extra = 1 0 0
  (1) pair sw, perpetual
      attributes: full, newton on
      pair build: full/bin/atomonly
      stencil: full/bin/3d
      bin: standard
Per MPI rank memory allocation (min/avg/max) = 4.068 | 4.178 | 4.492 Mbytes
Step Temp Press Volume TotEng KinEng PotEng c_1[4] c_3 
       0     139.9697   -1056.0851     132262.2   -34085.323    2643.5254   -36728.848            0          248 
      50    139.96164   -1080.3583    132370.21   -34100.446    2643.3734    -36743.82   0.51172471    247.98573 
     100    141.26267   -1361.2134    132418.14   -34040.616    2667.9451   -36708.561   0.80565395    250.29091 
     150     140.2159   -1378.6189    132325.97   -34052.498    2648.1753   -36700.673    1.0423747    248.43622 
     200    140.51674   -1057.7169    132360.71   -34057.712    2653.8572   -36711.569    1.3041771    248.96927 
     250    141.67243   -1177.3228    132469.63   -34045.317     2675.684   -36721.001    1.4876507    251.01693 
     300    142.18402   -1298.3567    132385.78   -34000.548    2685.3461   -36685.894    1.6758104    251.92337 
     350    141.27942   -1263.7436    132346.12   -33986.912    2668.2614   -36655.174    1.9036683    250.32058 
     400    143.97261   -1276.5732    132392.21   -33979.846    2719.1262   -36698.972    2.1105522    255.09242 
     450     139.7867   -1225.2975    132360.75   -34015.464    2640.0692   -36655.533    2.2975518    247.67576 
     500    141.10468   -1240.0951    132362.23   -33997.258    2664.9612   -36662.219    2.4421307    250.01097 
     550    138.09739   -1247.7653    132368.73   -34001.232    2608.1642   -36609.396    2.5796219    244.68262 
     600    139.78801   -1007.0906     132397.7   -34032.709    2640.0941   -36672.803    2.7849778    247.67809 
     650    136.87609   -1288.9821    132387.62    -34107.99    2585.0983   -36693.088    2.9950475    242.51871 
     700    137.76745   -1220.6306    132352.01   -34093.054    2601.9328   -36694.987    3.1122759    244.09802 
     750    138.26637   -1315.5636    132296.15   -34134.265    2611.3557    -36745.62    3.2642261    244.98202 
     800    138.17563   -1202.3484     132333.5   -34139.961    2609.6419   -36749.602    3.4190734    244.82125 
     850    136.78293   -1118.5126    132360.18   -34101.126    2583.3388   -36684.464    3.5890482    242.35364 
     900    137.94073   -1141.7368    132352.61   -34105.186    2605.2056   -36710.392    3.7694038    244.40505 
     950    136.99213   -1032.8365     132379.6   -34144.351    2587.2899   -36731.641    3.9397899    242.72431 
    1000    139.36102    -1131.273       132446   -34092.601    2632.0297   -36724.631    4.0949866    246.92153 
    1050    138.49549   -1352.3646    132515.55   -34099.889     2615.683   -36715.572    4.3156505    245.38799 
    1100    139.34725    -1336.852     132480.1   -34069.286    2631.7697   -36701.055    4.4294229    246.89715 
    1150    140.39762   -1300.5463    132413.38   -34070.614    2651.6073   -36722.221    4.5499055    248.75819 
    1200     139.9967   -1300.5983    132370.09   -34049.985    2644.0354   -36694.021     4.735141    248.04784 
    1250    141.23845   -1088.4828    132387.82   -33996.148    2667.4876   -36663.635    4.8715021    250.24799 
    1300    142.17459   -1060.4095    132429.86   -33969.787    2685.1679   -36654.955    5.0123177    251.90665 
    1350    140.11821   -1246.0908    132433.28   -33967.201    2646.3303   -36613.531    5.2312788    248.26314 
    1400    140.03895   -1075.7558    132453.97   -33985.364    2644.8333   -36630.197    5.3883489     248.1227 
    1450    138.32015   -1274.0289    132456.23   -34027.581    2612.3714   -36639.952    5.4419057    245.07731 
    1500    139.88767   -1400.3065     132334.9   -33984.068    2641.9763   -36626.045    5.5537975    247.85467 
    1550    138.80464   -929.67034    132256.28   -34049.052    2621.5216   -36670.573    5.8096364    245.93573 
    1600    137.82484   -1176.0285    132408.81   -34038.914    2603.0167   -36641.931    6.0104605    244.19971 
    1650    141.34124   -1217.9998    132384.02   -34027.897     2669.429   -36697.326    6.1451195    250.43012 
    1700    138.90965     -1424.98    132332.88   -34009.582    2623.5049   -36633.087    6.3009833    246.12179 
    1750    138.02134   -1149.1689    132271.82   -33998.009     2606.728   -36604.737    6.4163435    244.54788 
    1800    140.89446   -1373.9384    132219.49   -33983.564    2660.9909   -36644.555    6.5660342    249.63851 
    1850     140.0804   -1269.9342    132120.36   -33980.007    2645.6163   -36625.623    6.6713456    248.19615 
    1900    139.53033   -1165.4501    132042.98   -34024.772    2635.2273   -36659.999    6.8105234    247.22152 
    1950    137.69666   -1233.2626    132130.85   -34078.526    2600.5959   -36679.122    6.9289862    243.97261 
    2000    142.72933   -1446.0608    132132.35   -34028.313     2695.645   -36723.958    7.1239868    252.88955 
    2050    137.59152   -1140.7602    132056.37   -34044.873    2598.6102   -36643.483    7.3415679    243.78632 
    2100    137.36077   -1183.7485    132162.71   -34098.213    2594.2522   -36692.465    7.4328601    243.37747 
    2150    138.12675   -1192.5167    132198.62   -34103.735    2608.7188   -36712.454    7.5296297    244.73465 
    2200    135.82626   -1230.0054    132206.57   -34179.155    2565.2708   -36744.426    7.6866848    240.65861 
    2250    136.48505   -1173.1827    132234.61    -34161.18     2577.713   -36738.893    7.9697643    241.82587 
    2300    136.67375   -1599.6149    132160.56   -34136.039    2581.2768   -36717.316    7.9950289     242.1602 
    2350    142.03735   -1318.3983    132096.67   -34046.754    2682.5759    -36729.33    8.1160012    251.66349 
    2400    139.16691   -1477.6914    132002.61   -34042.901    2628.3637   -36671.265     8.408127    246.57761 
    2450    138.08146   -1257.2006    131895.51   -34070.373    2607.8635   -36678.236    8.5819771    244.65441 
    2500    140.86911   -936.84107    131917.74   -34022.313    2660.5122   -36682.825    8.8191972    249.59359 
    2550    141.25833   -1479.8097    131987.79   -34039.873    2667.8631   -36707.736    8.9597109    250.28322 
    2600    137.50513   -1211.5839    132052.85   -34027.292    2596.9786    -36624.27    9.0399855    243.63325 
    2650    138.13133    -1299.287    132057.03   -33958.866    2608.8052   -36567.671    9.1360095    244.74275 
    2700    144.04105   -1176.5914    132013.61   -33916.551    2720.4188    -36636.97    9.2830946    255.21368 
    2750    139.39523   -1393.3634    131970.88   -33956.816    2632.6759   -36589.492    9.4456528    246.98216 
    2800    141.48874   -1479.6527    131924.75   -34003.426    2672.2147    -36675.64     9.627726    250.69146 
    2850    134.51257   -1267.4284    131908.22   -34044.213    2540.4599   -36584.673    9.7740384      238.331 
    2900    138.09747   -1132.6656    131983.32   -34047.481    2608.1657   -36655.646    9.9320486    244.68276 
    2950    142.07635   -1198.0076    131985.89   -34002.059    2683.3126   -36685.372    10.144327    251.73259 
    3000    141.47151   -1369.4838    131942.49   -34013.714    2671.8894   -36685.603    10.181728    250.66094 
    3050    141.30573   -1264.7799    131881.97   -33992.959    2668.7583   -36661.717    10.284775     250.3672 
    3100    142.99408    -1238.716    131876.24    -33938.16    2700.6451   -36638.805    10.422467    253.35863 
    3150    137.95254   -1310.7825    131890.95   -34018.465    2605.4285   -36623.894    10.513625    244.42597 
    3200    139.59334   -958.58239    131917.67   -33995.069    2636.4174   -36631.486      10.5778    247.33316 
    3250    139.69384   -1244.5059    131924.69   -34002.446    2638.3155   -36640.761    10.660259    247.51124 
    3300     139.5031   -1213.5251    131956.06   -33917.176    2634.7132   -36551.889     10.77504    247.17329 
    3350    140.78839   -1153.2319    131911.64   -33950.331    2658.9876   -36609.319    11.028426    249.45057 
    3400    138.71245   -1063.3626    131909.99   -33969.666    2619.7805   -36589.447    11.245085    245.77239 
    3450    141.55632   -1071.9562     132010.7    -34011.64     2673.491   -36685.131    11.504086    250.81119 
    3500     138.7142   -1205.7508    132062.08   -34011.051    2619.8136   -36630.865    11.691558    245.77549 
    3550    137.85688   -952.14443    132152.63   -33982.729    2603.6219   -36586.351    11.795726    244.25649 
    3600     140.3067   -1156.6513    132221.63   -34021.199    2649.8902   -36671.089    11.906766    248.59711 
    3650    138.06546    -1187.775    132261.27   -34015.235    2607.5612   -36622.796    11.996261    244.62605 
    3700     142.2712   -1509.1486     132335.2   -33953.422    2686.9925   -36640.414    12.207704    252.07783 
    3750    140.24857   -1064.2786    132375.19   -33957.464    2648.7923   -36606.257    12.419366     248.4941 
    3800    142.64485   -1238.7703    132480.09   -33962.177    2694.0494   -36656.226    12.583721    252.73986 
    3850    139.33892   -1155.8766     132604.3   -33940.399    2631.6122   -36572.011    12.700751    246.88237 
    3900     141.7001   -1316.3646    132646.63   -33937.218    2676.2065   -36613.425    12.913434    251.06595 
    3950    140.70813   -1207.2376    132630.26   -33932.298    2657.4718    -36589.77    13.041628    249.30836 
    4000    139.98656   -1273.9299    132539.83   -33972.225    2643.8439   -36616.069     13.17117    248.02988 
    4050     140.4626     -1450.53    132482.35   -33937.848    2652.8347   -36590.683    13.413119    248.87334 
    4100    143.20058   -1209.6588     132472.2   -33920.934    2704.5451   -36625.479     13.71668    253.72451 
    4150    143.09796   -1243.6406    132538.47   -33897.374    2702.6071   -36599.981    13.921295    253.54269 
    4200    141.06898   -1208.6415    132476.11   -33937.588     2664.287   -36601.875     14.10754    249.94772 
    4250    138.52177   -1221.1333    132465.11   -33958.794    2616.1793   -36574.974    14.221544    245.43455 
    4300    142.88842   -1140.2997    132338.48    -33977.02    2698.6496    -36675.67    14.210636    253.17142 
    4350    138.21691   -1115.3082    132275.61    -34015.12    2610.4216   -36625.541     14.37412    244.89439 
    4400    136.72096   -1537.4527    132271.29   -34078.553    2582.1685   -36660.722     14.43525    242.24386 
    4450    138.79706   -1444.7416    132200.33   -34041.394    2621.3785   -36662.773    14.551962     245.9223 
    4500     136.6509    -1365.969    132143.67   -34014.913    2580.8453   -36595.758     14.70772    242.11972 
    4550    140.75565   -1257.4133    132074.94   -33929.518    2658.3692   -36587.887    14.867141    249.39256 
    4600    142.05602   -1187.7639    132068.94   -33902.678    2682.9287   -36585.607     15.11219    251.69658 
    4650    139.58305   -1167.3995     132041.7   -33880.266    2636.2232   -36516.489    15.319392    247.31494 
    4700    142.35493   -1049.1639    132133.89   -33808.823    2688.5739   -36497.397    15.685161    252.22618 
    4750    139.65087   -1473.9981    132148.64   -33867.081    2637.5039   -36504.584    15.897156     247.4351 
    4800    143.92202     -1169.03     132166.5   -33869.131    2718.1706   -36587.302    15.971587    255.00277 
    4850    140.17081   -1078.5411    132159.47   -33904.776    2647.3237     -36552.1    16.182045    248.35634 
    4900    138.30468   -1231.8057     132210.5    -33912.98    2612.0793   -36525.059    16.388069    245.04991 
    4950    142.20175   -1412.1044    132166.49     -33901.5    2685.6808   -36587.181    16.567021    251.95477 
    5000    138.76318   -1439.3606    132198.16   -33952.684    2620.7387   -36573.423    16.585162    245.86228 
    5050    140.49036    -1147.176    132217.67   -33961.563    2653.3588   -36614.922    16.719306    248.92251 
    5100    141.78042   -1157.3639    132174.19   -33976.163    2677.7234   -36653.886    16.885889    251.20825 
    5150    138.26631   -1063.6795    132178.73   -34049.646    2611.3546   -36661.001    17.022771    244.98192 
    5200    140.02766   -1201.8405     132137.3   -34040.284    2644.6201   -36684.904    17.073886    248.10269 
    5250    138.64322   -1210.2099    132116.44   -34039.401    2618.4731   -36657.874    17.341189    245.64974 
    5300    141.53519   -963.69292       132205   -34032.961    2673.0919   -36706.053     17.48709    250.77375 
    5350    138.32204   -816.85115    132353.04   -34051.628    2612.4072   -36664.035    17.708962    245.08067 
    5400    136.66416   -765.55941    132452.32   -34004.953    2581.0957   -36586.049     17.90954    242.14321 
    5450    139.81769   -1255.5338    132512.79    -34023.76    2640.6546   -36664.414    17.911505    247.73067 
    5500    138.56397   -1151.9978    132549.13   -34032.604    2616.9762   -36649.581    17.955768    245.50931 
    5550    143.08401   -1018.9956    132537.25    -34028.21    2702.3437   -36730.554    18.013341    253.51798 
    5600    139.72848   -1112.7735    132578.69   -33973.093    2638.9697   -36612.062    18.209556    247.57261 
    5650    140.86126   -1064.7591    132601.66   -33985.108    2660.3639   -36645.472    18.424405    249.57969 
    5700    141.80279   -1165.0782    132610.05    -33991.68    2678.1459   -36669.826       18.497    251.24789 
    5750    142.27428   -1113.0086    132546.26   -33958.101    2687.0507   -36645.152    18.480546    252.08328 
    5800    141.25206   -1041.0508    132585.85   -33933.471    2667.7448   -36601.215    18.614555    250.27211 
    5850    142.67155   -1108.8066    132668.35   -33953.917    2694.5537   -36648.471    18.783985    252.78717 
    5900    140.18257   -1278.6729    132625.24   -33949.697    2647.5458   -36597.243    18.904735    248.37716 
    5950    140.33067   -1281.3259    132549.22   -33996.421     2650.343   -36646.764    19.104365    248.63958 
    6000     139.2428   -1371.6947    132557.59   -34035.187     2629.797   -36664.983    19.369851    246.71208 
    6050    138.27209   -1229.1792    132501.12   -34074.805    2611.4637   -36686.269    19.644613    244.99215 
    6100    137.52456   -1377.2585    132458.94   -34026.199    2597.3455   -36623.544    19.806744    243.66767 
    6150    141.54825   -1348.1443    132364.35   -34019.929    2673.3387   -36693.268    19.959052    250.79691 
    6200    138.39164   -1391.6318    132313.65   -34045.894    2613.7215   -36659.616    20.136125    245.20397 
    6250    138.41649   -1287.0119    132288.67   -34135.157    2614.1909   -36749.348    20.342299      245.248 
    6300    137.07311   -1165.1908    132323.26   -34137.322    2588.8193   -36726.141    20.408904     242.8678 
    6350    138.07143   -1286.9209    132284.26   -34130.923    2607.6739   -36738.597    20.511126    244.63662 
    6400    138.47907   -1179.5188    132336.15   -34126.493    2615.3728   -36741.866    20.632928    245.35889 
    6450    140.38216   -1200.6204    132341.63    -34066.58    2651.3153   -36717.895    20.807492     248.7308 
    6500    140.35737   -968.72939    132326.26   -34066.238    2650.8472   -36717.085    20.988909    248.68688 
    6550    140.31085   -1061.2843    132295.75   -34114.551    2649.9686    -36764.52     21.12341    248.60446 
    6600    138.80678   -1265.8386    132274.25   -34119.271    2621.5621   -36740.834    21.216875    245.93953 
    6650    141.12737   -1278.5947    132308.46   -34062.536    2665.3897   -36727.926    21.299723    250.05117 
    6700     143.1215   -1369.6704    132255.68   -34079.758    2703.0517    -36782.81    21.510865     253.5844 
    6750    139.80691   -1328.5959    132207.35   -34048.236     2640.451   -36688.687    21.937529    247.71158 
    6800    142.13855   -1164.9265    132178.25   -34042.037    2684.4873   -36726.524    22.067067    251.84281 
    6850    139.69066   -1236.1911    132164.64   -34008.559    2638.2555   -36646.815    22.223635    247.50561 
    6900    141.72481   -1018.8236     132241.6   -34036.485    2676.6732   -36713.158    22.359271    251.10973 
    6950    139.52625   -1157.6312    132248.44   -34061.528    2635.1503   -36696.678    22.373568     247.2143 
    7000    139.27569   -1188.5853     132279.7   -34044.759    2630.4182   -36675.178    22.330242    246.77036 
    7050    141.95168   -1193.6062    132321.08   -34055.713    2680.9579   -36736.671    22.506059    251.51169 
    7100    138.55714   -1000.8836    132337.06    -34038.44    2616.8472   -36655.287    22.619341    245.49721 
    7150    141.66003   -1179.4703    132410.58   -34012.225    2675.4497   -36687.674    22.745845    250.99495 
    7200    142.68536   -1055.5399    132352.43   -33944.882    2694.8145   -36639.697    22.952521    252.81164 
    7250    142.07335   -1223.6636    132397.88   -33935.454     2683.256   -36618.709    23.194251    251.72728 
    7300    142.24447   -1137.8061    132479.35   -33955.232    2686.4877   -36641.719    23.428275    252.03046 
    7350    137.44331   -1420.6178    132533.85   -34008.112     2595.811   -36603.923    23.619572    243.52371 
    7400    138.92031   -977.89372    132507.63   -34092.016    2623.7064   -36715.723    23.719214    246.14069 
    7450    139.68777   -1309.5212    132511.26    -34032.31    2638.2009   -36670.511    23.839421    247.50048 
    7500    139.65747   -1339.7157    132469.09   -34056.846    2637.6287   -36694.474    23.920322     247.4468 
    7550    141.45837   -1033.7188    132475.87   -34018.284    2671.6411   -36689.925     24.18011    250.63765 
    7600    139.13264   -1079.8078    132473.37   -34027.302    2627.7164   -36655.018    24.459634    246.51689 
    7650    140.22519    -1164.988    132504.96   -33984.056    2648.3509   -36632.407    24.539873    248.45269 
    7700    138.96877   -1301.8727     132472.3   -33989.882    2624.6215   -36614.504    24.802507    246.22655 
    7750    142.24199   -1129.6972    132420.32   -33992.481    2686.4409   -36678.922    24.969102    252.02607 
    7800    138.79289   -1464.1395    132438.85   -34010.482    2621.2998   -36631.782    25.034174    245.91492 
    7850      137.606    -1253.714    132414.27   -34077.918    2598.8837   -36676.801    25.079408    243.81198 
    7900    137.36395    -1203.578    132390.67   -34085.217    2594.3123   -36679.529    25.032261    243.38311 
    7950    137.92386   -1172.1433    132395.64   -34073.655    2604.8868   -36678.542    25.383145    244.37515 
    8000    139.13007   -1196.3668    132332.27   -34064.094    2627.6679   -36691.762     25.44052    246.51234 
    8050    138.02107   -1232.6419    132268.68    -34110.65    2606.7229   -36717.373    25.510011     244.5474 
    8100    137.08985   -1053.3561    132349.89   -34100.947    2589.1354   -36690.083    25.622657    242.89745 
    8150    140.92605   -1144.6583    132310.92   -34056.292    2661.5876   -36717.879    25.721164    249.69448 
    8200    137.55279    -1292.228    132236.37   -34044.817    2597.8786   -36642.695    26.131754    243.71769 
    8250    141.38514   -1077.2872    132229.71   -34010.459    2670.2581   -36680.717    26.272232     250.5079 
    8300    140.09596   -1130.8672    132227.72   -33980.295    2645.9101   -36626.205    26.571915    248.22372 
    8350    142.69753   -1111.9054    132245.92   -33950.851    2695.0445   -36645.896    26.631988    252.83321 
    8400    142.50481   -1215.6433    132237.52   -33987.314    2691.4046   -36678.719    26.778422    252.49174 
    8450    139.75329   -1029.4989    132351.07   -33991.724    2639.4383   -36631.162    26.832907    247.61657 
    8500    142.84938    -1016.672    132431.74   -34022.577    2697.9124    -36720.49    26.965649    253.10226 
    8550    139.18618   -1302.4162     132513.9   -34059.994    2628.7276   -36688.721    26.977827    246.61175 
    8600    138.13202   -1166.4853    132427.45   -34020.665    2608.8184   -36629.484    27.225414    244.74399 
    8650    139.23018   -1191.3807    132410.24   -34044.505    2629.5586   -36674.064    27.367314    246.68972 
    8700    139.70594   -1248.4997     132337.6   -34079.581    2638.5441   -36718.125    27.370605    247.53268 
    8750    138.32406   -1266.7302    132292.77   -34060.371    2612.4452   -36672.816    27.586835    245.08423 
    8800    137.15854   -1398.9044     132191.8   -34123.564    2590.4327   -36713.997    27.675388    243.01916 
    8850    139.94701   -1342.6622    132129.45   -34073.583     2643.097    -36716.68    27.786705     247.9598 
    8900    138.49787   -1319.5038    132036.24    -34095.34     2615.728   -36711.068    27.797265    245.39221 
    8950    137.10147    -1097.989    132090.77   -34101.761    2589.3549   -36691.116    27.995268    242.91804 
    9000    140.86355   -1008.6538    132188.48   -34085.863    2660.4071    -36746.27    28.032882    249.58374 
    9050     138.7395   -1226.9282    132234.16   -34068.357    2620.2914   -36688.648    28.119171    245.82032 
    9100     139.2859   -1249.5214    132225.51   -34070.068    2630.6109   -36700.679    28.354047    246.78844 
    9150    139.18741   -1227.4507    132186.63    -33999.64    2628.7507   -36628.391    28.616148    246.61393 
    9200     140.3594   -1011.4944    132225.03    -34051.76    2650.8855   -36702.646    28.716074    248.69048 
    9250    137.53443   -1125.0713    132200.49   -34112.969     2597.532   -36710.501    28.985594    243.68517 
    9300    138.07797   -1072.1142    132235.47   -34071.067    2607.7975   -36678.864    29.191637    244.64821 
    9350    140.04016   -1053.5288     132285.9   -34088.531    2644.8562   -36733.388    29.443001    248.12484 
    9400    139.42641    -1256.104    132277.31   -34061.812    2633.2647   -36695.077    29.676579     247.0374 
    9450    140.56792   -1073.8404    132353.89   -33992.519    2654.8237   -36647.343    29.876397    249.05994 
    9500    137.36958   -1304.4961     132237.2   -34024.102    2594.4186    -36618.52    30.008057    243.39309 
    9550    138.68389      -854.41    132245.26   -34018.759    2619.2411       -36638    30.149795    245.72179 
    9600    135.42167   -1163.6405    132298.39   -34023.945    2557.6296   -36581.574    30.408059    239.94176 
    9650    135.83699   -1132.2672    132318.33   -34033.932    2565.4734   -36599.405    30.465256    240.67761 
    9700    140.01002   -1023.7092    132327.41    -34031.07    2644.2871   -36675.357    30.617773    248.07145 
    9750    142.07148   -1108.6917    132405.12   -34014.044    2683.2205   -36697.264    30.758535    251.72396 
    9800    138.12024   -1249.1504    132535.77    -34042.72    2608.5959   -36651.316    30.912997    244.72312 
    9850    139.88568   -1479.1379     132489.8   -34058.483    2641.9386   -36700.422    30.981336    247.85114 
    9900    141.02291    -1218.955    132464.68   -34055.649    2663.4168   -36719.065    30.982717    249.86609 
    9950    137.99306   -1146.2581    132524.77   -34100.073    2606.1938   -36706.267     31.02751    244.49776 
   10000    139.60203   -1232.8285    132598.18   -34088.298    2636.5816   -36724.879    31.268048    247.34857 
   10050    137.25088     -1130.75    132615.89   -34101.878    2592.1768   -36694.055      31.3641    243.18277 
   10100    138.78118   -1149.6528     132672.6   -34103.047    2621.0786   -36724.126     31.46771    245.89417 
   10150    138.21284   -987.26751    132771.14   -34054.443    2610.3446   -36664.788    31.511772    244.88717 
   10200    138.77032    -1290.742    132829.89   -34070.253    2620.8735   -36691.127    31.672522    245.87493 
   10250    139.48196   -1051.8964    132808.86   -34097.909    2634.3138   -36732.223    31.881239    247.13582 
   10300    141.82982   -1189.6263     132812.2   -34114.513    2678.6564   -36793.169     31.99771    251.29578 
   10350    139.96347   -1341.3743    132874.19    -34126.73    2643.4078   -36770.138    32.123576    247.98896 
   10400    134.78876   -1201.2407    132904.17   -34094.441    2545.6761   -36640.117    32.095087    238.82035 
   10450    138.59846   -1160.4616    132888.96   -34074.166    2617.6277   -36691.793    32.311638    245.57042 
   10500    139.29547   -1436.4858       132876   -34075.168    2630.7917    -36705.96    32.523792    246.80539 
   10550    139.00753   -1197.0987    132802.15   -34012.874    2625.3536   -36638.228    32.655603    246.29522 
   10600    141.27137   -1104.0808    132810.03   -34041.306    2668.1094   -36709.415    32.605629    250.30632 
   10650    139.19387   -1260.5313    132742.58   -34055.197    2628.8729    -36684.07    32.584081    246.62538 
   10700     139.0621   -1228.3833    132748.36   -34058.252    2626.3841   -36684.636    32.833082     246.3919 
   10750    141.32929   -1296.7395    132757.97   -34069.246    2669.2032    -36738.45    32.972182    250.40894 
   10800    141.35508   -1380.0159    132613.31   -34056.217    2669.6904   -36725.907    33.149533    250.45464 
   10850    142.40897   -1219.4116    132514.15   -34056.923    2689.5945   -36746.518    33.389297    252.32193 
   10900    139.08622   -1109.7665    132516.63   -34057.595    2626.8397   -36684.435    33.673727    246.43464 
   10950    140.62545   -939.88457    132476.48   -34129.113    2655.9103   -36785.023    33.793351    249.16188 
   11000    138.80517    -1153.098    132440.89   -34128.414    2621.5317   -36749.945    33.801214    245.93668 
   11050     137.8158    -1127.902    132494.35   -34174.327    2602.8461   -36777.173    33.818197     244.1837 
   11100     138.9955   -1266.2506    132422.74    -34175.92    2625.1264   -36801.046    33.931895    246.27391 
   11150    136.84112   -1271.0527    132486.36   -34215.754    2584.4378   -36800.192    34.237832    242.45675 
   11200    139.87109   -1162.4924    132495.59   -34103.085    2641.6631   -36744.748    34.545148    247.82529 
   11250    139.00254   -1381.1964    132434.21    -34051.88    2625.2594   -36677.139    34.765686    246.28638 
   11300    137.85385    -1180.827    132391.92   -34055.716    2603.5647   -36659.281    34.934932    244.25112 
   11350    140.35339   -1374.3544    132382.41   -34062.673     2650.772   -36713.445    34.883809    248.67983 
   11400    141.44015   -913.21327    132431.03   -34059.168     2671.297   -36730.465    35.126485    250.60537 
   11450    139.57352   -1127.9632    132407.97   -34060.717     2636.043    -36696.76    35.466132    247.29804 
   11500    140.15098   -1213.4592    132383.77   -34061.739    2646.9492   -36708.688    35.675016    248.32119 
   11550    138.25916   -1224.5189    132419.39   -34087.258    2611.2195   -36698.478    35.730877    244.96925 
   11600    137.00737   -1327.3533    132398.15   -34115.787    2587.5777   -36703.365     35.97386    242.75131 
   11650    139.86602   -1296.7509    132384.88   -34157.928    2641.5674   -36799.496    36.093576    247.81631 
   11700    138.20236   -1306.3521     132384.6    -34115.18    2610.1469   -36725.326    36.373279    244.86862 
   11750    141.97813   -1112.3489    132445.75   -34084.369    2681.4576   -36765.826    36.535439    251.55857 
   11800    137.77134   -1186.4412    132490.18   -34054.186    2602.0063   -36656.193    36.705428    244.10492 
   11850    139.70226   -1307.1928     132494.8   -34042.636    2638.4745   -36681.111    36.639933    247.52615 
   11900     141.5942   -1359.7101    132402.14   -34080.638    2674.2064   -36754.845    36.669261    250.87831 
   11950     140.7708   -966.34672    132450.07   -34077.075    2658.6554   -36735.731    36.680561    249.41941 
   12000     142.8253   -1158.0572    132509.12   -34106.445    2697.4575   -36803.902    36.868509    253.05958 
   12050    140.08642   -1304.0341    132411.71   -34116.196    2645.7298   -36761.926    37.092438     248.2068 
   12100    138.07671   -1214.5898    132403.15   -34135.403    2607.7738   -36743.177    37.293675    244.64599 
   12150    136.91398   -1076.4205     132320.3   -34126.546    2585.8139   -36712.359      37.5189    242.58584 
   12200    138.82804   -1054.7243    132349.65     -34152.5    2621.9636   -36774.464    37.688485     245.9772 
   12250    139.14511   -963.61134    132384.35   -34130.203    2627.9519   -36758.155    37.741181    246.53899 
   12300    136.80994   -1007.7809     132442.1   -34136.054     2583.849   -36719.903    37.875488    242.40151 
   12350    138.90465   -1335.8501    132379.78   -34150.043    2623.4104   -36773.453    37.926425    246.11293 
   12400    143.30703    -1210.578    132299.83   -34062.714    2706.5558    -36769.27    38.070808    253.91313 
   12450     140.7084   -1307.1891     132322.3   -34096.714    2657.4769    -36754.19    38.261683    249.30884 
   12500    139.11742   -1194.5203    132307.21   -34042.523     2627.429   -36669.952    38.283152    246.48993 
   12550    141.98478   -1237.6392    132344.07   -34081.213    2681.5832   -36762.796    38.402549    251.57036 
   12600     138.6738   -1042.9504    132444.96   -34086.513    2619.0507   -36705.564    38.725836    245.70392 
   12650    138.52834   -956.52248    132595.43   -34100.158    2616.3033   -36716.461      38.9111    245.44618 
   12700    139.74675   -1160.4337    132695.76   -34060.522    2639.3148   -36699.836     39.06331    247.60498 
   12750     139.4489   -1321.7234    132680.17   -34067.227    2633.6894   -36700.917    39.120152    247.07724 
   12800    135.22384   -1072.3557    132737.52   -34080.368    2553.8931   -36634.262    39.198154    239.59123 
   12850    140.01695   -1210.1434    132795.78   -34081.023    2644.4179   -36725.441    39.336368    248.08373 
   12900    137.62662   -1179.5213    132849.74   -34072.664    2599.2731   -36671.938    39.669696    243.84851 
   12950     136.0644   -1447.8785    132907.54   -34084.421    2569.7684   -36654.189     39.66679    241.08055 
   13000    140.58664   -1218.9115    132913.91    -34104.77    2655.1773   -36759.948    39.744704    249.09311 
   13050    140.63029   -1089.4473    133017.77     -34056.5    2656.0017   -36712.502      40.0274    249.17045 
   13100    140.25961   -1075.6618    133078.24   -34036.141    2649.0008   -36685.142    40.454119    248.51367 
   13150    142.02279   -1089.1318       133063   -34008.878     2682.301   -36691.179    40.475541    251.63769 
   13200    139.67985   -1206.2062     133080.2   -34009.076    2638.0512   -36647.127    40.420555    247.48644 
   13250    138.99195   -1011.4034    133097.82    -34007.49    2625.0592   -36632.549    40.498614    246.26761 
   13300    142.81064   -1005.4185    133186.52   -33992.027    2697.1806   -36689.208    40.741878    253.03362 
   13350    142.11913   -1349.0885    133209.02   -33957.794    2684.1205   -36641.915    40.861988    251.80839 
   13400    139.95437   -1053.1205     133243.4   -34010.005    2643.2359   -36653.241    41.062283    247.97284 
   13450    141.31338   -1186.4648    133337.48   -33982.861    2668.9027   -36651.764    41.087632    250.38075 
   13500    141.38398   -1193.4028     133202.6   -33972.223    2670.2362   -36642.459    41.059758    250.50585 
   13550    142.06006   -1288.3007    133239.94   -33963.925    2683.0049    -36646.93    41.361772    251.70373 
   13600    140.47334    -1454.579    133232.72   -33977.204    2653.0375   -36630.241    41.587584    248.89236 
   13650    141.50276   -1304.6388     133317.7   -33995.194    2672.4795   -36667.673    41.834266     250.7163 
   13700    140.66446   -1545.0957    133170.62    -34008.44    2656.6471   -36665.087    41.802588      249.231 
   13750     140.9522    -1478.069    133032.89   -34044.884    2662.0814   -36706.965    42.045885    249.74081 
   13800    142.21044   -1110.7969    133038.44   -34031.369     2685.845   -36717.214    42.312364    251.97017 
   13850    144.41472   -1186.6282     133024.1   -33994.314     2727.476    -36721.79    42.673397    255.87575 
   13900    141.03035   -1191.4734    132978.07   -33945.084    2663.5573   -36608.641    42.813078    249.87927 
   13950    139.44195   -964.97369    132953.13   -33982.709    2633.5581   -36616.267    42.922274    247.06493 
   14000    139.06718    -1042.174    132934.09   -34004.362    2626.4802   -36630.843    42.903312    246.40092 
   14050    140.58344   -1083.7009    132939.39   -33981.101    2655.1168   -36636.217    43.122727    249.08743 
   14100    141.99025   -1126.9023    132922.31   -33970.413    2681.6864   -36652.099    43.307807    251.58004 
   14150    142.33176    -1161.488     132921.7   -33979.274    2688.1364    -36667.41    43.487296    252.18514 
   14200     141.1911   -1096.6084    132981.89    -33962.67    2666.5933   -36629.263    43.604746    250.16409 
   14250    143.32223   -1254.2774    133019.22   -33943.404    2706.8428   -36650.247    43.766896    253.94006 
   14300    144.32511   -1388.8999    132978.44   -33998.427    2725.7835   -36724.211    44.091103    255.71697 
   14350    140.77472   -895.02469    132944.44   -34038.025    2658.7295   -36696.755    44.262904    249.42635 
   14400    140.13387    -1173.543    132988.09   -34047.904    2646.6261    -36694.53     44.39535    248.29089 
   14450    140.05846   -1409.4411    133013.14     -34019.9    2645.2019   -36665.102    44.739768    248.15728 
   14500    139.16189   -1063.1091    133047.58    -34018.37    2628.2688   -36646.639    44.842077    246.56872 
   14550    138.23995   -1384.4352    133076.27   -34070.195    2610.8567   -36681.052     45.19716    244.93521 
   14600    139.09666   -1585.3507    133003.06   -34085.799    2627.0369   -36712.836    45.498168    246.45314 
   14650    139.76982   -1483.1167    132856.42   -34034.118    2639.7506   -36673.869    45.621022    247.64586 
   14700    138.15115   -1115.9446    132877.66   -34059.703    2609.1796   -36668.883     45.69877    244.77788 
   14750    138.92771   -1100.3412    132985.47   -34043.664    2623.8461    -36667.51    45.963331     246.1538 
   14800    143.94232    -1140.522    132938.74   -34005.898    2718.5539   -36724.452    45.898741    255.03873 
   14850    139.43088   -1267.3123    132913.79   -34042.828    2633.3492   -36676.177    46.077549    247.04532 
   14900    140.11179   -1292.7459    132904.28   -34027.899     2646.209   -36674.108    46.189346    248.25176 
   14950    138.34911   -1047.6445    132830.11    -34044.17    2612.9183   -36657.088    46.315706    245.12862 
   15000    135.31853   -1187.4429       132906   -34070.195    2555.6817   -36625.877     46.28559    239.75901 
   15050    139.72073   -1463.5774    132908.86   -34004.654    2638.8233   -36643.477    46.376405    247.55888 
   15100    142.27717   -1184.1847    132829.26   -34021.237    2687.1054   -36708.342    46.469466    252.08842 
   15150    139.65019   -1287.4179    132880.42   -34012.688    2637.4911    -36650.18    46.554784     247.4339 
   15200    139.81957   -1135.3831    132863.66   -33996.049      2640.69   -36636.739    46.594978      247.734 
   15250    143.86865   -1092.8245    132867.66   -33952.592    2717.1627   -36669.754    47.051336    254.90822 
   15300    144.13983   -1023.0832    132911.04   -33965.524    2722.2843   -36687.809    47.364683    255.38869 
   15350    140.23165   -1120.7954    132885.86   -33993.154    2648.4727   -36641.626    47.431423    248.46413 
   15400    137.51948   -1287.9856    132808.03    -34022.52    2597.2497    -36619.77    47.479123    243.65868 
   15450    138.22611   -1461.7236    132755.12    -34015.87    2610.5953   -36626.465    47.609882    244.91069 
   15500    138.87529   -1188.4605    132713.58   -34036.729    2622.8559   -36659.584    47.689304    246.06091 
   15550    140.06052   -1228.1838    132724.84   -34014.316    2645.2407   -36659.557    47.726468    248.16092 
   15600    142.19827   -1531.6518    132781.01   -33986.329    2685.6153   -36671.945    47.934106    251.94862 
   15650    138.98416   -1161.9052    132791.12   -34004.589    2624.9122   -36629.501    48.389995    246.25381 
   15700     140.1552   -1415.3494    132814.36   -33990.485     2647.029   -36637.514    48.440816    248.32868 
   15750    140.64106   -1265.7006    132822.03   -33961.684    2656.2051   -36617.889    48.388889    249.18953 
   15800    138.90656   -1181.9414    132856.35   -33998.219    2623.4465   -36621.666    48.714136    246.11631 
   15850    141.97806   -1338.2385    132868.98   -33991.648    2681.4562   -36673.105    48.999967    251.55844 
   15900    138.79096   -921.62249    132875.87    -33978.42    2621.2633   -36599.683    49.181795     245.9115 
   15950    140.08867   -1285.3331    132946.74    -33983.21    2645.7725   -36628.982     49.28086    248.21081 
   16000    141.45268   -1099.9759    133071.76   -33938.476    2671.5337   -36610.009    49.461623    250.62757 
   16050     137.7101   -1528.9473    133046.42   -34016.029    2600.8497   -36616.879    49.681697    243.99641 
   16100    140.64341   -1301.3524    133067.67   -33988.471    2656.2495    -36644.72    49.789609    249.19369 
   16150    138.76399   -1196.3863    133079.66   -33989.212    2620.7539   -36609.966    49.986044    245.86371 
   16200    140.54611    -1071.599    133098.01   -33987.298    2654.4118    -36641.71    50.390912     249.0213 
   16250    140.08444   -1303.5285    133118.08   -33995.472    2645.6925   -36641.165    50.518481     248.2033 
   16300    140.09476   -1165.1742    133122.49   -34006.075    2645.8874   -36651.963    50.464231    248.22158 
   16350    141.74193   -1293.7186    133086.97   -34026.086    2676.9966   -36703.083    50.649749    251.14007 
   16400    142.43353   -1325.2994    133024.97    -34010.06    2690.0584   -36700.119    51.000599    252.36545 
   16450     136.5013   -908.40259    133043.72   -34063.555    2578.0198   -36641.575    51.110956    241.85465 
   16500    139.45867    -1103.347    133105.51    -34022.85    2633.8739   -36656.724    51.170646    247.09455 
   16550     140.6214   -1232.1869    133050.86   -34017.198    2655.8338   -36673.032    51.239178    249.15469 
   16600    140.02348   -1395.7447    133037.33   -34025.139    2644.5411    -36669.68    51.154454    248.09529 
   16650    140.60988   -1358.0973    132908.77   -34037.982    2655.6162   -36693.598    51.018497    249.13429 
   16700    140.43581   -1242.8083    132909.93   -34035.167    2652.3286   -36687.495    51.246706    248.82587 
   16750    140.63154   -1094.0557    132980.07   -33983.096    2656.0252   -36639.121    51.682119    249.17266 
   16800    141.99254    -1134.951    133089.13   -33952.751    2681.7298   -36634.481    51.875011    251.58411 
   16850    140.14975   -1227.9798    133202.27   -33961.644    2646.9259    -36608.57     52.12073    248.31902 
   16900    138.50913   -1004.2748    133313.01   -33960.916    2615.9405   -36576.857    52.240244    245.41214 
   16950    144.20759   -1349.9582     133367.8   -33960.789     2723.564   -36684.353    52.299927    255.50874 
   17000    139.48913   -1269.4096    133385.55   -33963.702    2634.4493   -36598.151    52.446341    247.14853 
   17050    144.19957   -1013.8266    133456.51   -33979.723    2723.4126   -36703.136    52.612732    255.49455 
   17100    140.87178   -1299.4255    133562.19    -33963.05    2660.5626   -36623.613    52.796034    249.59833 
   17150    142.92677   -1314.4017       133557   -33988.751     2699.374   -36688.125    52.827369    253.23938 
   17200    140.34372   -1321.3065    133547.02   -34007.063    2650.5894   -36657.653    52.885406     248.6627 
   17250    136.73534    -1568.225    133549.31   -33995.591      2582.44   -36578.031    52.991536    242.26932 
   17300     141.5685   -1398.6532    133454.93   -34011.561    2673.7211   -36685.282    52.947052    250.83278 
   17350    140.67972   -1038.4259    133463.91   -34056.021    2656.9353   -36712.956    53.198927    249.25803 
   17400    139.51675   -1341.2361    133421.11   -34092.754    2634.9709   -36727.725    53.369622    247.19746 
   17450    144.90523   -1358.3609    133387.49   -33991.307    2736.7399   -36728.047    53.526757    256.74483 
   17500    139.29302   -1133.8664    133392.68    -34036.52    2630.7454   -36667.265    53.519652    246.80105 
   17550    139.21916   -1367.8073    133445.93   -34008.502    2629.3504   -36637.852    53.613748    246.67018 
   17600    139.86116   -1257.2395    133431.22   -33997.633    2641.4755   -36639.108    53.925631    247.80768 
   17650    139.76978   -1325.6938     133403.4   -33982.559    2639.7496   -36622.309     54.13719    247.64578 
   17700    139.62912   -1503.5175    133345.25   -33990.627    2637.0932    -36627.72    54.179182    247.39657 
   17750    138.86148    -1231.931    133263.36   -33957.071    2622.5953   -36579.666    54.489806    246.03645 
   17800    140.89871   -1304.7683    133364.02   -34005.228    2661.0711   -36666.299    54.652116    249.64603 
   17850    140.96357   -1117.4258    133410.59   -34017.109    2662.2962   -36679.405    54.768337    249.76096 
   17900    138.20004   -755.44711    133520.32   -33978.393     2610.103   -36588.496    54.862711    244.86451 
   17950    139.99399   -1324.8985    133612.97   -33913.029    2643.9842   -36557.014    54.978627    248.04304 
   18000    141.44502    -1248.703    133633.83   -33991.278     2671.389   -36662.667    54.901133      250.614 
   18050    138.98568   -1521.5361    133590.65   -34019.881     2624.941   -36644.822     55.19225    246.25651 
   18100    141.89958   -1326.0117    133530.42   -33998.561    2679.9741   -36678.535    55.425108     251.4194 
   18150    140.87057   -1444.9566    133356.95   -33982.898    2660.5396   -36643.438    55.512562    249.59617 
   18200    144.00713     -1289.29     133264.5   -33955.492    2719.7781    -36675.27    55.563111    255.15357 
   18250    137.15206   -1389.6157    133195.19   -34010.617    2590.3103   -36600.928    55.969416    243.00767 
   18300    138.33327     -1577.05    133041.41   -33990.896    2612.6192   -36603.515    56.109725    245.10056 
   18350    140.29739   -1697.9726    132907.34   -34044.568    2649.7144   -36694.282    56.232067    248.58061 
   18400    138.37416   -1189.1828     132847.1   -34081.656    2613.3915   -36695.048    56.377238    245.17301 
   18450     137.9777   -1163.9631    132857.48   -34129.453    2605.9037   -36735.356     56.43997    244.47055 
   18500    140.59242     -1007.25    132832.16   -34172.227    2655.2864   -36827.513    56.548103    249.10334 
   18550    138.63508   -1183.8915    132933.92   -34163.143    2618.3193   -36781.463     56.87427    245.63531 
   18600    138.50891   -1373.8028    132936.52   -34104.744    2615.9363    -36720.68    57.199228    245.41175 
   18650    142.54326   -1212.8028    133006.07   -34082.584    2692.1309   -36774.715    57.260414    252.55988 
   18700     143.2491   -1153.8162    133013.86   -34060.661    2705.4616   -36766.122    57.425732    253.81048 
   18750    141.98624   -1207.2656     133052.3   -34046.311    2681.6107   -36727.921    57.576519    251.57294 
   18800    139.81798   -1298.0177    133024.21   -33994.156      2640.66   -36634.816    57.773649    247.73119 
   18850    145.61307   -1173.9624    133020.89   -33967.411    2750.1085   -36717.519    57.655762      257.999 
   18900    139.96511   -1440.1456    132999.32   -33995.541    2643.4387    -36638.98    57.616194    247.99187 
   18950    143.85169    -1150.855    132962.11   -34022.304    2716.8423   -36739.146    57.847992    254.87815 
   19000    142.08294   -1037.2821     132984.9   -34034.788     2683.437   -36718.226    58.097875    251.74427 
   19050    142.97149   -1025.8873    133045.09   -34007.403    2700.2185   -36707.622    58.129187    253.31861 
   19100    143.46506   -1087.9396    133104.53   -34045.129    2709.5403   -36754.669    58.238115    254.19312 
   19150    141.41334    -1055.417    133165.46   -34039.274    2670.7906   -36710.065    58.447096    250.55786 
   19200    139.79505   -1208.1384    133214.09   -34007.473    2640.2269     -36647.7    58.646134    247.69055 
   19250    140.70503   -1164.5488     133235.6   -33976.871    2657.4132   -36634.284    58.755762    249.30287 
   19300    143.65042   -951.00801       133242   -33919.797     2713.041   -36632.838     58.89651    254.52155 
   19350    142.41001   -1274.1526    133268.16   -34012.658    2689.6142   -36702.272    59.035386    252.32378 
   19400    140.08495   -953.43608    133317.36   -34070.921    2645.7022   -36716.623    59.228389    248.20421 
   19450    138.83381   -1089.5531    133389.31   -34054.723    2622.0726   -36676.796    59.193515    245.98742 
   19500    142.09363   -1164.9665    133364.01    -34041.94    2683.6389   -36725.579    59.274471    251.76321 
   19550    143.21506   -910.76036    133407.69   -34062.292    2704.8188   -36767.111    59.331367    253.75018 
   19600    138.00915   -1053.6544    133473.28   -34040.298    2606.4977   -36646.795    59.538065    244.52628 
   19650    139.97036   -1194.9819    133539.55   -34033.783    2643.5379   -36677.321    59.681069    248.00117 
   19700    139.38491   -1112.6299    133611.89   -34039.638    2632.4809   -36672.119    59.745795    246.96387 
   19750    138.74182    -983.6571    133609.92   -34083.156    2620.3352   -36703.491    59.760274    245.82443 
   19800    138.24253   -1132.9715    133646.17    -34118.68    2610.9054   -36729.585    59.935015    244.93978 
   19850    139.08096   -1228.1593    133614.29   -34155.866    2626.7403   -36782.606     59.84369    246.42532 
   19900    135.53902    -1343.914    133595.77   -34178.843    2559.8459   -36738.689    59.986003    240.14968 
   19950    139.47029   -1367.9237    133523.54   -34132.058    2634.0935   -36766.152    60.143622    247.11515 
   20000    139.37959   -1137.9043    133505.26   -34136.814    2632.3805   -36769.194    60.481224    246.95445 
   20050    138.90603   -1405.9371    133425.51   -34133.038    2623.4367   -36756.474    60.568751    246.11539 
   20100    140.59228   -1220.1362     133379.5   -34102.126    2655.2839   -36757.409     60.75673    249.10311 
   20150    139.62887   -1194.5143     133436.9   -34080.513    2637.0885   -36717.601    60.755632    247.39612 
   20200    140.98571    -1162.999    133532.69   -34063.233    2662.7142   -36725.948    60.822772    249.80018 
   20250    139.43894   -1269.0274    133552.91   -34094.371    2633.5013   -36727.872    61.160265     247.0596 
   20300     142.2182   -945.78873    133567.64   -34055.855    2685.9916   -36741.847    61.435871    251.98393 
   20350    140.77166   -1237.9263    133668.85   -34070.174    2658.6716   -36728.845    61.771216    249.42093 
   20400    139.03993   -1107.0997     133607.5   -34128.265    2625.9654    -36754.23    61.791414    246.35262 
   20450    139.72433   -1134.6544    133656.73   -34117.332    2638.8913   -36756.223    61.855164    247.56525 
   20500    140.16812    -1158.051    133645.57   -34073.652    2647.2729   -36720.925    62.127897    248.35156 
   20550    139.74186   -1253.2288    133665.64   -34067.632    2639.2225   -36706.855    62.359294    247.59632 
   20600    139.59692   -1101.1028    133641.82   -34111.731    2636.4851   -36748.216    62.177439    247.33952 
   20650    140.99374   -1227.3804    133595.66   -34099.474    2662.8659    -36762.34    62.400078    249.81441 
   20700    139.54636   -1191.8938    133605.21   -34094.074    2635.5301   -36729.604    62.427716    247.24993 
   20750    139.19755   -1202.4478     133669.6   -34086.594    2628.9423   -36715.537    62.442137     246.6319 
   20800    140.26622   -1112.7711    133767.58    -34058.46    2649.1257   -36707.586    62.576627    248.52539 
   20850    138.12531   -1086.4652    133834.88   -34062.641    2608.6916   -36671.332    62.706507    244.73209 
   20900     141.1621   -1253.1679    133805.14   -34071.045    2666.0457   -36737.091    63.100243    250.11272 
   20950    142.16585    -1163.666    133814.95   -34006.465    2685.0029   -36691.468    63.199197    251.89117 
   21000    139.86736    -1405.384    133747.17   -34051.769    2641.5926   -36693.361    63.428106    247.81868 
   21050    140.34262   -1118.7607    133720.83   -34072.739    2650.5685   -36723.308    63.974871    248.66074 
   21100    139.00131   -1107.0936    133702.94   -34053.006    2625.2361   -36678.242    64.240114     246.2842 
   21150    142.26359   -1068.5758    133744.21   -34043.194    2686.8488   -36730.043    64.573097    252.06434 
   21200    140.22899   -1165.7871    133809.24   -34016.103    2648.4225   -36664.525    64.858814    248.45942 
   21250    140.94284   -1177.1264    133768.77   -34002.674    2661.9047   -36664.579    65.024288    249.72423 
   21300    139.88907   -935.60222    133785.86   -34020.045    2642.0028   -36662.047    65.162968    247.85715 
   21350    139.25114   -1207.3083    133837.68   -34023.017    2629.9545   -36652.971     65.27389    246.72685 
   21400     137.7453   -1110.7971    133843.83   -34070.964    2601.5145   -36672.479    65.708558    244.05878 
   21450    139.41624   -1066.9645    133832.79   -34098.785    2633.0727   -36731.858    65.972257    247.01938 
   21500    138.46692   -1388.4176    133790.71   -34105.563    2615.1433   -36720.707    66.213335    245.33736 
   21550    141.00379   -1152.5144    133742.93   -34074.181    2663.0557   -36737.237    66.221106    249.83222 
   21600    141.45897   -1349.7104    133661.75   -33982.837    2671.6525   -36654.489    66.368956    250.63871 
   21650    137.68335   -1322.2176     133465.4   -34041.168    2600.3446   -36641.513    66.360056    243.94903 
   21700    140.33472   -1198.7516    133441.67   -33983.102    2650.4194   -36633.522    66.431343    248.64675 
   21750      142.059   -1496.3205    133507.81    -33984.38    2682.9849   -36667.365      66.6706    251.70185 
   21800    138.38514   -1301.4026    133394.77   -34037.554    2613.5988   -36651.153    66.680427    245.19246 
   21850    136.59862    -1341.476    133280.13   -34091.554    2579.8579   -36671.411    66.630626    242.02709 
   21900    140.29257    -1237.086    133275.45    -34076.54    2649.6233   -36726.163       66.743    248.57207 
   21950    135.66316   -1156.0994    133267.28   -34074.595    2562.1903   -36636.785    66.951007    240.36962 
   22000    137.74489   -1427.3257    133266.75    -34051.51    2601.5069   -36653.017    67.072769    244.05807 
   22050    140.87308   -1452.7936    133212.31   -34072.316    2660.5871   -36732.903    67.146678    249.60062 
   22100    141.54524   -1279.8409    133096.46   -33999.296    2673.2818   -36672.578    67.074084    250.79157 
   22150    140.96899   -1151.4457    133030.05   -34035.232    2662.3985   -36697.631    67.076972    249.77056 
   22200    141.44269    -1433.567       132997   -34036.411     2671.345   -36707.756    66.934101    250.60987 
   22250    132.82706   -1242.4811    132929.82   -34074.967    2508.6266   -36583.594    67.051146    235.34458 
   22300    141.34325   -1259.1574    133033.45   -34007.086    2669.4669   -36676.553    67.168997    250.43367 
   22350    139.51046   -1289.3519    133051.51   -33976.022    2634.8521   -36610.874    67.382196    247.18632 
   22400    140.12674   -1338.2634    133079.28   -33949.447    2646.4915   -36595.939    67.406596    248.27826 
   22450    137.47023   -1460.3499    132944.74   -34017.097    2596.3194   -36613.416    67.292836    243.57141 
   22500    141.40665   -1098.5844     132945.4   -33915.643    2670.6644   -36586.308    67.391846    250.54601 
   22550    144.36481    -1239.632    132886.04   -33920.049    2726.5333   -36646.583    67.834517    255.78731 
   22600    138.88632   -1039.5106    132888.57   -33994.564    2623.0643   -36617.628    67.879348    246.08046 
   22650    139.06656   -1103.6674    132907.44   -34020.448    2626.4684   -36646.917    67.979358    246.39981 
   22700    140.29105   -1216.2919    132890.77    -34042.33    2649.5946   -36691.925    68.241735    248.56938 
   22750    140.13414   -1307.1969     132929.6   -34072.562    2646.6312   -36719.194    68.110031    248.29137 
   22800    141.41196   -838.11614    132964.06   -34033.582    2670.7647   -36704.347    68.472327    250.55543 
   22850    139.39953   -1158.4665    133068.16   -34041.317    2632.7571   -36674.074    68.601298    246.98977 
   22900     142.3183   -1076.1931    133156.26   -34001.762    2687.8822   -36689.644    68.716647    252.16129 
   22950    140.88496   -1051.8911    133253.21   -33966.904    2660.8114   -36627.715    69.027852    249.62167 
   23000    138.86098   -1339.9365    133234.52   -34038.889    2622.5857   -36661.475    69.229052    246.03556 
   23050    136.87062   -1378.4293    133162.85   -34040.633    2584.9951   -36625.628     69.21478    242.50903 
   23100    138.27948   -1234.9811    133084.79   -34015.423    2611.6033   -36627.026    69.383742    245.00526 
   23150    140.21341   -1395.0913    132972.89   -34003.809    2648.1283   -36651.938    69.319874    248.43182 
   23200    139.96489   -1350.9425    132869.25   -33991.143    2643.4347   -36634.577    69.331861    247.99149 
   23250    141.87299   -1172.8359    132867.24    -33951.33    2679.4718   -36630.802     69.14616    251.37228 
   23300    141.74563   -1080.2708    132810.87   -34019.568    2677.0665   -36696.635    69.344734    251.14662 
   23350    140.45884   -1099.8327    132798.77   -33923.623    2652.7635   -36576.387    69.527374    248.86666 
   23400    142.57463   -1046.0429    132812.37   -33924.832    2692.7233   -36617.556    69.677229    252.61546 
   23450    143.05312   -1077.1828    132876.53   -33902.301    2701.7602   -36604.061    69.745419    253.46324 
   23500    142.09125    -1331.037    132841.17   -33945.534    2683.5939   -36629.128    69.701498    251.75899 
   23550    139.24349   -1237.8922    132771.73   -33967.772      2629.81   -36597.582    69.705676     246.7133 
   23600    140.75476   -1322.1632    132678.46   -33967.177    2658.3525    -36625.53    69.927815    249.39099 
   23650    140.45963   -1390.1802    132643.43   -33956.825    2652.7786   -36609.604    70.109242    248.86808 
   23700    143.10164   -972.98623     132689.7   -33958.762    2702.6766   -36661.439    70.255185    253.54921 
   23750    143.48439   -1088.4711    132733.66   -33910.191    2709.9053   -36620.096    70.476674    254.22737 
   23800    143.69065   -1412.3933    132639.85   -33928.104    2713.8009   -36641.905    70.606783    254.59283 
   23850    140.88342   -1367.2509    132554.93   -33931.189    2660.7823   -36591.972    70.984582    249.61894 
   23900    141.28973   -1159.2607    132518.76   -33906.011    2668.4562   -36574.467    71.182845    250.33885 
   23950    142.63171   -947.14638    132556.25   -33898.878    2693.8012    -36592.68    71.292078    252.71658 
   24000    140.22702   -1283.4385     132612.7   -33956.255    2648.3853    -36604.64    71.234745    248.45592 
   24050    138.63978   -1294.7166     132593.6   -34001.249    2618.4081   -36619.657    71.513016    245.64364 
   24100    139.87936   -1278.1758    132531.04   -34018.406    2641.8193   -36660.225    71.693779    247.83994 
   24150    141.95195   -1200.7473    132492.75   -34026.382    2680.9631   -36707.345     71.86358    251.51218 
   24200    139.63009   -1047.1483    132578.23   -34027.953    2637.1115   -36665.065    72.042984    247.39828 
   24250    139.16787   -1209.5674    132621.86   -34109.967    2628.3818   -36738.348    71.988418    246.57932 
   24300    140.27181    -1469.748    132638.34   -34046.736    2649.2313   -36695.967    72.229424    248.53529 
   24350    140.74218    -1235.804    132619.85   -34016.558    2658.1148   -36674.673     72.10937    249.36869 
   24400    138.61377    -1154.163    132541.53   -34032.633    2617.9169    -36650.55    72.005527    245.59756 
   24450    141.76555   -1190.4375    132480.39   -34010.831    2677.4427   -36688.274    72.319242    251.18192 
   24500    140.49483   -1016.9269    132455.25   -34098.207    2653.4432    -36751.65    72.523744    248.93043 
   24550       138.63   -1017.9405    132487.42   -34087.166    2618.2234   -36705.389    72.805033    245.62631 
   24600    138.08982   -1049.7743    132459.25   -34116.451    2608.0213   -36724.473    72.906539    244.66921 
   24650     135.3007   -1102.1917    132474.37    -34121.39    2555.3448   -36676.735    73.098384    239.72742 
   24700    137.52061     -1367.25    132562.46   -34168.221     2597.271   -36765.492    73.281903    243.66068 
   24750    138.36556   -1113.1614    132657.18   -34145.115    2613.2291   -36758.344    73.344048    245.15778 
   24800    135.29533   -1197.8983    132720.26   -34155.027    2555.2434   -36710.271    73.471532     239.7179 
   24850    139.19841   -1352.7742    132728.88   -34136.567    2628.9585   -36765.525    73.604141    246.63342 
   24900    138.90372   -1275.8755    132716.97   -34092.374    2623.3929   -36715.767    73.714499    246.11129 
   24950    136.36362   -1199.3703    132748.58    -34154.09    2575.4196    -36729.51     73.81508    241.61071 
   25000     138.9127   -1171.9215    132764.79   -34140.521    2623.5626   -36764.084    74.053745    246.12721 
   25050    137.33837   -1173.8175    132734.99   -34171.577    2593.8291   -36765.406    73.965811    243.33778 
   25100    137.03346   -1216.0863    132784.77    -34167.03    2588.0704   -36755.101    73.825214    242.79754 
   25150    139.49098   -1393.6047     132812.5    -34124.01    2634.4842   -36758.494    74.001922     247.1518 
   25200    138.43581   -955.91397    132871.82   -34104.804    2614.5558    -36719.36    74.221168    245.28224 
   25250    138.63455    -943.6944    132945.27   -34107.013    2618.3094   -36725.322    74.265299    245.63438 
   25300    139.71997   -1119.5574    133025.45   -34087.777     2638.809   -36726.586    74.603338    247.55753 
   25350    138.97384   -1304.3887    133035.54   -34137.279    2624.7172   -36761.996    74.850162    246.23552 
   25400    136.89314   -1327.1521    133015.01   -34104.899    2585.4203   -36690.319     75.14629    242.54892 
   25450    138.26856   -1269.4768     132937.7   -34130.807     2611.397   -36742.204    75.203532     244.9859 
   25500    142.25715   -1072.5628    132897.86     -34085.2    2686.7272   -36771.928    75.320064    252.05294 
   25550    139.38234   -1160.6981    132841.25   -34100.063    2632.4323   -36732.495    75.394287    246.95931 
   25600    142.35639   -1356.3931    132761.26   -34071.026    2688.6016   -36759.628    75.462896    252.22878 
   25650    141.12077   -1304.8684    132666.99   -34107.042    2665.2651   -36772.307    75.441886    250.03949 
   25700    142.18349   -1154.8544    132622.73   -34078.768     2685.336   -36764.104    75.832461    251.92242 
   25750    141.02581   -1209.1833    132623.03   -34085.271    2663.4716   -36748.742    76.013359    249.87123 
   25800    134.65176   -931.01268    132657.78   -34162.609    2543.0887   -36705.698    76.166073    238.57762 
   25850    140.41184   -1022.9875    132699.35   -34106.288    2651.8759   -36758.164    76.163273     248.7834 
   25900    140.72563   -1159.2695    132728.58   -34064.207    2657.8022   -36722.009     76.47936    249.33936 
   25950    139.22544   -1148.8066    132705.43   -34057.066     2629.469   -36686.535    76.543902    246.68131 
   26000    138.59236   -1332.6738    132769.27   -34108.836    2617.5124   -36726.349    76.874848    245.55961 
   26050     137.1813   -1234.9798     132820.1   -34098.603    2590.8626   -36689.465     76.95839    243.05948 
   26100    140.95164   -1183.4195    132935.82   -34061.104    2662.0708   -36723.175    77.098369    249.73982 
   26150    137.54333   -1214.2671    132956.26   -34032.915       2597.7   -36630.615    77.374698    243.70093 
   26200    140.71481   -1107.5814    132984.84   -34009.422    2657.5979    -36667.02    77.697681    249.32019 
   26250    137.24657   -1037.6622    132942.92   -34044.462    2592.0954   -36636.557    77.824786    243.17514 
   26300    138.94396   -1128.1938    132906.61   -34032.474    2624.1529   -36656.627    77.978059    246.18259 
   26350    139.34899   -1135.9664    132904.92    -34089.77    2631.8024   -36721.572    78.253228    246.90022 
   26400    137.92008   -1310.7855    132768.54   -34123.914    2604.8156    -36728.73     78.25669    244.36847 
   26450    138.10103   -1103.5919    132753.16   -34070.685     2608.233   -36678.918     78.11669    244.68907 
   26500     139.5107   -1125.4502    132702.92    -34054.05    2634.8565   -36688.906    78.161673    247.18673 
   26550    139.33902    -974.2968    132754.35   -34014.668    2631.6142   -36646.283    78.449155    246.88256 
   26600    139.08812   -1234.3841    132896.79     -33998.9    2626.8757   -36625.776    78.853676    246.43802 
   26650    139.75498   -1110.9817    132909.14   -33974.494    2639.4702   -36613.965    78.956074    247.61956 
   26700    141.63769    -1250.945    132884.09   -34007.566    2675.0279   -36682.593     78.97529    250.95537 
   26750    138.95298   -1442.2056    132826.36   -33967.494    2624.3232   -36591.817    78.983162    246.19856 
   26800    137.12603   -936.06908    132825.88   -34016.998    2589.8187   -36606.817    79.082297    242.96155 
   26850    138.40302   -987.79595    132833.68   -34003.733    2613.9366   -36617.669    79.165945    245.22415 
   26900     140.1876    -1220.557    132879.14    -33960.71    2647.6409   -36608.351    79.210265    248.38609 
   26950    141.05241   -1051.9817    132935.01   -33976.186    2663.9741    -36640.16    79.486242    249.91837 
   27000    138.95933   -1281.0651    132957.15   -33994.306    2624.4432    -36618.75    79.873356    246.20982 
   27050    139.21139     -1252.38    133014.45   -34044.912    2629.2037   -36674.116    80.085668    246.65642 
   27100    140.69804    -1136.431    132967.71    -34024.88    2657.2812   -36682.161    80.423615    249.29049 
   27150    139.94957   -1060.6813    132905.14   -33962.779    2643.1453   -36605.924    80.372873    247.96434 
   27200    140.46432   -1334.4242    132890.71   -33989.857     2652.867   -36642.724    80.530383    248.87637 
   27250    139.25217   -1402.7819    132899.25   -34046.172    2629.9739   -36676.146    80.567303    246.72867 
   27300    140.31394   -1277.7306    132844.42   -34011.099    2650.0269   -36661.126    80.518169    248.60993 
   27350    140.07771   -1279.3113    132849.29   -34009.094    2645.5653   -36654.659    80.829417    248.19137 
   27400    141.35241   -1087.9969    132846.12   -34005.066      2669.64   -36674.706    80.904049    250.44991 
   27450     135.2637   -1203.8375    132918.13   -34088.443    2554.6459   -36643.089    81.136658    239.66185 
   27500    139.08219   -1417.6342    132887.39   -34042.715    2626.7636   -36669.479    81.233183     246.4275 
   27550    139.11858   -1287.5517    132880.43   -34005.232     2627.451   -36632.682    81.223014    246.49199 
   27600    138.88891   -1179.8041    132847.78   -33998.507    2623.1132   -36621.621    81.348594    246.08505 
   27650    138.06802   -1177.1207    132898.83   -34033.487    2607.6095   -36641.096    81.490867    244.63058 
   27700    139.65066   -1187.9561    132944.37   -34014.293    2637.4999   -36651.793    81.656381    247.43472 
   27750    138.05847   -948.87932    132997.57   -34019.378    2607.4292   -36626.807    81.697192    244.61366 
   27800    139.03559   -1283.9837    133022.81   -34062.436    2625.8834   -36688.319    81.672024    246.34493 
   27850    137.06905    -1497.834    132985.83   -34109.431    2588.7426   -36698.174    81.869476     242.8606 
   27900    138.98436   -950.13765    132951.04   -34031.402     2624.916   -36656.318    81.949203    246.25417 
   27950     142.0016   -1214.6201    133003.97    -34017.62    2681.9009   -36699.521    82.095879    251.60016 
   28000    142.72652   -1420.1807    132987.05    -34023.08    2695.5918   -36718.672    82.068593    252.88456 
   28050    141.32956   -1257.8725    132956.84   -33983.427    2669.2083   -36652.635    82.019955    250.40942 
   28100    137.41171   -1061.0227    133035.77   -33958.037    2595.2142   -36553.251    82.194871    243.46773 
   28150    136.76882   -1268.6259    133063.61   -33971.241    2583.0723   -36554.313    82.545641    242.32865 
   28200    137.08831   -1057.9447    132978.62   -33956.553    2589.1064   -36545.659     82.52136    242.89473 
   28250    138.98856   -1263.7778    132940.63   -33991.536    2624.9952   -36616.531    82.886478     246.2616 
   28300    139.41338   -1299.2873    132859.62    -34013.17    2633.0185   -36646.188    83.071909    247.01431 
   28350    141.94258   -1123.6394    132768.08    -33993.29    2680.7861   -36674.076    83.249927    251.49557 
   28400    137.10492   -1154.7479     132685.8   -34009.747    2589.4201   -36599.167    83.353317    242.92416 
   28450    140.46707    -1064.038    132605.94   -33975.474     2652.919   -36628.393    83.277827    248.88125 
   28500     137.7894   -1152.2886    132566.07   -34004.501    2602.3475   -36606.848    83.684113    244.13693 
   28550    140.12567   -1308.5689    132537.87   -34000.197    2646.4713   -36646.669    83.802083    248.27636 
   28600    138.02969    -1380.643    132525.15   -34009.558    2606.8857   -36616.444    84.324572    244.56267 
   28650    142.04442   -1111.6076    132567.54   -34000.545    2682.7096   -36683.255    84.351712    251.67602 
   28700    141.33588   -1380.4408    132599.53   -33959.614    2669.3277   -36628.942    84.448799    250.42062 
   28750    143.98071   -1059.2556     132555.3   -33992.055    2719.2792   -36711.335    84.373711    255.10677 
   28800    140.67185   -970.23584    132604.32   -33999.628    2656.7867   -36656.415    84.591014    249.24409 
   28850    141.88649   -1240.5777    132629.26   -34012.793    2679.7268   -36692.519    84.774709     251.3962 
   28900    140.01109   -1019.6179    132560.41   -34057.146    2644.3072   -36701.453     85.03773    248.07334 
   28950    139.56334   -1079.9753    132611.62   -34058.702    2635.8508   -36694.552    85.234742    247.28001 
   29000      140.987   -1474.0308    132585.93   -34034.484    2662.7387   -36697.222    85.457588    249.80247 
   29050    137.95322   -1049.9586    132686.87   -34088.947    2605.4414   -36694.388     85.49333    244.42718 
   29100    141.46529   -1171.0654    132705.06   -34052.063    2671.7718   -36723.835    85.675237    250.64991 
   29150    139.04894   -1250.6243    132664.18   -34106.525    2626.1356   -36732.661    85.826869    246.36859 
   29200    135.35769   -1176.9603    132632.62   -34074.459    2556.4213    -36630.88     85.97011     239.8284 
   29250    141.17561   -1151.7958    132684.86   -34089.531    2666.3008   -36755.831     85.74654    250.13665 
   29300    138.45715   -1088.7695    132770.35   -34140.421    2614.9589   -36755.379    85.698543    245.32006 
   29350    138.05251   -930.28978    132841.59   -34140.707    2607.3166   -36748.023    86.009732     244.6031 
   29400     139.0245   -1421.2682    132892.72   -34111.732     2625.674   -36737.406    86.352237    246.32529 
   29450     137.9983   -1096.6925    132790.22   -34050.776    2606.2928   -36657.069    86.506614    244.50705 
   29500    141.05688   -991.60114    132818.74   -34062.703    2664.0584   -36726.762     86.71754    249.92629 
   29550    143.64041   -944.24188    132895.32   -34023.851     2712.852   -36736.703    86.854921    254.50381 
   29600    140.72811   -1130.5783    132871.52   -34031.562    2657.8491   -36689.411    87.039624    249.34376 
   29650    139.84571   -1089.1604    132856.74   -34062.906    2641.1837    -36704.09    87.420208    247.78031 
   29700    140.64024   -1360.3756    132861.68   -34034.682    2656.1896   -36690.871     87.52595    249.18808 
   29750    141.18132     -1255.34    132818.24    -34062.98    2666.4086   -36729.389    87.665989    250.14676 
   29800    141.27818   -1254.0294    132819.66   -34063.584     2668.238   -36731.822    87.706453    250.31839 
   29850     138.9251   -1017.6739    132802.49   -34034.512    2623.7967   -36658.309     87.86932    246.14917 
   29900    142.41722   -1076.9616    132777.61   -34060.135    2689.7503   -36749.885    87.960619    252.33655 
   29950    142.17499   -1232.2294    132716.94   -34093.307    2685.1756   -36778.482    88.166438    251.90737 
   30000    138.26865   -1179.9436    132756.03   -34096.487    2611.3988   -36707.886    88.037734    244.98607 
   30050    137.72234   -1277.3505    132612.88   -34089.973    2601.0808   -36691.054    88.314448     244.0181 
   30100    138.63393   -1177.5003    132510.24    -34085.81    2618.2976   -36704.107    88.247316    245.63327 
   30150    137.94985   -1235.8078    132497.98   -34075.246    2605.3778   -36680.624    88.452544    244.42121 
   30200    139.66674   -1281.2587    132464.47   -34053.123    2637.8036   -36690.926    88.766833    247.46321 
   30250    140.28538    -1185.068    132469.71   -33996.996    2649.4876   -36646.483    88.880332    248.55933 
   30300    138.50953   -1191.9899    132452.42   -33993.456    2615.9481   -36609.404    88.737687    245.41285 
   30350    139.39395    -1234.881    132395.87   -34083.039    2632.6516   -36715.691    88.563318    246.97988 
   30400     138.4345   -1419.7991    132345.39   -34079.924     2614.531   -36694.455    88.669352    245.27991 
   30450      136.711   -1127.4849    132302.57   -34017.695    2581.9804   -36599.675    89.041804    242.22621 
   30500    137.93349   -1252.7402    132310.09    -34049.98    2605.0687   -36655.048    88.830878    244.39222 
   30550    142.04472   -1149.3032    132306.65   -33974.718    2682.7152   -36657.433    88.871986    251.67656 
   30600    139.88377   -1221.9958    132363.06   -33980.501    2641.9025   -36622.404    89.214946    247.84775 
   30650     137.8522   -1113.3916    132390.91   -34014.203    2603.5335   -36617.737    89.232396    244.24819 
   30700    141.38401   -1062.2469    132434.74   -33980.162    2670.2368   -36650.399    89.598907     250.5059 
   30750    140.89651   -937.75832    132521.78   -33928.755    2661.0297   -36589.785    89.866202    249.64215 
   30800     143.8972    -1214.992    132647.29   -33944.619    2717.7019   -36662.321    89.966059     254.9588 
   30850    141.76397    -1083.589    132627.49   -33931.719    2677.4128   -36609.132    89.955311    251.17911 
   30900    142.70052   -1252.6726    132611.18   -33908.175     2695.101   -36603.276    90.211989    252.83851 
   30950    142.51666   -1060.0369    132533.38   -33894.154    2691.6284   -36585.782    90.267873    252.51274 
   31000    146.91908   -1445.6468    132526.61   -33882.663    2774.7743   -36657.437    90.611425    260.31299 
   31050    141.61326   -1210.5725    132494.06   -33892.687    2674.5665   -36567.254    90.840262    250.91209 
   31100    139.07114   -987.57209    132526.82   -33932.613     2626.555   -36559.168    91.237569    246.40793 
   31150    138.10648   -1148.7912    132539.56    -33939.09    2608.3359   -36547.426    91.200927    244.69873 
   31200      140.447   -1303.0199    132494.43    -33953.06    2652.5399     -36605.6    91.415254    248.84568 
   31250    140.84329   -932.53372    132407.56   -34040.394    2660.0244   -36700.418    91.730867    249.54783 
   31300    135.31395   -1355.0751    132377.18   -34102.533     2555.595   -36658.128     92.04786    239.75088 
   31350     140.5434   -1269.9721    132279.24   -34064.058    2654.3606   -36718.418    92.172253    249.01649 
   31400    137.17555   -1042.0955    132296.82   -34059.346    2590.7541     -36650.1    92.511734     243.0493 
   31450    144.02191   -1301.1542    132382.51   -33984.425    2720.0573   -36704.482    92.702074    255.17977 
   31500    143.29299   -1034.2834    132473.11   -33973.894    2706.2905   -36680.185    92.797401    253.88825 
   31550    140.09049   -1085.1373    132568.35   -33945.794    2645.8067     -36591.6    93.191721    248.21402 
   31600     143.4942   -1181.9612    132652.97   -33949.074    2710.0906   -36659.165    93.238268    254.24476 
   31650    142.50508   -1184.0451    132614.17   -33974.895    2691.4098   -36666.305    93.348201    252.49223 
   31700    139.44146   -1261.1264    132659.55     -33974.6    2633.5489   -36608.149    93.670622    247.06406 
   31750    141.33962   -1569.6367    132666.91   -33963.223    2669.3983   -36632.621    93.826359    250.42724 
   31800    137.97264   -1224.6656    132606.45   -34008.089    2605.8083   -36613.897    93.740538     244.4616 
   31850    141.58366   -1227.2428     132633.2    -34042.74    2674.0074   -36716.748    94.046647    250.85964 
   31900    142.45811   -1362.0245    132663.33   -33988.048    2690.5226   -36678.571    94.355561      252.409 
   31950    137.89411   -1161.3683    132655.38   -34003.532    2604.3251   -36607.857    94.295171    244.32246 
   32000    140.89428   -1164.5283    132618.58   -34012.702    2660.9874   -36673.689    94.176948    249.63818 
   32050    141.00406   -1036.6128    132594.25   -33967.221    2663.0609   -36630.282    94.260626     249.8327 
   32100    143.71808   -1280.7518    132578.58    -33971.62     2714.319   -36685.939    94.555092    254.64143 
   32150    143.96399   -1004.4224    132530.94   -33987.517    2718.9634    -36706.48    94.738632    255.07714 
   32200    140.15505   -1307.4996    132540.39   -33987.208     2647.026   -36634.234    95.119384     248.3284 
   32250    138.69564   -1118.1888    132562.65    -34027.67    2619.4631   -36647.133    95.381806    245.74261 
   32300    138.27955   -1053.2171    132553.56   -34003.652    2611.6046   -36615.256    95.340957    245.00537 
   32350    141.14858   -1151.9955    132523.74   -34068.759    2665.7902   -36734.549    95.302479    250.08875 
   32400    141.96176   -1001.2754    132537.86   -34060.844    2681.1483   -36741.992     95.22858    251.52955 
   32450    139.37587   -1088.8015     132526.1   -34095.741    2632.3101   -36728.051    95.258757    246.94785 
   32500     137.6659   -1045.4758    132578.77   -34118.632     2600.015   -36718.647    95.390107    243.91811 
   32550    141.46163   -1120.8449    132612.77   -34032.854    2671.7026   -36704.556    95.570249    250.64342 
   32600    140.10843    -943.6316    132626.93   -34069.525    2646.1455    -36715.67    95.801986     248.2458 
   32650    138.24422   -1169.4099     132602.8   -34067.176    2610.9373   -36678.113    96.020995    244.94277 
   32700    139.42471   -1222.0753    132577.15   -34119.721    2633.2326   -36752.953    96.117245    247.03438 
   32750    141.11907   -1305.4294    132512.48   -34099.772    2665.2329   -36765.005    96.168434    250.03646 
   32800    138.36189   -895.40842    132611.57   -34126.385    2613.1597   -36739.545    96.017531    245.15127 
   32850    138.10791   -989.32574    132703.03   -34112.219    2608.3629   -36720.582    96.068267    244.70126 
   32900    139.32749   -1376.0497    132641.41   -34141.061    2631.3965   -36772.457    95.962622    246.86213 
   32950    138.43617   -1184.3044    132620.71   -34076.779    2614.5626   -36691.342    95.934124    245.28288 
   33000    139.68098   -1169.0741    132610.41   -34022.556    2638.0726   -36660.629    96.157798    247.48845 
   33050    142.87676   -1293.4005    132631.02   -33954.918    2698.4295   -36653.348    96.075084    253.15078 
   33100    140.34044   -1048.3814    132603.42   -34055.947    2650.5275   -36706.474    96.202148    248.65689 
   33150    140.65155   -1204.5114    132675.72   -34104.748    2656.4031   -36761.151    96.125459    249.20811 
   33200    138.32224   -1116.3354    132665.97   -34105.456    2612.4109   -36717.867    96.455961    245.08102 
   33250    140.72592   -927.79956    132706.27   -34094.773    2657.8078   -36752.581    96.788461    249.33988 
   33300    138.42598   -1422.0783     132655.7   -34022.829    2614.3701   -36637.199    97.101468    245.26482 
   33350    137.90342   -1019.9043       132648   -34043.414    2604.5008   -36647.915    97.132246    244.33894 
   33400    137.07845   -1185.2641    132684.44   -34003.865    2588.9201   -36592.785    97.658238    242.87725 
   33450    141.90812   -1046.0548    132830.47   -33979.647    2680.1352   -36659.782    97.915968    251.43451 
   33500    142.02498   -1151.4746    132879.12   -33958.268    2682.3423   -36640.611    97.912744    251.64157 
   33550    143.27795   -1350.0696    132889.14   -33941.745    2706.0065   -36647.751    98.053177     253.8616 
   33600    142.67471   -1285.1563    132800.92   -33961.249    2694.6134   -36655.862    98.334443    252.79277 
   33650    140.36678   -1189.1341    132776.51   -33928.338     2651.025   -36579.363    98.322098    248.70356 
   33700    142.26687   -928.17305    132721.14   -33888.802    2686.9108   -36575.713    98.440388    252.07016 
   33750     143.5695   -1027.9758     132802.5   -33934.911    2711.5128   -36646.424    98.754006    254.37818 
   33800    140.58812   -959.24569    132839.92   -33899.431    2655.2053   -36554.637    99.060995    249.09573 
   33850    141.13705   -1065.7071    132845.64   -33963.691    2665.5726   -36629.264    98.952246    250.06833 
   33900    140.54187   -1312.4821     132841.3   -33979.565    2654.3317   -36633.896    99.013418    249.01378 
   33950    139.76874   -1248.3029    132799.58   -34005.242    2639.7302   -36644.973    99.008926    247.64395 
[...]
   92000    141.67537   -1048.9809    133475.56    -34032.59    2675.7395    -36708.33    273.12622    251.02213 
   92050    141.79651   -1037.6579    133461.22   -34029.787    2678.0273   -36707.814    272.92205    251.23677 
   92100     143.9868   -1220.5835    133496.88   -34034.003    2719.3941   -36753.397    272.75188    255.11755 
   92150    139.37518   -1111.9861    133483.66   -34047.279    2632.2972   -36679.577    272.90135    246.94663 
   92200    142.80695   -1370.2943    133422.22   -34010.164     2697.111   -36707.275    273.07802    253.02708 
   92250    138.58986   -1200.1594    133428.77    -34041.23    2617.4652   -36658.696    272.62267    245.55518 
   92300    140.95306   -1354.4519    133364.12   -33972.859    2662.0976   -36634.957    272.19553    249.74233 
   92350    144.88589   -1345.5655    133258.34   -33995.717    2736.3747   -36732.092    271.96268    256.71057 
   92400    141.94427   -962.65598    133235.16   -34003.832     2680.818    -36684.65    272.43785    251.49857 
   92450    142.99524   -1017.0938     133156.2   -34002.289     2700.667   -36702.956     272.5016    253.36068 
   92500    140.20275    -1377.575    133183.57   -34048.732    2647.9269   -36696.659    272.04236    248.41292 
   92550    139.27797   -1446.4768    133122.55   -34070.004    2630.4612   -36700.465    271.86433    246.77439 
   92600    138.66386   -1356.3061    132947.55   -34053.782    2618.8629   -36672.645    271.61121    245.68631 
   92650     140.9549   -1095.8434     133031.8   -33981.529    2662.1323   -36643.661    271.96777    249.74559 
   92700    141.24014   -1370.7021    133011.72   -33965.318    2667.5195   -36632.838    272.44627    250.25099 
   92750    144.12692   -1125.0446     133026.2   -33995.248    2722.0405   -36717.289    272.22762    255.36582 
   92800    142.91316   -938.83771    133158.08   -33957.168    2699.1169   -36656.285    272.47168    253.21526 
   92850     144.2566   -1453.2964    133192.06   -33993.928    2724.4896   -36718.417     272.9432    255.59558 
   92900    140.67096    -1179.223    133197.21   -33971.216    2656.7698   -36627.986     272.9734    249.24251 
   92950    141.86205   -1291.8715    133219.52   -33986.752    2679.2651   -36666.017    273.08591    251.35289 
   93000    141.13097   -1387.0478     133197.9    -34000.16    2665.4577   -36665.617    273.51438    250.05756 
   93050    138.08151    -1464.756    133189.33   -34010.899    2607.8643   -36618.763    273.76739    244.65448 
   93100    142.61834   -1197.0288    133140.97   -33969.706    2693.5487   -36663.255    273.61546    252.69289 
   93150    142.72739    -1070.084    133098.38    -34006.57    2695.6083   -36702.178    273.70457    252.88611 
   93200    146.19107   -846.84176     133054.3    -33996.86    2761.0249   -36757.885    273.90569    259.02311 
   93250    143.96049    -1086.625    133086.39    -34002.05    2718.8972   -36720.947    274.14641    255.07094 
   93300    140.67737   -978.86776    133136.86   -34067.371    2656.8907   -36724.261    274.39397    249.25385 
   93350    141.55675    -1384.096    133202.55   -34051.924    2673.4991   -36725.423    274.67567    250.81195 
   93400    137.98643    -1163.136    133195.84   -34039.678    2606.0686   -36645.746    274.46423    244.48602 
   93450    143.09602   -1280.9508    133158.72   -33992.214    2702.5705   -36694.785    274.30236    253.53926 
   93500    141.16696   -1320.7853    133145.07   -33971.605    2666.1374   -36637.742    274.54831    250.12132 
   93550    144.03507   -1363.2369    133134.78   -34030.414    2720.3057    -36750.72    275.09861    255.20307 
   93600    142.61002   -1485.3304     133101.7   -34046.129    2693.3917   -36739.521    274.76139    252.67816 
   93650     137.9586   -1218.6163    133046.39   -34075.328    2605.5429   -36680.871    274.80861    244.43671 
   93700    140.50151   -804.52787    133084.79   -34066.102    2653.5694   -36719.671    275.38634    248.94227 
   93750     141.9701   -1525.1694    133110.36    -34041.39    2681.3058   -36722.695    275.83866    251.54434 
   93800    140.49239   -1403.2217    133078.43   -34093.812    2653.3973    -36747.21    275.73286    248.92612 
   93850    137.51712   -1283.9965    133020.96   -34133.132    2597.2051   -36730.337    275.63454     243.6545 
   93900    137.63785   -1336.1869     133026.4   -34113.678    2599.4853   -36713.164    275.46358    243.86841 
   93950    139.00959   -1353.0177    133025.91   -34094.698    2625.3924   -36720.091    275.52209    246.29886 
   94000    138.78091   -967.41055    133045.72   -34092.747    2621.0735   -36713.821    275.70381    245.89369 
   94050    139.78094   -1026.4498    133077.62    -34063.66    2639.9606   -36703.621    275.80324    247.66557 
   94100    139.74099   -1061.8687     133087.2   -34122.561     2639.206   -36761.767    275.67662    247.59477 
   94150    138.53237   -1198.0208    133069.26   -34135.846    2616.3794   -36752.226    275.67596    245.45332 
   94200    138.28451   -1412.8564       133033   -34103.429    2611.6983   -36715.127    275.71433    245.01417 
   94250    137.26342   -1336.2931    133025.33   -34126.365    2592.4135   -36718.779    275.41049    243.20498 
   94300    138.70178   -1113.0383    133035.97   -34144.931    2619.5789    -36764.51    275.49228    245.75348 
   94350    140.17864   -1067.8318    133039.97    -34136.86    2647.4716   -36784.331    275.70699    248.37021 
   94400    140.51155     -913.804    133131.52   -34078.725     2653.759   -36732.484    275.83076    248.96005 
   94450    138.40655   -1259.8758    133126.01   -34097.581    2614.0032   -36711.584    276.21296     245.2304 
   94500    139.77563   -1318.5628     133112.5   -34107.119    2639.8602    -36746.98    276.35882    247.65615 
   94550    138.60628    -1208.276    133170.12   -34118.802    2617.7754   -36736.578    276.67925    245.58429 
   94600    140.75765   -1266.9802    133167.02   -34119.909    2658.4071   -36778.316    276.53454    249.39611 
   94650    143.84195   -874.38156     133202.9   -34076.054    2716.6584   -36792.713    277.29936    254.86091 
   94700    142.18612   -871.25434    133261.24   -34107.098    2685.3857   -36792.484    277.28134    251.92708 
   94750     141.1254   -1116.2831     133251.5   -34139.044    2665.3526   -36804.396    277.46204     250.0477 
   94800    141.31987   -1121.3313     133312.9   -34131.385    2669.0253   -36800.411    278.00343    250.39224 
   94850    141.00314    -1311.185    133340.28   -34147.138    2663.0435   -36810.181    277.94976    249.83107 
   94900    139.48681    -1312.278    133334.18   -34133.301    2634.4054   -36767.707    278.23733    247.14441 
   94950    138.90327   -1176.5752    133310.06    -34185.76    2623.3844   -36809.144    278.20499    246.11048 
   95000    138.68988   -1090.8243    133269.84   -34166.917    2619.3543   -36786.271    278.23912    245.73241 
   95050    138.15603   -1136.4698    133284.11   -34194.451    2609.2718   -36803.723     277.7232    244.78653 
   95100    136.39238   -1242.1092    133241.07   -34207.483    2575.9628   -36783.446    277.46535    241.66167 
   95150    135.37486   -1243.9618    133265.78   -34239.832    2556.7455   -36796.577     277.5314    239.85882 
   95200    139.61682   -1467.7119    133306.52   -34221.479    2636.8608    -36858.34    277.64907    247.37476 
   95250    139.67124   -1094.4735    133300.61   -34186.645    2637.8887   -36824.534    278.09746    247.47119 
   95300     141.1692   -1238.8194    133371.91   -34166.082    2666.1797   -36832.262    277.88584    250.12529 
   95350     140.7215   -1287.7154    133361.56   -34136.677    2657.7244   -36794.401    277.85089    249.33206 
   95400    139.10453   -1128.2522    133340.91   -34074.001    2627.1855   -36701.187     277.9412    246.46708 
   95450    140.56382   -1329.6784    133312.17   -34148.177    2654.7462   -36802.923    278.17124    249.05267 
   95500    143.04659   -1326.0334    133276.59   -34049.767    2701.6368   -36751.404    278.35718    253.45167 
   95550    140.00536   -1293.3161    133388.25   -34134.168    2644.1989   -36778.367    278.38559    248.06318 
   95600    137.44719   -1187.8095    133350.36    -34147.99    2595.8842   -36743.874    277.98218    243.53058 
   95650    138.46886   -1262.3825     133304.6   -34140.701      2615.18   -36755.881    277.85587    245.34079 
   95700    140.57555   -1048.8265    133343.34   -34120.811    2654.9678   -36775.779    278.16876    249.07345 
   95750    137.54892   -1121.4919    133305.25   -34140.285    2597.8056    -36738.09    278.34325    243.71084 
   95800    139.41752   -1449.9427    133300.88   -34165.364    2633.0967   -36798.461    278.55471    247.02164 
   95850    139.59964   -1115.7456    133263.02   -34160.762    2636.5364   -36797.298    278.68991    247.34433 
   95900    136.28181   -1320.7649    133309.07   -34127.816    2573.8746   -36701.691    278.24808    241.46577 
   95950    138.75662   -1193.5769    133183.42   -34105.842    2620.6148   -36726.457    277.88156    245.85066 
   96000    142.04156   -998.24026    133243.77   -34118.577    2682.6555   -36801.232    278.33491    251.67096 
   96050      139.368    -1347.429    133218.83   -34153.867    2632.1615   -36786.029    278.27334     246.9339 
   96100    137.62033   -1175.1314    133242.28   -34190.338    2599.1544   -36789.493    278.19386    243.83737 
   96150    140.62509   -1187.3861    133287.47   -34156.832    2655.9035   -36812.735    277.96665    249.16123 
   96200    137.48959   -1101.1795    133359.16    -34140.58    2596.6851   -36737.265    278.42804    243.60571 
   96250     140.4248    -1278.419    133392.36   -34137.042    2652.1207   -36789.162    279.10118    248.80636 
   96300    138.76716    -1264.713    133384.61   -34152.952    2620.8139   -36773.766    279.36523    245.86933 
   96350    138.29222    -1282.018    133349.44   -34201.127    2611.8439   -36812.971    279.23225    245.02782 
   96400    137.24133   -1122.5635    133419.44   -34175.641    2591.9964   -36767.637    279.81478    243.16585 
   96450    143.63587   -1286.2831    133484.72   -34119.782    2712.7664   -36832.548    280.16873    254.49578 
   96500    140.02828   -1418.1979    133415.61   -34070.556    2644.6318   -36715.188    280.09585     248.1038 
   96550     138.2505   -1021.2286    133305.03   -34092.193    2611.0559   -36703.249    280.05188     244.9539 
   96600    137.49429   -1141.2346    133371.52   -34089.297    2596.7739   -36686.071     280.1005    243.61405 
   96650    139.84593    -1114.271    133439.94   -34056.926    2641.1879   -36698.114    280.56727    247.78071 
   96700    142.70095   -983.76601       133557    -34003.09    2695.1091   -36698.199    280.94885    252.83927 
   96750    137.93993   -1114.2573    133636.15   -34043.654    2605.1904   -36648.844    280.60047    244.40364 
   96800    142.16464   -1179.8523    133539.49   -34080.859    2684.9801   -36765.839    280.71731    251.88903 
   96850    140.26636   -1076.4216    133533.55   -34038.838    2649.1283   -36687.966     281.0225    248.52563 
   96900    143.37369   -834.47999    133537.45   -34000.909    2707.8146   -36708.724     281.0708    254.03123 
   96950    139.62534    -1355.361    133628.08   -34021.064    2637.0218   -36658.085    281.06659    247.38987 
   97000    142.40732   -1003.9487    133659.26   -33981.061    2689.5634   -36670.624    281.14068    252.31901 
   97050    145.48867   -1133.5776    133693.66   -33966.446     2747.759   -36714.205    280.83435    257.77858 
   97100    139.25277   -1404.1439     133669.1   -34028.129    2629.9853   -36658.115     280.6317    246.72975 
   97150    141.18535   -1125.1072    133657.21   -34030.101    2666.4847   -36696.586    280.82171     250.1539 
   97200    135.87474   -1459.8982    133580.12    -34145.85    2566.1864   -36712.037    281.04787    240.74451 
   97250    138.45087   -1566.5504    133509.54   -34121.846    2614.8402   -36736.686    281.00902    245.30892 
   97300    136.93562   -1204.3421    133468.43   -34184.231    2586.2226   -36770.454    280.82747    242.62419 
   97350    140.31643   -1370.4381    133472.57   -34201.119    2650.0739   -36851.193    280.94078    248.61434 
   97400    136.76147   -1102.4796    133429.43   -34198.829    2582.9336   -36781.762    280.89415    242.31563 
   97450    138.27894   -1101.7422    133478.67   -34166.857     2611.593    -36778.45    281.24381    245.00429 
   97500    138.21942   -1297.5107    133470.16   -34165.819    2610.4689   -36776.288    281.24103    244.89883 
   97550    139.22957   -1215.8102    133506.02   -34207.842    2629.5472   -36837.389    281.35536    246.68864 
   97600    134.96395   -1134.0653     133478.2   -34190.225    2548.9848    -36739.21    281.88206    239.13075 
   97650    141.04816   -1296.9364    133431.83   -34162.854    2663.8937   -36826.748    281.71359    249.91083 
   97700    137.37236    -1350.437    133371.27   -34207.836    2594.4711   -36802.307    281.92706    243.39801 
   97750    136.29452   -1269.8068     133380.9    -34233.41    2574.1145   -36807.524    281.99047    241.48827 
   97800    138.12989   -1172.0009    133391.97   -34214.834    2608.7781   -36823.612    282.32734    244.74021 
   97850    138.00283   -1322.1143    133429.09   -34180.467    2606.3783   -36786.845     282.5133    244.51507 
   97900    140.57819    -1131.749    133433.61   -34168.005    2655.0176   -36823.023    282.34346    249.07813 
   97950    140.87515   -1198.0245     133457.4    -34140.71    2660.6263   -36801.336    282.58657     249.6043 
   98000    141.17866   -1196.4818    133499.41   -34123.146    2666.3583   -36789.505    282.96122    250.14205 
   98050    136.20359   -947.15245    133546.36   -34134.843    2572.3971    -36707.24    283.30564    241.32716 
   98100    140.21344   -1137.7199    133621.17   -34149.625    2648.1289   -36797.754    283.71081    248.43187 
   98150     139.8678   -1203.7481    133585.07   -34143.794     2641.601   -36785.395    283.66346    247.81946 
   98200    141.59917   -997.74176    133628.62     -34162.9    2674.3003   -36837.201    283.46702    250.88712 
   98250    138.73936   -1215.8806    133541.67    -34148.79    2620.2887   -36769.079    283.06399    245.82007 
   98300    138.01067   -1108.7518    133518.18   -34179.576    2606.5264   -36786.102    283.05181    244.52897 
   98350    137.97965   -1208.8726    133516.48   -34156.197    2605.9407   -36762.138    282.76731    244.47402 
   98400    142.48505    -1284.361    133489.65   -34158.522    2691.0314   -36849.554    282.45494    252.45673 
   98450    138.34516   -1338.4366    133478.93     -34142.6    2612.8438   -36755.444    282.85039    245.12163 
   98500    141.32891   -1410.3521    133406.53   -34143.798     2669.196   -36812.994    282.90011    250.40826 
   98550    139.32145    -1459.739    133312.57   -34135.608    2631.2823    -36766.89    282.97401    246.85142 
   98600    140.67879   -1366.9076     133172.1   -34125.401    2656.9176   -36782.319    282.67022    249.25638 
   98650    141.01133   -1075.0362    133206.45   -34118.092    2663.1981   -36781.291    283.34619    249.84558 
   98700    141.68415   -1176.3834    133164.03   -34097.663    2675.9054   -36773.568    283.28744     251.0377 
   98750    143.74032   -1227.2052    133211.58   -34013.178    2714.7389   -36727.917    283.56379    254.68083 
   98800    143.15206   -1250.3843    133170.97   -34043.729    2703.6288   -36747.358    283.90431    253.63854 
   98850    142.19413    -1167.095    133268.41   -34061.142     2685.537   -36746.679    284.13041    251.94128 
   98900    140.28742   -1277.8495    133324.98   -34065.318    2649.5261   -36714.844    284.15254    248.56295 
   98950    138.99719   -1089.3831    133315.02    -34109.19    2625.1582   -36734.349    284.14661    246.27689 
   99000    139.99001   -1103.1236    133249.89   -34113.344     2643.909   -36757.253    284.22268    248.03599 
   99050    137.00776   -1141.9712    133270.14   -34140.292     2587.585   -36727.877    284.23095      242.752 
   99100    141.49122   -975.76663    133252.65   -34129.841    2672.2616   -36802.103    284.41895    250.69586 
   99150    142.15615    -1062.505    133253.13   -34127.468    2684.8196   -36812.288    284.31095    251.87398 
   99200    137.86732   -1420.6359    133302.95   -34113.776    2603.8191   -36717.595    284.22538    244.27498 
   99250    138.77433   -1427.0723    133285.95   -34095.562    2620.9492   -36716.512    284.08521    245.88203 
   99300    139.87303   -1238.6587    133242.15   -34038.493    2641.6998   -36680.193    283.80013    247.82873 
   99350    145.52518   -1239.3615    133254.76   -34043.214    2748.4485   -36791.663    283.76989    257.84327 
   99400    141.55254   -1316.3279    133290.68   -34088.696    2673.4197   -36762.115    283.90735     250.8045 
   99450    139.59801   -1230.5956    133316.77   -34108.151    2636.5056   -36744.657     284.3277    247.34144 
   99500      139.739   -1382.0752    133319.94   -34167.294    2639.1685   -36806.463    284.16018    247.59126 
   99550    140.51579   -1242.4581    133328.18   -34127.044    2653.8391   -36780.883      283.904    248.96757 
   99600    137.34732   -1166.4719    133277.88   -34080.238    2593.9981   -36674.236    283.68384    243.35363 
   99650    141.27711   -1215.0744    133273.98   -34076.479    2668.2177   -36744.696    283.60589    250.31649 
   99700    142.05037    -1426.045    133152.03   -34066.388    2682.8218   -36749.209    283.48307    251.68655 
   99750      141.018   -1232.7548    133081.95   -34099.665     2663.324   -36762.989    283.60457    249.85739 
   99800    142.25411   -1300.4967    133180.15   -34090.208    2686.6699   -36776.878    283.58071    252.04756 
   99850    140.88476   -1488.6288    133202.13   -34094.874    2660.8077   -36755.682      283.881    249.62132 
   99900    142.08349   -1273.2475    133193.14   -34073.522    2683.4475    -36756.97    284.04742    251.74525 
   99950    142.90491   -1224.3411    133234.13   -34080.151    2698.9612   -36779.112    283.84298    253.20065 
  100000    140.09612   -1310.5661     133248.3   -34081.399    2645.9132   -36727.313    284.30674      248.224 
Loop time of 49.186 on 128 procs for 100000 steps with 6337 atoms

Performance: 878.298 ns/day, 0.027 hours/ns, 2033.098 timesteps/s
96.5% CPU use with 128 MPI tasks x no OpenMP threads

MPI task timing breakdown:
Section |  min time  |  avg time  |  max time  |%varavg| %total
---------------------------------------------------------------
Pair    | 5.033      | 12.191     | 32.962     | 303.0 | 24.79
Neigh   | 0.43025    | 0.94301    | 2.9182     |  83.1 |  1.92
Comm    | 5.4612     | 14.517     | 37.329     | 300.4 | 29.51
Output  | 0.1654     | 0.16906    | 0.1834     |   0.5 |  0.34
Modify  | 3.7247     | 20.609     | 36.251     | 332.0 | 41.90
Other   |            | 0.7565     |            |       |  1.54

Nlocal:    49.5078 ave 136 max 24 min
Histogram: 87 9 0 1 15 0 0 0 2 14
Nghost:    562.156 ave 953 max 373 min
Histogram: 64 0 0 32 0 0 0 0 13 19
Neighs:    0 ave 0 max 0 min
Histogram: 128 0 0 0 0 0 0 0 0 0
FullNghs:  3978.34 ave 16901 max 844 min
Histogram: 96 0 0 0 16 0 0 0 2 14

Total # of neighbors = 509228
Ave neighs/atom = 80.3579
Neighbor list builds = 6109
Dangerous builds = 0

write_data		${DIR}/data.eq-${NAME}-${TEMP}
write_data		run_11/data.eq-${NAME}-${TEMP}
write_data		run_11/data.eq-het_freeze_11-${TEMP}
write_data		run_11/data.eq-het_freeze_11-248
undump          1

reset_timestep  0

unfix           2
unfix           3
unfix           4


################################################
#######         Run Simulation         #########
################################################

log				${DIR}/log.run_${NAME}
log				run_11/log.run_${NAME}
log				run_11/log.run_het_freeze_11
