LAMMPS data file via write_data, version 16 Mar 2018, timestep = 8000000

4990 atoms
2 atom types

0.0000000000000000e+00 4.9219999999999999e+01 xlo xhi
0.0000000000000000e+00 4.9019635930410494e+01 ylo yhi
1.2818267771273604e+00 3.8718173222870945e+01 zlo zhi

Masses

1 18.015
2 12.01

Atoms # atomic

505 1 1.5385890077929627e+00 2.5435005552379470e+00 3.0030121003069992e+00 3 0 1
369 1 3.8549394495370146e+00 1.6303384546811861e+00 3.5401384276592509e+00 1 0 1
4691 1 6.0588134474094870e+00 2.7610287266649420e+00 2.6207942086632467e+00 2 0 1
146 1 8.1064630400050408e+00 1.4579820514839079e+00 3.7222990713308324e+00 0 1 0
1205 1 1.0337535600867334e+01 2.8554381442262073e+00 2.9024219242197109e+00 -1 2 1
1277 1 3.7451452621799146e+00 6.3132292005763944e+00 2.6291896341215999e+00 3 3 1
1012 1 1.2176013746766361e+00 5.2626723198252758e+00 3.7168346851352427e+00 -2 2 0
354 1 5.8958865610660327e+00 5.1743759352742078e+00 3.6665153924941092e+00 6 1 0
2993 1 7.8773463196276801e+00 6.7010414158314102e+00 2.8197016320047008e+00 3 -4 1
3423 1 1.0151674234557168e+01 5.5951928499651160e+00 3.7592629203903174e+00 -1 0 0
392 1 1.0022530130381853e+01 1.0033714868130447e+01 7.5050583217001314e+00 -1 2 0
4540 1 3.1873440622669476e+00 8.8495914242455473e+00 3.8119690920625660e+00 -3 2 0
4653 1 1.0447402690139809e+00 9.9879967968446568e+00 2.7435518897294306e+00 1 0 0
931 1 5.3440663427977206e+00 1.0054911589560858e+01 2.7626623701655895e+00 0 5 0
1306 1 7.7067428525286754e+00 9.0557757961756558e+00 3.9872118851241662e+00 -1 -2 1
2663 1 9.9731584705488530e+00 1.0165196732550440e+01 2.7952788285142756e+00 2 1 0
2190 1 5.6143946305868422e+00 1.0218114276925053e+01 1.0278829366964418e+01 3 -1 0
2131 1 1.5219754473682472e+00 2.4484452241235193e+00 7.6012699490413027e+00 -1 -1 1
4294 1 3.8925287367916463e+00 1.5891273374231567e+00 6.5677559910422243e+00 0 -1 0
4227 1 1.3548626921440563e+00 2.8570986985454634e+00 1.0298509680587069e+01 0 1 0
1824 1 5.9028881497451975e+00 2.8615542741810720e+00 7.7436421924106371e+00 5 2 0
27 1 8.1103869946056477e+00 1.6180029819504185e+00 6.6059907757693201e+00 -3 -1 1
152 1 3.5188822338784411e+00 6.1884989162747370e+00 1.0482448407195113e+01 1 3 1
3800 1 1.0623718221725081e+01 2.6900138050274407e+00 7.2995995303851036e+00 -2 -1 1
1757 1 1.2257241913843988e+01 9.1895810798142463e+00 3.8704696425986231e+00 -1 -2 1
3518 1 3.4155043421612152e+00 6.2622331715288535e+00 7.5869325953319624e+00 2 -2 0
3521 1 1.2788170763731199e+00 4.9452898397620766e+00 6.5080018630739147e+00 -2 2 0
1341 1 1.0320469563262899e+01 1.0226777443742060e+01 1.0228769107554612e+01 -1 -2 0
4239 1 5.6967233637447050e+00 5.2755917975646627e+00 6.5122031142278018e+00 1 3 0
935 1 8.2153593177762101e+00 6.1545691125983444e+00 7.4272534425512307e+00 -1 -1 0
176 1 5.8130931970361086e+00 2.8595699679831399e+00 1.0156334518695497e+01 0 -2 0
3804 1 1.0613455741022838e+01 5.1096168946639482e+00 6.5156598568752342e+00 2 0 0
971 1 5.6298485242493008e+00 1.0202259059224311e+01 7.6234200511188988e+00 1 0 1
4356 1 3.4749510640705092e+00 8.9790294838469240e+00 6.6330252459790922e+00 3 -2 0
4624 1 1.2537891406397308e+00 1.0008674655126667e+01 7.4890879996327993e+00 2 -3 1
955 1 7.7379077936443341e+00 8.8531403241946354e+00 6.7573005863963820e+00 2 0 0
4192 1 7.9123634538192444e+00 6.4703654949841454e+00 1.0246188449256087e+01 -3 3 0
4217 1 1.0343022716060917e+01 2.8692694491163282e+00 1.0222950438573292e+01 0 1 1
1031 1 1.2186782405496642e+01 6.4031107446084778e+00 1.0522279544386199e+01 2 -1 0
2882 1 8.9715044505963104e-01 9.8952494643111066e+00 1.0049636773444321e+01 2 2 1
118 1 1.2547905214631281e+00 3.2756909764703432e+00 1.4531636805997586e+01 1 1 0
2186 1 3.5614071661468025e+00 2.2878773712679412e+00 1.3962391477880358e+01 2 2 0
1297 1 3.5751078203238666e+00 1.7115449862183381e+00 1.1291692788842390e+01 2 -3 0
3386 1 6.0022458682064439e+00 3.6938122353924214e+00 1.4138068344828614e+01 0 1 1
2162 1 8.0264454495225532e+00 1.5222815341108946e+00 1.0988916278619932e+01 3 0 0
3483 1 8.3266458697001564e+00 2.0495484624954177e+00 1.3851569379979754e+01 -1 1 0
62 1 1.0354951444861548e+01 3.9902679106017622e+00 1.4289567832276678e+01 0 5 0
2069 1 1.3040956198916991e+00 6.2153335897941115e+00 1.4076453578681436e+01 -2 -1 1
110 1 1.0267703248210063e+00 5.4811712775423125e+00 1.1441676228161242e+01 5 0 1
148 1 3.5697400733950406e+00 8.3057202965133126e+00 1.3872902176710163e+01 2 3 0
356 1 6.0488193184463297e+00 6.7596690261656329e+00 1.4278094913569877e+01 2 0 1
4525 1 5.7911633971468452e+00 5.1166038484141376e+00 1.1666333571104627e+01 1 -1 1
2888 1 1.0206446624144251e+01 5.4767531214066549e+00 1.1669822799149630e+01 -1 -3 0
3789 1 1.0436585139176804e+01 7.1334021390074209e+00 1.4409489913023007e+01 2 3 1
474 1 3.5844812151630574e+00 1.0919175346766497e+01 1.4584511768546902e+01 5 3 1
3856 1 3.2592459908584641e+00 9.0037664063060685e+00 1.1041743488654717e+01 0 1 0
308 2 1.2304999999999998e+01 1.1366872099805333e+01 1.6863578266346600e+01 0 0 0
4341 1 8.2104160743305563e+00 8.6359149410361855e+00 1.3943360343515534e+01 1 -1 0
15 1 7.8925851380782994e+00 9.0877377649759943e+00 1.1362871818866042e+01 1 4 0
454 1 8.0757209158023304e+00 1.1500928001323896e+01 1.4431097677840148e+01 -2 4 0
284 2 9.8440000000000012e+00 1.1366872099805333e+01 1.6863578266346600e+01 0 0 0
285 2 9.8440000000000012e+00 8.5251540748539956e+00 1.6863578266346600e+01 0 0 0
307 2 1.1074500000000002e+01 1.0656442593567498e+01 1.6863578266346600e+01 0 0 0
193 2 0.0000000000000000e+00 2.8417180249513345e+00 1.6863578266346600e+01 0 0 0
194 2 0.0000000000000000e+00 0.0000000000000000e+00 1.6863578266346600e+01 0 0 0
195 2 1.2305000000000001e+00 7.1042950623783474e-01 1.6863578266346600e+01 0 0 0
199 2 1.2305000000000001e+00 2.1312885187134998e+00 1.6863578266346600e+01 0 0 0
200 2 2.4610000000000003e+00 2.8417180249513345e+00 1.6863578266346600e+01 0 0 0
201 2 2.4610000000000003e+00 0.0000000000000000e+00 1.6863578266346600e+01 0 0 0
202 2 3.6915000000000004e+00 7.1042950623783474e-01 1.6863578266346600e+01 0 0 0
210 2 3.6914999999999996e+00 2.1312885187134998e+00 1.6863578266346600e+01 0 0 0
211 2 4.9220000000000006e+00 2.8417180249513332e+00 1.6863578266346600e+01 0 0 0
212 2 4.9220000000000006e+00 0.0000000000000000e+00 1.6863578266346600e+01 0 0 0
213 2 6.1524999999999999e+00 7.1042950623783407e-01 1.6863578266346600e+01 0 0 0
225 2 6.1524999999999999e+00 2.1312885187134989e+00 1.6863578266346600e+01 0 0 0
226 2 7.3829999999999991e+00 2.8417180249513345e+00 1.6863578266346600e+01 0 0 0
227 2 7.3829999999999991e+00 0.0000000000000000e+00 1.6863578266346600e+01 0 0 0
228 2 8.6134999999999984e+00 7.1042950623783407e-01 1.6863578266346600e+01 0 0 0
244 2 8.6134999999999984e+00 2.1312885187135002e+00 1.6863578266346600e+01 0 0 0
245 2 9.8440000000000012e+00 2.8417180249513332e+00 1.6863578266346600e+01 0 0 0
246 2 9.8440000000000012e+00 0.0000000000000000e+00 1.6863578266346600e+01 0 0 0
247 2 1.1074500000000002e+01 7.1042950623783330e-01 1.6863578266346600e+01 0 0 0
267 2 1.1074500000000002e+01 2.1312885187135002e+00 1.6863578266346600e+01 0 0 0
197 2 0.0000000000000000e+00 4.2625770374269996e+00 1.6863578266346600e+01 0 0 0
198 2 1.2305000000000001e+00 4.9730065436648339e+00 1.6863578266346600e+01 0 0 0
206 2 1.2305000000000001e+00 6.3938655561404980e+00 1.6863578266346600e+01 0 0 0
208 2 2.4610000000000003e+00 4.2625770374269996e+00 1.6863578266346600e+01 0 0 0
209 2 3.6914999999999996e+00 4.9730065436648339e+00 1.6863578266346600e+01 0 0 0
221 2 3.6914999999999996e+00 6.3938655561404980e+00 1.6863578266346600e+01 0 0 0
196 2 0.0000000000000000e+00 7.1042950623783341e+00 1.6863578266346600e+01 0 0 0
207 2 2.4610000000000003e+00 7.1042950623783341e+00 1.6863578266346600e+01 0 0 0
223 2 4.9220000000000006e+00 4.2625770374269978e+00 1.6863578266346600e+01 0 0 0
224 2 6.1524999999999999e+00 4.9730065436648339e+00 1.6863578266346600e+01 0 0 0
240 2 6.1524999999999999e+00 6.3938655561404980e+00 1.6863578266346600e+01 0 0 0
242 2 7.3829999999999991e+00 4.2625770374269996e+00 1.6863578266346600e+01 0 0 0
222 2 4.9220000000000006e+00 7.1042950623783341e+00 1.6863578266346600e+01 0 0 0
241 2 7.3830000000000009e+00 7.1042950623783341e+00 1.6863578266346600e+01 0 0 0
243 2 8.6135000000000002e+00 4.9730065436648339e+00 1.6863578266346600e+01 0 0 0
263 2 8.6135000000000002e+00 6.3938655561404980e+00 1.6863578266346600e+01 0 0 0
265 2 9.8440000000000012e+00 4.2625770374270004e+00 1.6863578266346600e+01 0 0 0
266 2 1.1074500000000002e+01 4.9730065436648339e+00 1.6863578266346600e+01 0 0 0
287 2 1.1074500000000002e+01 6.3938655561404980e+00 1.6863578266346600e+01 0 0 0
264 2 9.8440000000000012e+00 7.1042950623783341e+00 1.6863578266346600e+01 0 0 0
220 2 3.6915000000000004e+00 9.2355835810918343e+00 1.6863578266346600e+01 0 0 0
217 2 1.2305000000000001e+00 1.0656442593567498e+01 1.6863578266346600e+01 0 0 0
203 2 0.0000000000000000e+00 1.1366872099805333e+01 1.6863578266346600e+01 0 0 0
218 2 2.4610000000000003e+00 1.1366872099805333e+01 1.6863578266346600e+01 0 0 0
236 2 3.6914999999999996e+00 1.0656442593567499e+01 1.6863578266346600e+01 0 0 0
204 2 0.0000000000000000e+00 8.5251540748539991e+00 1.6863578266346600e+01 0 0 0
205 2 1.2305000000000001e+00 9.2355835810918343e+00 1.6863578266346600e+01 0 0 0
219 2 2.4610000000000003e+00 8.5251540748539991e+00 1.6863578266346600e+01 0 0 0
237 2 4.9220000000000006e+00 1.1366872099805333e+01 1.6863578266346600e+01 0 0 0
261 2 7.3830000000000009e+00 8.5251540748539991e+00 1.6863578266346600e+01 0 0 0
238 2 4.9220000000000006e+00 8.5251540748539991e+00 1.6863578266346600e+01 0 0 0
260 2 7.3829999999999991e+00 1.1366872099805333e+01 1.6863578266346600e+01 0 0 0
259 2 6.1524999999999999e+00 1.0656442593567499e+01 1.6863578266346600e+01 0 0 0
239 2 6.1524999999999999e+00 9.2355835810918343e+00 1.6863578266346600e+01 0 0 0
262 2 8.6134999999999984e+00 9.2355835810918343e+00 1.6863578266346600e+01 0 0 0
283 2 8.6134999999999984e+00 1.0656442593567498e+01 1.6863578266346600e+01 0 0 0
286 2 1.1074500000000002e+01 9.2355835810918343e+00 1.6863578266346600e+01 0 0 0
4278 1 1.2768681326910696e+00 1.2024252926240145e+01 1.4048819608009909e+01 -2 -1 1
549 2 0.0000000000000000e+00 1.4208590124756650e+00 2.0029259426340900e+01 0 0 0
550 2 0.0000000000000000e+00 0.0000000000000000e+00 2.0029259426340900e+01 0 0 0
554 2 1.2305000000000001e+00 2.1312885187134998e+00 2.0029259426340900e+01 0 0 0
555 2 2.4610000000000003e+00 1.4208590124756650e+00 2.0029259426340900e+01 0 0 0
556 2 2.4610000000000003e+00 0.0000000000000000e+00 2.0029259426340900e+01 0 0 0
564 2 3.6914999999999996e+00 2.1312885187134998e+00 2.0029259426340900e+01 0 0 0
710 2 0.0000000000000000e+00 2.8417180249513345e+00 2.3194940586351002e+01 0 0 0
711 2 0.0000000000000000e+00 0.0000000000000000e+00 2.3194940586351002e+01 0 0 0
712 2 1.2305000000000001e+00 7.1042950623783474e-01 2.3194940586351002e+01 0 0 0
716 2 1.2305000000000001e+00 2.1312885187134998e+00 2.3194940586351002e+01 0 0 0
717 2 2.4610000000000003e+00 2.8417180249513345e+00 2.3194940586351002e+01 0 0 0
718 2 2.4610000000000003e+00 0.0000000000000000e+00 2.3194940586351002e+01 0 0 0
719 2 3.6915000000000004e+00 7.1042950623783474e-01 2.3194940586351002e+01 0 0 0
727 2 3.6914999999999996e+00 2.1312885187134998e+00 2.3194940586351002e+01 0 0 0
553 2 1.2305000000000001e+00 3.5521475311891644e+00 2.0029259426340900e+01 0 0 0
563 2 3.6914999999999996e+00 3.5521475311891644e+00 2.0029259426340900e+01 0 0 0
565 2 4.9220000000000006e+00 1.4208590124756650e+00 2.0029259426340900e+01 0 0 0
566 2 4.9220000000000006e+00 0.0000000000000000e+00 2.0029259426340900e+01 0 0 0
578 2 6.1524999999999999e+00 2.1312885187134989e+00 2.0029259426340900e+01 0 0 0
579 2 7.3829999999999991e+00 1.4208590124756659e+00 2.0029259426340900e+01 0 0 0
580 2 7.3829999999999991e+00 0.0000000000000000e+00 2.0029259426340900e+01 0 0 0
728 2 4.9220000000000006e+00 2.8417180249513332e+00 2.3194940586351002e+01 0 0 0
729 2 4.9220000000000006e+00 0.0000000000000000e+00 2.3194940586351002e+01 0 0 0
730 2 6.1524999999999999e+00 7.1042950623783407e-01 2.3194940586351002e+01 0 0 0
742 2 6.1524999999999999e+00 2.1312885187134989e+00 2.3194940586351002e+01 0 0 0
743 2 7.3829999999999991e+00 2.8417180249513345e+00 2.3194940586351002e+01 0 0 0
744 2 7.3829999999999991e+00 0.0000000000000000e+00 2.3194940586351002e+01 0 0 0
577 2 6.1524999999999999e+00 3.5521475311891644e+00 2.0029259426340900e+01 0 0 0
596 2 8.6134999999999984e+00 2.1312885187135002e+00 2.0029259426340900e+01 0 0 0
597 2 9.8440000000000012e+00 1.4208590124756659e+00 2.0029259426340900e+01 0 0 0
598 2 9.8440000000000012e+00 0.0000000000000000e+00 2.0029259426340900e+01 0 0 0
618 2 1.1074500000000002e+01 2.1312885187135002e+00 2.0029259426340900e+01 0 0 0
745 2 8.6134999999999984e+00 7.1042950623783407e-01 2.3194940586351002e+01 0 0 0
761 2 8.6134999999999984e+00 2.1312885187135002e+00 2.3194940586351002e+01 0 0 0
762 2 9.8440000000000012e+00 2.8417180249513332e+00 2.3194940586351002e+01 0 0 0
763 2 9.8440000000000012e+00 0.0000000000000000e+00 2.3194940586351002e+01 0 0 0
764 2 1.1074500000000002e+01 7.1042950623783330e-01 2.3194940586351002e+01 0 0 0
784 2 1.1074500000000002e+01 2.1312885187135002e+00 2.3194940586351002e+01 0 0 0
595 2 8.6134999999999984e+00 3.5521475311891657e+00 2.0029259426340900e+01 0 0 0
617 2 1.1074500000000002e+01 3.5521475311891644e+00 2.0029259426340900e+01 0 0 0
551 2 0.0000000000000000e+00 5.6834360499026637e+00 2.0029259426340900e+01 0 0 0
552 2 0.0000000000000000e+00 4.2625770374269996e+00 2.0029259426340900e+01 0 0 0
560 2 1.2305000000000001e+00 6.3938655561404980e+00 2.0029259426340900e+01 0 0 0
561 2 2.4610000000000003e+00 5.6834360499026637e+00 2.0029259426340900e+01 0 0 0
562 2 2.4610000000000003e+00 4.2625770374269996e+00 2.0029259426340900e+01 0 0 0
574 2 3.6914999999999996e+00 6.3938655561404980e+00 2.0029259426340900e+01 0 0 0
714 2 0.0000000000000000e+00 4.2625770374269996e+00 2.3194940586351002e+01 0 0 0
715 2 1.2305000000000001e+00 4.9730065436648339e+00 2.3194940586351002e+01 0 0 0
723 2 1.2305000000000001e+00 6.3938655561404980e+00 2.3194940586351002e+01 0 0 0
725 2 2.4610000000000003e+00 4.2625770374269996e+00 2.3194940586351002e+01 0 0 0
726 2 3.6914999999999996e+00 4.9730065436648339e+00 2.3194940586351002e+01 0 0 0
738 2 3.6914999999999996e+00 6.3938655561404980e+00 2.3194940586351002e+01 0 0 0
559 2 1.2305000000000001e+00 7.8147245686161639e+00 2.0029259426340900e+01 0 0 0
573 2 3.6914999999999996e+00 7.8147245686161639e+00 2.0029259426340900e+01 0 0 0
713 2 0.0000000000000000e+00 7.1042950623783341e+00 2.3194940586351002e+01 0 0 0
724 2 2.4610000000000003e+00 7.1042950623783341e+00 2.3194940586351002e+01 0 0 0
575 2 4.9220000000000006e+00 5.6834360499026637e+00 2.0029259426340900e+01 0 0 0
576 2 4.9220000000000006e+00 4.2625770374269978e+00 2.0029259426340900e+01 0 0 0
592 2 6.1524999999999999e+00 6.3938655561404980e+00 2.0029259426340900e+01 0 0 0
593 2 7.3829999999999991e+00 5.6834360499026637e+00 2.0029259426340900e+01 0 0 0
594 2 7.3829999999999991e+00 4.2625770374269996e+00 2.0029259426340900e+01 0 0 0
740 2 4.9220000000000006e+00 4.2625770374269978e+00 2.3194940586351002e+01 0 0 0
741 2 6.1524999999999999e+00 4.9730065436648339e+00 2.3194940586351002e+01 0 0 0
757 2 6.1524999999999999e+00 6.3938655561404980e+00 2.3194940586351002e+01 0 0 0
759 2 7.3829999999999991e+00 4.2625770374269996e+00 2.3194940586351002e+01 0 0 0
591 2 6.1524999999999999e+00 7.8147245686161639e+00 2.0029259426340900e+01 0 0 0
739 2 4.9220000000000006e+00 7.1042950623783341e+00 2.3194940586351002e+01 0 0 0
758 2 7.3830000000000009e+00 7.1042950623783341e+00 2.3194940586351002e+01 0 0 0
614 2 8.6135000000000002e+00 6.3938655561404980e+00 2.0029259426340900e+01 0 0 0
615 2 9.8440000000000012e+00 5.6834360499026637e+00 2.0029259426340900e+01 0 0 0
616 2 9.8440000000000012e+00 4.2625770374270004e+00 2.0029259426340900e+01 0 0 0
637 2 1.1074500000000002e+01 6.3938655561404980e+00 2.0029259426340900e+01 0 0 0
760 2 8.6135000000000002e+00 4.9730065436648339e+00 2.3194940586351002e+01 0 0 0
780 2 8.6135000000000002e+00 6.3938655561404980e+00 2.3194940586351002e+01 0 0 0
782 2 9.8440000000000012e+00 4.2625770374270004e+00 2.3194940586351002e+01 0 0 0
783 2 1.1074500000000002e+01 4.9730065436648339e+00 2.3194940586351002e+01 0 0 0
804 2 1.1074500000000002e+01 6.3938655561404980e+00 2.3194940586351002e+01 0 0 0
613 2 8.6135000000000002e+00 7.8147245686161639e+00 2.0029259426340900e+01 0 0 0
636 2 1.1074500000000002e+01 7.8147245686161639e+00 2.0029259426340900e+01 0 0 0
781 2 9.8440000000000012e+00 7.1042950623783341e+00 2.3194940586351002e+01 0 0 0
557 2 0.0000000000000000e+00 9.9460130873296642e+00 2.0029259426340900e+01 0 0 0
558 2 0.0000000000000000e+00 8.5251540748539991e+00 2.0029259426340900e+01 0 0 0
571 2 2.4610000000000003e+00 9.9460130873296642e+00 2.0029259426340900e+01 0 0 0
572 2 2.4610000000000003e+00 8.5251540748539991e+00 2.0029259426340900e+01 0 0 0
721 2 0.0000000000000000e+00 8.5251540748539991e+00 2.3194940586351002e+01 0 0 0
722 2 1.2305000000000001e+00 9.2355835810918343e+00 2.3194940586351002e+01 0 0 0
736 2 2.4610000000000003e+00 8.5251540748539991e+00 2.3194940586351002e+01 0 0 0
737 2 3.6915000000000004e+00 9.2355835810918343e+00 2.3194940586351002e+01 0 0 0
569 2 1.2305000000000001e+00 1.2077301606043163e+01 2.0029259426340900e+01 0 0 0
570 2 1.2305000000000001e+00 1.0656442593567498e+01 2.0029259426340900e+01 0 0 0
587 2 3.6914999999999996e+00 1.2077301606043163e+01 2.0029259426340900e+01 0 0 0
588 2 3.6914999999999996e+00 1.0656442593567499e+01 2.0029259426340900e+01 0 0 0
720 2 0.0000000000000000e+00 1.1366872099805333e+01 2.3194940586351002e+01 0 0 0
734 2 1.2305000000000001e+00 1.0656442593567498e+01 2.3194940586351002e+01 0 0 0
735 2 2.4610000000000003e+00 1.1366872099805333e+01 2.3194940586351002e+01 0 0 0
753 2 3.6914999999999996e+00 1.0656442593567499e+01 2.3194940586351002e+01 0 0 0
589 2 4.9220000000000006e+00 9.9460130873296642e+00 2.0029259426340900e+01 0 0 0
590 2 4.9220000000000006e+00 8.5251540748539991e+00 2.0029259426340900e+01 0 0 0
611 2 7.3830000000000009e+00 9.9460130873296642e+00 2.0029259426340900e+01 0 0 0
612 2 7.3830000000000009e+00 8.5251540748539991e+00 2.0029259426340900e+01 0 0 0
755 2 4.9220000000000006e+00 8.5251540748539991e+00 2.3194940586351002e+01 0 0 0
756 2 6.1524999999999999e+00 9.2355835810918343e+00 2.3194940586351002e+01 0 0 0
778 2 7.3830000000000009e+00 8.5251540748539991e+00 2.3194940586351002e+01 0 0 0
609 2 6.1524999999999999e+00 1.2077301606043163e+01 2.0029259426340900e+01 0 0 0
610 2 6.1524999999999999e+00 1.0656442593567499e+01 2.0029259426340900e+01 0 0 0
754 2 4.9220000000000006e+00 1.1366872099805333e+01 2.3194940586351002e+01 0 0 0
776 2 6.1524999999999999e+00 1.0656442593567499e+01 2.3194940586351002e+01 0 0 0
777 2 7.3829999999999991e+00 1.1366872099805333e+01 2.3194940586351002e+01 0 0 0
634 2 9.8440000000000012e+00 9.9460130873296642e+00 2.0029259426340900e+01 0 0 0
635 2 9.8440000000000012e+00 8.5251540748539956e+00 2.0029259426340900e+01 0 0 0
779 2 8.6134999999999984e+00 9.2355835810918343e+00 2.3194940586351002e+01 0 0 0
802 2 9.8440000000000012e+00 8.5251540748539956e+00 2.3194940586351002e+01 0 0 0
803 2 1.1074500000000002e+01 9.2355835810918343e+00 2.3194940586351002e+01 0 0 0
632 2 8.6135000000000002e+00 1.2077301606043163e+01 2.0029259426340900e+01 0 0 0
633 2 8.6134999999999984e+00 1.0656442593567498e+01 2.0029259426340900e+01 0 0 0
655 2 1.1074500000000002e+01 1.2077301606043163e+01 2.0029259426340900e+01 0 0 0
656 2 1.1074500000000002e+01 1.0656442593567498e+01 2.0029259426340900e+01 0 0 0
800 2 8.6134999999999984e+00 1.0656442593567498e+01 2.3194940586351002e+01 0 0 0
801 2 9.8440000000000012e+00 1.1366872099805333e+01 2.3194940586351002e+01 0 0 0
824 2 1.1074500000000002e+01 1.0656442593567498e+01 2.3194940586351002e+01 0 0 0
825 2 1.2304999999999998e+01 1.1366872099805333e+01 2.3194940586351002e+01 0 0 0
2922 1 1.1272831420651688e+00 2.9895183272914108e+00 2.5431191414221278e+01 3 -3 0
3389 1 3.6592671226957107e+00 3.9073605434649998e+00 2.6614217616179939e+01 -1 -3 0
475 1 1.2069497647082375e+01 1.1422044510444577e+01 2.6389452291247139e+01 -1 -1 0
3511 1 9.7483441365930534e-01 7.7633076613249106e+00 2.9146251644177664e+01 2 3 -1
3410 1 6.0125481152951243e+00 2.8694353899713581e+00 2.5649674265436186e+01 -3 -2 -1
952 1 3.5514759723544764e+00 1.1282825182015166e+01 2.6576963634565800e+01 0 -3 -1
2183 1 3.2743453972363423e+00 1.1289495260591119e+01 2.9333795048902541e+01 1 -4 0
442 1 3.5017865926373251e+00 3.3458957326663223e+00 2.9265788994026721e+01 2 -2 0
888 1 1.2752562186480429e+00 3.4725854227940706e-01 2.6480409295866213e+01 3 1 0
3529 1 1.0054135981237240e+01 2.6508753930061539e+00 2.5419439286222286e+01 3 0 -1
4704 1 5.8192225509879796e+00 9.0375620314938773e-02 2.6323200207211361e+01 1 1 1
948 1 7.9263643689085219e+00 1.1130191100415722e+01 2.6568577710774271e+01 -3 2 -1
1369 1 3.2298049100173225e+00 6.4426453195652478e+00 2.5701661327245681e+01 0 4 0
1019 1 9.3422724816089697e-01 7.6341448696636034e+00 2.6573021887011873e+01 0 1 -1
994 1 7.9680232931657065e+00 4.0904478541593665e+00 2.6941817753448198e+01 2 2 -1
3826 1 5.7168970574431306e+00 7.2512101155929383e+00 2.6702303807703508e+01 0 -3 0
2073 1 7.9919036420788103e+00 6.4210790257201467e+00 2.5585610986491552e+01 6 1 0
2945 1 1.0114465191821768e+01 9.9921782430036465e+00 2.5530530983166312e+01 1 4 -1
3536 1 5.6958158233585321e+00 9.7296088785469248e+00 2.5660820043432910e+01 2 2 0
1260 1 1.0388109936057914e+01 7.3668391303954959e+00 2.6456109135000347e+01 -1 1 0
3424 1 1.0635937110241027e+00 1.0134680528429291e+01 2.5782203759457214e+01 1 3 -1
2970 1 5.8478225226693956e+00 1.0614945851125178e-01 2.9322634151564596e+01 -3 0 0
4257 1 1.2137305815655685e+01 1.1230576549135940e+01 2.9096065279993883e+01 -4 -4 0
2165 1 1.0249264711454769e+01 7.4096194825646124e+00 2.9273108099891534e+01 2 -6 1
3461 1 7.6488149594452048e+00 1.1074009062603146e+01 2.9260330083938779e+01 3 0 -1
896 1 1.2626111231893720e+00 2.4324207620919016e+00 3.3199064103992015e+01 0 -4 -1
543 1 1.1108592047292560e+00 2.4012447429189687e+00 3.0148023030935551e+01 1 1 1
2108 1 9.8938917342042987e-01 1.0015056960681594e+01 3.7451607424106683e+01 -1 0 0
3508 1 6.0666409250399660e+00 2.4909019288627543e+00 3.3106949937597221e+01 2 -2 0
1775 1 5.6675624256372110e+00 2.5620346074589144e+00 3.0434347037999199e+01 6 3 0
136 1 3.2022480977967733e+00 1.1238146985524224e+01 3.6634050379018134e+01 2 4 -1
1877 1 8.2070865142638105e+00 3.9687234217521850e+00 3.3966752201529943e+01 0 2 0
151 1 1.0527539894870559e+01 2.6786541043875998e+00 3.2785400857790485e+01 3 0 0
2605 1 1.0433395076571003e+01 2.4904205965343240e+00 3.0090551461685241e+01 2 1 -2
3383 1 1.2215538881891170e+01 1.1203407596251134e+01 3.6347580964932504e+01 1 -2 -1
4626 1 3.5503921266368921e+00 3.8450207867177575e+00 3.3611871549731049e+01 0 0 0
4263 1 3.2664949172241045e+00 6.3561399901151399e+00 3.2681642846264637e+01 2 -1 -1
2188 1 3.0421411623813963e+00 6.0233583425446930e+00 2.9979295546695468e+01 -2 3 0
1235 1 1.2513573240616975e+00 7.5851306777557905e+00 3.3924023783240173e+01 1 0 -1
3501 1 7.7224769046713435e+00 6.5235265482578688e+00 3.2941743089538988e+01 2 0 -1
2591 1 7.7230372129728968e+00 6.6549103423595408e+00 3.0236740005115244e+01 2 1 -1
2109 1 5.6459153008266290e+00 7.5997388112056994e+00 3.3808559251795259e+01 1 4 -1
1371 1 1.0160331595241004e+01 7.4836404732796016e+00 3.3475741881669705e+01 2 -2 0
3702 1 9.1677414040992411e-01 1.0196632599015203e+01 3.0125697631126233e+01 -1 -1 -1
4244 1 8.9459585214412052e-01 1.0077171039680962e+01 3.2969870674052032e+01 -1 -2 -1
1378 1 2.9960345157503880e+00 1.1583278016053988e+01 3.4035611135916326e+01 -2 3 0
1248 1 5.5455492311721502e+00 9.9691753066467967e+00 3.0343552503021353e+01 4 0 0
2973 1 5.2079624683564587e+00 1.0218380160541813e+01 3.3018106175886444e+01 1 4 0
103 1 1.0040787609533522e+01 1.0068917925466838e+01 3.3119846125607580e+01 1 1 -1
529 1 9.9931562760419528e+00 9.9313337326601516e+00 3.0430975709105955e+01 1 3 0
20 1 7.8507720531290932e+00 1.1097216570814689e+01 3.6615435983894997e+01 0 -2 0
3492 1 7.5340148471611643e+00 1.1191359458362655e+01 3.3939677299938680e+01 1 3 -1
1228 1 1.6319079337340763e+00 2.5565247129092428e+00 3.7807878812493129e+01 2 -2 0
3738 1 3.5113128948440404e+00 3.7169993672154558e+00 3.6193538509211578e+01 0 1 -1
3022 1 9.9836617673385675e+00 9.7760378738996874e+00 3.7497280068631611e+01 2 1 0
1036 1 5.8665446725427346e+00 2.9752415219527082e+00 3.7327778750713051e+01 -1 0 -1
2051 1 5.4331094626436531e+00 9.9201120010010087e+00 3.7461664690848764e+01 -3 0 0
462 1 1.0435539885430281e+01 2.9384383930190334e+00 3.7522815704130338e+01 -1 -1 0
3874 1 1.0723147661350398e+00 7.4523365536728736e+00 3.6706407294346562e+01 0 2 -1
1032 1 3.1397512425833685e+00 6.0457046722321390e+00 3.7422106328787194e+01 -4 2 -1
2144 1 8.0891801364595626e+00 4.0675563276625901e+00 3.6662455609606567e+01 2 1 -1
938 1 5.5028277576002758e+00 7.5026699308094980e+00 3.6714205405861080e+01 -1 -3 0
1324 1 8.1549131887268320e+00 6.6088315987807205e+00 3.7664063030079248e+01 -1 6 -1
2215 1 1.0450669306436629e+01 7.4737573728329298e+00 3.6386994785090465e+01 1 -5 -1
4583 1 1.6527794943373513e+00 2.8710261541817772e-02 3.6932488941682422e+01 -1 3 0
2062 1 1.7556793185877053e+00 4.8448833837288867e-02 3.4249896312415061e+01 -2 -1 -1
1330 1 1.0288021013086956e+01 3.9784002144779179e-01 3.6566795802810589e+01 -3 0 0
2238 1 6.1604826215093391e+00 1.7066468867803383e-01 3.4206109685560079e+01 2 2 -1
2903 1 5.8102644156337382e+00 2.7633882879851684e-01 3.6838076555232675e+01 -1 -1 0
991 1 5.3019310927956758e+00 7.4313327304077470e+00 2.9371352886656947e+01 0 -3 0
4211 1 7.9872379430083598e+00 3.9731066984430075e+00 2.9595600582125012e+01 -4 -2 -1
55 1 1.0764707395578775e+01 8.5443973699923959e-02 3.3742676798617538e+01 -3 1 -1
3863 1 3.1481160728363258e+00 1.3952724653883154e+01 2.6459174180875698e+00 2 -2 0
1879 1 8.2846098709067240e-01 1.2413328009454771e+01 3.5040645574605560e+00 -2 1 1
1794 1 7.6253213348998372e+00 1.3929255839224924e+01 2.8384725103759836e+00 -2 6 0
4266 1 3.7982466342600496e-01 2.0077715095536849e+01 6.4294099552013781e+00 -1 0 1
958 1 9.6424066227974432e+00 1.2643311246130692e+01 3.5944277342061799e+00 0 1 0
3721 1 7.4881264508537937e+00 2.1836202512131386e+01 1.0181468985325349e+01 3 -1 0
4193 1 2.8248582018635320e+00 1.6305548879715037e+01 3.6175299711521047e+00 1 -1 1
2224 1 1.1916585978033961e+01 1.3730233965917810e+01 7.2619669346828353e+00 1 0 0
924 1 4.0709027330504227e-01 1.7560456895735268e+01 2.7278066748161924e+00 1 2 0
1886 1 7.5325606120404824e+00 1.6721722229897431e+01 3.7878882439315342e+00 2 1 0
2555 1 5.0821557777066708e+00 1.7481287107364540e+01 2.6808450072654217e+00 -1 -2 1
3013 1 9.7894592758877756e+00 1.7824374340839849e+01 2.7414883860479407e+00 -1 -1 1
4236 1 9.6631800254102416e+00 2.0178967490290315e+01 3.9548207829962347e+00 1 1 0
1339 1 1.1855369063433766e+01 1.6381152719389195e+01 3.9158986928809254e+00 -2 -2 0
460 1 2.7707035501766959e+00 2.1219756215355165e+01 2.7950104850213853e+00 2 3 1
54 1 1.1452587136980975e+01 2.4411024743045999e+01 6.5586739340019093e+00 3 2 0
142 1 5.2514858650846907e+00 2.0171320644618369e+01 3.7065982797543997e+00 3 -6 0
3442 1 7.2955446908197201e+00 2.3889127990614618e+01 3.7865505668358908e+00 -1 -2 0
2079 1 7.4554155285396453e+00 2.1464873189565377e+01 2.6702656550994641e+00 3 -2 1
2599 1 9.6514891684533364e+00 1.7868879168365549e+01 1.0344346189587862e+01 -1 0 0
1366 1 1.1754284513580707e+01 2.1503469244239358e+01 2.8496524980067943e+00 0 0 1
2055 1 3.0417724008172402e+00 1.3884201294944218e+01 7.3701491254190685e+00 0 -1 1
2946 1 1.1848724964617738e+00 1.2415978084951947e+01 6.3361434725313641e+00 0 -1 1
3796 1 7.8008499137690581e+00 1.3998790661866602e+01 1.0163362728906497e+01 3 2 1
2622 1 7.5460653404774591e+00 1.3984706871069172e+01 7.4720446339861351e+00 2 0 1
2221 1 5.2249509532792873e+00 1.2813679728853325e+01 6.6333570873382124e+00 -2 2 0
2984 1 7.1445061959701492e+00 2.4192830389561010e+01 6.4752558389761754e+00 3 0 1
3821 1 1.1740390221759293e+01 1.6416766206350754e+01 6.7701764341013613e+00 1 -1 1
355 1 9.6342786591785057e+00 1.2562740139335494e+01 6.3392935137264823e+00 -1 0 1
4622 1 5.2553286305008573e+00 1.8025715329347037e+01 1.0290004198223000e+01 -1 -1 2
4688 1 1.2169139210672640e+01 2.1830446238646893e+01 1.0121054315250822e+01 1 3 0
2931 1 3.0472370722728126e+00 2.1852357912817148e+01 9.9068680297952074e+00 3 2 0
1045 1 2.9338189809397259e+00 1.6309915316029048e+01 6.3551316154247566e+00 1 4 -1
4323 1 5.5189506328465321e-01 1.7605947203259468e+01 7.2512512077416300e+00 0 0 0
3704 1 1.1900422439207112e+01 2.1700355283538038e+01 7.3373080261339778e+00 0 -2 0
870 1 7.2282194640204818e+00 1.6447296984165195e+01 6.5770680350752579e+00 1 0 1
1274 1 4.9901610787888657e+00 1.7733132619988584e+01 7.5796451907985203e+00 -2 -2 1
2211 1 5.2953676971489347e+00 2.0193551474889709e+01 6.5167076200449374e+00 3 2 1
2048 1 8.7160198028117719e-01 1.7474650312563885e+01 9.9428568974498663e+00 2 -2 1
1022 1 2.7161764103053052e+00 2.3689630510412069e+01 3.8420623408222689e+00 -1 1 0
2885 1 9.2921491540747727e+00 1.7686258688290657e+01 7.5883973912478142e+00 0 0 0
3705 1 9.7097214755286512e+00 2.0289472553432176e+01 6.6066969186728359e+00 -1 0 0
3784 1 5.2829034344655339e+00 1.2486218591602467e+01 3.7851039804859874e+00 0 -2 1
18 1 2.7100255493893264e+00 2.4198835717550129e+01 6.4588157379812721e+00 2 -1 1
21 1 2.8203887530163567e+00 2.1552282854946025e+01 7.1926141682000768e+00 2 2 1
1725 1 7.3754690783533858e+00 2.1693497342770936e+01 7.4136889756336668e+00 1 -3 0
1 1 4.3827909806171206e-01 2.0185078623126753e+01 3.9268946199104233e+00 2 0 0
4237 1 3.1123006438029805e+00 1.3727840075004377e+01 1.0207525096097710e+01 4 3 0
3743 1 1.2218566447245157e+01 1.4477848493098231e+01 9.7900165953224647e+00 -1 2 1