LAMMPS data file via write_data, version 16 Mar 2018, timestep = 100000

6337 atoms
2 atom types

0.0000000000000000e+00 4.9219999999999999e+01 xlo xhi
0.0000000000000000e+00 4.9019635930410494e+01 ylo yhi
2.4275362569642063e+00 5.7634463743032683e+01 zlo zhi

Masses

1 18.015
2 12.01

Atoms # atomic

6026 1 4.5128419430226483e+00 2.0077260669843544e+00 5.6260031875078411e+00 0 1 1
4707 1 1.9518907966498606e+00 1.6329076063529817e+00 6.6869878443854320e+00 0 0 1
3516 1 9.2229015538392325e+00 5.6119181566175582e+00 9.5696814365491338e+00 0 0 0
1873 1 5.4913350943356665e-01 1.1206945764010139e+00 4.2231308243081065e+00 1 0 1
2093 1 8.4783547699175461e+00 3.7795061338810494e+00 4.2940430591755607e+00 0 1 1
56 1 5.8304394977648819e+00 4.3847374246254764e+00 4.9551000361645121e+00 0 1 1
5009 1 9.3862424227896089e+00 6.0581657969501403e+00 3.2744858996520532e+00 0 1 0
2046 1 8.8571391027518178e+00 3.3668290410117234e+00 1.0952149149490971e+01 1 0 0
1802 1 3.1493396969067162e+00 6.7982848654152974e+00 4.2758126085675672e+00 2 0 0
1334 1 6.5529528846529015e+00 1.6041955167296486e+01 3.5617194474920746e+00 0 1 1
6239 1 3.8815287515911773e-01 5.8817545373267768e+00 5.4773335191075505e+00 1 0 1
2037 1 4.8309358995227702e+00 9.7822041570006988e+00 5.9944090015799008e+00 1 0 0
6337 1 2.8596102837196433e+00 9.6122883674245880e+00 3.8090518430266629e+00 0 0 1
71 1 2.5161549161202696e+00 4.3875873183432894e+00 9.9012086060690301e+00 0 -1 1
3639 1 6.2394850011396477e+00 9.8658551391408214e+00 3.3985490175312139e+00 1 0 0
2943 1 8.6788799879576430e+00 8.5602356699856479e+00 4.3850641378318027e+00 -1 0 1
4752 1 9.8354225311121581e+00 1.4352659175132660e+01 8.5088090622360593e+00 1 1 1
3455 1 1.0129235834545536e+00 8.4073549038929993e+00 6.4705871877284968e+00 0 1 1
5190 1 7.2947876890792127e+00 1.4988379215165468e+01 8.3086559764862358e+00 0 1 0
4934 1 9.5048107248971048e-01 1.3138612507548473e+01 6.0501907118026326e+00 1 0 0
4647 1 3.4013687085469981e+00 1.4018095286713844e+01 4.6243712318650410e+00 1 1 1
1306 1 3.2322203648336920e+00 1.5311341846730238e+01 7.4248258669056586e+00 -1 0 0
5127 1 4.9723693966311009e+00 1.2510068606421987e+01 6.5295230258651955e+00 0 0 0
482 1 3.5680786666495310e+00 1.6295953256830426e+01 2.7879736223717964e+00 1 1 1
29 1 7.2770623287799623e+00 1.3665776020091370e+01 5.4272636007442170e+00 1 0 0
4733 1 4.3621026565648746e+00 2.0510242225530879e+00 9.7379964602219626e+00 1 1 0
139 1 1.1041587761266418e+00 1.3316230940450655e+01 1.1134857043615019e+01 0 1 0
4828 1 6.3010317671923497e+00 1.9922870307434679e+00 7.6238349651372310e+00 0 -1 0
3126 1 1.0750449478383233e+00 1.2019579306562196e+01 8.4345178734108153e+00 0 1 1
4421 1 4.5995367699218043e-01 1.0773145506555135e+01 4.8895062324718648e+00 1 1 1
208 1 5.3559298164003950e+00 6.6239857129030701e+00 6.4850247941300543e+00 0 1 0
1788 1 6.3427715616083657e-01 3.9091355457573549e+00 7.5609336603876045e+00 1 1 0
3544 1 5.1244410697989524e+00 1.3330802111695601e+01 9.2958406735290193e+00 0 0 0
345 1 1.5797122082543824e+00 7.0297602330954927e+00 1.0448987962462599e+01 0 1 0
2114 1 8.3352104735055335e+00 4.2082800766804977e+00 7.0742842920631208e+00 0 1 1
1679 1 8.1276175678168254e+00 7.4708765405151043e+00 6.7804282275369046e+00 0 1 1
343 1 3.1798585248990250e+00 8.0522719449095668e+00 8.3352637605608599e+00 0 1 0
2101 1 3.2055230113047846e+00 1.4943065287695273e+01 1.0552802567643699e+01 1 0 0
5064 1 3.3778682483504059e+00 1.0911024947526373e+01 8.7988073507568139e+00 0 0 0
3693 1 7.2714824982467343e+00 1.1973440741772155e+01 1.1001532537862840e+01 0 1 1
1815 1 4.6953444457369713e+00 5.8426737534015993e+00 9.1081221771354439e+00 0 0 0
23 1 3.2386227803667139e-01 1.6226435704062997e+01 6.7835852142758863e+00 0 0 1
6136 1 3.7295940108910108e+00 1.2116853415407242e+01 2.5644497302206517e+00 1 0 0
1816 1 4.3006534939244849e+00 1.0871283574165197e+01 1.1517068072212339e+01 0 0 0
3325 1 6.4487937966460738e+00 1.2734349348059387e+01 2.9360492224969037e+00 1 0 0
4582 1 9.4454547664240334e+00 1.1640915467885542e+01 9.4463258827131433e+00 1 1 1
3741 1 2.2126941920015706e+00 5.2527686633657111e-01 1.0602565915110228e+01 -1 0 0
228 1 5.2458969876153105e-01 1.0346033857180027e+01 1.1080391320444656e+01 0 -1 0
4931 1 9.3594254105837837e+00 8.8065279509962089e+00 9.0837011520189677e+00 0 0 0
5069 1 2.6110316681240997e+00 9.3067933055126906e-01 1.6773422725579984e+01 0 1 0
444 1 1.9333330200423422e+00 1.0148522759170600e+00 1.3985972094215267e+01 0 1 0
2837 1 5.6429140187288134e+00 1.1523895658071481e+01 1.7562515786329573e+01 0 0 1
2936 1 6.5199579199961910e+00 2.4711721967985700e+00 1.2121518272817811e+01 0 1 1
1580 1 5.3714029303421151e+00 3.3839004735499705e+00 1.6561356921535022e+01 0 0 1
1941 1 6.6376386917062802e-01 1.5519978484566478e+01 1.4276842822473748e+01 1 0 0
5161 1 1.5369610270350540e+00 4.9855862824085806e+00 1.4436563797076104e+01 -1 0 0
1553 1 5.7306846352389567e+00 1.6297939390814491e+01 2.0629310337097706e+01 1 0 0
1749 1 2.4515523554214624e+00 1.4733643683539215e+01 1.8986457741027618e+01 0 -1 0
317 1 7.9648842899686727e+00 6.3090288633348814e+00 1.6979252287456376e+01 0 -1 1
3410 1 9.1600858946039150e+00 1.0258970731830729e+01 1.9537899533808243e+01 1 0 0
1893 1 5.5515666237604311e+00 4.4355592406667110e+00 1.3949058812643617e+01 1 -1 0
1582 1 2.6262010964516596e+00 8.8218301202536864e+00 1.2370050483654040e+01 1 0 0
1854 1 5.3170212438176874e+00 7.5545702425828827e+00 1.5277074237954061e+01 1 1 0
1655 1 2.3704384338899329e+00 7.4771140136712786e+00 1.4842825516148528e+01 0 0 0
1697 1 9.2204304943246740e+00 1.0413084800957932e+01 1.5125313676396205e+01 1 0 1
6201 1 6.5040335553086601e+00 1.0208267929875733e+01 1.5081882114773155e+01 0 0 0
357 1 5.4347635448770957e+00 5.1876365158314108e+00 2.0434399901374036e+01 0 0 0
216 1 1.8441596692762006e+00 1.2833942511801080e+01 1.4215561214912471e+01 1 -1 0
1498 1 9.3137328920847384e+00 1.2632782334841263e+01 1.3307389767163881e+01 0 0 1
3443 1 8.5194626481625075e+00 1.4692442108343966e+01 1.4817551366994861e+01 0 -1 0
6209 1 5.3268637568171515e+00 1.4047992285945270e+01 1.5367173562595815e+01 1 0 1
4933 1 1.0273625233911028e+00 1.0455198578514265e+01 2.0605399032989130e+01 0 0 0
35 1 3.0356875854049759e+00 3.2592342615922547e+00 1.2576058338356866e+01 0 0 1
4747 1 6.3327629993308587e+00 1.1085218006302149e+00 1.5749970568556167e+01 0 0 0
2152 1 6.6966254177409801e-01 9.4501627868682458e+00 1.5841722798048036e+01 0 1 0
3563 1 7.8706398248665623e+00 1.2567276065461597e+01 1.8798058082947733e+01 1 -2 1
5157 1 9.1877287453852645e+00 1.8058495651261934e+00 1.6526946744332214e+01 0 0 0
1752 1 3.0545879452426190e+00 1.3236549183576319e+01 1.6979291989895998e+01 1 0 0
1853 1 6.4593257671820614e-01 4.1077485058145644e+00 1.6798939915228495e+01 1 0 0
2992 1 3.1276753437684022e+00 3.5424044244663779e+00 1.8189738894058024e+01 0 0 0
6259 1 2.6282329941595135e+00 6.7026617523562786e+00 1.8597353722655580e+01 1 1 1
425 1 7.8926502470312601e+00 6.0814265993934455e+00 1.4162808120424904e+01 0 1 0
3452 1 7.7255198745248856e+00 3.8639469657042218e+00 1.7825588518641403e+01 0 1 0
148 1 4.7238986675020023e+00 7.2059427606782611e+00 1.2156019572649992e+01 0 1 0
1849 1 1.0941008184306307e+00 1.1305840824549479e+01 1.7827941053277982e+01 0 1 0
1597 1 6.9883522041662678e+00 2.3809410856925145e-01 1.9889585146708566e+01 0 0 0
4916 1 5.6524647292602577e+00 7.0998096829432713e+00 1.8194539759327050e+01 1 0 0
4986 1 5.2756806009630859e+00 9.6760318606311664e+00 1.9486203374563804e+01 0 0 0
286 1 6.3657729790111297e+00 9.5286489156327416e+00 1.2534176995469178e+01 0 1 1
1765 1 4.1708096398843102e+00 1.3066454093883264e+01 1.2877226129146832e+01 1 1 1
1278 1 8.5617886178050320e+00 7.9323852954077969e+00 1.1806816297432114e+01 1 0 1
1926 1 4.4023941564917815e+00 3.7567050536140290e+00 2.3729492683458375e+01 0 1 0
5321 1 4.7488655231527623e+00 1.1695838947155726e+01 2.1485004683830301e+01 0 0 1
193 1 6.5550607310852191e+00 4.4126010972951102e-01 2.4391851859984229e+01 1 0 0
3329 1 3.9018257878894902e+00 7.7406876958868120e-01 2.3703264622569204e+01 1 0 0
1433 1 7.1825447626498127e+00 3.3639484081386746e+00 2.3903324646559472e+01 1 0 1
767 2 8.6135000000000002e+00 1.4919019630994494e+01 2.6851803571008983e+01 0 0 0
3361 1 1.9396606480542440e+00 5.0860854254916461e+00 2.4528690213192863e+01 -1 0 0
176 1 1.1951246573790770e+00 7.1232005053132577e+00 2.2851950444175959e+01 0 0 0
4970 1 4.4897159578645462e+00 6.5368532669109429e+00 2.2827964390165974e+01 1 1 0
427 1 6.7882462682746540e+00 6.4598516302462281e+00 2.4347271547654579e+01 0 0 0
2855 1 9.8398322529767401e-01 3.7984280156928429e+00 2.1582030036845858e+01 0 1 1
677 2 4.9220000000000006e+00 1.2787731112280996e+01 2.6851803571008983e+01 0 0 0
1577 1 7.2352911696884226e+00 9.1636783351793216e+00 2.3695410311423434e+01 0 -1 0
675 2 4.9220000000000006e+00 1.5629449137232333e+01 2.6851803571008983e+01 0 0 0
3620 1 6.5421653408525957e+00 1.3751804340677381e+01 2.1136617040536070e+01 1 0 0
92 1 2.3690299961801076e+00 1.2940529042212448e+01 2.1060137579958560e+01 0 0 1
1982 1 2.8442222536480415e+00 1.3600228981752162e+01 2.3858141208197345e+01 1 0 0
722 2 7.3829999999999991e+00 1.5629449137232333e+01 2.6851803571008983e+01 0 0 0
3135 1 2.7870537801278985e+00 8.2582372905021231e+00 2.0982379362247237e+01 0 1 1
461 1 5.3981574599016700e+00 1.1373680422266009e+01 2.4252063531164779e+01 0 0 0
720 2 6.1524999999999990e+00 1.4919019630994494e+01 2.6851803571008983e+01 0 0 0
1891 1 5.6620137831767474e+00 1.5966366367078242e+01 2.4181481670272607e+01 0 0 0
724 2 7.3829999999999991e+00 1.2787731112280996e+01 2.6851803571008983e+01 0 0 0
2002 1 9.6699418453339003e+00 6.4923501644657673e+00 2.3981123718477388e+01 1 0 0
679 2 6.1524999999999990e+00 1.3498160618518829e+01 2.6851803571008983e+01 0 0 0
1585 1 7.0744073737885405e+00 1.3370650808710629e+01 2.4118127512805785e+01 0 -1 0
3464 1 9.5851785367811573e+00 1.3747625076802944e+01 2.1436586366667957e+01 0 1 1
2082 1 3.4243382574621739e+00 3.1861775244463213e+00 2.0852479307730903e+01 1 0 0
726 2 8.6135000000000002e+00 1.3498160618518835e+01 2.6851803571008983e+01 0 0 0
554 2 0.0000000000000000e+00 2.8417180249513345e+00 2.6851803571008983e+01 0 0 0
556 2 0.0000000000000000e+00 0.0000000000000000e+00 2.6851803571008983e+01 0 0 0
558 2 1.2305000000000001e+00 7.1042950623783474e-01 2.6851803571008983e+01 0 0 0
565 2 1.2305000000000001e+00 2.1312885187134998e+00 2.6851803571008983e+01 0 0 0
567 2 2.4610000000000003e+00 2.8417180249513345e+00 2.6851803571008983e+01 0 0 0
569 2 2.4610000000000003e+00 0.0000000000000000e+00 2.6851803571008983e+01 0 0 0
571 2 3.6915000000000004e+00 7.1042950623783474e-01 2.6851803571008983e+01 0 0 0
586 2 3.6914999999999996e+00 2.1312885187134998e+00 2.6851803571008983e+01 0 0 0
588 2 4.9220000000000006e+00 2.8417180249513332e+00 2.6851803571008983e+01 0 0 0
590 2 4.9220000000000006e+00 0.0000000000000000e+00 2.6851803571008983e+01 0 0 0
592 2 6.1524999999999999e+00 7.1042950623783407e-01 2.6851803571008983e+01 0 0 0
615 2 6.1524999999999999e+00 2.1312885187134989e+00 2.6851803571008983e+01 0 0 0
617 2 7.3829999999999991e+00 2.8417180249513345e+00 2.6851803571008983e+01 0 0 0
619 2 7.3829999999999991e+00 0.0000000000000000e+00 2.6851803571008983e+01 0 0 0
621 2 8.6134999999999984e+00 7.1042950623783407e-01 2.6851803571008983e+01 0 0 0
652 2 8.6134999999999984e+00 2.1312885187135002e+00 2.6851803571008983e+01 0 0 0
561 2 0.0000000000000000e+00 4.2625770374269996e+00 2.6851803571008983e+01 0 0 0
563 2 1.2305000000000001e+00 4.9730065436648339e+00 2.6851803571008983e+01 0 0 0
578 2 1.2305000000000001e+00 6.3938655561404980e+00 2.6851803571008983e+01 0 0 0
582 2 2.4610000000000003e+00 4.2625770374269996e+00 2.6851803571008983e+01 0 0 0
584 2 3.6914999999999996e+00 4.9730065436648339e+00 2.6851803571008983e+01 0 0 0
607 2 3.6914999999999996e+00 6.3938655561404980e+00 2.6851803571008983e+01 0 0 0
559 2 0.0000000000000000e+00 7.1042950623783341e+00 2.6851803571008983e+01 0 0 0
580 2 2.4610000000000003e+00 7.1042950623783341e+00 2.6851803571008983e+01 0 0 0
611 2 4.9220000000000006e+00 4.2625770374269978e+00 2.6851803571008983e+01 0 0 0
613 2 6.1524999999999999e+00 4.9730065436648339e+00 2.6851803571008983e+01 0 0 0
644 2 6.1524999999999999e+00 6.3938655561404980e+00 2.6851803571008983e+01 0 0 0
648 2 7.3829999999999991e+00 4.2625770374269996e+00 2.6851803571008983e+01 0 0 0
650 2 8.6135000000000002e+00 4.9730065436648339e+00 2.6851803571008983e+01 0 0 0
689 2 8.6135000000000002e+00 6.3938655561404980e+00 2.6851803571008983e+01 0 0 0
609 2 4.9220000000000006e+00 7.1042950623783341e+00 2.6851803571008983e+01 0 0 0
646 2 7.3830000000000009e+00 7.1042950623783341e+00 2.6851803571008983e+01 0 0 0
574 2 0.0000000000000000e+00 8.5251540748539991e+00 2.6851803571008983e+01 0 0 0
576 2 1.2305000000000001e+00 9.2355835810918343e+00 2.6851803571008983e+01 0 0 0
603 2 2.4610000000000003e+00 8.5251540748539991e+00 2.6851803571008983e+01 0 0 0
605 2 3.6915000000000004e+00 9.2355835810918343e+00 2.6851803571008983e+01 0 0 0
572 2 0.0000000000000000e+00 1.1366872099805333e+01 2.6851803571008983e+01 0 0 0
599 2 1.2305000000000001e+00 1.0656442593567498e+01 2.6851803571008983e+01 0 0 0
601 2 2.4610000000000003e+00 1.1366872099805333e+01 2.6851803571008983e+01 0 0 0
636 2 3.6914999999999996e+00 1.0656442593567499e+01 2.6851803571008983e+01 0 0 0
640 2 4.9220000000000006e+00 8.5251540748539991e+00 2.6851803571008983e+01 0 0 0
642 2 6.1524999999999999e+00 9.2355835810918343e+00 2.6851803571008983e+01 0 0 0
685 2 7.3830000000000009e+00 8.5251540748539991e+00 2.6851803571008983e+01 0 0 0
687 2 8.6134999999999984e+00 9.2355835810918343e+00 2.6851803571008983e+01 0 0 0
638 2 4.9220000000000006e+00 1.1366872099805333e+01 2.6851803571008983e+01 0 0 0
681 2 6.1524999999999999e+00 1.0656442593567499e+01 2.6851803571008983e+01 0 0 0
683 2 7.3829999999999991e+00 1.1366872099805333e+01 2.6851803571008983e+01 0 0 0
728 2 8.6134999999999984e+00 1.0656442593567498e+01 2.6851803571008983e+01 0 0 0
634 2 3.6915000000000004e+00 1.3498160618518829e+01 2.6851803571008983e+01 0 0 0
593 2 0.0000000000000000e+00 1.5629449137232333e+01 2.6851803571008983e+01 0 0 0
628 2 1.2305000000000001e+00 1.4919019630994494e+01 2.6851803571008983e+01 0 0 0
630 2 2.4610000000000003e+00 1.5629449137232328e+01 2.6851803571008983e+01 0 0 0
673 2 3.6915000000000004e+00 1.4919019630994494e+01 2.6851803571008983e+01 0 0 0
595 2 0.0000000000000000e+00 1.2787731112280996e+01 2.6851803571008983e+01 0 0 0
597 2 1.2305000000000001e+00 1.3498160618518829e+01 2.6851803571008983e+01 0 0 0
632 2 2.4610000000000003e+00 1.2787731112280996e+01 2.6851803571008983e+01 0 0 0
3423 1 7.3274504498857029e-01 3.2056976398460252e-01 2.3915231333761490e+01 1 0 0
6256 1 7.7635184443263441e+00 8.2797512645460323e+00 2.0906975569039179e+01 0 1 1
358 1 1.1147259363733708e+00 4.5500908192036899e-01 2.1002169965582350e+01 0 1 0
1467 1 2.3192944572170404e-01 1.3978067115723164e+01 2.3816601189240288e+01 0 0 1
3621 1 3.2028057799095691e+00 1.6294074421349595e+01 2.3902748314179085e+01 0 0 0
3018 1 7.2482079529592616e+00 3.1064845861145645e+00 2.0849396778954578e+01 0 0 1
4981 1 4.2118025680486308e+00 3.9648798094831456e-01 2.1042628836854405e+01 0 0 0
555 2 0.0000000000000000e+00 1.4208590124756650e+00 3.0030999999998482e+01 0 0 0
557 2 0.0000000000000000e+00 0.0000000000000000e+00 3.0030999999998482e+01 0 0 0
566 2 1.2305000000000001e+00 2.1312885187134998e+00 3.0030999999998482e+01 0 0 0
568 2 2.4610000000000003e+00 1.4208590124756650e+00 3.0030999999998482e+01 0 0 0
570 2 2.4610000000000003e+00 0.0000000000000000e+00 3.0030999999998482e+01 0 0 0
587 2 3.6914999999999996e+00 2.1312885187134998e+00 3.0030999999998482e+01 0 0 0
564 2 1.2305000000000001e+00 3.5521475311891644e+00 3.0030999999998482e+01 0 0 0
585 2 3.6914999999999996e+00 3.5521475311891644e+00 3.0030999999998482e+01 0 0 0
883 2 0.0000000000000000e+00 2.8417180249513345e+00 3.3210196428985142e+01 0 0 0
884 2 0.0000000000000000e+00 0.0000000000000000e+00 3.3210196428985142e+01 0 0 0
885 2 1.2305000000000001e+00 7.1042950623783474e-01 3.3210196428985142e+01 0 0 0
889 2 1.2305000000000001e+00 2.1312885187134998e+00 3.3210196428985142e+01 0 0 0
890 2 2.4610000000000003e+00 2.8417180249513345e+00 3.3210196428985142e+01 0 0 0
891 2 2.4610000000000003e+00 0.0000000000000000e+00 3.3210196428985142e+01 0 0 0
892 2 3.6915000000000004e+00 7.1042950623783474e-01 3.3210196428985142e+01 0 0 0
900 2 3.6914999999999996e+00 2.1312885187134998e+00 3.3210196428985142e+01 0 0 0
589 2 4.9220000000000006e+00 1.4208590124756650e+00 3.0030999999998482e+01 0 0 0
591 2 4.9220000000000006e+00 0.0000000000000000e+00 3.0030999999998482e+01 0 0 0
616 2 6.1524999999999999e+00 2.1312885187134989e+00 3.0030999999998482e+01 0 0 0
618 2 7.3829999999999991e+00 1.4208590124756659e+00 3.0030999999998482e+01 0 0 0
620 2 7.3829999999999991e+00 0.0000000000000000e+00 3.0030999999998482e+01 0 0 0
653 2 8.6134999999999984e+00 2.1312885187135002e+00 3.0030999999998482e+01 0 0 0
614 2 6.1524999999999999e+00 3.5521475311891644e+00 3.0030999999998482e+01 0 0 0
651 2 8.6134999999999984e+00 3.5521475311891657e+00 3.0030999999998482e+01 0 0 0
901 2 4.9220000000000006e+00 2.8417180249513332e+00 3.3210196428985142e+01 0 0 0
902 2 4.9220000000000006e+00 0.0000000000000000e+00 3.3210196428985142e+01 0 0 0
903 2 6.1524999999999999e+00 7.1042950623783407e-01 3.3210196428985142e+01 0 0 0
915 2 6.1524999999999999e+00 2.1312885187134989e+00 3.3210196428985142e+01 0 0 0
916 2 7.3829999999999991e+00 2.8417180249513345e+00 3.3210196428985142e+01 0 0 0
917 2 7.3829999999999991e+00 0.0000000000000000e+00 3.3210196428985142e+01 0 0 0
918 2 8.6134999999999984e+00 7.1042950623783407e-01 3.3210196428985142e+01 0 0 0
934 2 8.6134999999999984e+00 2.1312885187135002e+00 3.3210196428985142e+01 0 0 0
560 2 0.0000000000000000e+00 5.6834360499026637e+00 3.0030999999998482e+01 0 0 0
562 2 0.0000000000000000e+00 4.2625770374269996e+00 3.0030999999998482e+01 0 0 0
579 2 1.2305000000000001e+00 6.3938655561404980e+00 3.0030999999998482e+01 0 0 0
581 2 2.4610000000000003e+00 5.6834360499026637e+00 3.0030999999998482e+01 0 0 0
583 2 2.4610000000000003e+00 4.2625770374269996e+00 3.0030999999998482e+01 0 0 0
608 2 3.6914999999999996e+00 6.3938655561404980e+00 3.0030999999998482e+01 0 0 0
577 2 1.2305000000000001e+00 7.8147245686161639e+00 3.0030999999998482e+01 0 0 0
606 2 3.6914999999999996e+00 7.8147245686161639e+00 3.0030999999998482e+01 0 0 0
887 2 0.0000000000000000e+00 4.2625770374269996e+00 3.3210196428985142e+01 0 0 0
888 2 1.2305000000000001e+00 4.9730065436648339e+00 3.3210196428985142e+01 0 0 0
896 2 1.2305000000000001e+00 6.3938655561404980e+00 3.3210196428985142e+01 0 0 0
898 2 2.4610000000000003e+00 4.2625770374269996e+00 3.3210196428985142e+01 0 0 0
899 2 3.6914999999999996e+00 4.9730065436648339e+00 3.3210196428985142e+01 0 0 0
911 2 3.6914999999999996e+00 6.3938655561404980e+00 3.3210196428985142e+01 0 0 0
886 2 0.0000000000000000e+00 7.1042950623783341e+00 3.3210196428985142e+01 0 0 0
897 2 2.4610000000000003e+00 7.1042950623783341e+00 3.3210196428985142e+01 0 0 0
610 2 4.9220000000000006e+00 5.6834360499026637e+00 3.0030999999998482e+01 0 0 0
612 2 4.9220000000000006e+00 4.2625770374269978e+00 3.0030999999998482e+01 0 0 0
645 2 6.1524999999999999e+00 6.3938655561404980e+00 3.0030999999998482e+01 0 0 0
647 2 7.3829999999999991e+00 5.6834360499026637e+00 3.0030999999998482e+01 0 0 0
649 2 7.3829999999999991e+00 4.2625770374269996e+00 3.0030999999998482e+01 0 0 0
690 2 8.6135000000000002e+00 6.3938655561404980e+00 3.0030999999998482e+01 0 0 0
643 2 6.1524999999999999e+00 7.8147245686161639e+00 3.0030999999998482e+01 0 0 0
688 2 8.6135000000000002e+00 7.8147245686161639e+00 3.0030999999998482e+01 0 0 0
913 2 4.9220000000000006e+00 4.2625770374269978e+00 3.3210196428985142e+01 0 0 0
914 2 6.1524999999999999e+00 4.9730065436648339e+00 3.3210196428985142e+01 0 0 0
930 2 6.1524999999999999e+00 6.3938655561404980e+00 3.3210196428985142e+01 0 0 0
932 2 7.3829999999999991e+00 4.2625770374269996e+00 3.3210196428985142e+01 0 0 0
933 2 8.6135000000000002e+00 4.9730065436648339e+00 3.3210196428985142e+01 0 0 0
953 2 8.6135000000000002e+00 6.3938655561404980e+00 3.3210196428985142e+01 0 0 0
912 2 4.9220000000000006e+00 7.1042950623783341e+00 3.3210196428985142e+01 0 0 0
931 2 7.3830000000000009e+00 7.1042950623783341e+00 3.3210196428985142e+01 0 0 0
573 2 0.0000000000000000e+00 9.9460130873296642e+00 3.0030999999998482e+01 0 0 0
575 2 0.0000000000000000e+00 8.5251540748539991e+00 3.0030999999998482e+01 0 0 0
602 2 2.4610000000000003e+00 9.9460130873296642e+00 3.0030999999998482e+01 0 0 0
604 2 2.4610000000000003e+00 8.5251540748539991e+00 3.0030999999998482e+01 0 0 0
598 2 1.2305000000000001e+00 1.2077301606043163e+01 3.0030999999998482e+01 0 0 0
600 2 1.2305000000000001e+00 1.0656442593567498e+01 3.0030999999998482e+01 0 0 0
635 2 3.6914999999999996e+00 1.2077301606043163e+01 3.0030999999998482e+01 0 0 0
637 2 3.6914999999999996e+00 1.0656442593567499e+01 3.0030999999998482e+01 0 0 0
894 2 0.0000000000000000e+00 8.5251540748539991e+00 3.3210196428985142e+01 0 0 0
895 2 1.2305000000000001e+00 9.2355835810918343e+00 3.3210196428985142e+01 0 0 0
909 2 2.4610000000000003e+00 8.5251540748539991e+00 3.3210196428985142e+01 0 0 0
910 2 3.6915000000000004e+00 9.2355835810918343e+00 3.3210196428985142e+01 0 0 0
893 2 0.0000000000000000e+00 1.1366872099805333e+01 3.3210196428985142e+01 0 0 0
907 2 1.2305000000000001e+00 1.0656442593567498e+01 3.3210196428985142e+01 0 0 0
908 2 2.4610000000000003e+00 1.1366872099805333e+01 3.3210196428985142e+01 0 0 0
926 2 3.6914999999999996e+00 1.0656442593567499e+01 3.3210196428985142e+01 0 0 0
639 2 4.9220000000000006e+00 9.9460130873296642e+00 3.0030999999998482e+01 0 0 0
641 2 4.9220000000000006e+00 8.5251540748539991e+00 3.0030999999998482e+01 0 0 0
684 2 7.3830000000000009e+00 9.9460130873296642e+00 3.0030999999998482e+01 0 0 0
686 2 7.3830000000000009e+00 8.5251540748539991e+00 3.0030999999998482e+01 0 0 0
680 2 6.1524999999999999e+00 1.2077301606043163e+01 3.0030999999998482e+01 0 0 0
682 2 6.1524999999999999e+00 1.0656442593567499e+01 3.0030999999998482e+01 0 0 0
727 2 8.6135000000000002e+00 1.2077301606043163e+01 3.0030999999998482e+01 0 0 0
729 2 8.6134999999999984e+00 1.0656442593567498e+01 3.0030999999998482e+01 0 0 0
928 2 4.9220000000000006e+00 8.5251540748539991e+00 3.3210196428985142e+01 0 0 0
929 2 6.1524999999999999e+00 9.2355835810918343e+00 3.3210196428985142e+01 0 0 0
951 2 7.3830000000000009e+00 8.5251540748539991e+00 3.3210196428985142e+01 0 0 0
952 2 8.6134999999999984e+00 9.2355835810918343e+00 3.3210196428985142e+01 0 0 0
927 2 4.9220000000000006e+00 1.1366872099805333e+01 3.3210196428985142e+01 0 0 0
949 2 6.1524999999999999e+00 1.0656442593567499e+01 3.3210196428985142e+01 0 0 0
950 2 7.3829999999999991e+00 1.1366872099805333e+01 3.3210196428985142e+01 0 0 0
973 2 8.6134999999999984e+00 1.0656442593567498e+01 3.3210196428985142e+01 0 0 0
596 2 0.0000000000000000e+00 1.2787731112280996e+01 3.0030999999998482e+01 0 0 0
633 2 2.4610000000000003e+00 1.2787731112280996e+01 3.0030999999998482e+01 0 0 0
594 2 0.0000000000000000e+00 1.4208590124756663e+01 3.0030999999998482e+01 0 0 0
629 2 1.2305000000000001e+00 1.4919019630994494e+01 3.0030999999998482e+01 0 0 0
631 2 2.4610000000000003e+00 1.4208590124756663e+01 3.0030999999998482e+01 0 0 0
674 2 3.6915000000000004e+00 1.4919019630994494e+01 3.0030999999998482e+01 0 0 0
905 2 0.0000000000000000e+00 1.2787731112280996e+01 3.3210196428985142e+01 0 0 0
906 2 1.2305000000000001e+00 1.3498160618518829e+01 3.3210196428985142e+01 0 0 0
924 2 2.4610000000000003e+00 1.2787731112280996e+01 3.3210196428985142e+01 0 0 0
925 2 3.6915000000000004e+00 1.3498160618518829e+01 3.3210196428985142e+01 0 0 0
904 2 0.0000000000000000e+00 1.5629449137232333e+01 3.3210196428985142e+01 0 0 0
922 2 1.2305000000000001e+00 1.4919019630994494e+01 3.3210196428985142e+01 0 0 0
923 2 2.4610000000000003e+00 1.5629449137232328e+01 3.3210196428985142e+01 0 0 0
945 2 3.6915000000000004e+00 1.4919019630994494e+01 3.3210196428985142e+01 0 0 0
678 2 4.9220000000000006e+00 1.2787731112280996e+01 3.0030999999998482e+01 0 0 0
725 2 7.3829999999999991e+00 1.2787731112280996e+01 3.0030999999998482e+01 0 0 0
676 2 4.9220000000000006e+00 1.4208590124756663e+01 3.0030999999998482e+01 0 0 0
721 2 6.1524999999999990e+00 1.4919019630994494e+01 3.0030999999998482e+01 0 0 0
723 2 7.3830000000000009e+00 1.4208590124756663e+01 3.0030999999998482e+01 0 0 0
768 2 8.6135000000000002e+00 1.4919019630994494e+01 3.0030999999998482e+01 0 0 0
947 2 4.9220000000000006e+00 1.2787731112280996e+01 3.3210196428985142e+01 0 0 0
948 2 6.1524999999999990e+00 1.3498160618518829e+01 3.3210196428985142e+01 0 0 0
971 2 7.3829999999999991e+00 1.2787731112280996e+01 3.3210196428985142e+01 0 0 0
972 2 8.6135000000000002e+00 1.3498160618518835e+01 3.3210196428985142e+01 0 0 0
946 2 4.9220000000000006e+00 1.5629449137232333e+01 3.3210196428985142e+01 0 0 0
969 2 6.1524999999999990e+00 1.4919019630994494e+01 3.3210196428985142e+01 0 0 0
970 2 7.3829999999999991e+00 1.5629449137232333e+01 3.3210196428985142e+01 0 0 0
993 2 8.6135000000000002e+00 1.4919019630994494e+01 3.3210196428985142e+01 0 0 0
3172 1 4.4859569337041254e+00 1.0803850963802204e+00 3.6320434808412273e+01 1 1 -1
1274 1 1.1026615361125054e+00 1.3411924000005639e+01 3.6283310593659408e+01 1 -1 0
3331 1 6.8833688507450734e+00 1.4732388860270884e+01 3.8492707462643438e+01 0 0 -1
1315 1 4.2260188610958300e+00 1.1123133205292273e+01 3.8500452490494155e+01 0 0 0
1750 1 1.3020206551060312e-01 2.3508236602711197e+00 3.5812881483878101e+01 0 0 -1
1418 1 8.3890794300816900e+00 1.1734686797387891e+01 3.5792968347000169e+01 0 0 0
4567 1 7.1467662930278681e+00 3.9147492112196786e-01 3.6936228696147950e+01 1 0 -1
1352 1 6.9254433976212173e+00 5.4212706585721646e+00 3.5881534289309329e+01 1 0 0
2893 1 7.2925287120350983e+00 5.5877230143697814e+00 3.9021802702394595e+01 0 0 0
6017 1 1.9630096885492365e+00 4.9021291357170149e+00 3.5706899476935007e+01 2 1 0
2842 1 4.5553706996552634e+00 3.6437539107302070e+00 3.5807470337488226e+01 -1 1 0
6194 1 3.4377067301038453e+00 6.7985449127821642e+00 3.7402393406432680e+01 0 0 0
4435 1 1.5344201656152578e+00 3.5202634203245542e+00 3.8365434092295800e+01 0 0 0
6178 1 3.2599185839151895e-01 1.6178624993601002e+01 3.5914143480407688e+01 1 0 0
5235 1 6.8538768720282190e+00 1.0513328722382068e+01 3.7738322339736143e+01 1 -1 0
2932 1 6.4423046428955812e+00 1.3903390540992891e+01 3.5824586884272009e+01 1 0 0
2135 1 6.6903351060426850e+00 8.3576478022305754e+00 3.5571515384709002e+01 1 1 0
3681 1 3.7866272521265767e+00 1.3229904900874761e+01 3.6846225692928741e+01 1 0 0
3063 1 9.3043246018867816e+00 8.0885461075370060e+00 3.5793043821403472e+01 0 1 0
421 1 9.3588406397579232e-02 1.0384105937062504e+01 3.6415256547442738e+01 0 0 0
172 1 2.1454108039284900e+00 9.2743941959710092e+00 3.8026587087003634e+01 1 0 0
5231 1 8.5403547054079709e+00 2.6899730049332180e+00 3.6537468392117717e+01 0 1 0
6108 1 9.4108546646808655e+00 3.8118344089354275e+00 3.8826475316445809e+01 0 0 0
118 1 4.6979634391821651e-01 7.5167008498922261e+00 3.5656708554925018e+01 0 0 -1
1452 1 9.6406424336279439e+00 7.6686147893504044e+00 3.8603300532054874e+01 0 0 0
6031 1 4.1432137957001602e+00 1.4946653642168043e+01 3.9198863925391521e+01 0 0 0
3641 1 4.0575737852268308e+00 1.7428047940644440e+00 3.8965474335374978e+01 1 0 0
4500 1 2.6251643815929544e+00 1.3073292006151599e+01 4.8152619255910423e+01 1 0 0
1385 1 5.1725901618406169e+00 4.0580507923988058e+00 4.0153680091454945e+01 0 0 0
4475 1 3.4402761274099669e+00 1.5569429672896504e+01 4.6452830083246795e+01 1 -1 0
6175 1 6.3154586818987735e+00 4.1420769943711395e+00 4.3720426373005196e+01 0 1 0
6301 1 8.0582952308493709e+00 1.4643962513904031e+01 4.6051897795285115e+01 1 -1 0
489 1 1.2411420095436776e+00 4.7288091945930120e+00 4.0742326511761419e+01 0 0 0
2846 1 3.5505811257375299e+00 4.2047767615740028e+00 4.2798326382065724e+01 0 1 0
4547 1 3.7330999941158862e+00 8.6426861350518358e+00 4.2335126772087634e+01 1 0 0
1789 1 5.7450460749268970e+00 1.0121423843431391e+01 4.6987828526095356e+01 1 1 -1
4578 1 8.3420986600157239e+00 1.2295942722203387e+01 3.9609750754973703e+01 1 0 0
2086 1 7.3987358373796202e+00 6.7786103211099595e+00 4.1513222876105132e+01 0 0 0
4710 1 8.0325881921191407e+00 3.2510443261378525e+00 4.1693441578286908e+01 1 0 -1
1581 1 5.9746169801762532e+00 8.9489358570474860e+00 4.0384208602947695e+01 0 0 0
6272 1 1.6897316407447507e+00 1.1559115963316163e+01 4.1818083433714435e+01 0 -1 0
50 1 1.0836618501173474e+00 9.3440259338475329e+00 4.0465628667129479e+01 0 0 0
4531 1 6.0641332642484578e+00 1.0815375704381427e+01 4.2655083537359289e+01 0 0 0
1642 1 4.0850221525912156e+00 1.2300719148578997e+01 4.0809582181842430e+01 1 0 -1
3208 1 8.8559270996416668e+00 1.0655573271279726e+01 4.2947063044528676e+01 0 1 -1
1634 1 8.3668924702488265e+00 4.7523303568925040e-01 4.1263737598803203e+01 0 0 -1
5324 1 5.9038103022078205e+00 1.4439803683096901e+01 4.2122369050632955e+01 1 -1 0
2892 1 5.5800484181029493e+00 1.4275281350200217e+01 4.4948601421843179e+01 0 0 0
1939 1 1.4765065597290026e+00 1.0663950001799995e+01 4.7734025547752964e+01 0 1 -1
2953 1 9.0132774734408461e+00 1.5235240699919146e+01 4.2767390181991544e+01 0 0 0
187 1 2.6721476927297032e+00 2.2034174095776908e+00 4.4413098044224455e+01 1 2 -1
3493 1 3.8890478156371455e+00 8.4691595702380285e-01 4.6990158929097845e+01 1 1 -1
6252 1 7.7619138342680118e+00 2.7086647808976925e+00 4.7113948442210742e+01 0 1 0
2905 1 2.3760067008022104e-01 1.3856363395690092e+01 4.1266068800841154e+01 1 1 0
4608 1 5.8210686793632069e+00 1.8407513459103246e+00 4.5067777073778302e+01 1 1 0
6297 1 3.2123825318100301e+00 6.4964453001008735e+00 4.4761998695731791e+01 1 0 0
490 1 3.2970038142425917e+00 6.6155409445308644e+00 4.7450359914326739e+01 0 0 0