LAMMPS data file via write_data, version 16 Mar 2018, timestep = 6000000

6337 atoms
2 atom types

0.0000000000000000e+00 4.9219999999999999e+01 xlo xhi
0.0000000000000000e+00 4.9019635930410494e+01 ylo yhi
1.9003728949913601e+00 5.8161627105007312e+01 zlo zhi

Masses

1 18.015
2 12.01

Atoms # atomic

1432 1 9.9362660729230889e-01 1.9144010475514559e+00 6.4619133439602274e+00 3 -1 1
2013 1 8.2826070478648681e+00 1.3185132409691374e+01 9.9946482988713932e+00 -1 1 0
1948 1 6.0064294512940526e+00 1.4497617512136145e+00 5.2836474222927947e+00 -2 0 0
4910 1 6.3586594982317743e+00 1.6590006489599751e+00 2.4035548513574847e+00 -1 -1 1
3347 1 8.6310843401242519e+00 1.6232061715618140e+00 6.1901136558414036e+00 1 1 0
4559 1 6.1999906376742031e-01 1.3809935265713362e+01 9.8630973886726849e+00 1 -2 0
5006 1 2.5637861594418969e+00 4.0486685851212991e+00 5.3231183315841015e+00 1 0 0
64 1 5.1050301602791954e+00 3.9396373018337303e+00 6.3914151795928520e+00 0 1 0
4891 1 2.3911542937250307e+00 4.1793489686715004e+00 2.5968916950569585e+00 -2 0 0
5133 1 1.6141640057142026e+00 6.5664420126516232e+00 6.3262815345540702e+00 0 2 0
3337 1 5.9629298408330724e+00 6.3351428462062813e+00 5.5156423575280362e+00 -1 5 0
2994 1 8.9023777385590854e+00 6.1696146554079085e+00 6.0820304780260939e+00 -2 3 1
6033 1 6.4222053103736680e+00 6.2419836117074006e+00 2.7891063104281630e+00 1 -2 1
5980 1 2.7947285140575269e+00 8.7545195488707073e+00 5.2597281383760102e+00 -1 3 1
1996 1 1.5761209441095174e+00 1.1200301744111231e+01 6.2519334399063782e+00 3 3 0
4998 1 2.9352818873004720e+00 8.9689910649594555e+00 2.5485726602424039e+00 0 0 0
1492 1 5.8347110207415742e+00 1.3445433222268560e+01 9.2169539342496059e+00 1 1 0
1545 1 5.2159400116513188e+00 8.8910533059899777e+00 6.5708094796444021e+00 0 -1 1
5220 1 6.8915230262411553e+00 1.1046561473589412e+01 5.5471065743794892e+00 2 0 0
4461 1 6.9441744869636208e+00 1.0781226932926208e+01 2.7032141757387467e+00 -2 -1 1
1277 1 9.2568737468950975e+00 1.0881670516215609e+01 9.2491629872153442e+00 1 -1 1
3036 1 2.2165053944167017e+00 1.6072985371116381e+01 6.2410523271075711e+00 1 -1 1
214 1 3.0049420263811757e+00 1.3611862028354912e+01 5.5070190651826643e+00 2 3 0
3341 1 3.2926167772254469e+00 1.3525852995843451e+01 2.5272771796241429e+00 -1 4 1
5126 1 5.4832510082380290e+00 1.3215861374045485e+01 6.4782801185548733e+00 0 1 0
550 1 6.7073566281633568e+00 1.5438499428205040e+01 5.4714419823571365e+00 -4 2 0
136 1 6.8156994503383386e+00 1.5505648777971780e+01 2.5654286943435745e+00 -1 3 0
3074 1 9.5982929704409905e+00 1.5656766298671355e+01 6.3407283240226979e+00 3 3 1
6081 1 3.7667639845619814e+00 1.8633177165797008e+00 1.0149023533324149e+01 2 -2 1
1273 1 1.2351165391142265e+00 1.9027862720781448e+00 9.2983570898674373e+00 0 0 1
2967 1 8.4992657722232963e+00 1.3886746106675958e+00 8.9540287341049840e+00 0 -2 1
1408 1 7.6343859515412040e+00 3.7843730924685541e+00 1.0297488812821845e+01 1 1 1
6127 1 3.8735106859863202e+00 6.4444931140505330e+00 9.9359306383566040e+00 5 0 0
3339 1 1.1162043484640414e+00 6.5952197144994944e+00 9.0434568074414852e+00 2 -1 0
3550 1 4.9842586406544038e+00 4.0306500366780353e+00 9.2341479122678258e+00 -2 2 0
3465 1 4.8051555817525093e+00 1.6101070672364621e+01 9.8467877351481050e+00 1 2 0
6 1 8.7514816860816218e+00 6.1185835520232104e+00 8.7434257650258989e+00 1 2 1
5225 1 1.7561682402037142e+00 1.1202739499406686e+01 8.9274280792744989e+00 -1 0 0
4423 1 4.0922639803705829e+00 1.1219362868635482e+01 1.0183355807841002e+01 2 -1 1
1833 1 2.0895087707918525e+00 1.6036099035583714e+01 9.0385543996216882e+00 0 3 0
1817 1 9.4705150236592299e+00 1.1053711884762318e+01 6.3999164705417577e+00 -1 0 0
231 1 5.1164388120128264e+00 8.7549159440108468e+00 9.1436581101728702e+00 2 1 1
2892 1 7.7697413958278627e+00 8.6182174420110886e+00 9.8645243927286295e+00 -1 -2 1
4509 1 9.6471831214246677e+00 1.5475901421757797e+01 9.0704015357732874e+00 -1 -2 0
2121 1 4.5164133939396306e-01 8.8821013363372145e+00 9.9484887226944920e+00 2 -1 0
3379 1 7.8777194250402029e+00 3.9587467648141597e+00 2.0949798340327703e+00 3 1 0
90 1 3.7061695065504958e+00 6.5948860485747991e+00 1.9678334106382493e+00 3 2 0
5087 1 3.6284157941347943e+00 1.8459617214849127e+00 1.9682964171922634e+00 -5 1 0
4542 1 3.5862633299336757e+00 1.9826011968133250e+00 1.2833026162326206e+01 -1 0 1
6242 1 1.0812510808816451e+00 1.9262806442947051e+00 1.3742478678319399e+01 -3 -2 0
4730 1 8.4061247597586970e+00 1.6296802231030643e+00 1.3867278459871226e+01 0 3 1
1798 1 7.5317879348397545e+00 4.1895912172930112e+00 1.2962650705299161e+01 0 -6 0
3500 1 3.8807148443232093e+00 6.7374534511003592e+00 1.2846944456826353e+01 0 0 0
3230 1 1.1467346120873159e+00 6.6390745508398457e+00 1.3593389436324887e+01 2 1 0
1755 1 9.3729000430611791e+00 1.5594264148986047e+01 1.6572425081272261e+01 1 -3 0
6098 1 4.9669760991377636e+00 4.0121175914898357e+00 1.3835231661179112e+01 -1 -1 1
5179 1 8.9292085600073641e+00 6.1482190010439632e+00 1.3845703168768125e+01 -1 -1 0
2 1 1.8416661638632210e+00 1.1182561096081313e+01 1.3787103958205616e+01 2 1 0
5068 1 4.3120298978878262e+00 1.1084538246736377e+01 1.2990581802560435e+01 2 1 0
340 1 2.3975933150355008e-01 9.0699393188254760e+00 2.0163434575729610e+01 -1 3 0
3019 1 8.0803153243455181e+00 8.6468128804543358e+00 1.2774491682261612e+01 1 -4 1
4486 1 5.3607881975249292e+00 8.7008507266157693e+00 1.3811004235858212e+01 3 2 1
1299 1 9.3178096993172481e+00 1.0949984574981334e+01 1.3546609417869563e+01 -1 -1 0
5292 1 3.9365003556773734e+00 6.2546604746192198e+00 2.0543162050544890e+01 -4 -2 1
1944 1 4.7883483165656751e+00 1.6172795925274077e+01 1.2745476274022975e+01 1 1 0
2940 1 4.6756899860258381e+00 1.5771983937675222e+01 2.0009754430146057e+01 2 1 1
86 1 5.7035321852004799e+00 1.3625736791427721e+01 1.3739368225351452e+01 0 -3 0
1869 1 8.4069140240656530e+00 1.3344534812108739e+01 1.2971938655575331e+01 1 2 0
2923 1 4.0980886517415955e+00 1.1405685038961664e+01 2.0357394045638191e+01 0 0 1
519 1 1.0217054686384481e+00 1.7205582621294655e+00 1.6566302029106581e+01 -2 2 1
3228 1 3.6965906114943774e+00 2.0092536514980948e+00 1.7582717943845438e+01 0 2 1
5023 1 6.6804528542081587e-01 1.3519107290037898e+01 2.0153936131027255e+01 1 -1 0
4755 1 8.2956050825122780e+00 1.7908398390825953e+00 1.6809118017812601e+01 4 4 0
1558 1 6.9017934173940909e-01 1.3908235197600645e+01 1.7472786426091059e+01 0 2 1
515 1 9.4328123791428808e-01 6.7497609870539659e+00 1.6320770279001117e+01 0 -2 1
483 1 3.6268948402851846e+00 6.5879553851797539e+00 1.7559101168980693e+01 4 0 1
6294 1 4.7284523232641682e+00 4.3893012839637633e+00 1.6724710396604699e+01 0 -1 1
3389 1 4.5103166823836025e+00 1.5896029858436851e+01 1.7334637496079068e+01 1 -4 1
6047 1 7.1800862851316101e+00 4.1706603078801638e+00 1.7686231758745201e+01 1 0 1
1571 1 8.5656436168025571e+00 6.2434032132709962e+00 1.6583436345763843e+01 0 -1 0
3690 1 1.1372595431229682e+00 1.3694664446335194e+01 1.2708498685367504e+01 1 -3 0
1304 1 7.7663970481085505e+00 1.3399641263638951e+01 1.7501401109958309e+01 1 3 1
234 1 1.4799270306995735e+00 1.1278332046904119e+01 1.6456249845566909e+01 1 0 0
1793 1 3.9356038991262681e+00 1.1078181795726362e+01 1.7430950580540205e+01 0 -1 0
1501 1 5.1681934339706768e+00 1.3460467741745701e+01 1.6516116357226036e+01 1 2 0
3554 1 3.3004053075727926e+00 1.2525849502323558e+00 2.0251483600507800e+01 4 -1 0
5065 1 7.6751978357454265e+00 8.6794500979719640e+00 1.7387464203887284e+01 0 -1 1
3456 1 9.0434516369014819e+00 1.1050551340105383e+01 1.6398676925288626e+01 -1 2 0
1865 1 4.9989589007644231e+00 8.7432960839384481e+00 1.6550831458384369e+01 -1 -2 0
4831 1 7.4909092446357493e+00 8.8156935906929608e+00 2.0226550541304270e+01 -1 3 0
5232 1 8.2551238088559646e+00 1.3304560990882674e+01 2.0190620690872255e+01 0 1 1
4517 1 1.9342044776923029e+00 1.6185545937637063e+01 1.6479990491387632e+01 -2 -2 1
1537 1 2.1369883154325446e+00 1.6145109404366526e+01 1.3784004236076022e+01 1 1 1
1353 1 7.1852551234826270e-02 9.0592457687913459e+00 1.2790659806603738e+01 1 2 1
83 1 7.3525177247368125e+00 3.8396927172937274e+00 2.0547176070382545e+01 0 1 0
1485 1 6.7945805287905614e-03 9.2154159117129772e+00 1.7396061294090238e+01 1 -2 0
256 1 1.4883107964617441e+00 1.3213891450276793e+00 2.4095974293605387e+01 0 0 0
6299 1 2.6205384468606177e+00 3.7192556378568571e+00 2.4053337797293395e+01 2 -2 1
279 1 5.2583940001125500e+00 2.7127403420425593e+00 2.4289647143693731e+01 0 1 0
4624 1 5.8804774329137262e+00 1.5806401817910762e+00 2.1476007459385407e+01 0 -2 1
724 2 7.3829999999999991e+00 1.2787731112280996e+01 2.6791088151619018e+01 0 0 0
292 1 2.6461020383578324e+00 3.7385924294560051e+00 2.1195227206250465e+01 -1 0 0
3432 1 3.2823732008399520e+00 8.5775171606665985e+00 2.3958487216643938e+01 3 -1 0
679 2 6.1524999999999990e+00 1.3498160618518829e+01 2.6791088151619018e+01 0 0 0
3511 1 7.1317418372941335e+00 4.7226674753555260e+00 2.4413974775153005e+01 1 -2 0
1491 1 5.7637995591573361e+00 7.3457641458804996e+00 2.3776522263758643e+01 0 4 1
1721 1 1.8884551216618981e+00 1.1152889143899163e+01 2.4328815257285651e+01 1 0 1
4968 1 6.7849139599973860e+00 1.1256419754301056e+01 2.1443178666050269e+01 3 -1 1
6093 1 3.5927975508638195e+00 1.3259728501721934e+01 2.3803723053897222e+01 1 1 0
1278 1 7.4152449563425149e+00 9.5277390590742108e+00 2.4150584663330520e+01 1 1 1
350 1 2.9910977474202300e+00 8.8665021294459798e+00 2.1085749346510156e+01 -4 0 0
3327 1 6.1021002732107128e+00 1.2282290455184146e+01 2.4259238593941458e+01 2 -2 1
1349 1 3.1622882196485356e+00 1.3732061797782556e+01 2.1097168756608660e+01 0 -2 1
1320 1 2.4252380247406444e+00 1.5851533518705450e+01 2.4405465139018052e+01 0 -2 1
3704 1 1.6017305481465649e+00 6.3501129764805384e+00 2.3738705634115025e+01 -3 2 1
461 1 7.6051348623158894e+00 1.4621324729823680e+01 2.4172305655606440e+01 -1 -1 0
5301 1 7.2974798844016950e+00 1.5803630366434074e+01 2.1458997918335999e+01 -3 3 1
722 2 7.3829999999999991e+00 1.5629449137232333e+01 2.6791088151619018e+01 0 0 0
554 2 0.0000000000000000e+00 2.8417180249513345e+00 2.6791088151619018e+01 0 0 0
556 2 0.0000000000000000e+00 0.0000000000000000e+00 2.6791088151619018e+01 0 0 0
558 2 1.2305000000000001e+00 7.1042950623783474e-01 2.6791088151619018e+01 0 0 0
565 2 1.2305000000000001e+00 2.1312885187134998e+00 2.6791088151619018e+01 0 0 0
567 2 2.4610000000000003e+00 2.8417180249513345e+00 2.6791088151619018e+01 0 0 0
569 2 2.4610000000000003e+00 0.0000000000000000e+00 2.6791088151619018e+01 0 0 0
571 2 3.6915000000000004e+00 7.1042950623783474e-01 2.6791088151619018e+01 0 0 0
586 2 3.6914999999999996e+00 2.1312885187134998e+00 2.6791088151619018e+01 0 0 0
588 2 4.9220000000000006e+00 2.8417180249513332e+00 2.6791088151619018e+01 0 0 0
590 2 4.9220000000000006e+00 0.0000000000000000e+00 2.6791088151619018e+01 0 0 0
592 2 6.1524999999999999e+00 7.1042950623783407e-01 2.6791088151619018e+01 0 0 0
615 2 6.1524999999999999e+00 2.1312885187134989e+00 2.6791088151619018e+01 0 0 0
617 2 7.3829999999999991e+00 2.8417180249513345e+00 2.6791088151619018e+01 0 0 0
619 2 7.3829999999999991e+00 0.0000000000000000e+00 2.6791088151619018e+01 0 0 0
621 2 8.6134999999999984e+00 7.1042950623783407e-01 2.6791088151619018e+01 0 0 0
652 2 8.6134999999999984e+00 2.1312885187135002e+00 2.6791088151619018e+01 0 0 0
561 2 0.0000000000000000e+00 4.2625770374269996e+00 2.6791088151619018e+01 0 0 0
563 2 1.2305000000000001e+00 4.9730065436648339e+00 2.6791088151619018e+01 0 0 0
578 2 1.2305000000000001e+00 6.3938655561404980e+00 2.6791088151619018e+01 0 0 0
582 2 2.4610000000000003e+00 4.2625770374269996e+00 2.6791088151619018e+01 0 0 0
584 2 3.6914999999999996e+00 4.9730065436648339e+00 2.6791088151619018e+01 0 0 0
607 2 3.6914999999999996e+00 6.3938655561404980e+00 2.6791088151619018e+01 0 0 0
559 2 0.0000000000000000e+00 7.1042950623783341e+00 2.6791088151619018e+01 0 0 0
580 2 2.4610000000000003e+00 7.1042950623783341e+00 2.6791088151619018e+01 0 0 0
611 2 4.9220000000000006e+00 4.2625770374269978e+00 2.6791088151619018e+01 0 0 0
613 2 6.1524999999999999e+00 4.9730065436648339e+00 2.6791088151619018e+01 0 0 0
644 2 6.1524999999999999e+00 6.3938655561404980e+00 2.6791088151619018e+01 0 0 0
648 2 7.3829999999999991e+00 4.2625770374269996e+00 2.6791088151619018e+01 0 0 0
650 2 8.6135000000000002e+00 4.9730065436648339e+00 2.6791088151619018e+01 0 0 0
689 2 8.6135000000000002e+00 6.3938655561404980e+00 2.6791088151619018e+01 0 0 0
609 2 4.9220000000000006e+00 7.1042950623783341e+00 2.6791088151619018e+01 0 0 0
646 2 7.3830000000000009e+00 7.1042950623783341e+00 2.6791088151619018e+01 0 0 0
574 2 0.0000000000000000e+00 8.5251540748539991e+00 2.6791088151619018e+01 0 0 0
576 2 1.2305000000000001e+00 9.2355835810918343e+00 2.6791088151619018e+01 0 0 0
603 2 2.4610000000000003e+00 8.5251540748539991e+00 2.6791088151619018e+01 0 0 0
605 2 3.6915000000000004e+00 9.2355835810918343e+00 2.6791088151619018e+01 0 0 0
572 2 0.0000000000000000e+00 1.1366872099805333e+01 2.6791088151619018e+01 0 0 0
599 2 1.2305000000000001e+00 1.0656442593567498e+01 2.6791088151619018e+01 0 0 0
601 2 2.4610000000000003e+00 1.1366872099805333e+01 2.6791088151619018e+01 0 0 0
636 2 3.6914999999999996e+00 1.0656442593567499e+01 2.6791088151619018e+01 0 0 0
640 2 4.9220000000000006e+00 8.5251540748539991e+00 2.6791088151619018e+01 0 0 0
642 2 6.1524999999999999e+00 9.2355835810918343e+00 2.6791088151619018e+01 0 0 0
685 2 7.3830000000000009e+00 8.5251540748539991e+00 2.6791088151619018e+01 0 0 0
687 2 8.6134999999999984e+00 9.2355835810918343e+00 2.6791088151619018e+01 0 0 0
638 2 4.9220000000000006e+00 1.1366872099805333e+01 2.6791088151619018e+01 0 0 0
681 2 6.1524999999999999e+00 1.0656442593567499e+01 2.6791088151619018e+01 0 0 0
683 2 7.3829999999999991e+00 1.1366872099805333e+01 2.6791088151619018e+01 0 0 0
728 2 8.6134999999999984e+00 1.0656442593567498e+01 2.6791088151619018e+01 0 0 0
632 2 2.4610000000000003e+00 1.2787731112280996e+01 2.6791088151619018e+01 0 0 0
630 2 2.4610000000000003e+00 1.5629449137232328e+01 2.6791088151619018e+01 0 0 0
673 2 3.6915000000000004e+00 1.4919019630994494e+01 2.6791088151619018e+01 0 0 0
597 2 1.2305000000000001e+00 1.3498160618518829e+01 2.6791088151619018e+01 0 0 0
628 2 1.2305000000000001e+00 1.4919019630994494e+01 2.6791088151619018e+01 0 0 0
634 2 3.6915000000000004e+00 1.3498160618518829e+01 2.6791088151619018e+01 0 0 0
593 2 0.0000000000000000e+00 1.5629449137232333e+01 2.6791088151619018e+01 0 0 0
595 2 0.0000000000000000e+00 1.2787731112280996e+01 2.6791088151619018e+01 0 0 0
720 2 6.1524999999999990e+00 1.4919019630994494e+01 2.6791088151619018e+01 0 0 0
726 2 8.6135000000000002e+00 1.3498160618518835e+01 2.6791088151619018e+01 0 0 0
677 2 4.9220000000000006e+00 1.2787731112280996e+01 2.6791088151619018e+01 0 0 0
675 2 4.9220000000000006e+00 1.5629449137232333e+01 2.6791088151619018e+01 0 0 0
767 2 8.6135000000000002e+00 1.4919019630994494e+01 2.6791088151619018e+01 0 0 0
3171 1 6.2717741692946563e+00 6.2583277182954893e+00 2.1281566118160082e+01 -2 0 0
555 2 0.0000000000000000e+00 1.4208590124756650e+00 3.0030999999999377e+01 0 0 0
557 2 0.0000000000000000e+00 0.0000000000000000e+00 3.0030999999999377e+01 0 0 0
566 2 1.2305000000000001e+00 2.1312885187134998e+00 3.0030999999999377e+01 0 0 0
568 2 2.4610000000000003e+00 1.4208590124756650e+00 3.0030999999999377e+01 0 0 0
570 2 2.4610000000000003e+00 0.0000000000000000e+00 3.0030999999999377e+01 0 0 0
587 2 3.6914999999999996e+00 2.1312885187134998e+00 3.0030999999999377e+01 0 0 0
564 2 1.2305000000000001e+00 3.5521475311891644e+00 3.0030999999999377e+01 0 0 0
585 2 3.6914999999999996e+00 3.5521475311891644e+00 3.0030999999999377e+01 0 0 0
883 2 0.0000000000000000e+00 2.8417180249513345e+00 3.3270911848387456e+01 0 0 0
884 2 0.0000000000000000e+00 0.0000000000000000e+00 3.3270911848387456e+01 0 0 0
885 2 1.2305000000000001e+00 7.1042950623783474e-01 3.3270911848387456e+01 0 0 0
889 2 1.2305000000000001e+00 2.1312885187134998e+00 3.3270911848387456e+01 0 0 0
890 2 2.4610000000000003e+00 2.8417180249513345e+00 3.3270911848387456e+01 0 0 0
891 2 2.4610000000000003e+00 0.0000000000000000e+00 3.3270911848387456e+01 0 0 0
892 2 3.6915000000000004e+00 7.1042950623783474e-01 3.3270911848387456e+01 0 0 0
900 2 3.6914999999999996e+00 2.1312885187134998e+00 3.3270911848387456e+01 0 0 0
589 2 4.9220000000000006e+00 1.4208590124756650e+00 3.0030999999999377e+01 0 0 0
591 2 4.9220000000000006e+00 0.0000000000000000e+00 3.0030999999999377e+01 0 0 0
616 2 6.1524999999999999e+00 2.1312885187134989e+00 3.0030999999999377e+01 0 0 0
618 2 7.3829999999999991e+00 1.4208590124756659e+00 3.0030999999999377e+01 0 0 0
620 2 7.3829999999999991e+00 0.0000000000000000e+00 3.0030999999999377e+01 0 0 0
653 2 8.6134999999999984e+00 2.1312885187135002e+00 3.0030999999999377e+01 0 0 0
614 2 6.1524999999999999e+00 3.5521475311891644e+00 3.0030999999999377e+01 0 0 0
651 2 8.6134999999999984e+00 3.5521475311891657e+00 3.0030999999999377e+01 0 0 0
901 2 4.9220000000000006e+00 2.8417180249513332e+00 3.3270911848387456e+01 0 0 0
902 2 4.9220000000000006e+00 0.0000000000000000e+00 3.3270911848387456e+01 0 0 0
903 2 6.1524999999999999e+00 7.1042950623783407e-01 3.3270911848387456e+01 0 0 0
915 2 6.1524999999999999e+00 2.1312885187134989e+00 3.3270911848387456e+01 0 0 0
916 2 7.3829999999999991e+00 2.8417180249513345e+00 3.3270911848387456e+01 0 0 0
917 2 7.3829999999999991e+00 0.0000000000000000e+00 3.3270911848387456e+01 0 0 0
918 2 8.6134999999999984e+00 7.1042950623783407e-01 3.3270911848387456e+01 0 0 0
934 2 8.6134999999999984e+00 2.1312885187135002e+00 3.3270911848387456e+01 0 0 0
560 2 0.0000000000000000e+00 5.6834360499026637e+00 3.0030999999999377e+01 0 0 0
562 2 0.0000000000000000e+00 4.2625770374269996e+00 3.0030999999999377e+01 0 0 0
579 2 1.2305000000000001e+00 6.3938655561404980e+00 3.0030999999999377e+01 0 0 0
581 2 2.4610000000000003e+00 5.6834360499026637e+00 3.0030999999999377e+01 0 0 0
583 2 2.4610000000000003e+00 4.2625770374269996e+00 3.0030999999999377e+01 0 0 0
608 2 3.6914999999999996e+00 6.3938655561404980e+00 3.0030999999999377e+01 0 0 0
577 2 1.2305000000000001e+00 7.8147245686161639e+00 3.0030999999999377e+01 0 0 0
606 2 3.6914999999999996e+00 7.8147245686161639e+00 3.0030999999999377e+01 0 0 0
887 2 0.0000000000000000e+00 4.2625770374269996e+00 3.3270911848387456e+01 0 0 0
888 2 1.2305000000000001e+00 4.9730065436648339e+00 3.3270911848387456e+01 0 0 0
896 2 1.2305000000000001e+00 6.3938655561404980e+00 3.3270911848387456e+01 0 0 0
898 2 2.4610000000000003e+00 4.2625770374269996e+00 3.3270911848387456e+01 0 0 0
899 2 3.6914999999999996e+00 4.9730065436648339e+00 3.3270911848387456e+01 0 0 0
911 2 3.6914999999999996e+00 6.3938655561404980e+00 3.3270911848387456e+01 0 0 0
886 2 0.0000000000000000e+00 7.1042950623783341e+00 3.3270911848387456e+01 0 0 0
897 2 2.4610000000000003e+00 7.1042950623783341e+00 3.3270911848387456e+01 0 0 0
610 2 4.9220000000000006e+00 5.6834360499026637e+00 3.0030999999999377e+01 0 0 0
612 2 4.9220000000000006e+00 4.2625770374269978e+00 3.0030999999999377e+01 0 0 0
645 2 6.1524999999999999e+00 6.3938655561404980e+00 3.0030999999999377e+01 0 0 0
647 2 7.3829999999999991e+00 5.6834360499026637e+00 3.0030999999999377e+01 0 0 0
649 2 7.3829999999999991e+00 4.2625770374269996e+00 3.0030999999999377e+01 0 0 0
690 2 8.6135000000000002e+00 6.3938655561404980e+00 3.0030999999999377e+01 0 0 0
643 2 6.1524999999999999e+00 7.8147245686161639e+00 3.0030999999999377e+01 0 0 0
688 2 8.6135000000000002e+00 7.8147245686161639e+00 3.0030999999999377e+01 0 0 0
913 2 4.9220000000000006e+00 4.2625770374269978e+00 3.3270911848387456e+01 0 0 0
914 2 6.1524999999999999e+00 4.9730065436648339e+00 3.3270911848387456e+01 0 0 0
930 2 6.1524999999999999e+00 6.3938655561404980e+00 3.3270911848387456e+01 0 0 0
932 2 7.3829999999999991e+00 4.2625770374269996e+00 3.3270911848387456e+01 0 0 0
933 2 8.6135000000000002e+00 4.9730065436648339e+00 3.3270911848387456e+01 0 0 0
953 2 8.6135000000000002e+00 6.3938655561404980e+00 3.3270911848387456e+01 0 0 0
912 2 4.9220000000000006e+00 7.1042950623783341e+00 3.3270911848387456e+01 0 0 0
931 2 7.3830000000000009e+00 7.1042950623783341e+00 3.3270911848387456e+01 0 0 0
573 2 0.0000000000000000e+00 9.9460130873296642e+00 3.0030999999999377e+01 0 0 0
575 2 0.0000000000000000e+00 8.5251540748539991e+00 3.0030999999999377e+01 0 0 0
602 2 2.4610000000000003e+00 9.9460130873296642e+00 3.0030999999999377e+01 0 0 0
604 2 2.4610000000000003e+00 8.5251540748539991e+00 3.0030999999999377e+01 0 0 0
598 2 1.2305000000000001e+00 1.2077301606043163e+01 3.0030999999999377e+01 0 0 0
600 2 1.2305000000000001e+00 1.0656442593567498e+01 3.0030999999999377e+01 0 0 0
635 2 3.6914999999999996e+00 1.2077301606043163e+01 3.0030999999999377e+01 0 0 0
637 2 3.6914999999999996e+00 1.0656442593567499e+01 3.0030999999999377e+01 0 0 0
894 2 0.0000000000000000e+00 8.5251540748539991e+00 3.3270911848387456e+01 0 0 0
895 2 1.2305000000000001e+00 9.2355835810918343e+00 3.3270911848387456e+01 0 0 0
909 2 2.4610000000000003e+00 8.5251540748539991e+00 3.3270911848387456e+01 0 0 0
910 2 3.6915000000000004e+00 9.2355835810918343e+00 3.3270911848387456e+01 0 0 0
893 2 0.0000000000000000e+00 1.1366872099805333e+01 3.3270911848387456e+01 0 0 0
907 2 1.2305000000000001e+00 1.0656442593567498e+01 3.3270911848387456e+01 0 0 0
908 2 2.4610000000000003e+00 1.1366872099805333e+01 3.3270911848387456e+01 0 0 0
926 2 3.6914999999999996e+00 1.0656442593567499e+01 3.3270911848387456e+01 0 0 0
639 2 4.9220000000000006e+00 9.9460130873296642e+00 3.0030999999999377e+01 0 0 0
641 2 4.9220000000000006e+00 8.5251540748539991e+00 3.0030999999999377e+01 0 0 0
684 2 7.3830000000000009e+00 9.9460130873296642e+00 3.0030999999999377e+01 0 0 0
686 2 7.3830000000000009e+00 8.5251540748539991e+00 3.0030999999999377e+01 0 0 0
680 2 6.1524999999999999e+00 1.2077301606043163e+01 3.0030999999999377e+01 0 0 0
682 2 6.1524999999999999e+00 1.0656442593567499e+01 3.0030999999999377e+01 0 0 0
727 2 8.6135000000000002e+00 1.2077301606043163e+01 3.0030999999999377e+01 0 0 0
729 2 8.6134999999999984e+00 1.0656442593567498e+01 3.0030999999999377e+01 0 0 0
928 2 4.9220000000000006e+00 8.5251540748539991e+00 3.3270911848387456e+01 0 0 0
929 2 6.1524999999999999e+00 9.2355835810918343e+00 3.3270911848387456e+01 0 0 0
951 2 7.3830000000000009e+00 8.5251540748539991e+00 3.3270911848387456e+01 0 0 0
952 2 8.6134999999999984e+00 9.2355835810918343e+00 3.3270911848387456e+01 0 0 0
927 2 4.9220000000000006e+00 1.1366872099805333e+01 3.3270911848387456e+01 0 0 0
949 2 6.1524999999999999e+00 1.0656442593567499e+01 3.3270911848387456e+01 0 0 0
950 2 7.3829999999999991e+00 1.1366872099805333e+01 3.3270911848387456e+01 0 0 0
973 2 8.6134999999999984e+00 1.0656442593567498e+01 3.3270911848387456e+01 0 0 0
596 2 0.0000000000000000e+00 1.2787731112280996e+01 3.0030999999999377e+01 0 0 0
633 2 2.4610000000000003e+00 1.2787731112280996e+01 3.0030999999999377e+01 0 0 0
594 2 0.0000000000000000e+00 1.4208590124756663e+01 3.0030999999999377e+01 0 0 0
629 2 1.2305000000000001e+00 1.4919019630994494e+01 3.0030999999999377e+01 0 0 0
631 2 2.4610000000000003e+00 1.4208590124756663e+01 3.0030999999999377e+01 0 0 0
674 2 3.6915000000000004e+00 1.4919019630994494e+01 3.0030999999999377e+01 0 0 0
905 2 0.0000000000000000e+00 1.2787731112280996e+01 3.3270911848387456e+01 0 0 0
906 2 1.2305000000000001e+00 1.3498160618518829e+01 3.3270911848387456e+01 0 0 0
924 2 2.4610000000000003e+00 1.2787731112280996e+01 3.3270911848387456e+01 0 0 0
925 2 3.6915000000000004e+00 1.3498160618518829e+01 3.3270911848387456e+01 0 0 0
904 2 0.0000000000000000e+00 1.5629449137232333e+01 3.3270911848387456e+01 0 0 0
922 2 1.2305000000000001e+00 1.4919019630994494e+01 3.3270911848387456e+01 0 0 0
923 2 2.4610000000000003e+00 1.5629449137232328e+01 3.3270911848387456e+01 0 0 0
945 2 3.6915000000000004e+00 1.4919019630994494e+01 3.3270911848387456e+01 0 0 0
678 2 4.9220000000000006e+00 1.2787731112280996e+01 3.0030999999999377e+01 0 0 0
725 2 7.3829999999999991e+00 1.2787731112280996e+01 3.0030999999999377e+01 0 0 0
676 2 4.9220000000000006e+00 1.4208590124756663e+01 3.0030999999999377e+01 0 0 0
721 2 6.1524999999999990e+00 1.4919019630994494e+01 3.0030999999999377e+01 0 0 0
723 2 7.3830000000000009e+00 1.4208590124756663e+01 3.0030999999999377e+01 0 0 0
768 2 8.6135000000000002e+00 1.4919019630994494e+01 3.0030999999999377e+01 0 0 0
947 2 4.9220000000000006e+00 1.2787731112280996e+01 3.3270911848387456e+01 0 0 0
948 2 6.1524999999999990e+00 1.3498160618518829e+01 3.3270911848387456e+01 0 0 0
971 2 7.3829999999999991e+00 1.2787731112280996e+01 3.3270911848387456e+01 0 0 0
972 2 8.6135000000000002e+00 1.3498160618518835e+01 3.3270911848387456e+01 0 0 0
946 2 4.9220000000000006e+00 1.5629449137232333e+01 3.3270911848387456e+01 0 0 0
969 2 6.1524999999999990e+00 1.4919019630994494e+01 3.3270911848387456e+01 0 0 0
970 2 7.3829999999999991e+00 1.5629449137232333e+01 3.3270911848387456e+01 0 0 0
993 2 8.6135000000000002e+00 1.4919019630994494e+01 3.3270911848387456e+01 0 0 0
6282 1 3.7022326417222207e+00 7.8096746345130830e-01 3.6736636795673022e+01 2 -4 0
453 1 2.4045686354889679e+00 2.9637522896202122e+00 3.5972424667021158e+01 -1 3 0
4478 1 5.8813958858179491e+00 1.4278093028077073e+01 3.5993941325432601e+01 -4 1 0
6159 1 6.1283545419855754e+00 8.5865318758281683e-01 3.5793779261584959e+01 -2 2 0
5985 1 7.2055213972885586e+00 3.3146320856154490e+00 3.6819946473571548e+01 1 3 0
3254 1 3.1227249008637052e+00 1.4555530991775644e+01 3.6489561297064867e+01 2 0 0
5248 1 3.5164580983956037e+00 5.3404995827304882e+00 3.6716137579705887e+01 2 1 0
4701 1 1.8553057793656131e+00 7.6358542567039054e+00 3.5695678107314421e+01 -1 0 0
3731 1 9.7860244558122478e+00 7.6670955167112700e+00 3.5890311506570967e+01 -1 1 0
5197 1 6.0857782363928017e+00 5.5412533442215741e+00 3.5797517221990887e+01 1 0 -1
4459 1 7.3751802119778915e+00 7.6237699294482404e+00 3.6722650772933164e+01 0 -3 0
3747 1 6.9651619211028954e+00 1.2146661460334220e+01 3.9320876059002771e+01 4 3 0
4512 1 6.8779652996501479e+00 1.1864652611877160e+01 3.6577639081490119e+01 3 -1 0
97 1 3.0985742093161655e+00 1.0188422241121465e+01 3.6216374623641968e+01 0 6 -1
1520 1 1.9343512483600971e+00 1.2370305198136391e+01 3.5665862100335858e+01 -1 3 -1
2907 1 5.6395045770358836e+00 9.6660216643449726e+00 3.5502647247262857e+01 0 0 0
5080 1 9.4575818141589778e+00 2.8996898589484781e+00 3.5552406950178110e+01 3 1 -1
5063 1 9.7083096047049136e+00 1.1856277765342606e+01 3.5705392119614103e+01 -2 2 -1
4794 1 2.9234932559344879e+00 1.4786631124456532e+01 3.9181315961532277e+01 2 1 0
3394 1 3.0751110578109384e+00 1.0161896432979631e+01 3.9073462551821535e+01 2 0 -1
1400 1 1.8120798755808765e+00 3.2404399234384673e+00 4.0520493645409189e+01 2 -1 0
6162 1 1.9345504960867668e+00 3.1516424367387654e+00 4.3234349545387673e+01 4 -2 0
4520 1 5.7402978004417884e+00 9.4601277819783258e-01 4.0722573810456112e+01 2 2 0
6308 1 6.1108664206392431e+00 7.8687341275404310e-01 4.3442991020062323e+01 0 2 -1
1258 1 6.0374663768147698e+00 1.0331616575435179e+01 4.7743785676213548e+01 1 0 -1
3197 1 3.2111181175025938e+00 5.4123548093345866e+00 3.9487973185880520e+01 3 -3 0
4643 1 4.3483631949870027e-01 1.4434889610604591e+01 4.6457931154047898e+01 2 0 -1
1462 1 2.3124159785100207e+00 7.8421205892150896e+00 4.0263561094977405e+01 0 2 0
4421 1 2.1946192959874624e+00 7.6926444762175574e+00 4.2973068356516819e+01 -1 3 0
4692 1 2.9616604944641121e+00 1.4163260034725287e+01 4.7566195198630808e+01 1 -4 0
6225 1 5.8044567578114377e+00 5.4143666232763019e+00 4.3009946441031886e+01 4 1 0
3454 1 5.9665176610304540e+00 5.6080230191661453e+00 4.0287268247325045e+01 1 1 -1
2880 1 8.3038077319749863e+00 5.3010272484205530e+00 4.4224735176602479e+01 5 5 0
1724 1 8.7909076400693547e+00 1.4334505608217546e+01 4.6625528857373425e+01 1 -2 -1
436 1 9.2152890214579319e-01 9.8372622672225791e+00 4.4010515733324610e+01 -1 -1 0
1849 1 8.6104590072394860e+00 1.0220429654526132e+01 4.6777626562890759e+01 2 1 -1
4667 1 5.7815485392739241e+00 1.0091903193629706e+01 4.0000940075880479e+01 0 8 0
2098 1 5.4290852703797485e+00 9.9501432369588567e+00 4.2887579204025059e+01 1 1 -1
1757 1 1.8225637439001920e+00 1.2336430727109104e+01 4.0154775762786045e+01 2 2 -1
4719 1 7.2718024450281016e-01 1.4559408844092754e+01 4.3907638164794193e+01 -1 1 -1
112 1 1.8657616370229484e+00 1.2324719606489664e+01 4.2979699715332913e+01 1 -3 0
4978 1 4.2606551403050128e+00 1.2191450033286365e+01 4.3845949978730516e+01 2 0 -1
3229 1 8.4527954069288320e+00 1.4451448050491313e+01 4.3912187280956445e+01 1 -1 -1
2130 1 5.8658478329477379e+00 1.4497620769572769e+01 4.2891413604132424e+01 2 -3 0
1917 1 5.7328466883427094e+00 1.4662526016663477e+01 4.0081838244209479e+01 1 -3 -1
3089 1 8.4194154482804628e-01 9.4934596325630549e-01 4.4452630139002238e+01 0 2 0
544 1 4.5611342534973396e+00 3.1740518654561534e+00 4.4239279026259638e+01 1 -1 -1
4857 1 8.7299342809195835e-01 1.4237789416393634e+00 4.7091803837442896e+01 0 0 0
121 1 4.7744829595106220e+00 3.3610132029525772e+00 4.6879864188315111e+01 0 -1 0
3529 1 2.2442890688204256e+00 3.6536640396058813e+00 4.8013862394326281e+01 4 -2 0
3412 1 8.6849556738738727e+00 6.8029699740290839e-01 4.4199113625231291e+01 -1 1 -1
178 1 8.5605895421226528e+00 7.8565509511613862e-01 4.6984529772183421e+01 3 2 0
1444 1 6.0447636740716328e+00 1.2515785023991972e+00 4.7985407688720883e+01 2 1 0
3708 1 4.0195444411897210e+00 1.1731152338657674e+01 4.6585098811229983e+01 1 1 0
1647 1 9.3642431437130713e-01 5.5496320017894956e+00 4.4100019672342356e+01 -2 -1 -1
6121 1 4.7172436152267716e+00 7.6536511478154603e+00 4.3937850715200454e+01 1 0 0
3202 1 1.3562790918156131e+00 5.9282060980812021e+00 4.6857769448661514e+01 2 0 -1
1887 1 8.5614243021609742e+00 5.6774640895972004e+00 4.7120789197289596e+01 -1 1 -1
3250 1 5.9057507005761893e+00 5.6025146370759478e+00 4.8082069894305661e+01 0 3 -1