LAMMPS data file via write_data, version 16 Mar 2018, timestep = 100000

6489 atoms
2 atom types

0.0000000000000000e+00 4.9219999999999999e+01 xlo xhi
0.0000000000000000e+00 4.9019635930410494e+01 ylo yhi
1.8825755783827134e+00 5.8179424421617469e+01 zlo zhi

Masses

1 18.015
2 12.01

Atoms # atomic

1265 1 4.5433998138806855e+00 1.6006072288143938e+00 6.4095762736252411e+00 0 0 1
4586 1 7.1173014654832762e+00 2.6035663341658105e-01 6.7930283081820306e+00 0 0 1
1481 1 9.4257782018048228e+00 1.2370561929949272e+01 7.8311289996731670e+00 0 0 1
4964 1 3.9842929812026457e+00 1.0170923701188316e+01 9.2105888364956883e+00 0 0 1
1754 1 1.1953060818829424e+00 1.3249289609806532e+01 3.6459623839149007e+00 0 1 0
499 1 7.2988361456324489e+00 4.8690905380465406e+00 4.3239608788393991e+00 0 1 1
3042 1 4.1855768577430483e+00 4.8360278841899280e+00 2.6778707370356472e+00 0 -1 1
3317 1 1.1433045593301348e+00 6.0520565983791457e+00 6.6567092962962402e+00 0 0 1
3139 1 2.2259807000823790e+00 3.4686696993766284e+00 5.1634049605746011e+00 0 1 1
5333 1 1.3932086454949042e+00 5.8720020284288053e+00 3.1252845114932337e+00 1 1 1
6481 1 4.8776763318144294e+00 4.8095013611004349e+00 5.6507410090419263e+00 1 0 0
5371 1 6.0131226367186033e+00 1.4655867143040179e+01 1.0886487823896429e+01 0 1 0
221 1 5.9407936195069677e+00 3.6801285344571109e+00 8.3307741959212134e+00 1 0 0
6432 1 8.9418403379029776e-01 9.7371378857386244e+00 6.1849328884581123e+00 0 1 1
3179 1 2.5523856460663903e+00 7.8546620931880868e+00 4.9417517724364606e+00 0 0 1
1465 1 2.6143142508339201e+00 1.1605015801678164e+01 7.4768414536657390e+00 0 0 1
237 1 9.0482650258371002e+00 1.4928990676526478e+01 4.1344359330221963e+00 0 0 0
4582 1 5.2567755032213226e+00 7.6566962882892282e+00 5.6460487394146348e+00 -1 1 1
5280 1 6.6214446731200072e+00 1.0386045344774676e+01 4.9840791128949906e+00 1 0 0
5426 1 6.8691392650027412e+00 7.5489196838646198e+00 3.1601838116973076e+00 0 1 1
2092 1 6.0155496217259230e-01 1.5374986401367227e+01 5.4977475780635139e+00 1 0 0
5155 1 3.4578753647511733e+00 1.2015756150837118e+01 3.2854697463523226e+00 0 1 0
2098 1 4.7549553913904408e+00 1.2536037455604854e+01 5.5420094675692315e+00 0 0 0
2212 1 6.2217052715281715e+00 1.4801124289767827e+01 4.5698354411342219e+00 0 0 0
5181 1 2.9850253653678882e+00 2.9606780323219208e+00 9.5146092575304397e+00 1 0 0
2018 1 5.7973644220229159e-01 3.3809881769441201e+00 9.0105113575570179e+00 1 -1 0
1479 1 9.4623382949704578e+00 1.4979794867980637e+01 7.0466068656402063e+00 0 0 1
376 1 4.8368804378199561e+00 3.2696758313080521e-01 3.8964841770470029e+00 2 1 0
5047 1 8.6176709363641173e+00 2.2919796846039531e+00 8.0834231080915906e+00 1 0 0
185 1 9.3309707374737201e+00 3.8203555874802819e+00 5.9417028047131888e+00 0 0 1
6336 1 1.3937928900245147e+00 6.7605771811373394e+00 9.1765852584849377e+00 0 2 1
4609 1 2.9300370163934892e+00 3.9002129639142485e-01 8.1687181116931846e+00 0 1 1
1973 1 4.1091439131784098e+00 5.9570890738758848e+00 9.2427811806029752e+00 1 0 0
5289 1 5.6991686691728320e+00 7.9528828953436310e+00 8.4062531349043290e+00 1 0 0
55 1 8.4193923158704482e+00 7.2890872259853863e+00 9.1410126852769729e+00 0 1 0
4627 1 7.3206682499320319e+00 5.2639592970138773e+00 1.0496462981184299e+01 0 0 1
5281 1 1.7164548133801780e+00 9.6905537579854784e+00 1.0756495248110792e+01 0 0 0
1533 1 5.1245760775994071e+00 1.5293823350853383e+01 2.0814371338598772e+00 1 1 1
1544 1 1.4783606725214278e+00 1.3997359160297114e+01 7.8650807482225265e+00 0 0 0
1786 1 5.9241067012472053e+00 1.1836745956718053e+01 1.0186980808556111e+01 1 0 0
1419 1 1.4786178458459573e+00 1.8829382735711149e+00 2.5410094667433887e+00 0 1 1
1835 1 8.9864831025464671e+00 1.2101196213647065e+00 2.0291543050429306e+00 1 0 0
1783 1 2.7049252650548365e+00 9.4427738679137452e+00 2.3445829405235670e+00 2 0 0
63 1 9.2438205919196292e+00 1.0424287376420251e+01 6.0604854623769775e+00 1 0 1
2977 1 2.6720002888950374e+00 1.5892339091242643e+01 9.5085840138735946e+00 0 0 1
2936 1 7.3043094184183390e+00 1.0590336571307313e+01 2.4102913105065138e+00 0 0 0
2948 1 7.1642419026716695e+00 3.0547357905207044e+00 2.5035308798956111e+00 0 0 0
3290 1 8.8919836057839312e+00 1.1567237780325986e+01 1.0817758401026580e+01 0 0 0
6353 1 9.3541329152428432e+00 6.8340001950216305e+00 3.1025519643911643e+00 0 1 1
65 1 6.8072391988353420e+00 2.5909616240558737e+00 1.1190408869219072e+01 1 0 0
3565 1 8.0914281136071953e+00 1.5412945235356715e-03 1.0456932769161604e+01 0 0 1
5187 1 9.8243496967894295e+00 1.3532195466429826e+01 1.9349384778592082e+01 1 1 0
1589 1 8.0585034866146170e+00 1.0072754213772960e+01 1.3308408449686230e+01 -1 1 1
4910 1 6.7919699183381743e+00 4.3803152583617516e-01 1.8541474886414498e+01 1 0 0
3171 1 6.0994332696885518e+00 2.6976762763615598e+00 1.6167772987586307e+01 0 0 0
5383 1 1.3210974515202569e+00 1.5372875214902876e+01 1.5806813135877167e+01 1 0 0
3359 1 4.1109789644998944e+00 2.1341707813198716e+00 1.2007530732754159e+01 1 0 0
5011 1 3.3667719455063359e+00 4.4595650841602144e+00 1.3193181896486298e+01 0 0 0
6113 1 6.1926508315470707e-01 4.4196644939212817e+00 1.2833537069475980e+01 0 1 1
5227 1 7.1366685779497914e+00 7.0379988949024908e+00 1.3381536750859182e+01 0 0 0
239 1 8.2449113921981372e+00 1.0632646232953988e+01 2.0364561250603565e+01 0 -1 0
301 1 4.0873449284883909e+00 4.5546861727450816e+00 1.5690601974496088e+01 1 0 0
3279 1 7.9515070196728743e+00 3.2953156597663709e+00 1.3992531894573215e+01 0 0 1
2017 1 2.8856985718571297e+00 8.7897164311381282e+00 1.5546644927804966e+01 0 -1 1
2121 1 4.5531200569831682e+00 1.2904206851338412e+01 1.4311229999669905e+01 0 0 0
1309 1 3.6980808008469812e+00 8.8947947830793002e+00 1.2870999321858246e+01 0 0 1
3597 1 5.6419059128027556e+00 1.0913558238544006e+01 1.2797267727997609e+01 -1 1 0
1878 1 8.9676611170437112e-02 5.3034903297796001e+00 1.5520667742901328e+01 0 0 0
6178 1 5.9100894396558248e+00 6.3721875964633226e+00 1.6002782894090867e+01 0 0 1
1663 1 1.5772916252767197e+00 1.2738718867941559e+01 1.4348159342820828e+01 2 0 0
4585 1 9.1962143868610351e+00 1.0784833424504159e+01 1.6167317629511352e+01 0 1 1
1651 1 9.7171754547689755e+00 1.2748083492535602e+00 1.3678041305991993e+01 0 0 0
3356 1 6.4999287854790815e+00 1.4694325689114542e+01 1.3726376493782086e+01 1 0 1
4880 1 9.6799645723626462e+00 1.5168378741569493e+01 1.4304830164477222e+01 1 0 0
135 1 4.7488411733490725e+00 6.4759239464538085e+00 1.1836019419667009e+01 0 1 0
136 1 1.3221432262396052e-01 8.0225048263461964e+00 1.5247263121609320e+01 0 -1 0
493 1 1.2138434874659378e+00 1.2404130037935596e+01 1.1324961980081806e+01 0 0 1
2063 1 1.5692871646101085e+00 1.3801442512171644e+00 1.6975539609118947e+01 1 0 0
1880 1 7.3942297900725587e+00 3.4922326678277904e+00 1.8800079693144681e+01 1 -1 0
5026 1 4.4057066339872790e+00 4.9161755464877327e-01 1.6566926337940419e+01 0 1 0
4605 1 8.2187843646188394e+00 6.0393510900760488e+00 1.7348993059747070e+01 0 1 1
3207 1 1.8098933846193936e+00 4.0714102126722072e+00 1.7099339861044726e+01 1 1 0
453 1 1.8790904488873847e+00 5.8744297746419605e+00 1.9535686513772806e+01 0 0 0
1962 1 4.9985679032490182e+00 8.7804148012116787e+00 1.7402979138753047e+01 0 0 0
482 1 4.2292052541991643e+00 7.3139997715765288e+00 1.9718083112698142e+01 1 0 1
5196 1 2.6611280574676650e+00 1.6112550261425220e+01 1.3626126600300589e+01 0 0 0
3200 1 1.7803393155337610e+00 1.0927049492641872e+01 1.6511163110258451e+01 1 1 1
5264 1 6.9798356147054088e+00 1.5128034460266901e+01 1.8346994701564267e+01 0 1 0
1424 1 3.1578259906830115e+00 1.4339388859804606e+01 1.1516577324662711e+01 0 0 1
1518 1 5.9852057938918746e+00 1.1375309898453906e+01 1.6589776724684043e+01 0 1 0
447 1 8.2153397869533844e+00 8.9635221468493143e+00 1.7738234240693423e+01 1 -1 0
1337 1 4.7575948789059925e+00 1.3054369604746531e+01 1.8673091631075881e+01 1 0 1
6479 1 3.7156002647109148e+00 1.5285034567335076e+01 2.0120453493442728e+01 1 0 0
4754 1 1.8280035411345774e+00 1.3551284508410820e+01 1.7965302661484454e+01 0 0 1
1784 1 8.3387059218431041e+00 1.3484149933254255e+01 1.6480539984895472e+01 0 0 0
4906 1 9.2435086279553840e+00 1.9839086999766393e+00 2.0600912630392401e+01 0 1 0
1706 1 8.9355155906525194e+00 1.4270718488115840e+01 1.1510085364282277e+01 0 -1 0
2119 1 5.1776435574567818e+00 2.0700428132846302e-01 2.0636938064507564e+01 0 0 0
4650 1 5.8674093494022515e+00 5.1545016749019288e+00 2.0477839284096451e+01 0 0 1
5017 1 9.8334701808026139e+00 5.7219169875343781e+00 1.2544995043720530e+01 0 0 0
3509 1 3.1336097250411427e-01 1.1831071090435424e+01 2.1971982837959583e+01 0 0 0
1836 1 1.8556842577882287e+00 1.3613322519187243e+00 2.0947948097916100e+01 0 0 0
331 1 4.1991167857294348e-01 9.3600422582681873e+00 2.0993439663778759e+01 1 1 0
252 1 6.0953946019253111e+00 4.5281520226903407e+00 2.3191989673492266e+01 0 1 0
1445 1 7.0825289558260742e+00 2.0071729085360586e+00 2.2523697587159131e+01 2 -1 1
3188 1 8.3817834910006539e+00 1.3839563068152090e+01 2.4060514850865061e+01 0 1 0
3374 1 7.8980428756377119e+00 1.3402396595886060e+01 2.1445886311101855e+01 1 0 0
697 2 6.1524999999999990e+00 1.3498160618518829e+01 2.6860583860304175e+01 0 0 0
740 2 7.3829999999999991e+00 1.5629449137232333e+01 2.6860583860304175e+01 0 0 0
1910 1 3.4651769849125462e+00 4.1113331252585361e+00 2.3653026133620276e+01 0 1 0
1773 1 1.5862074141013027e+00 6.2247164947680647e+00 2.4273449576517553e+01 1 1 0
2000 1 3.2241615449113228e+00 3.8784640598107103e+00 2.1014861415458427e+01 0 1 0
225 1 1.9103997376103967e+00 1.4371446084293342e+00 2.3797142247487312e+01 1 1 0
1871 1 8.1262823251920118e+00 6.1947039396517569e+00 2.4218568239096413e+01 1 1 0
5303 1 6.3384158695514028e+00 8.5872609593849205e+00 2.3968014158022143e+01 0 1 0
695 2 4.9220000000000006e+00 1.2787731112280996e+01 2.6860583860304175e+01 0 0 0
5059 1 8.8086734558026318e+00 6.1441539564074832e+00 2.1317349400763586e+01 1 0 1
742 2 7.3829999999999991e+00 1.2787731112280996e+01 2.6860583860304175e+01 0 0 0
457 1 3.5228399347468766e+00 8.3815847864549937e+00 2.4105859145396462e+01 0 1 0
101 1 2.3696699127453189e+00 1.0993545911582366e+01 2.4289842704707727e+01 0 1 1
4517 1 5.1676500895343302e+00 1.1733928463068702e+01 2.1281947327016791e+01 0 0 0
6215 1 3.5769317811133461e+00 9.3706000167313963e+00 2.1208187024317173e+01 0 0 1
1418 1 7.1027545661978850e+00 1.1226059143508129e+01 2.4536912285722625e+01 0 1 1
5234 1 6.8397588464542514e+00 8.3859495255098295e+00 2.1202034618446941e+01 0 1 0
6213 1 4.5375422598926498e+00 1.2501884468630475e+01 2.3781942166683102e+01 0 0 1
5268 1 5.2387971905120621e+00 1.5085544778601459e+01 2.4145472544960835e+01 1 0 0
333 1 2.2858120501403767e+00 1.4128841109820488e+01 2.2207653384048101e+01 1 -1 0
738 2 6.1524999999999990e+00 1.4919019630994494e+01 2.6860583860304175e+01 0 0 0
2010 1 4.9165701146905620e+00 2.2899312784274228e-01 2.4067438911419810e+01 0 1 0
744 2 8.6135000000000002e+00 1.3498160618518835e+01 2.6860583860304175e+01 0 0 0
4953 1 9.6782720183317341e+00 2.2241735983729658e+00 2.4011449754582888e+01 1 0 0
6408 1 6.0921123484688540e+00 1.5762364756549772e+01 2.1370679393619778e+01 1 1 0
572 2 0.0000000000000000e+00 2.8417180249513345e+00 2.6860583860304175e+01 0 0 0
574 2 0.0000000000000000e+00 0.0000000000000000e+00 2.6860583860304175e+01 0 0 0
576 2 1.2305000000000001e+00 7.1042950623783474e-01 2.6860583860304175e+01 0 0 0
583 2 1.2305000000000001e+00 2.1312885187134998e+00 2.6860583860304175e+01 0 0 0
585 2 2.4610000000000003e+00 2.8417180249513345e+00 2.6860583860304175e+01 0 0 0
587 2 2.4610000000000003e+00 0.0000000000000000e+00 2.6860583860304175e+01 0 0 0
589 2 3.6915000000000004e+00 7.1042950623783474e-01 2.6860583860304175e+01 0 0 0
604 2 3.6914999999999996e+00 2.1312885187134998e+00 2.6860583860304175e+01 0 0 0
606 2 4.9220000000000006e+00 2.8417180249513332e+00 2.6860583860304175e+01 0 0 0
608 2 4.9220000000000006e+00 0.0000000000000000e+00 2.6860583860304175e+01 0 0 0
610 2 6.1524999999999999e+00 7.1042950623783407e-01 2.6860583860304175e+01 0 0 0
633 2 6.1524999999999999e+00 2.1312885187134989e+00 2.6860583860304175e+01 0 0 0
635 2 7.3829999999999991e+00 2.8417180249513345e+00 2.6860583860304175e+01 0 0 0
637 2 7.3829999999999991e+00 0.0000000000000000e+00 2.6860583860304175e+01 0 0 0
639 2 8.6134999999999984e+00 7.1042950623783407e-01 2.6860583860304175e+01 0 0 0
670 2 8.6134999999999984e+00 2.1312885187135002e+00 2.6860583860304175e+01 0 0 0
579 2 0.0000000000000000e+00 4.2625770374269996e+00 2.6860583860304175e+01 0 0 0
581 2 1.2305000000000001e+00 4.9730065436648339e+00 2.6860583860304175e+01 0 0 0
596 2 1.2305000000000001e+00 6.3938655561404980e+00 2.6860583860304175e+01 0 0 0
600 2 2.4610000000000003e+00 4.2625770374269996e+00 2.6860583860304175e+01 0 0 0
602 2 3.6914999999999996e+00 4.9730065436648339e+00 2.6860583860304175e+01 0 0 0
625 2 3.6914999999999996e+00 6.3938655561404980e+00 2.6860583860304175e+01 0 0 0
577 2 0.0000000000000000e+00 7.1042950623783341e+00 2.6860583860304175e+01 0 0 0
598 2 2.4610000000000003e+00 7.1042950623783341e+00 2.6860583860304175e+01 0 0 0
629 2 4.9220000000000006e+00 4.2625770374269978e+00 2.6860583860304175e+01 0 0 0
631 2 6.1524999999999999e+00 4.9730065436648339e+00 2.6860583860304175e+01 0 0 0
662 2 6.1524999999999999e+00 6.3938655561404980e+00 2.6860583860304175e+01 0 0 0
666 2 7.3829999999999991e+00 4.2625770374269996e+00 2.6860583860304175e+01 0 0 0
668 2 8.6135000000000002e+00 4.9730065436648339e+00 2.6860583860304175e+01 0 0 0
707 2 8.6135000000000002e+00 6.3938655561404980e+00 2.6860583860304175e+01 0 0 0
627 2 4.9220000000000006e+00 7.1042950623783341e+00 2.6860583860304175e+01 0 0 0
664 2 7.3830000000000009e+00 7.1042950623783341e+00 2.6860583860304175e+01 0 0 0
592 2 0.0000000000000000e+00 8.5251540748539991e+00 2.6860583860304175e+01 0 0 0
594 2 1.2305000000000001e+00 9.2355835810918343e+00 2.6860583860304175e+01 0 0 0
621 2 2.4610000000000003e+00 8.5251540748539991e+00 2.6860583860304175e+01 0 0 0
623 2 3.6915000000000004e+00 9.2355835810918343e+00 2.6860583860304175e+01 0 0 0
590 2 0.0000000000000000e+00 1.1366872099805333e+01 2.6860583860304175e+01 0 0 0
617 2 1.2305000000000001e+00 1.0656442593567498e+01 2.6860583860304175e+01 0 0 0
619 2 2.4610000000000003e+00 1.1366872099805333e+01 2.6860583860304175e+01 0 0 0
654 2 3.6914999999999996e+00 1.0656442593567499e+01 2.6860583860304175e+01 0 0 0
658 2 4.9220000000000006e+00 8.5251540748539991e+00 2.6860583860304175e+01 0 0 0
660 2 6.1524999999999999e+00 9.2355835810918343e+00 2.6860583860304175e+01 0 0 0
703 2 7.3830000000000009e+00 8.5251540748539991e+00 2.6860583860304175e+01 0 0 0
705 2 8.6134999999999984e+00 9.2355835810918343e+00 2.6860583860304175e+01 0 0 0
656 2 4.9220000000000006e+00 1.1366872099805333e+01 2.6860583860304175e+01 0 0 0
699 2 6.1524999999999999e+00 1.0656442593567499e+01 2.6860583860304175e+01 0 0 0
701 2 7.3829999999999991e+00 1.1366872099805333e+01 2.6860583860304175e+01 0 0 0
746 2 8.6134999999999984e+00 1.0656442593567498e+01 2.6860583860304175e+01 0 0 0
611 2 0.0000000000000000e+00 1.5629449137232333e+01 2.6860583860304175e+01 0 0 0
646 2 1.2305000000000001e+00 1.4919019630994494e+01 2.6860583860304175e+01 0 0 0
648 2 2.4610000000000003e+00 1.5629449137232328e+01 2.6860583860304175e+01 0 0 0
691 2 3.6915000000000004e+00 1.4919019630994494e+01 2.6860583860304175e+01 0 0 0
613 2 0.0000000000000000e+00 1.2787731112280996e+01 2.6860583860304175e+01 0 0 0
615 2 1.2305000000000001e+00 1.3498160618518829e+01 2.6860583860304175e+01 0 0 0
650 2 2.4610000000000003e+00 1.2787731112280996e+01 2.6860583860304175e+01 0 0 0
652 2 3.6915000000000004e+00 1.3498160618518829e+01 2.6860583860304175e+01 0 0 0
785 2 8.6135000000000002e+00 1.4919019630994494e+01 2.6860583860304175e+01 0 0 0
693 2 4.9220000000000006e+00 1.5629449137232333e+01 2.6860583860304175e+01 0 0 0
4883 1 9.3565190840614907e+00 9.1258933764131722e+00 2.4388681607365694e+01 1 -1 1
3531 1 2.6618990922686141e+00 1.6205788193527464e+01 2.4111766549680429e+01 1 0 1
573 2 0.0000000000000000e+00 1.4208590124756650e+00 3.0031000000000414e+01 0 0 0
575 2 0.0000000000000000e+00 0.0000000000000000e+00 3.0031000000000414e+01 0 0 0
584 2 1.2305000000000001e+00 2.1312885187134998e+00 3.0031000000000414e+01 0 0 0
586 2 2.4610000000000003e+00 1.4208590124756650e+00 3.0031000000000414e+01 0 0 0
588 2 2.4610000000000003e+00 0.0000000000000000e+00 3.0031000000000414e+01 0 0 0
605 2 3.6914999999999996e+00 2.1312885187134998e+00 3.0031000000000414e+01 0 0 0
582 2 1.2305000000000001e+00 3.5521475311891644e+00 3.0031000000000414e+01 0 0 0
603 2 3.6914999999999996e+00 3.5521475311891644e+00 3.0031000000000414e+01 0 0 0
901 2 0.0000000000000000e+00 2.8417180249513345e+00 3.3201416139694921e+01 0 0 0
902 2 0.0000000000000000e+00 0.0000000000000000e+00 3.3201416139694921e+01 0 0 0
903 2 1.2305000000000001e+00 7.1042950623783474e-01 3.3201416139694921e+01 0 0 0
907 2 1.2305000000000001e+00 2.1312885187134998e+00 3.3201416139694921e+01 0 0 0
908 2 2.4610000000000003e+00 2.8417180249513345e+00 3.3201416139694921e+01 0 0 0
909 2 2.4610000000000003e+00 0.0000000000000000e+00 3.3201416139694921e+01 0 0 0
910 2 3.6915000000000004e+00 7.1042950623783474e-01 3.3201416139694921e+01 0 0 0
918 2 3.6914999999999996e+00 2.1312885187134998e+00 3.3201416139694921e+01 0 0 0
607 2 4.9220000000000006e+00 1.4208590124756650e+00 3.0031000000000414e+01 0 0 0
609 2 4.9220000000000006e+00 0.0000000000000000e+00 3.0031000000000414e+01 0 0 0
634 2 6.1524999999999999e+00 2.1312885187134989e+00 3.0031000000000414e+01 0 0 0
636 2 7.3829999999999991e+00 1.4208590124756659e+00 3.0031000000000414e+01 0 0 0
638 2 7.3829999999999991e+00 0.0000000000000000e+00 3.0031000000000414e+01 0 0 0
671 2 8.6134999999999984e+00 2.1312885187135002e+00 3.0031000000000414e+01 0 0 0
632 2 6.1524999999999999e+00 3.5521475311891644e+00 3.0031000000000414e+01 0 0 0
669 2 8.6134999999999984e+00 3.5521475311891657e+00 3.0031000000000414e+01 0 0 0
919 2 4.9220000000000006e+00 2.8417180249513332e+00 3.3201416139694921e+01 0 0 0
920 2 4.9220000000000006e+00 0.0000000000000000e+00 3.3201416139694921e+01 0 0 0
921 2 6.1524999999999999e+00 7.1042950623783407e-01 3.3201416139694921e+01 0 0 0
933 2 6.1524999999999999e+00 2.1312885187134989e+00 3.3201416139694921e+01 0 0 0
934 2 7.3829999999999991e+00 2.8417180249513345e+00 3.3201416139694921e+01 0 0 0
935 2 7.3829999999999991e+00 0.0000000000000000e+00 3.3201416139694921e+01 0 0 0
936 2 8.6134999999999984e+00 7.1042950623783407e-01 3.3201416139694921e+01 0 0 0
952 2 8.6134999999999984e+00 2.1312885187135002e+00 3.3201416139694921e+01 0 0 0
578 2 0.0000000000000000e+00 5.6834360499026637e+00 3.0031000000000414e+01 0 0 0
580 2 0.0000000000000000e+00 4.2625770374269996e+00 3.0031000000000414e+01 0 0 0
597 2 1.2305000000000001e+00 6.3938655561404980e+00 3.0031000000000414e+01 0 0 0
599 2 2.4610000000000003e+00 5.6834360499026637e+00 3.0031000000000414e+01 0 0 0
601 2 2.4610000000000003e+00 4.2625770374269996e+00 3.0031000000000414e+01 0 0 0
626 2 3.6914999999999996e+00 6.3938655561404980e+00 3.0031000000000414e+01 0 0 0
595 2 1.2305000000000001e+00 7.8147245686161639e+00 3.0031000000000414e+01 0 0 0
624 2 3.6914999999999996e+00 7.8147245686161639e+00 3.0031000000000414e+01 0 0 0
905 2 0.0000000000000000e+00 4.2625770374269996e+00 3.3201416139694921e+01 0 0 0
906 2 1.2305000000000001e+00 4.9730065436648339e+00 3.3201416139694921e+01 0 0 0
914 2 1.2305000000000001e+00 6.3938655561404980e+00 3.3201416139694921e+01 0 0 0
916 2 2.4610000000000003e+00 4.2625770374269996e+00 3.3201416139694921e+01 0 0 0
917 2 3.6914999999999996e+00 4.9730065436648339e+00 3.3201416139694921e+01 0 0 0
929 2 3.6914999999999996e+00 6.3938655561404980e+00 3.3201416139694921e+01 0 0 0
904 2 0.0000000000000000e+00 7.1042950623783341e+00 3.3201416139694921e+01 0 0 0
915 2 2.4610000000000003e+00 7.1042950623783341e+00 3.3201416139694921e+01 0 0 0
628 2 4.9220000000000006e+00 5.6834360499026637e+00 3.0031000000000414e+01 0 0 0
630 2 4.9220000000000006e+00 4.2625770374269978e+00 3.0031000000000414e+01 0 0 0
663 2 6.1524999999999999e+00 6.3938655561404980e+00 3.0031000000000414e+01 0 0 0
665 2 7.3829999999999991e+00 5.6834360499026637e+00 3.0031000000000414e+01 0 0 0
667 2 7.3829999999999991e+00 4.2625770374269996e+00 3.0031000000000414e+01 0 0 0
708 2 8.6135000000000002e+00 6.3938655561404980e+00 3.0031000000000414e+01 0 0 0
661 2 6.1524999999999999e+00 7.8147245686161639e+00 3.0031000000000414e+01 0 0 0
706 2 8.6135000000000002e+00 7.8147245686161639e+00 3.0031000000000414e+01 0 0 0
931 2 4.9220000000000006e+00 4.2625770374269978e+00 3.3201416139694921e+01 0 0 0
932 2 6.1524999999999999e+00 4.9730065436648339e+00 3.3201416139694921e+01 0 0 0
948 2 6.1524999999999999e+00 6.3938655561404980e+00 3.3201416139694921e+01 0 0 0
950 2 7.3829999999999991e+00 4.2625770374269996e+00 3.3201416139694921e+01 0 0 0
951 2 8.6135000000000002e+00 4.9730065436648339e+00 3.3201416139694921e+01 0 0 0
971 2 8.6135000000000002e+00 6.3938655561404980e+00 3.3201416139694921e+01 0 0 0
930 2 4.9220000000000006e+00 7.1042950623783341e+00 3.3201416139694921e+01 0 0 0
949 2 7.3830000000000009e+00 7.1042950623783341e+00 3.3201416139694921e+01 0 0 0
591 2 0.0000000000000000e+00 9.9460130873296642e+00 3.0031000000000414e+01 0 0 0
593 2 0.0000000000000000e+00 8.5251540748539991e+00 3.0031000000000414e+01 0 0 0
620 2 2.4610000000000003e+00 9.9460130873296642e+00 3.0031000000000414e+01 0 0 0
622 2 2.4610000000000003e+00 8.5251540748539991e+00 3.0031000000000414e+01 0 0 0
616 2 1.2305000000000001e+00 1.2077301606043163e+01 3.0031000000000414e+01 0 0 0
618 2 1.2305000000000001e+00 1.0656442593567498e+01 3.0031000000000414e+01 0 0 0
653 2 3.6914999999999996e+00 1.2077301606043163e+01 3.0031000000000414e+01 0 0 0
655 2 3.6914999999999996e+00 1.0656442593567499e+01 3.0031000000000414e+01 0 0 0
912 2 0.0000000000000000e+00 8.5251540748539991e+00 3.3201416139694921e+01 0 0 0
913 2 1.2305000000000001e+00 9.2355835810918343e+00 3.3201416139694921e+01 0 0 0
927 2 2.4610000000000003e+00 8.5251540748539991e+00 3.3201416139694921e+01 0 0 0
928 2 3.6915000000000004e+00 9.2355835810918343e+00 3.3201416139694921e+01 0 0 0
911 2 0.0000000000000000e+00 1.1366872099805333e+01 3.3201416139694921e+01 0 0 0
925 2 1.2305000000000001e+00 1.0656442593567498e+01 3.3201416139694921e+01 0 0 0
926 2 2.4610000000000003e+00 1.1366872099805333e+01 3.3201416139694921e+01 0 0 0
944 2 3.6914999999999996e+00 1.0656442593567499e+01 3.3201416139694921e+01 0 0 0
657 2 4.9220000000000006e+00 9.9460130873296642e+00 3.0031000000000414e+01 0 0 0
659 2 4.9220000000000006e+00 8.5251540748539991e+00 3.0031000000000414e+01 0 0 0
702 2 7.3830000000000009e+00 9.9460130873296642e+00 3.0031000000000414e+01 0 0 0
704 2 7.3830000000000009e+00 8.5251540748539991e+00 3.0031000000000414e+01 0 0 0
698 2 6.1524999999999999e+00 1.2077301606043163e+01 3.0031000000000414e+01 0 0 0
700 2 6.1524999999999999e+00 1.0656442593567499e+01 3.0031000000000414e+01 0 0 0
745 2 8.6135000000000002e+00 1.2077301606043163e+01 3.0031000000000414e+01 0 0 0
747 2 8.6134999999999984e+00 1.0656442593567498e+01 3.0031000000000414e+01 0 0 0
946 2 4.9220000000000006e+00 8.5251540748539991e+00 3.3201416139694921e+01 0 0 0
947 2 6.1524999999999999e+00 9.2355835810918343e+00 3.3201416139694921e+01 0 0 0
969 2 7.3830000000000009e+00 8.5251540748539991e+00 3.3201416139694921e+01 0 0 0
970 2 8.6134999999999984e+00 9.2355835810918343e+00 3.3201416139694921e+01 0 0 0
945 2 4.9220000000000006e+00 1.1366872099805333e+01 3.3201416139694921e+01 0 0 0
967 2 6.1524999999999999e+00 1.0656442593567499e+01 3.3201416139694921e+01 0 0 0
968 2 7.3829999999999991e+00 1.1366872099805333e+01 3.3201416139694921e+01 0 0 0
991 2 8.6134999999999984e+00 1.0656442593567498e+01 3.3201416139694921e+01 0 0 0
614 2 0.0000000000000000e+00 1.2787731112280996e+01 3.0031000000000414e+01 0 0 0
651 2 2.4610000000000003e+00 1.2787731112280996e+01 3.0031000000000414e+01 0 0 0
612 2 0.0000000000000000e+00 1.4208590124756663e+01 3.0031000000000414e+01 0 0 0
647 2 1.2305000000000001e+00 1.4919019630994494e+01 3.0031000000000414e+01 0 0 0
649 2 2.4610000000000003e+00 1.4208590124756663e+01 3.0031000000000414e+01 0 0 0
692 2 3.6915000000000004e+00 1.4919019630994494e+01 3.0031000000000414e+01 0 0 0
923 2 0.0000000000000000e+00 1.2787731112280996e+01 3.3201416139694921e+01 0 0 0
924 2 1.2305000000000001e+00 1.3498160618518829e+01 3.3201416139694921e+01 0 0 0
942 2 2.4610000000000003e+00 1.2787731112280996e+01 3.3201416139694921e+01 0 0 0
943 2 3.6915000000000004e+00 1.3498160618518829e+01 3.3201416139694921e+01 0 0 0
922 2 0.0000000000000000e+00 1.5629449137232333e+01 3.3201416139694921e+01 0 0 0
940 2 1.2305000000000001e+00 1.4919019630994494e+01 3.3201416139694921e+01 0 0 0
941 2 2.4610000000000003e+00 1.5629449137232328e+01 3.3201416139694921e+01 0 0 0
963 2 3.6915000000000004e+00 1.4919019630994494e+01 3.3201416139694921e+01 0 0 0
696 2 4.9220000000000006e+00 1.2787731112280996e+01 3.0031000000000414e+01 0 0 0
743 2 7.3829999999999991e+00 1.2787731112280996e+01 3.0031000000000414e+01 0 0 0
694 2 4.9220000000000006e+00 1.4208590124756663e+01 3.0031000000000414e+01 0 0 0
739 2 6.1524999999999990e+00 1.4919019630994494e+01 3.0031000000000414e+01 0 0 0
741 2 7.3830000000000009e+00 1.4208590124756663e+01 3.0031000000000414e+01 0 0 0
786 2 8.6135000000000002e+00 1.4919019630994494e+01 3.0031000000000414e+01 0 0 0
965 2 4.9220000000000006e+00 1.2787731112280996e+01 3.3201416139694921e+01 0 0 0
966 2 6.1524999999999990e+00 1.3498160618518829e+01 3.3201416139694921e+01 0 0 0
989 2 7.3829999999999991e+00 1.2787731112280996e+01 3.3201416139694921e+01 0 0 0
990 2 8.6135000000000002e+00 1.3498160618518835e+01 3.3201416139694921e+01 0 0 0
964 2 4.9220000000000006e+00 1.5629449137232333e+01 3.3201416139694921e+01 0 0 0
987 2 6.1524999999999990e+00 1.4919019630994494e+01 3.3201416139694921e+01 0 0 0
988 2 7.3829999999999991e+00 1.5629449137232333e+01 3.3201416139694921e+01 0 0 0
1011 2 8.6135000000000002e+00 1.4919019630994494e+01 3.3201416139694921e+01 0 0 0
3113 1 4.6414254267667028e+00 4.2912664720781546e-01 3.5349221753526400e+01 1 0 0
4581 1 8.4361514662025119e+00 9.8177194836961217e+00 3.8490068862997859e+01 0 0 0
4805 1 5.2712275673723745e+00 1.3565494947469872e+01 3.5878730255061868e+01 0 0 -1
2180 1 5.6411770432952402e+00 1.0146219827621891e+01 3.9051024544387474e+01 0 1 -1
2914 1 7.1755856837154957e+00 1.7288051873462018e+00 3.5792641464943635e+01 0 1 0
3409 1 1.9049107054010108e+00 7.1327311259332857e+00 3.6009945117272807e+01 1 0 -1
2968 1 3.1699753546828431e+00 2.5710989266524669e+00 3.6066597528467469e+01 1 1 0
1453 1 2.4341976446124942e+00 1.0709493695744627e+01 3.5940100676381562e+01 0 0 0
1872 1 4.5315197908860929e+00 7.0179040601315963e+00 3.5819010929592679e+01 0 1 -1
6345 1 8.5171568506109718e-01 4.0823997309761069e+00 3.5574746743665635e+01 0 0 0
3633 1 5.9405826473964751e+00 4.2762787077835469e+00 3.8549917847348709e+01 0 1 0
3670 1 5.5609260603304298e+00 4.0499690116267564e+00 3.5745514940841474e+01 2 0 -1
74 1 5.4425490333483149e+00 6.8853049907923296e+00 3.8366326244761815e+01 0 0 -1
571 1 8.1974834034444140e+00 7.1181288986883162e+00 3.8344325098222626e+01 0 1 0
3763 1 1.3998264208183195e-01 1.2713342362800761e+01 3.5564974773688348e+01 0 1 0
4553 1 2.3613970460495310e+00 1.4082202772673241e+01 3.5934834303398134e+01 0 0 0
3347 1 7.7582647731700982e+00 1.3975710637862984e-01 3.8468953906781842e+01 0 1 -1
2038 1 5.0833628224442888e+00 9.6673568171905568e+00 3.5919658786435299e+01 1 1 -1
1536 1 8.6806847468020132e-01 1.1484683505689830e+01 3.9226364361831195e+01 1 0 0
6380 1 1.4098674455586759e+00 8.7741186926004140e+00 3.8433351995110840e+01 0 1 0
3044 1 7.2893424153945920e+00 1.1357611016141192e+01 3.5829533072234334e+01 0 1 0
6219 1 7.2266134434741076e+00 1.5740809439131205e+01 3.6021897694011145e+01 1 1 -1
3398 1 8.6534047687017335e+00 1.5948735212007316e+01 3.8825022180406847e+01 1 0 0
2901 1 5.5228498590208641e+00 1.3098954316486825e+01 3.8747769603039274e+01 0 1 -1
1579 1 4.4368494538556433e+00 7.6870670310547684e-01 3.8446219408197479e+01 0 0 -1
1376 1 2.3868121768373327e+00 1.4117848260321974e+01 3.8917855407975708e+01 0 0 -1
6115 1 9.5521774765202867e+00 2.2668893782921278e+00 3.8562392460354666e+01 0 0 0
3636 1 9.0080558359858145e+00 7.1007262551506258e+00 3.5800590400226234e+01 0 0 0
3125 1 9.6836638594617934e+00 1.5431662932301544e+01 3.5343563588759658e+01 0 0 -1
4510 1 1.3036339021307208e+00 4.8092427407748177e+00 3.8511888564882533e+01 1 1 0
4962 1 3.0338899506166301e+00 1.9721274479429984e+00 4.2907079960869417e+01 1 -1 0
4534 1 4.1527717713796317e+00 3.9303418364258551e+00 4.1792966486294233e+01 1 0 0
5342 1 2.8437553910691511e+00 1.6039319344313995e+01 4.5490942337638408e+01 1 1 0
4824 1 6.8720978625478848e+00 4.3555979600490620e+00 4.2325329283096409e+01 0 0 0
4949 1 4.6997582263490673e-01 1.1101024015590902e+01 4.2150688680006404e+01 0 0 -1
2937 1 2.1858683000000947e+00 5.9528179670124217e+00 4.2725553206011291e+01 1 -1 0
6342 1 3.0131021936636899e+00 7.2306069642549575e+00 4.0136928023475875e+01 0 0 0
4925 1 8.4161760917286106e+00 4.2507555317083145e+00 3.9848307793812424e+01 1 1 -1
4801 1 4.8475786015434510e+00 9.2740019477167195e+00 4.1408757363649450e+01 0 0 -1
516 1 1.8352867322820201e+00 7.9229415249477979e+00 4.8353981562204936e+01 0 0 0
4836 1 3.1163624878033369e+00 1.1281544143468254e+01 4.2582089604370964e+01 0 0 0
5368 1 6.3132691025721224e+00 9.0192276502331286e+00 4.3966637216708918e+01 0 2 0
1731 1 8.5530546503886526e+00 1.2980498736151164e+01 4.2534182652543961e+01 0 1 0
4891 1 8.6831668856107562e+00 1.0248229297928781e+01 4.3466980375060650e+01 1 0 -1
461 1 7.2088978469044246e-02 8.2142531292828203e+00 4.1761607724422646e+01 0 2 -1
4629 1 3.7540627190459817e+00 1.4055430518721852e+01 4.1572069537086691e+01 1 0 0
1951 1 6.3399293128188328e+00 1.3253614838555720e+01 4.6161291384234254e+01 0 1 -1
1527 1 6.0913471041348224e+00 1.3875598513796870e+01 4.3378479836476906e+01 0 0 -1