
# Create simulation box and atoms

read_data data.ML_graphite_m500atm_240K
  orthogonal box = (0 0 2.16312) to (49.22 49.0196 57.8989)
  5 by 3 by 6 MPI processor grid
  reading atoms ...
  6489 atoms
  reading velocities ...
  6489 velocities
group water type 1
3729 atoms in group water
group graphite type 2
2760 atoms in group graphite

# Define potential

pair_style sw
pair_coeff * * MLC_e.sw mW C


# Fix graphite atoms in place

fix 5 graphite setforce 0.0 0.0 0.0
velocity graphite set 0.0 0.0 0.0


# Equilibration of molecular water

# Add velocity/set timestep

velocity	    water create ${TEMP} ${SEED} rot yes dist gaussian
velocity	    water create 240 ${SEED} rot yes dist gaussian
velocity	    water create 240 652 rot yes dist gaussian
timestep	    5.0

# Define output

compute			1 water msd
compute			3 water temp
thermo	    	50
thermo_style	custom step temp press vol etotal ke pe c_1[4] c_3

# Neighbor lists

neigh_modify    delay 0 every 1 check yes

# Set fixes

fix             1 water momentum 10 linear 1 1 1 rescale
fix             2 water nve
fix             3 water temp/csvr ${TEMP} ${TEMP} 500.0 ${SEED}
fix             3 water temp/csvr 240 ${TEMP} 500.0 ${SEED}
fix             3 water temp/csvr 240 240 500.0 ${SEED}
fix             3 water temp/csvr 240 240 500.0 652
fix             4 water press/berendsen z ${PRES} ${PRES} 1000.0 modulus 20000
fix             4 water press/berendsen z -500 ${PRES} 1000.0 modulus 20000
fix             4 water press/berendsen z -500 -500 1000.0 modulus 20000

# Run 0.5 ns equilibration

dump		    1 all atom 2000 ${DIR}/eq.${NAME}-${TEMP}.dump
dump		    1 all atom 2000 run_4/eq.${NAME}-${TEMP}.dump
dump		    1 all atom 2000 run_4/eq.het_freeze_4-${TEMP}.dump
dump		    1 all atom 2000 run_4/eq.het_freeze_4-240.dump

reset_timestep  0

run	            100000
Neighbor list info ...
  update every 1 steps, delay 0 steps, check yes
  max neighbors/atom: 2000, page size: 100000
  master list distance cutoff = 6.67472
  ghost atom cutoff = 6.67472
  binsize = 3.33736, bins = 15 15 17
  1 neighbor lists, perpetual/occasional/extra = 1 0 0
  (1) pair sw, perpetual
      attributes: full, newton on
      pair build: full/bin/atomonly
      stencil: full/bin/3d
      bin: standard
Per MPI rank memory allocation (min/avg/max) = 4.071 | 4.223 | 4.502 Mbytes
Step Temp Press Volume TotEng KinEng PotEng c_1[4] c_3 
       0    137.90382   -585.46729    134476.24   -35583.071    2666.9904   -38250.061            0          240 
      50    138.55364    -528.4534    134586.92   -35596.306    2679.5575   -38275.864   0.50553985     241.1309 
     100    136.24352    -689.5525     134681.5   -35633.713    2634.8809   -38268.594   0.80765221     237.1105 
     150    139.25854   -404.53771    134740.93   -35620.426    2693.1899   -38313.616   0.99747643    242.35767 
     200    138.42352   -528.44824    134908.01   -35670.852    2677.0411   -38347.894    1.1887216    240.90446 
     250    137.41212   -620.66905     134890.6   -35629.115    2657.4812   -38286.597    1.4103013    239.14428 
     300     141.2003   -668.46431    134912.69    -35642.77    2730.7426   -38373.513    1.5969628      245.737 
     350     137.3859   -837.54884    134983.39   -35630.972    2656.9739   -38287.946    1.8322434    239.09863 
     400    134.75045   -460.00616    134976.75   -35649.793    2606.0057   -38255.798    2.0471754    234.51205 
     450    138.94761   -901.86529    135000.28   -35627.821    2687.1767   -38314.998     2.202765    241.81655 
     500    137.90667   -905.00104    134998.39   -35630.157    2667.0455   -38297.203    2.3616865    240.00496 
     550    138.10485   -598.20167    134984.44   -35586.977    2670.8781   -38257.856    2.5320492    240.34985 
     600    139.42204   -665.96824    135061.03     -35542.9    2696.3519   -38239.252    2.8048934    242.64222 
     650    139.80672   -847.15146    135097.91   -35530.167    2703.7914   -38233.959    2.9854631    243.31169 
     700    139.63719   -456.94426    135090.56   -35573.791    2700.5128   -38274.304    3.1548238    243.01665 
     750    139.15547   -905.04981    135113.15   -35624.494    2691.1967   -38315.691    3.3745897     242.1783 
     800    139.90172   -798.82337    135107.71   -35637.422    2705.6286   -38343.051    3.5973516    243.47702 
     850     140.6257   -897.24665    135119.65   -35634.238    2719.6301   -38353.869    3.7436817    244.73701 
     900    136.29242   -936.86618    135106.75   -35688.219    2635.8266   -38324.045    3.9189801     237.1956 
     950    137.46456   -477.49872    135086.89   -35680.809    2658.4952   -38339.304    4.0679789    239.23553 
    1000    141.24622    -649.0107    135017.67   -35621.903    2731.6306   -38353.534    4.2523972    245.81692 
    1050    137.64775   -804.13244    134923.64   -35675.863     2662.038   -38337.901    4.4747722    239.55434 
    1100    137.85586   -638.48331    134915.04   -35723.004    2666.0629   -38389.067    4.6458476    239.91653 
    1150    135.92896   -606.31421    134929.23   -35774.524    2628.7976   -38403.322    4.7952652    236.56306 
    1200    138.15268   -691.59282    134929.07   -35773.665    2671.8031   -38445.468    4.9230401    240.43309 
    1250    136.41897   -563.71815    134989.29   -35755.079    2638.2741   -38393.353    5.1724416    237.41585 
    1300    138.06586   -706.31618    135005.16   -35738.229    2670.1241   -38408.353    5.3605191      240.282 
    1350    134.28546   -742.42875    134914.29   -35743.191     2597.013   -38340.204    5.5272463     233.7028 
    1400    138.16522   -842.71174    134895.36    -35745.95    2672.0457   -38417.996    5.7200144    240.45493 
    1450    136.66248   -643.57379    134800.92   -35750.096    2642.9833    -38393.08    5.9627575    237.83963 
    1500    135.28123   -715.46388    134813.21   -35747.783    2616.2707   -38364.054    6.1645682    235.43578 
    1550    137.95467   -961.01905    134831.99   -35677.188    2667.9737   -38345.161    6.4084681    240.08849 
    1600    136.11462    -862.4973    134796.54   -35769.195     2632.388   -38401.583    6.5587883    236.88617 
    1650    136.07005   -803.24405    134737.24   -35781.459    2631.5262   -38412.985    6.7125849    236.80861 
    1700    136.05365   -876.88791    134753.14   -35744.928     2631.209   -38376.137    6.8837945    236.78007 
    1750    137.11615   -698.93202    134767.54   -35728.979    2651.7572   -38380.736    7.0010017    238.62918 
    1800    135.26973     -693.109    134803.73   -35785.968    2616.0483   -38402.016    7.1535937    235.41577 
    1850    137.18126   -943.87952    134825.24   -35734.994    2653.0164   -38388.011    7.2784133     238.7425 
    1900    136.71707   -865.97344    134799.99    -35731.18    2644.0392    -38375.22    7.4757264    237.93465 
    1950    136.14555   -818.04224    134852.44   -35702.558    2632.9862   -38335.544    7.6040402    236.93999 
    2000    136.58051   -769.39806    134810.21   -35674.769    2641.3981   -38316.167    7.7501151    237.69698 
    2050    139.19706   -730.53375    134869.92   -35636.153    2692.0009   -38328.154    7.8750999    242.25067 
    2100    140.93592    -769.9751     134913.6     -35594.1    2725.6296   -38319.729    8.0590529    245.27689 
    2150    139.77529   -519.33378    134986.67    -35574.42    2703.1835   -38277.603    8.1405948    243.25699 
    2200    136.44265   -703.58028    134989.61   -35594.272     2638.732   -38233.004    8.3972741    237.45706 
    2250    134.79376   -906.23265    134893.83   -35598.213    2606.8433   -38205.056    8.6647583    234.58742 
    2300    137.84786   -971.90273    134829.76   -35531.439    2665.9082   -38197.347    8.8181692    239.90261 
    2350    139.78705    -770.1577    134776.94   -35530.769     2703.411    -38234.18    9.0124891    243.27746 
    2400    139.90715   -703.37916    134802.91   -35547.839    2705.7337   -38253.573    9.3745052    243.48648 
    2450    136.99549    -959.0446    134735.99   -35555.036    2649.4238    -38204.46     9.639586     238.4192 
    2500    139.00647   -550.40565    134800.35   -35582.949     2688.315   -38271.264    9.8556145    241.91898 
    2550      142.306   -764.41084    134873.08   -35526.811    2752.1262   -38278.937    10.076771    247.66129 
    2600    141.69534   -588.45341    134810.11   -35511.545    2740.3164   -38251.861    10.336106    246.59854 
    2650     140.2705   -910.92627    134819.09   -35516.525    2712.7607   -38229.286    10.539068    244.11883 
    2700    137.58183    -759.0157    134689.38   -35570.636    2660.7632   -38231.399    10.693203    239.43962 
    2750    138.06688   -594.38237    134660.68   -35608.664    2670.1438   -38278.808    10.934478    240.28377 
    2800     137.2742   -571.85244    134711.67   -35602.683    2654.8138   -38257.497    11.198161    238.90424 
    2850    137.65085    -568.7263    134808.97   -35569.914    2662.0981   -38232.012    11.348602    239.55975 
    2900    140.47668   -953.12726    134803.43   -35513.356    2716.7482   -38230.104    11.580434    244.47766 
    2950    137.30086   -912.69438    134734.63   -35546.238    2655.3294   -38201.567    11.951276    238.95064 
    3000    138.65732   -936.88945    134673.51   -35515.007    2681.5627    -38196.57    12.176354    241.31135 
    3050     137.6364   -456.67401    134592.11   -35527.807    2661.8186   -38189.626    12.429207     239.5346 
    3100    138.07135   -729.21999    134637.71   -35506.714    2670.2303   -38176.945     12.64366    240.29155 
    3150    138.18138   -683.84181    134662.92   -35507.508    2672.3581   -38179.866    12.817048    240.48304 
    3200    137.99386   -631.99063    134839.93   -35475.985    2668.7317   -38144.717    13.062436     240.1567 
    3250    139.14162   -610.95821    134913.35   -35537.553    2690.9288   -38228.482    13.257311     242.1542 
    3300    137.70266   -433.42844    134911.37   -35590.984       2663.1   -38254.084    13.401791    239.64991 
    3350    136.94061   -666.87631    134974.14    -35601.38    2648.3624   -38249.743    13.651197    238.32369 
    3400    139.56555   -586.39391    135058.58   -35575.217    2699.1273   -38274.345    13.896306    242.89197 
    3450    138.43555   -710.28392    135053.83   -35575.961    2677.2738   -38253.235    14.160867    240.92539 
    3500    138.45063   -548.92657     135074.6   -35615.243    2677.5654   -38292.809    14.431847    240.95163 
    3550    138.16187   -478.04712    135127.57   -35640.239    2671.9809    -38312.22    14.596069    240.44909 
    3600    136.95576   -687.48849    135127.84   -35671.384    2648.6553   -38320.039    14.911864    238.35004 
    3650    138.63884   -819.60819     135050.4   -35677.467    2681.2053   -38358.672     15.12068    241.27919 
    3700    136.74614   -731.27547    134964.29   -35675.278    2644.6013   -38319.879    15.225203    237.98523 
    3750    138.58163   -890.66525    134834.91   -35676.132    2680.0987   -38356.231    15.287447    241.17961 
    3800    138.11942   -831.58216    134817.84   -35665.186      2671.16   -38336.346    15.308476    240.37522 
    3850    135.88266   -654.43714    134765.03   -35704.927    2627.9021   -38332.829    15.491087    236.48248 
    3900    134.93817    -730.1923    134712.76   -35695.424    2609.6362    -38305.06    15.633952    234.83875 
    3950    135.16168   -659.21239    134747.29   -35663.008    2613.9588   -38276.967    15.778582    235.22774 
    4000     135.2917   -727.91487    134762.61   -35734.036    2616.4732   -38350.509    15.846437    235.45401 
    4050    137.27941   -684.14617    134720.63   -35690.019    2654.9145   -38344.933    15.945251     238.9133 
    4100    138.58209   -708.23631       134749   -35591.598    2680.1078   -38271.706    16.135736    241.18042 
    4150    140.07697   -534.53527     134759.1   -35639.764    2709.0179   -38348.782    16.441288    243.78202 
    4200    137.33604   -664.93666    134783.43   -35729.786    2656.0098   -38385.796    16.631068    239.01187 
    4250    135.56314   -687.97923    134764.84    -35737.85    2621.7227   -38359.572    16.653888     235.9264 
    4300    134.57937   -999.17773    134805.78     -35753.4    2602.6972   -38356.097    16.613641    234.21431 
    4350    141.62711   -751.20186    134753.19   -35704.357    2738.9968   -38443.354    16.526595     246.4798 
    4400     136.6926   -692.87468    134829.33    -35711.12    2643.5659   -38354.686    16.703433    237.89206 
    4450    135.83011   -672.57704    134926.78    -35793.27    2626.8859   -38420.156    16.995952    236.39103 
    4500    136.25325   -788.30263    134904.39   -35728.793    2635.0691   -38363.862    17.057693    237.12743 
    4550    135.47917   -654.08646    134955.26   -35729.629    2620.0987   -38349.728    17.289792    235.78027 
    4600    138.04244   -803.83812    134924.39   -35710.962    2669.6711   -38380.633    17.491635    240.24124 
    4650    139.54454   -821.16529    134899.24   -35676.279     2698.721       -38375     17.59441    242.85541 
    4700    138.41844   -647.67021    134938.91   -35656.196    2676.9429   -38333.139    17.674656    240.89562 
    4750     137.4566   -761.75291     134924.3   -35658.854    2658.3414   -38317.195    17.871698    239.22169 
    4800    138.10505   -780.01281    134933.93   -35705.152     2670.882   -38376.034    17.966527    240.35021 
    4850    136.48469   -782.56005    134913.59    -35714.26    2639.5452   -38353.805    18.115421    237.53023 
    4900    138.19822   -740.76591    134946.52   -35696.718    2672.6838   -38369.401    18.475772    240.51235 
    4950    137.61242   -604.47412    135034.96   -35769.644    2661.3547   -38430.998    18.746174    239.49285 
    5000    136.62056   -672.89751     135017.6    -35806.61    2642.1727   -38448.783    18.810173    237.76668 
    5050    138.41034   -773.64337    135046.78   -35737.269    2676.7861   -38414.055    18.902858    240.88151 
    5100    136.85224   -817.51618    134939.23   -35747.281    2646.6532   -38393.935    19.068871    238.16988 
    5150    135.30301   -793.22897    134847.24   -35753.322     2616.692   -38370.014    19.166353    235.47369 
    5200    137.88963   -790.68513    134877.16   -35696.422    2666.7158   -38363.138    19.456616    239.97529 
    5250    138.68095    -773.4508    134938.38   -35681.897    2682.0197   -38363.917    19.602202    241.35248 
    5300     136.7172     -740.253    135064.27    -35715.48    2644.0418   -38359.522    19.770409    237.93488 
    5350    140.10575   -704.01108    135094.19   -35696.874    2709.5746   -38406.448    19.990725    243.83211 
    5400    139.53865    -736.5568    135191.56    -35659.46    2698.6071   -38358.067    20.206576    242.84516 
    5450    140.99931    -1050.258    135057.84    -35673.06    2726.8555   -38399.915    20.331815    245.38721 
    5500    140.21945   -743.66979    135006.56   -35676.408    2711.7734   -38388.181    20.485005    244.02998 
    5550    140.00588   -688.06464    135020.09   -35697.186    2707.6431   -38404.829    20.536255     243.6583 
    5600    137.93747   -903.41748    135024.45   -35747.896     2667.641   -38415.537     20.74822    240.05855 
    5650    138.52382   -850.73883    135019.67   -35733.478    2678.9808   -38412.459    20.995893    241.07901 
    5700    136.96217   -1060.6055    135005.61   -35645.362    2648.7793   -38294.141    21.120517     238.3612 
    5750    139.80226   -714.64815    134981.93   -35619.455    2703.7053    -38323.16    21.179386    243.30394 
    5800    139.61019   -765.35216       134972   -35623.008    2699.9906   -38322.998    21.343051    242.96966 
    5850    138.17073   -700.24948     135000.6   -35699.675    2672.1522   -38371.827    21.359361    240.46451 
    5900    139.23887   -944.17293    134957.57   -35734.678    2692.8095   -38427.487    21.506022    242.32344 
    5950    138.89057   -1010.3405    135003.96    -35744.14    2686.0736   -38430.214    21.645046    241.71728 
    6000    138.57291   -758.69645    135020.87   -35780.097    2679.9302   -38460.027     21.76292    241.16444 
    6050    137.85722   -717.00156    135055.34   -35745.481    2666.0891    -38411.57    22.008645     239.9189 
    6100     141.6581   -786.42443    134970.84   -35738.217    2739.5962   -38477.813    22.147137    246.53373 
    6150    137.15104   -663.35828    134911.75   -35769.803    2652.4318   -38422.235    22.287291    238.68989 
    6200    137.45856   -822.74798    134919.98     -35794.2    2658.3792   -38452.579    22.379425    239.22509 
    6250    137.11843    -880.2588    134959.69   -35828.407    2651.8013   -38480.208    22.628214    238.63315 
    6300    137.31333   -657.96334    135009.72   -35813.215    2655.5706   -38468.786    22.789085    238.97235 
    6350    137.69847   -497.07963    135141.45   -35761.736    2663.0189   -38424.755    22.836159    239.64261 
    6400    138.09118   -771.86361     135200.9   -35765.496    2670.6137    -38436.11    22.809946    240.32606 
    6450     138.3922   -542.69968    135205.14   -35756.904    2676.4353   -38433.339    22.840357    240.84994 
    6500    138.38743   -362.88012    135226.59   -35748.566    2676.3432   -38424.909    22.898849    240.84165 
    6550    139.57635   -643.53334     135267.8   -35775.421    2699.3363   -38474.757    22.946414    242.91078 
    6600    139.34262   -660.16292    135214.57   -35847.636     2694.816   -38542.452    23.049317      242.504 
    6650    135.63126   -777.25052    135287.53   -35859.292    2623.0401   -38482.333    23.210817    236.04496 
    6700    136.61658       -948.1    135289.37   -35871.541    2642.0957   -38513.637    23.325714    237.75975 
    6750    135.11874    -711.0192    135272.13   -35859.157    2613.1283   -38472.285    23.515953      235.153 
    6800    136.01167   -665.58952    135326.01   -35834.379    2630.3971   -38464.776    23.694244      236.707 
    6850    137.37879    -813.1385    135303.23   -35816.146    2656.8364   -38472.983    23.979925    239.08626 
    6900    137.15332   -638.12314    135311.68   -35796.265     2652.476   -38448.741    24.148499    238.69386 
    6950    136.47481   -623.66204    135325.72   -35791.341    2639.3541   -38430.695    24.265786    237.51304 
    7000    135.84895   -930.01677     135306.6   -35778.119    2627.2501   -38405.369      24.3822    236.42381 
    7050    140.11731   -536.52877    135277.49   -35723.818    2709.7981   -38433.616     24.57088    243.85223 
    7100    139.41227   -742.52136    135289.11   -35705.782    2696.1631   -38401.945    24.648012    242.62522 
    7150    136.17971   -704.53985    135330.93   -35734.104    2633.6469   -38367.751    24.759184    236.99945 
    7200    135.41824   -834.99364     135268.1   -35762.574    2618.9204   -38381.495    24.898977    235.67423 
    7250    138.90276   -606.49726    135205.37   -35730.866    2686.3094   -38417.176    25.166165     241.7385 
    7300    139.80704   -936.99641    135161.88    -35760.67    2703.7976   -38464.467    25.298362    243.31225 
    7350    137.48215   -884.87827    135121.78    -35802.75    2658.8354   -38461.586    25.534826    239.26614 
    7400    137.47317   -752.07616    135100.46   -35742.417    2658.6617   -38401.079    25.784961    239.25051 
    7450    137.40207   -944.84104    135119.18   -35714.471    2657.2866   -38371.758    26.091246    239.12677 
    7500    137.56976    -526.4476     135146.8   -35762.215    2660.5297   -38422.744    26.314536    239.41861 
    7550    135.30637    -809.5762     135193.4   -35745.305    2616.7569   -38362.062    26.556355    235.47954 
    7600    138.73677   -681.40102    135165.83   -35731.556    2683.0992   -38414.655    26.779946    241.44962 
    7650    139.31369   -828.26257    135152.62   -35658.891    2694.2565   -38353.147     26.73609    242.45365 
    7700    139.95779   -789.57518    135223.19   -35688.611    2706.7131   -38395.324     26.78784    243.57461 
    7750    140.69415   -754.56203    135324.63   -35700.754    2720.9538   -38421.708      26.9506    244.85612 
    7800     143.2262   -556.91324    135407.02    -35608.63    2769.9225   -38378.553    27.186576    249.26277 
    7850    141.04593   -647.70478     135552.8   -35609.684    2727.7571   -38337.441    27.324669    245.46834 
    7900      137.743   -766.13204    135550.03   -35667.068    2663.8802   -38330.948    27.586407    239.72012 
    7950    137.87326   -738.22119    135507.48   -35674.961    2666.3993   -38341.361    27.701607    239.94681 
    8000    139.47929   -735.75419    135580.42   -35666.112    2697.4592   -38363.571    27.942875    242.74186 
    8050    139.69742    -871.1946    135567.74    -35655.18    2701.6777   -38356.858    28.188312    243.12148 
    8100    137.18378   -837.50566    135566.15   -35691.794    2653.0652   -38344.859    28.370683    238.74688 
    8150    136.95268   -632.73372    135537.21   -35717.836    2648.5957   -38366.432    28.476399    238.34468 
    8200    137.56635   -476.26773    135549.02   -35712.633    2660.4638   -38373.097    28.495013    239.41268 
    8250    138.64182   -862.51226    135599.65   -35698.269     2681.263   -38379.532    28.609005    241.28438 
    8300    138.08355   -903.47286    135548.44   -35718.399    2670.4662   -38388.865    28.865906    240.31279 
    8350    139.00448   -707.50983    135402.91   -35711.631    2688.2765   -38399.908    28.941673    241.91552 
    8400    137.17017   -716.88972    135410.44   -35690.093    2652.8018   -38342.894    29.063679    238.72319 
    8450    139.12154   -382.82412    135440.94   -35651.152    2690.5404   -38341.692    29.341112    242.11925 
    8500    138.51311   -789.50449    135402.33   -35700.416    2678.7738    -38379.19    29.461417    241.06038 
    8550     135.2599   -1061.1976    135404.99   -35701.061    2615.8583    -38316.92     29.62401    235.39867 
    8600    140.84412   -666.80529    135375.73   -35674.302    2723.8542   -38398.156    29.728846    245.11712 
    8650    139.03478   -610.42813    135366.19    -35678.54    2688.8625   -38367.403    29.798125    241.96825 
    8700     141.0003   -757.81147    135407.89   -35663.631    2726.8747   -38390.505     30.09159    245.38894 
    8750    137.66742   -964.69312    135428.77   -35705.952    2662.4185    -38368.37    30.326015    239.58858 
    8800    137.83191   -918.53548    135376.06   -35688.639    2665.5997   -38354.239    30.470927    239.87485 
    8850    135.20566   -753.88006    135415.27   -35731.333    2614.8092   -38346.143    30.509474    235.30427 
    8900    135.68422    -790.9143    135403.54   -35692.714    2624.0644   -38316.778    30.604893    236.13714 
    8950      135.662   -711.73748    135387.24   -35691.784    2623.6346   -38315.418    30.672483    236.09846 
    9000     137.7726   -499.15358    135394.58   -35708.036    2664.4526   -38372.489    30.795252    239.77163 
    9050    140.44699   -616.39985     135417.1   -35658.047     2716.174   -38374.221    31.040926    244.42599 
    9100    137.21574   -877.30872    135363.46   -35662.481    2653.6832   -38316.164    31.199889     238.8025 
    9150    136.81879   -773.99289    135366.34   -35652.602    2646.0065   -38298.608    31.359315    238.11168 
    9200    140.04724   -723.98021    135364.01   -35642.439     2708.443   -38350.882    31.512709    243.73029 
    9250    141.89917   -470.61027    135428.64   -35626.697    2744.2584   -38370.955    31.621807    246.95327 
    9300     137.5111   -322.64354    135475.15   -35620.563    2659.3954   -38279.959    31.859949    239.31654 
    9350    140.36959   -508.92635    135512.11   -35629.864     2714.677   -38344.541    31.954248    244.29128 
    9400    139.56663   -716.01897    135520.44   -35581.704    2699.1481   -38280.852    32.217523    242.89385 
    9450    141.46308   -590.24371       135515   -35576.455    2735.8246    -38312.28    32.496679    246.19433 
    9500    138.06596   -950.89709    135489.76    -35616.76    2670.1261   -38286.886    32.805833    240.28218 
    9550    138.91549   -640.95046    135495.27   -35592.676    2686.5555   -38279.232    33.090701    241.76065 
    9600     139.8407   -781.77888     135417.2   -35599.372    2704.4486    -38303.82     33.29901    243.37083 
    9650    136.17241   -619.51371    135344.51   -35667.531    2633.5057   -38301.037    33.478509    236.98674 
    9700    136.51437   -878.54191    135411.09   -35664.876     2640.119   -38304.995    33.643635    237.58187 
    9750    137.65772   -1028.6043    135339.78   -35646.313    2662.2308   -38308.544    33.709757    239.57169 
    9800    138.68084   -979.83765    135323.18   -35645.891    2682.0175   -38327.908    33.893461    241.35228 
    9850    136.76837   -1059.2347    135213.61   -35630.155    2645.0314   -38275.186    33.968971    238.02393 
    9900    135.11819   -999.55917    135055.94   -35579.442    2613.1176    -38192.56    34.206174    235.15204 
    9950    135.78091   -817.38898    135054.67   -35584.637    2625.9344   -38210.571    34.467144    236.30541 
   10000    138.53755   -703.38363    134937.42   -35610.303    2679.2463   -38289.549    34.537134     241.1029 
   10050    137.83812   -727.35811    134921.42   -35637.181    2665.7197   -38302.901    34.705764    239.88565 
   10100    136.87168   -759.14303    134845.19   -35663.547    2647.0292   -38310.576    34.763969    238.20372 
   10150    135.81992   -670.43094    134796.31   -35627.284    2626.6887   -38253.972    34.825016    236.37329 
   10200     137.9522   -609.96799    134812.12   -35641.859    2667.9259   -38309.785    34.894087    240.08419 
   10250    138.35534   -575.08061    134820.23   -35654.012    2675.7225   -38329.734    35.022785     240.7858 
   10300    140.36607   -612.40531    134816.65   -35589.038    2714.6089   -38303.647    35.286933    244.28515 
   10350    139.98399   -787.86875     134740.2   -35554.961    2707.2198   -38262.181    35.430882    243.62021 
   10400    137.32587   -1079.8542    134779.74   -35521.639    2655.8131   -38177.453    35.673998    238.99417 
   10450     142.6359   -767.72535       134756    -35528.93    2758.5064   -38287.436    35.818755    248.23545 
   10500    138.50872   -709.28204    134727.55   -35612.762    2678.6888    -38291.45     36.01642    241.05273 
   10550    140.04582   -682.55621    134731.08   -35583.828    2708.4155   -38292.243    36.149991    243.72781 
   10600    137.47553   -590.63193    134775.54   -35623.751    2658.7074   -38282.458    36.237901    239.25462 
   10650     139.6225   -723.09628    134848.04   -35602.145    2700.2287   -38302.374    36.250576    242.99108 
   10700    139.65351   -716.48079    134812.31   -35645.379    2700.8285   -38346.208     36.25318    243.04506 
   10750    138.23391   -728.76763    134774.65   -35617.498    2673.3741   -38290.872    36.313312    240.57447 
   10800    136.19386    -688.3755    134807.25   -35608.855    2633.9206   -38242.775    36.620543    237.02408 
   10850    137.55105   -879.63103    134861.34   -35616.521    2660.1679   -38276.689    36.836438    239.38605 
   10900    136.09114   -1045.7535    134873.08   -35668.958     2631.934   -38300.892    37.246341    236.84531 
   10950    136.86155   -894.52174    134797.85   -35687.209    2646.8333   -38334.043    37.388785    238.18608 
   11000    139.17258   -1004.6656    134744.78   -35640.805    2691.5274   -38332.333    37.352696    242.20807 
   11050     138.7275   -990.94404    134632.88   -35654.516    2682.9198   -38337.436    37.578149    241.43348 
   11100    134.83451   -1065.9409    134529.18   -35650.076    2607.6313   -38257.707    37.839065    234.65834 
   11150    137.43889   -631.38676    134457.82   -35664.359    2657.9987   -38322.357    37.891469    239.19085 
   11200    140.03694   -554.21915    134501.89   -35623.109    2708.2437   -38331.353    37.904434    243.71235 
   11250    138.48901   -798.82158    134548.59   -35622.236    2678.3076   -38300.543    38.061304    241.01843 
   11300    137.07218   -752.79357    134571.42   -35621.089    2650.9067   -38271.996    38.350224    238.55265 
   11350    138.69836    -827.6821    134551.42   -35643.055    2682.3563   -38325.411    38.415043    241.38276 
   11400    139.05926   -981.62184    134549.31   -35615.983     2689.336   -38305.319    38.624647    242.01086 
   11450    136.27957   -908.14908     134518.8   -35682.375    2635.5781   -38317.953    38.910288    237.17324 
   11500    137.82899   -643.65069    134549.47     -35686.1    2665.5432   -38351.643    38.987419    239.86977 
   11550    139.61383    -649.4139    134609.23   -35643.152     2700.061   -38343.213    38.923013      242.976 
   11600    141.30129   -697.09456    134680.21    -35639.65    2732.6957   -38372.346    39.167086    245.91276 
   11650    136.99725   -686.98387    134828.32   -35679.945    2649.4577   -38329.402    39.389393    238.42226 
   11700    137.26907   -794.57398    134823.13   -35646.558    2654.7146   -38301.273    39.653492    238.89531 
   11750    140.69469   -906.67339     134805.5   -35594.611    2720.9643   -38315.575      39.8533    244.85707 
   11800    138.72157   -768.07933    134752.08   -35570.799    2682.8052   -38253.604    40.206395    241.42317 
   11850    140.14758   -405.27571    134722.88   -35520.352    2710.3836   -38230.735    40.523775    243.90492 
   11900    142.30299   -528.88022     134718.4   -35523.336     2752.068   -38275.404    40.773535    247.65606 
   11950    141.06918   -548.47996    134737.12   -35524.717    2728.2068   -38252.923    41.170931    245.50881 
   12000    139.18964   -355.03485    134791.36   -35557.597    2691.8575   -38249.455    41.264703    242.23777 
   12050    137.86509   -813.39867    134830.17   -35542.424    2666.2412   -38208.665    41.351642    239.93259 
   12100    137.56904   -761.42355    134809.54   -35553.873    2660.5158   -38214.389    41.512102    239.41736 
   12150    139.16751   -891.26912    134879.06   -35533.612    2691.4295   -38225.042    41.769358    242.19925 
   12200    137.63078   -538.81126    134853.88   -35589.966    2661.7099   -38251.676    41.864965    239.52482 
   12250    139.78197   -771.87514    134806.94   -35529.484    2703.3127   -38232.796    41.916653    243.26862 
   12300    141.28698    -702.3859    134896.63   -35463.976    2732.4189   -38196.394    42.015003    245.88785 
   12350    142.22938   -753.11073    134867.11   -35500.988    2750.6444   -38251.632    42.045535    247.52795 
   12400    141.87093     -848.428    134844.53   -35500.438    2743.7122    -38244.15    42.085873    246.90412 
   12450    143.08591    -661.8877    134793.03   -35481.689    2767.2093   -38248.898    42.286209    249.01861 
   12500    140.20722   -619.37974    134859.63   -35519.326    2711.5368   -38230.863    42.321304     244.0087 
   12550    139.14915   -430.09894    134873.57    -35500.89    2691.0743   -38191.964    42.604345    242.16729 
   12600    140.15313   -468.49674    134988.43   -35494.491    2710.4909   -38204.981    42.810527    243.91457 
   12650    139.65918   -453.31862    135050.95   -35471.956    2700.9381   -38172.894    42.998364    243.05492 
   12700    140.75058   -866.04344    135113.73   -35461.511    2722.0452   -38183.556    43.103204    244.95433 
   12750    143.06531   -511.36785    135149.24   -35492.046    2766.8109   -38258.857    43.190125    248.98276 
   12800    142.30262   -542.60674    135187.15   -35576.614    2752.0609   -38328.675     43.45658    247.65541 
   12850    137.72622   -788.71534    135271.58   -35584.289    2663.5557   -38247.845    43.622998    239.69092 
   12900    140.38645   -826.66478    135237.12   -35642.889    2715.0031   -38357.893     43.60594    244.32062 
   12950    141.24065    -595.1961    135217.43   -35658.478    2731.5229   -38390.001    43.627528    245.80723 
   13000    137.68624   -661.02513    135295.45   -35648.416    2662.7824   -38311.199    43.882029    239.62133 
   13050    139.13716    -681.8408    135306.24   -35625.218    2690.8424   -38316.061    43.975642    242.14642 
   13100    138.04158   -755.51638    135217.74   -35603.569    2669.6545   -38273.223    43.958578    240.23975 
   13150    138.13531   -710.81771    135074.13   -35623.761    2671.4672   -38295.228    44.081788    240.40287 
   13200    139.91475   -1016.5612    135002.29   -35621.137    2705.8807   -38327.017     44.32153    243.49971 
   13250    139.58825   -1022.7911    134912.28   -35695.834    2699.5664   -38395.401     44.74495    242.93149 
   13300    138.02298   -897.51024    134835.17   -35693.703    2669.2949   -38362.998    44.855428    240.20738 
   13350    134.21124   -721.92927    134664.42   -35691.226    2595.5777   -38286.804    44.918274    233.57364 
   13400    136.96296   -719.72827    134588.44   -35765.589    2648.7945   -38414.383    45.052239    238.36257 
   13450    134.95812   -689.33753    134531.11   -35714.259    2610.0219   -38324.281    45.017665    234.87346 
   13500    138.07379   -966.94707    134541.94   -35668.463    2670.2775    -38338.74    45.169107    240.29581 
   13550    139.38211   -886.27342    134520.75   -35659.334    2695.5797   -38354.913    45.438502    242.57273 
   13600    136.91018   -884.95906    134639.71   -35599.925    2647.7739   -38247.699    45.429196    238.27072 
   13650    138.50179   -803.82637    134634.72   -35654.385    2678.5547    -38332.94    45.507912    241.04066 
   13700    138.35844   -937.05783    134669.89   -35637.764    2675.7824   -38313.547      45.6913    240.79119 
   13750    138.69026    -617.0926    134654.97   -35668.384    2682.1996   -38350.583    45.831924    241.36867 
   13800    138.89608   -576.10068    134713.34   -35659.919    2686.1802   -38346.099    46.029014    241.72687 
   13850    138.60336    -672.1741    134726.28   -35653.125     2680.519   -38333.644    46.282558    241.21743 
   13900    138.80007    -891.9086    134702.23   -35671.872    2684.3233   -38356.195     46.45045    241.55978 
   13950     138.0124   -948.05877    134659.33   -35696.774    2669.0902   -38365.865    46.579226    240.18896 
   14000    135.89602   -653.48859    134752.12   -35689.641    2628.1605   -38317.802    46.870451    236.50574 
   14050    134.34907   -620.78534    134793.37   -35711.811    2598.2432   -38310.054    47.115805     233.8135 
   14100     136.4554   -888.66766    134798.38   -35709.165    2638.9787   -38348.144    47.174047    237.47926 
   14150    138.34667   -517.25785    134865.35   -35746.736    2675.5549   -38422.291    47.270378    240.77071 
   14200    138.80838   -683.63609     134978.5   -35715.043     2684.484   -38399.527    47.431904    241.57424 
   14250    138.14229   -693.16136    135016.41   -35728.927    2671.6022   -38400.529    47.714765    240.41501 
   14300    138.68418    -784.3613    135139.13    -35651.79    2682.0821   -38333.872    47.860441    241.35809 
   14350    138.55717   -815.07056    135242.72   -35693.928    2679.6257   -38373.553    47.860814    241.13704 
   14400    136.63274   -752.97055    135262.16   -35686.506    2642.4083   -38328.915    48.033078    237.78789 
   14450    137.37809   -442.80737    135397.63   -35697.256    2656.8229   -38354.079    48.234797    239.08504 
   14500    136.42629   -647.67356    135474.19   -35740.421    2638.4157   -38378.837    48.325151    237.42859 
   14550    135.89263     -810.225    135442.31   -35816.455     2628.095    -38444.55     48.45669    236.49984 
   14600    138.19059   -793.55914    135453.47   -35787.414    2672.5363    -38459.95     48.59223    240.49908 
   14650    137.99232   -822.41762    135395.73   -35796.027    2668.7018   -38464.728    48.826726    240.15401 
   14700    138.56899   -843.50711    135381.92    -35752.03    2679.8544   -38431.885    48.977331    241.15762 
   14750     137.5689   -635.06394    135422.12    -35732.88    2660.5131   -38393.393     49.28748    239.41712 
   14800    138.17068   -598.53001     135503.8   -35755.849    2672.1512       -38428    49.304251    240.46442 
   14850    138.75356   -907.64176     135576.3   -35780.759    2683.4238   -38464.183    49.622209    241.47883 
   14900    138.74748   -708.52443    135586.84   -35711.654    2683.3062   -38394.961    49.705845    241.46825 
   14950    138.15737   -762.97646    135657.71    -35760.11    2671.8938   -38432.003     49.84636    240.44125 
   15000    139.08969   -759.20935    135632.51   -35719.428    2689.9244   -38409.352    49.920451    242.06381 
   15050    137.26782   -917.99256    135582.91   -35716.541    2654.6904   -38371.231    50.080176    238.89313 
   15100    137.23767   -986.76049    135506.53   -35725.791    2654.1074   -38379.898    50.165644    238.84067 
   15150    134.93987   -878.31643     135420.3   -35760.478     2609.669   -38370.147    50.180484     234.8417 
   15200    134.60567    -1120.172     135377.3   -35775.358    2603.2058   -38378.564    50.359739    234.26008 
   15250     133.3232   -944.88472    135313.62   -35779.119    2578.4034   -38357.522    50.399691    232.02814 
   15300    133.11069   -964.34079    135220.64    -35776.66    2574.2937   -38350.954    50.561533    231.65831 
   15350     134.7897   -883.19445    135167.88    -35745.51    2606.7648   -38352.274    50.849386    234.58036 
   15400    139.23619   -972.71951    135210.03   -35772.782    2692.7578    -38465.54    51.056025    242.31878 
   15450    135.58933   -818.85748    135186.55   -35755.753    2622.2293   -38377.982     51.19485    235.97199 
   15500    137.12341   -739.70438    135152.61   -35741.282    2651.8976   -38393.179    51.249531    238.64181 
   15550    136.64056   -844.30359    135118.34   -35723.064    2642.5596   -38365.624    51.427792     237.8015 
   15600    138.02455   -1056.6048    135102.63   -35647.222    2669.3253   -38316.547     51.69971    240.21012 
   15650    139.08592   -730.61979    135046.29   -35657.415    2689.8515   -38347.266    51.604913    242.05725 
   15700    139.13065   -794.88058    135103.85   -35645.112    2690.7165   -38335.829    51.880286    242.13509 
   15750    140.20194   -971.47031    135131.05   -35621.183    2711.4349   -38332.618    52.099312    243.99952 
   15800    136.84205   -765.49436    135166.31   -35612.402    2646.4561   -38258.858    52.274433    238.15214 
   15850    138.78324   -1127.5105     135104.8   -35585.416    2683.9978   -38269.413    52.400737    241.53048 
   15900    137.72389   -737.64746    135067.22   -35591.844    2663.5106   -38255.354    52.592764    239.68686 
   15950    138.98111    -721.5289    134974.52   -35543.034    2687.8246   -38230.859    52.634155    241.87486 
   16000    137.65938   -788.62054    134957.59     -35553.9    2662.2629   -38216.163    52.972921    239.57458 
   16050    138.59833   -1123.8012    134860.68   -35602.058    2680.4217    -38282.48    53.055967    241.20868 
   16100    139.71805   -792.08283    134776.88   -35644.435    2702.0767   -38346.512    52.987933    243.15739 
   16150    134.20515   -851.70197    134767.91   -35642.325    2595.4599   -38237.785    53.112259    233.56304 
   16200    136.29793   -680.35376    134741.94   -35649.531    2635.9331   -38285.464    53.412832    237.20519 
   16250    137.88498   -534.36952    134778.64   -35664.443     2666.626   -38331.069    53.654993    239.96721 
   16300    138.88105    -715.4962    134915.25   -35628.031    2685.8895   -38313.921    53.946517    241.70071 
   16350    140.28322   -624.42503    134955.96   -35604.824    2713.0067   -38317.831     54.17493    244.14097 
   16400    138.72745   -703.69913    135011.18   -35654.577    2682.9189   -38337.495    54.223009    241.43339 
   16450    137.81024   -572.58765    135021.71   -35657.018    2665.1805   -38322.199     54.29302    239.83713 
   16500    138.74327   -760.62407    134996.76   -35655.761    2683.2249   -38338.986    54.578317    241.46093 
   16550    137.07351   -689.25016    134975.99   -35652.456    2650.9326   -38303.388     54.75155    238.55498 
   16600    138.58478   -890.62709    134943.88   -35630.195    2680.1598   -38310.354     54.87544     241.1851 
   16650    138.20568   -652.91323    134926.95   -35646.898    2672.8282   -38319.726    55.112418    240.52534 
   16700      136.683   -933.71044    134797.56   -35611.614    2643.3802   -38254.995     55.33901    237.87535 
   16750     138.1147    -927.1484    134658.79   -35658.562    2671.0687   -38329.631    55.574462      240.367 
   16800    139.02234   -792.27689    134572.01   -35683.594     2688.622   -38372.216    55.659023    241.94661 
   16850     137.6743   -491.55594     134583.7   -35672.561    2662.5516   -38335.113    55.663157    239.60056 
   16900    138.45651   -739.18455    134670.17    -35660.23    2677.6791   -38337.909    55.739173    240.96187 
   16950    139.65957   -949.12726    134696.16   -35660.338    2700.9457   -38361.284    55.908655    243.05561 
   17000    137.17222   -755.20603    134708.92   -35674.555    2652.8415   -38327.396    56.067394    238.72675 
   17050    136.84714   -778.68608    134661.38   -35706.224    2646.5547   -38352.779    56.252729    238.16102 
   17100    138.94852   -860.85212    134651.98   -35695.112    2687.1943   -38382.306    56.403403    241.81813 
   17150    140.76062   -735.24329    134720.72   -35638.337    2722.2394   -38360.577    56.553797    244.97181 
   17200    140.18289   -677.53875    134688.78   -35652.272    2711.0664   -38363.338    56.496535    243.96636 
   17250    137.05341   -689.27553    134699.33    -35671.45    2650.5439   -38321.994    56.439373       238.52 
   17300    138.37156   -511.22201    134725.76    -35608.35    2676.0362   -38284.386    56.555263    240.81402 
   17350    137.97946   -491.04387    134838.73   -35621.686    2668.4531   -38290.139    56.517943    240.13163 
   17400    137.48163   -731.50084    134848.35   -35702.137    2658.8253   -38360.962     56.81264    239.26523 
   17450    136.76061     -600.351    134850.27   -35701.989    2644.8813   -38346.871    57.122479    238.01042 
   17500     137.0018   -591.53699    134861.96   -35725.512    2649.5457   -38375.057    57.195061    238.43017 
   17550    136.65046   -475.03089    134922.47   -35711.007    2642.7509   -38353.758    57.354114    237.81872 
   17600    138.07492   -377.60621    134937.26   -35660.379    2670.2994   -38330.678    57.546968    240.29778 
   17650    139.60719   -597.76803    134995.92   -35689.083    2699.9326   -38389.016    57.719232    242.96444 
   17700    137.34602   -776.23996    135019.86   -35644.238    2656.2027   -38300.441    57.760187    239.02923 
   17750    135.70025   -890.45816    134997.42    -35691.48    2624.3743   -38315.855    57.896516    236.16502 
   17800    139.66424   -590.27937    134980.07   -35669.793     2701.036   -38370.829    58.259594    243.06373 
   17850    135.24084   -679.92869    135078.42   -35618.042    2615.4896   -38233.531     58.70721    235.36549 
   17900    139.85177   -558.99995    135080.28   -35621.388    2704.6627   -38326.051    58.827498     243.3901 
   17950     137.5664   -788.42853    135060.85   -35627.865    2660.4649    -38288.33    59.073433    239.41278 
   18000    140.90658   -548.09905    134972.21   -35561.488    2725.0622   -38286.551    59.372569    245.22583 
   18050    138.97509   -702.90596    135015.98   -35516.685    2687.7081   -38204.393    59.872518    241.86437 
   18100     139.6574   -866.73837    134979.99   -35522.825    2700.9038   -38223.729    59.954325    243.05184 
   18150    137.52268   -1107.4034    134947.41   -35536.376    2659.6193   -38195.995    60.150315    239.33668 
   18200    139.05779   -718.96656    134898.18    -35526.97    2689.3076   -38216.277    60.499726    242.00831 
   18250    141.16608   -856.97331    134897.77   -35520.233    2730.0807   -38250.314    60.824449    245.67744 
   18300    140.06351   -694.56975    134919.18   -35507.058    2708.7577   -38215.816    60.856155    243.75861 
   18350    138.31613   -698.38624    134922.11   -35499.636    2674.9642     -38174.6    61.092818    240.71756 
   18400    139.49958    -963.3619    134915.36    -35519.25    2697.8515   -38217.101     61.29735    242.77716 
   18450    136.85621   -949.11495    134897.15   -35571.437      2646.73   -38218.167      61.3825    238.17679 
   18500    138.40684   -637.86761     134949.5   -35563.101    2676.7184   -38239.819    61.506381    240.87542 
   18550    140.00248   -853.81558    134991.91   -35583.013    2707.5773    -38290.59    61.685871    243.65238 
   18600    136.92346   -761.68646    134918.02   -35667.215    2648.0307   -38315.246    61.715634    238.29384 
   18650    137.88972   -713.78567    134871.28   -35665.326    2666.7176   -38332.043    61.756347    239.97545 
   18700    136.60012   -660.98594    134902.97    -35604.09    2641.7775   -38245.868     61.97837    237.73112 
   18750     139.1845   -629.78753    134845.13   -35585.797    2691.7581   -38277.555    62.301972    242.22883 
   18800     137.7526   -706.39349    134834.68   -35598.021    2664.0658   -38262.086    62.413604    239.73682 
   18850    139.33026   -909.22138    134806.12   -35621.162     2694.577   -38315.739    62.495625     242.4825 
   18900    135.55123   -857.74139    134673.35   -35687.549    2621.4924   -38309.041    62.637199    235.90568 
   18950    138.68765   -756.51294    134609.73   -35648.862    2682.1493   -38331.012    62.701857    241.36414 
   19000    138.65904    -600.1062    134681.84   -35614.671    2681.5958   -38296.267    62.769067    241.31433 
   19050    139.01454    -527.1625    134714.69   -35560.465     2688.471   -38248.936     62.82636    241.93303 
   19100    138.48937   -584.12303    134834.22    -35557.14    2678.3145   -38235.455    62.990859    241.01905 
   19150    136.94517   -623.20665     134892.3   -35564.004    2648.4504   -38212.454    63.094523    238.33161 
   19200    139.09223   -758.19694    134856.31   -35572.804    2689.9736   -38262.777    63.512981    242.06824 
   19250    138.06405   -670.15949    134864.42   -35566.025    2670.0891   -38236.114    63.848508    240.27885 
   19300    141.69296   -811.71893    134787.35   -35549.598    2740.2705   -38289.868    64.118901    246.59441 
   19350    137.03132   -659.93545    134757.81   -35590.604    2650.1167    -38240.72    64.356054    238.48155 
   19400    139.99458   -399.55043    134786.91   -35557.443    2707.4246   -38264.868     64.58172    243.63864 
   19450    139.93243   -690.06933    134835.09   -35540.559    2706.2226   -38246.781    64.891831    243.53048 
   19500    141.41924    -689.8227    134908.98   -35501.635    2734.9767   -38236.611    65.018716    246.11803 
   19550     141.1766   -655.91119    134926.59   -35518.604    2730.2842   -38248.888    65.045407    245.69576 
   19600    141.12708   -695.85781    134917.04   -35514.107    2729.3266   -38243.434     65.29486    245.60958 
   19650    141.52445   -940.05043    134882.76   -35547.279    2737.0115    -38284.29    65.516544    246.30114 
   19700    139.83971   -714.30941    134889.44   -35549.473    2704.4294   -38253.902    65.724932     243.3691 
   19750    138.26078   -786.42629    134876.07   -35566.796    2673.8938   -38240.689     65.98467    240.62123 
   19800    138.55976   -960.84016    134806.14    -35582.29    2679.6758   -38261.966    66.219902    241.14155 
   19850    138.15804   -709.53182    134743.78   -35657.651    2671.9067   -38329.558    66.398093    240.44242 
   19900    137.81128    -669.6094    134678.05   -35637.395    2665.2007   -38302.595     66.52368    239.83895 
   19950    139.98674   -546.68452    134678.48   -35597.019    2707.2729   -38304.292    66.597951    243.62499 
   20000    140.18398   -683.79692    134742.02   -35570.157    2711.0874   -38281.245    66.710106    243.96825 
   20050    137.20258   -711.85052    134800.25   -35569.141    2653.4288    -38222.57    66.818285    238.77961 
   20100    140.36857   -681.07287    134702.37   -35546.481    2714.6573   -38261.138    66.805386    244.28951 
   20150    139.46642   -226.26086    134685.78   -35592.032    2697.2101   -38289.242    66.823368    242.71945 
   20200    134.55132   -475.97819    134691.08   -35610.199    2602.1548   -38212.354    67.017118     234.1655 
   20250     136.7683   -569.85598    134691.17   -35631.875    2645.0299   -38276.905    67.080921    238.02379 
   20300    138.99667   -387.48071    134704.25   -35569.873    2688.1255   -38257.999    67.166449    241.90193 
   20350    140.10368   -689.10086    134797.71   -35553.315    2709.5345    -38262.85    67.485544    243.82851 
   20400    138.00186   -641.45434    134813.44   -35602.685    2668.8864   -38271.571    67.779968    240.17062 
   20450    138.07245   -677.76702    134760.78    -35629.92    2670.2516   -38300.171    68.170472    240.29348 
   20500    137.74046   -678.25973    134748.37   -35611.172     2663.831   -38275.003    68.585717    239.71569 
   20550    138.20449   -838.55786    134663.59   -35626.819    2672.8052   -38299.624    68.878715    240.52327 
   20600    139.85847   -763.57547    134646.81   -35582.113    2704.7922   -38286.905    69.111371    243.40176 
   20650    136.26997   -837.10769    134670.19   -35603.927    2635.3925   -38239.319    69.119092    237.15653 
   20700     137.6886   -710.33304    134653.22   -35611.574    2662.8281   -38274.402    69.282119    239.62544 
   20750    136.03419   -733.61151    134670.87   -35622.462    2630.8327   -38253.295    69.523097     236.7462 
   20800     135.3886   -767.90628    134632.28   -35659.674    2618.3472   -38278.021    69.644603    235.62264 
   20850     138.1491     -763.512    134624.52   -35663.793     2671.734   -38335.527    69.917405    240.42688 
   20900    136.26007   -546.22941    134595.96   -35633.416     2635.201   -38268.617    70.061888    237.13931 
   20950    141.41857   -378.89572    134738.57   -35591.818    2734.9639   -38326.782    70.211234    246.11687 
   21000    140.88825   -590.48219    134954.92   -35559.793    2724.7077   -38284.501    70.472057    245.19393 
   21050    139.11795   -618.63137    135002.52   -35592.443     2690.471   -38282.914    70.592535      242.113 
   21100    139.27736   -941.34636    134989.99   -35595.848    2693.5539   -38289.402    70.761136    242.39043 
   21150    140.34235   -811.22885    134957.54   -35562.615    2714.1502   -38276.765    70.903569    244.24387 
   21200    139.44253   -1080.2981    134864.57   -35579.908    2696.7483   -38276.656     71.09469    242.67789 
   21250    137.02045   -851.80742    134693.97   -35535.092    2649.9064   -38184.998    71.423104    238.46263 
   21300    140.65395   -869.82003    134628.15    -35543.06    2720.1765   -38263.236    71.451344    244.78617 
   21350    138.72686   -526.54561    134665.97   -35561.295    2682.9074   -38244.203    71.465805    241.43236 
   21400     136.8487    -701.9336    134585.31   -35593.778    2646.5848   -38240.363     71.64046    238.16373 
   21450    139.59361     -798.729    134523.73   -35592.105      2699.67   -38291.775    71.550253    242.94081 
   21500    137.76219   -734.20086    134533.61   -35602.523    2664.2513   -38266.775    71.821881    239.75351 
   21550    138.48193   -581.05073    134563.28    -35607.84    2678.1707   -38286.011    71.870427    241.00611 
   21600     139.2816   -680.00527    134573.75   -35646.147    2693.6359   -38339.783    72.031258     242.3978 
   21650    137.01279    -893.4482    134580.23   -35661.279    2649.7582   -38311.038    72.403335     238.4493 
   21700    139.33235   -579.93127    134632.39   -35629.745    2694.6174   -38324.363     72.40607    242.48613 
   21750     140.0976   -715.77631    134755.92   -35582.488    2709.4169   -38291.905    72.439208    243.81793 
   21800    136.06166   -605.63926    134715.62   -35635.988    2631.3638   -38267.352    72.773369      236.794 
   21850    139.13567    -815.3547     134719.3   -35655.376    2690.8136   -38346.189    73.109943    242.14383 
   21900    139.39519   -538.27849    134748.75   -35631.683    2695.8326   -38327.515    73.374208    242.59548 
   21950    138.63377   -599.42084    134744.32   -35619.373    2681.1073    -38300.48    73.336856    241.27037 
   22000    138.73953    -616.3246    134791.22   -35585.593    2683.1526   -38268.746    73.718069    241.45442 
   22050    137.72817   -565.83698    134819.56    -35622.49    2663.5934   -38286.084    74.083129    239.69431 
   22100    137.35038   -772.67258    134818.65   -35587.554     2656.287   -38243.841    74.310653    239.03682 
   22150    140.77756   -688.43664     134909.2   -35627.422     2722.567   -38349.989    74.576853    245.00129 
   22200    139.08819   -877.09899    134887.47    -35622.24    2689.8955   -38312.135    74.667857    242.06121 
   22250    140.04194   -809.26955    134802.76   -35640.885    2708.3404   -38349.225    74.778506    243.72106 
   22300    137.53961   -853.98358    134698.73   -35632.787    2659.9467   -38292.734    74.851075    239.36614 
   22350    138.64153   -732.26858    134666.33    -35599.49    2681.2572   -38280.748    75.123728    241.28386 
   22400    139.14368   -773.68877     134681.3    -35581.34    2690.9686   -38272.309    75.378312    242.15778 
   22450    139.30512   -1064.1019    134704.26   -35579.565    2694.0908   -38273.656    75.444965    242.43874 
   22500    137.80512   -796.38921    134660.18   -35649.818    2665.0815   -38314.899    75.690301    239.82822 
   22550    137.70558    -720.1269    134602.61   -35616.525    2663.1564   -38279.681    76.146602    239.65499 
   22600    141.37013   -563.53182    134628.35   -35538.482     2734.027   -38272.509    76.304137    246.03256 
   22650     138.2292   -845.27346    134654.19   -35565.956    2673.2829   -38239.239    76.573574    240.56626 
   22700    140.43484   -719.03899    134676.64   -35513.329     2715.939   -38229.268    76.849583    244.40484 
   22750    138.09659    -754.1944    134627.99   -35556.136    2670.7183   -38226.854    76.979914    240.33548 
   22800    138.98611   -912.31303    134559.87   -35637.413    2687.9213   -38325.334    77.190478    241.88355 
   22850    136.85849   -630.38515     134587.2   -35617.825    2646.7742     -38264.6     77.53227    238.18077 
   22900     140.5535   -464.81238    134562.17   -35656.782    2718.2337   -38375.016     77.60951    244.61134 
   22950    138.37917   -654.48911    134617.59   -35667.785    2676.1833   -38343.968    77.844343    240.82727 
   23000    137.43158   -623.68906    134644.12   -35695.826    2657.8575   -38353.683    78.039225    239.17814 
   23050     136.0322   -636.37193    134640.98   -35688.338    2630.7942   -38319.133    78.352498    236.74274 
   23100    136.47483   -737.70208    134681.82    -35653.41    2639.3544   -38292.764    78.623365    237.51307 
   23150    138.60351   -588.63146    134656.14   -35642.948    2680.5219    -38323.47    78.675269    241.21769 
   23200    139.37289   -389.92011    134703.59   -35643.149    2695.4013    -38338.55    78.995285    242.55668 
   23250      138.042   -787.18293    134679.81   -35641.413    2669.6626   -38311.076    79.437503    240.24048 
   23300    138.84555   -1020.8601    134580.26   -35646.655    2685.2029   -38331.858    79.641597    241.63893 
   23350    137.03438   -732.28719    134512.58    -35638.33    2650.1757   -38288.506    79.730798    238.48687 
   23400    141.95869   -659.27875    134537.15   -35601.476    2745.4095   -38346.885    79.945642    247.05686 
   23450    137.82512   -811.48707    134447.28   -35637.539    2665.4683   -38303.008    80.275549    239.86303 
   23500    136.02239   -542.56956    134455.85   -35615.251    2630.6044   -38245.856    80.537891    236.72566 
   23550    137.70428   -767.73515    134390.09   -35607.475    2663.1312   -38270.606    80.836796    239.65272 
   23600    136.94936   -799.77607    134358.71   -35647.857    2648.5315   -38296.389    81.276052     238.3389 
   23650     135.2125   -591.56542    134415.34   -35665.098    2614.9415   -38280.039    81.352673    235.31617 
   23700     135.9731   -655.74737    134502.67   -35651.255    2629.6511   -38280.906    81.544343    236.63988 
   23750    134.12909   -924.36736    134493.99   -35681.472    2593.9889   -38275.461    81.460525    233.43066 
   23800    135.77261   -903.73344    134480.04   -35639.409    2625.7738   -38265.183    81.614587    236.29096 
   23850    135.18623   -738.29732    134511.87   -35645.429    2614.4335   -38259.863    81.862013    235.27045 
   23900    135.73601    -757.8384    134408.11   -35608.352    2625.0661   -38233.418    82.260432    236.22727 
   23950    135.78573   -765.02744    134376.61   -35599.289    2626.0275   -38225.316    82.560941    236.31379 
   24000     139.2992   -678.72235    134304.83   -35567.917    2693.9763   -38261.893    82.525816    242.42844 
   24050    137.36829   -829.43469    134216.99   -35583.863    2656.6335   -38240.497    82.683927    239.06799 
   24100    137.31753   -1009.0856    134207.67   -35573.652    2655.6518   -38229.304    82.852208    238.97965 
   24150    134.88114   -857.78076    134129.67    -35563.56    2608.5333   -38172.093    83.127978     234.7395 
   24200    138.71658   -692.10114    134117.92    -35553.31    2682.7086   -38236.019     83.42527    241.41447 
   24250    140.34409   -793.75788     134141.4   -35519.329    2714.1839   -38233.513    83.695431    244.24691 
   24300    137.69323   -811.34789    134203.26   -35569.303    2662.9176   -38232.221    83.980229    239.63349 
   24350    139.75263   -573.48348    134197.51   -35545.799    2702.7453   -38248.544    84.431402    243.21755 
   24400    137.25672   -884.94993    134192.67   -35556.509    2654.4757   -38210.985    84.478233    238.87381 
   24450    137.16943   -619.35462     134232.8   -35555.237    2652.7876   -38208.025    84.772002    238.72191 
   24500    137.86195   -755.68428    134211.64   -35599.038    2666.1806   -38265.218    84.667879    239.92713 
   24550    138.03406   -705.93116    134338.86   -35604.881     2669.509    -38274.39    84.814709    240.22665 
   24600    139.82852   -699.47976    134388.76   -35584.971     2704.213   -38289.184    84.881044    243.34963 
   24650    136.57491   -793.99574    134409.13   -35594.334    2641.2899   -38235.624    85.143888    237.68724 
   24700    138.92378   -906.33253    134453.86   -35636.244    2686.7158    -38322.96    85.546797    241.77508 
   24750     136.5305   -894.34387    134448.96   -35646.554     2640.431   -38286.985    85.716602    237.60995 
   24800    134.79585   -671.22512    134434.62   -35623.318    2606.8837   -38230.202    86.199162    234.59106 
   24850    140.64705   -424.80672    134441.81   -35571.622    2720.0431   -38291.665     86.54045    244.77417 
   24900    138.87206   -717.74874    134524.35   -35606.335    2685.7157   -38292.051     86.81912    241.68507 
   24950    137.63697   -424.76898    134573.12   -35647.157    2661.8296   -38308.987    87.239184    239.53559 
   25000    136.67757   -351.78909    134619.89    -35678.45    2643.2754   -38321.725    87.640358    237.86591 
   25050    133.86815   -678.83099    134673.27   -35776.545    2588.9425   -38365.488    87.899641    232.97655 
   25100    137.44341   -649.33723    134801.58   -35730.966    2658.0863   -38389.052    88.030697    239.19873 
   25150    135.84683   -682.50456    134821.21   -35743.818    2627.2092   -38371.027    88.049627    236.42013 
   25200    137.36241   -490.20232    134721.34   -35706.748    2656.5197   -38363.268    88.021075    239.05776 
   25250    139.70173   -606.89967    134900.41   -35653.726    2701.7611   -38355.487    88.030626    243.12898 
   25300    137.82218   -659.12377    134903.17   -35693.906    2665.4115   -38359.317    88.162493    239.85791 
   25350    138.35664   -678.90525    134975.84   -35675.258    2675.7477   -38351.006    88.337838    240.78807 
   25400    137.55201   -763.22049    135030.49   -35668.429    2660.1866   -38328.616    88.580349    239.38773 
   25450    136.19472   -687.38397    135007.75   -35730.295    2633.9372   -38364.232    88.794137    237.02558 
   25500    131.96561   -842.40613    135105.29   -35769.193    2552.1484   -38321.341    88.926043    229.66548 
   25550    137.98558    -809.5761    135136.06   -35699.484    2668.5715   -38368.055    89.074163    240.14229 
   25600    139.58291   -650.16774    135237.95   -35731.805     2699.463   -38431.268    89.288064    242.92219 
   25650    138.08576   -739.83134    135240.53     -35744.7    2670.5089   -38415.209    89.620838    240.31663 
   25700    134.96859   -894.04503     135214.5   -35795.023    2610.2244   -38405.247    89.707216    234.89168 
   25750    136.50028   -671.22802     135170.8   -35770.392    2639.8466   -38410.238    89.761932    237.55736 
   25800    140.12205   -632.20878    135149.62   -35717.786    2709.8897   -38427.676    89.881365    243.86047 
   25850     138.1345   -704.66258    135095.38   -35756.194    2671.4515   -38427.645    89.894309    240.40146 
   25900    139.32318   -416.56822    135098.27   -35678.442    2694.4401   -38372.882    89.887928    242.47018 
   25950    138.40573   -777.05109    135054.75   -35714.702     2676.697   -38391.399    90.044528     240.8735 
   26000    138.66976   -630.04222    135019.11   -35712.086    2681.8032   -38393.889    90.465338    241.33299 
   26050    134.69311   -718.79185    134896.28   -35706.404    2604.8968   -38311.301    90.760515    234.41226 
   26100    135.29319   -615.84818    134909.62   -35730.539    2616.5021   -38347.041    91.007941    235.45661 
   26150     137.3971   -624.38235    134984.49   -35726.545    2657.1907   -38383.736    91.182804    239.11814 
   26200    139.29854   -543.42246    134927.61   -35749.008    2693.9636   -38442.972    91.188658    242.42729 
   26250    135.60949   -734.03374    134919.37    -35793.92    2622.6191   -38416.539    91.329414    236.00707 
   26300    136.71206   -517.11606    134906.27   -35707.172    2643.9423   -38351.114    91.491841    237.92593 
   26350    137.33593   -746.88746    134868.56   -35734.283    2656.0076   -38390.291    91.637093    239.01167 
   26400    136.16748   -746.59521    134778.78   -35737.193    2633.4104   -38370.604    91.670843    236.97817 
   26450    137.56388    -754.1689    134793.15    -35736.79     2660.416   -38397.206    91.629323    239.40837 
   26500    136.70445   -754.97823    134745.28     -35742.1    2643.7951   -38385.895    91.593003    237.91268 
   26550    136.98992   -823.40714    134661.14   -35695.654     2649.316    -38344.97    91.538937     238.4095 
   26600    138.02081   -708.97352    134644.11   -35717.898    2669.2528   -38387.151    91.381179    240.20359 
   26650    137.25865   -561.97281    134659.16   -35723.229     2654.513   -38377.742    91.756627    238.87717 
   26700    137.05151   -622.72125    134759.05   -35731.212     2650.507   -38381.719    92.051845    238.51668 
   26750    137.38902   -678.52138    134777.04   -35732.668    2657.0343   -38389.702    92.287064    239.10407 
   26800    136.33123   -403.32303    134832.36   -35723.706    2636.5773   -38360.284    92.526014    237.26316 
   26850    136.68252   -505.87434    134898.04    -35708.42    2643.3711   -38351.791    92.772098    237.87452 
   26900    137.65703   -738.71134     134938.1   -35711.431    2662.2175   -38373.648    93.127556     239.5705 
   26950    139.92209   -680.40901    134957.63   -35711.364    2706.0227   -38417.386    93.302012    243.51249 
   27000    136.88378   -699.13989    134954.47   -35707.967    2647.2632    -38355.23    93.525957    238.22477 
   27050    136.92951   -653.18128    134952.32   -35699.915    2648.1476   -38348.063    93.855692    238.30436 
   27100    137.93881   -694.26122    134971.52   -35696.258    2667.6669   -38363.925    94.127913    240.06088 
   27150    137.69463   -670.74287    134923.48   -35668.782    2662.9448   -38331.727    94.345762    239.63594 
   27200    136.26132   -714.29938    134987.99   -35696.602    2635.2252   -38331.828    94.490204    237.14149 
   27250    134.76509   -450.64681     135031.9   -35706.097    2606.2889   -38312.386    94.564189    234.53753 
   27300    136.06827   -571.32177    135167.96   -35743.344    2631.4918   -38374.836    94.710199    236.80552 
   27350    138.32181   -858.53689    135185.53    -35677.08     2675.074   -38352.154    95.018657    240.72744 
   27400     137.8881    -938.1027    135118.48   -35670.101    2666.6863   -38336.788    95.362834    239.97264 
   27450    136.10934    -694.2203    135055.48   -35613.285     2632.286   -38245.571    95.593562    236.87698 
   27500    138.20741   -792.75948    135035.49   -35650.195    2672.8615   -38323.056    95.944852    240.52834 
   27550    138.53537   -878.18569    135120.48   -35639.553    2679.2043   -38318.757    96.458337    241.09912 
   27600    138.12981    -762.9573    135152.68   -35652.828    2671.3609   -38324.189    96.650615     240.3933 
   27650    137.74329   -883.43066    135156.49   -35626.397    2663.8857   -38290.283    96.861315    239.72062 
   27700    139.92388   -971.49901    135176.95   -35642.063    2706.0572    -38348.12    97.368394    243.51559 
   27750    139.41479   -985.98858    135081.11    -35610.73    2696.2117   -38306.942    97.249928     242.6296 
   27800      140.434   -599.94397    135079.62   -35582.367    2715.9227   -38298.289    97.319858    244.40337 
   27850    138.61146    -898.1589     135118.6   -35577.439    2680.6757   -38258.115    97.620975    241.23153 
   27900    140.71228   -627.03057    135095.77   -35551.482    2721.3046   -38272.787    97.844339    244.88769 
   27950    139.55656   -935.72786    135098.68   -35618.268    2698.9534   -38317.221    97.889254    242.87633 
   28000    136.63738   -669.36082    135006.62   -35622.009     2642.498   -38264.507    97.855421    237.79595 
   28050    141.17341   -560.64865    135049.07   -35613.316    2730.2225   -38343.538    97.745509     245.6902 
   28100    138.27426   -706.14304    135067.92   -35667.084    2674.1545   -38341.238    97.799857    240.64469 
   28150     138.1028   -518.75016    135170.34   -35666.624    2670.8384   -38337.463    97.939627    240.34628 
   28200    136.55418   -700.05381    135163.46   -35659.335    2640.8889   -38300.224    97.859317    237.65115 
   28250    137.42823   -442.34456    135156.67   -35665.308    2657.7927     -38323.1     97.97129    239.17231 
   28300    137.27283   -584.42907    135215.16   -35714.061    2654.7873   -38368.848    98.104378    238.90186 
   28350    136.67991    -544.1603    135275.27   -35724.749    2643.3205    -38368.07    97.997318    237.86997 
   28400      139.795   -673.91674    135309.46   -35684.332    2703.5647   -38387.897    98.353856    243.29129 
   28450    137.28677   -626.71209     135400.1   -35722.984    2655.0569   -38378.041    98.574726    238.92611 
   28500    139.91566   -675.55604    135365.92   -35701.038    2705.8983   -38406.936    98.725709    243.50129 
   28550    138.58368   -741.85637    135468.54   -35725.035    2680.1385   -38405.174    99.061779    241.18319 
   28600    136.33752   -771.30542    135436.48   -35724.963    2636.6988   -38361.662    99.153443    237.27409 
   28650    139.12239   -848.00641    135539.64   -35716.893    2690.5569    -38407.45    99.421681    242.12073 
   28700    136.20411   -982.00729     135559.4   -35770.977    2634.1189   -38405.096    99.729406    237.04192 
   28750    141.81782   -746.47215    135483.16   -35753.067    2742.6851   -38495.753    99.719089     246.8117 
   28800    136.85976   -719.51273     135409.1   -35819.513    2646.7987   -38466.311    99.987688    238.18297 
   28850    136.72014   -712.07048    135350.48   -35813.779    2644.0985   -38457.877    100.13392    237.93998 
   28900     139.7041   -745.14081    135249.08   -35833.971    2701.8068   -38535.778    100.40398     243.1331 
   28950     136.1516   -578.97768    135347.11   -35812.841    2633.1034   -38445.944    100.40178    236.95054 
   29000    136.48385   -666.21339    135363.64   -35837.327    2639.5289   -38476.856    100.47225    237.52877 
   29050    138.69173   -630.50421     135362.8   -35816.153    2682.2281   -38498.381    100.84035    241.37123 
   29100    139.04614   -718.44278    135382.47   -35807.373    2689.0821   -38496.455    101.13189    241.98802 
   29150    138.11548   -616.99187    135523.47   -35807.933    2671.0838   -38479.016    101.39771    240.36836 
   29200     137.1409   -630.32427    135587.18   -35827.142    2652.2358   -38479.378    101.54415    238.67225 
   29250    134.51809   -847.80012     135656.5   -35811.983     2601.512   -38413.495    101.84435    234.10766 
   29300    139.93635     -460.806    135617.65   -35789.523    2706.2984   -38495.821    102.08593    243.53729 
   29350    136.45411   -439.55697    135644.79   -35823.121    2638.9536   -38462.075    102.21562      237.477 
   29400    135.89346   -1035.2817    135602.17   -35815.109     2628.111    -38443.22    102.25919    236.50128 
   29450    136.96291   -778.56945    135543.21   -35722.205    2648.7935   -38370.998    102.31433    238.36248 
   29500    135.17329   -689.57363    135526.02   -35706.994    2614.1833   -38321.177    102.11026    235.24794 
   29550    139.37819   -689.29354     135543.3     -35701.8     2695.504   -38397.304    102.26134    242.56591 
   29600    139.41198   -839.42301    135530.53   -35701.398    2696.1575   -38397.555    102.35624    242.62472 
   29650    140.47263   -723.32155    135583.69   -35705.948    2716.6698   -38422.618    102.43157    244.47061 
   29700    138.07274   -976.36971    135627.58   -35718.771    2670.2571   -38389.028    102.64144    240.29397 
   29750    139.63309   -738.45445    135586.74   -35710.984    2700.4336   -38411.418    102.78708    243.00952 
   29800    141.28716   -687.27826       135668   -35632.473    2732.4224   -38364.895     103.0276    245.88817 
   29850     138.0757   -989.07559    135578.45   -35662.556    2670.3145    -38332.87    103.34112    240.29913 
   29900    141.95989   -725.45409    135535.01   -35580.767    2745.4327     -38326.2    103.02369    247.05895 
   29950    141.59249   -758.63936    135504.98   -35613.328    2738.3274   -38351.655    103.12361    246.41955 
   30000    136.49024   -923.10031    135523.76   -35694.459    2639.6524   -38334.111     103.1383    237.53988 
   30050    137.50821   -654.45289    135576.59   -35693.971    2659.3394    -38353.31    103.36398     239.3115 
   30100    137.97915   -836.64705    135512.45   -35695.786    2668.4472   -38364.233    103.53599     240.1311 
   30150    138.78216   -964.24148     135389.5   -35669.266    2683.9769   -38353.243    103.47191    241.52861 
   30200    139.77486   -935.82145    135281.86    -35646.81    2703.1752   -38349.985    103.92044    243.25624 
   30250    136.54812   -869.46432    135267.88   -35680.527    2640.7717   -38321.299    104.18882    237.64061 
   30300    138.61901   -644.79027     135264.7   -35644.956    2680.8217   -38325.778     104.6577    241.24466 
   30350    136.94385   -854.10012     135307.9   -35663.599     2648.425   -38312.024    105.03679    238.32932 
   30400    135.32746   -892.83828    135266.37   -35666.627    2617.1649   -38283.792    105.12378    235.51625 
   30450    139.46698   -608.01644    135269.32   -35693.575    2697.2211   -38390.796    105.25434    242.72043 
   30500    135.96661   -883.61542     135335.1   -35707.657    2629.5256   -38337.182    105.55773    236.62858 
   30550    135.45846   -1072.9689     135273.3   -35682.459    2619.6983   -38302.158    105.89877    235.74423 
   30600    134.10931   -769.38485    135151.37   -35735.713    2593.6065    -38329.32    106.08326    233.39625 
   30650    137.61794   -861.98094    135149.91    -35735.51    2661.4615   -38396.972    106.28248    239.50246 
   30700     135.8455   -813.81951     135123.1   -35699.459    2627.1834   -38326.642    106.34097    236.41781 
   30750    137.85781   -878.52938    135135.76   -35659.436    2666.1006   -38325.537    106.55756    239.91993 
   30800     139.6083   -831.14347     135077.2   -35643.218    2699.9541   -38343.172    106.68508    242.96637 
   30850    137.05872   -814.34361    135010.68   -35662.276    2650.6465   -38312.922    106.72541    238.52923 
   30900    136.84025   -499.89253    134991.64   -35661.495    2646.4215   -38307.916    107.15464    238.14902 
   30950    139.82653   -742.29389    135066.51   -35643.676    2704.1746   -38347.851    107.21415    243.34618 
   31000     138.0623   -946.70192    135039.42   -35614.216    2670.0553   -38284.271    107.38345    240.27581 
   31050    141.18338      -837.87    135005.99   -35652.686    2730.4153   -38383.102    107.42991    245.70755 
   31100    134.97294   -764.40848    135055.87   -35684.294    2610.3085   -38294.603    107.71377    234.89925 
   31150     137.5349   -607.89362    135068.72   -35702.818    2659.8556   -38362.673    107.71461    239.35795 
   31200     138.6729   -610.97746    135083.89   -35694.517    2681.8639   -38376.381    107.76902    241.33846 
   31250     138.1375   -834.00678     135123.1   -35703.411    2671.5096   -38374.921    107.75913    240.40668 
   31300    137.60712   -1097.2863    135122.06   -35691.222    2661.2524   -38352.474    108.00711    239.48364 
   31350    137.96831   -725.22879    135083.37   -35703.131    2668.2376   -38371.369    107.82796    240.11224 
   31400    137.67914   -566.94554    135065.83    -35717.29    2662.6451   -38379.935    107.92034    239.60897 
   31450    138.47386   -338.38634    135074.57   -35733.283    2678.0145   -38411.297    108.20785    240.99205 
   31500    134.55088   -559.67868    135130.46   -35790.611    2602.1461   -38392.757    108.29839    234.16472 
   31550    137.57714   -685.96808    135086.74   -35780.307    2660.6724    -38440.98    108.53531    239.43145 
   31600    135.57307   -486.65077     135068.9   -35724.907    2621.9148   -38346.822    108.84264    235.94369 
   31650     137.3977   -458.29855    135094.53    -35698.91    2657.2023   -38356.112    109.28414    239.11918 
   31700    136.52836   -801.94482    135072.93    -35723.22    2640.3895    -38363.61    109.46744    237.60622 
   31750    136.34576   -821.55567    135046.91   -35716.248    2636.8582   -38353.106    109.71166    237.28844 
   31800      135.581   -653.77254    134964.56   -35661.509    2622.0682   -38283.577    109.59656    235.95749 
   31850    137.31519   -806.23883     134960.2   -35663.563    2655.6064   -38319.169    109.87996    238.97557 
   31900    136.49136   -546.99683    134877.94   -35670.445    2639.6741   -38310.119     109.9396    237.54183 
   31950    137.70009    -620.7966    134801.81   -35637.482    2663.0502   -38300.533    110.22231    239.64543 
   32000    139.14237   -739.83945    134857.57   -35626.395    2690.9433   -38317.339     110.2701    242.15551 
   32050    137.50286   -577.50011    134771.47   -35609.401    2659.2359   -38268.637    110.20788    239.30218 
   32100    140.03052   -755.66362       134769   -35667.624    2708.1196   -38375.744    110.08727    243.70118 
   32150    135.55145   -937.75969    134696.27   -35697.561    2621.4966   -38319.058    110.19579    235.90606 
   32200    135.57516   -745.03852     134624.9   -35660.612    2621.9553   -38282.567    110.45521    235.94734 
   32250    136.97391   -798.22933    134495.42   -35613.173    2649.0064   -38262.179    110.73432    238.38164 
   32300    139.67439   -569.05303    134529.13   -35623.438    2701.2323    -38324.67    111.16217     243.0814 
   32350    140.35323   -605.84827    134638.64   -35612.541    2714.3606   -38326.901    111.56748     244.2628 
   32400    139.39724   -472.77213    134686.79   -35600.795    2695.8723   -38296.668    111.83716    242.59906 
   32450    141.44891   -665.13816    134708.63   -35605.087    2735.5505   -38340.638    112.17341    246.16966 
   32500    140.72919   -536.10203    134733.42   -35605.925    2721.6316   -38327.556    112.43704    244.91712 
   32550    141.45985   -643.68635    134714.18   -35571.483    2735.7621   -38307.245    112.55104     246.1887 
   32600      138.894   -501.73274    134854.88   -35584.536      2686.14   -38270.676    112.83334    241.72326 
   32650     139.2182   -464.85834    134870.47   -35577.471    2692.4098   -38269.881     113.0849    242.28747 
   32700    140.02699   -504.14761    134909.59   -35604.746    2708.0514   -38312.797    113.05496    243.69504 
   32750    138.93474    -463.7434    134964.58    -35587.65    2686.9278   -38274.578    113.21846    241.79415 
   32800    138.78005   -657.66535    135050.72   -35598.999    2683.9362   -38282.935    113.38704    241.52494 
   32850    138.59188   -489.68403    135024.21   -35569.844     2680.297   -38250.141    113.74996    241.19745 
   32900    139.65021   -501.34218    135006.51   -35558.617    2700.7646   -38259.382    114.11827    243.03932 
   32950    139.70406   -674.48624    135020.76   -35536.667    2701.8062   -38238.473    114.35798    243.13304 
   33000    139.12527    -741.4592     135056.1   -35549.399    2690.6125   -38240.011    114.50505    242.12573 
   33050    137.28177   -744.47629    134974.02   -35601.574    2654.9602   -38256.534     114.6294    238.91741 
   33100    136.50217   -927.86972    134912.01   -35649.394    2639.8832   -38289.277    114.94492    237.56065 
   33150    138.34961   -1088.3859    134959.29   -35593.013    2675.6118   -38268.625    115.36165    240.77583 
   33200    137.87688   -528.16005    135008.02   -35652.526    2666.4694   -38318.996     115.5832    239.95312 
   33250     137.3901   -793.11184    135019.01   -35637.403    2657.0553   -38294.458    115.64696    239.10595 
   33300    137.68014   -768.07183    134937.82   -35622.239    2662.6645   -38284.903    115.67973    239.61072 
   33350    138.35468   -553.59997    134935.96   -35665.143    2675.7097   -38340.853     116.2074    240.78465 
   33400    139.56375   -792.44095     134988.1   -35609.851    2699.0926   -38308.943    116.46153    242.88885 
   33450     140.1895   -797.62012    134986.18   -35640.024    2711.1941   -38351.218    116.44351    243.97786 
   33500    137.37375   -826.09506    134981.74   -35677.056     2656.739   -38333.795    116.88251    239.07749 
   33550    134.81989   -693.21929    135034.51   -35745.928    2607.3487   -38353.277    117.04326     234.6329 
   33600    137.51159   -813.09597    135034.81   -35734.437    2659.4048   -38393.842    116.94633    239.31738 
   33650    134.04807   -931.41797    135008.04    -35772.93     2592.422   -38365.352    117.12847    233.28966 
   33700    134.52531   -804.67582    134979.21   -35786.091    2601.6517   -38387.743    116.80226    234.12023 
   33750    132.90801   -820.41429    134943.35   -35769.748    2570.3739   -38340.122    116.90949    231.30557 
   33800    135.48029   -770.98744    134798.97   -35773.362    2620.1205   -38393.483    116.96348    235.78223 
   33850    137.78412   -758.44102    134800.53   -35718.096    2664.6753   -38382.771    116.76944    239.79167 
   33900    136.86349   -680.73839    134775.34   -35694.214    2646.8708   -38341.084    116.78988    238.18946 
   33950    139.09244   -584.35452    134792.08   -35610.069    2689.9777   -38300.047    116.95202    242.06861 
[...]
   92000    137.82963   -628.14099    134515.69    -35651.67    2665.5556   -38317.226    293.11151    239.87088 
   92050    137.68074   -640.57912    134518.21   -35671.141    2662.6762   -38333.817    293.20395    239.61177 
   92100    139.57193   -676.37226    134568.18   -35621.506    2699.2507   -38320.756    293.66079    242.90308 
   92150    136.62229   -423.52972    134609.54   -35648.452    2642.2062   -38290.658     293.8126    237.76969 
   92200     139.9425   -439.23434    134708.07   -35675.969    2706.4173   -38382.386    294.50733      243.548 
   92250    138.27454   -617.82431    134761.97   -35669.644    2674.1599   -38343.804    294.36777    240.64518 
   92300    137.99789   -735.49201    134829.24   -35634.345    2668.8096   -38303.155    294.59024    240.16371 
   92350    138.94544   -681.58968    134840.92   -35619.882    2687.1347   -38307.017    294.56235    241.81277 
   92400    138.05034   -803.47517    134852.13   -35602.294    2669.8239   -38272.118    294.35115    240.25498 
   92450    138.14542   -710.38718    134908.53   -35573.894    2671.6627   -38245.556    294.44446    240.42046 
   92500    137.20864    -637.3136    134867.71   -35625.427    2653.5459   -38278.973    294.76241    238.79015 
   92550    137.75874   -858.57087    134889.81   -35618.051    2664.1845   -38282.235    294.67562     239.7475 
   92600    137.75777    -599.1973    134908.94    -35576.04    2664.1658   -38240.206    294.88907    239.74582 
   92650    140.75266   -690.44819     134920.6   -35564.336    2722.0854   -38286.421    295.26704    244.95795 
   92700    138.87024   -938.45156    134866.66   -35599.369    2685.6804   -38285.049    295.14071     241.6819 
   92750    138.87403   -863.10964    134862.27   -35624.919    2685.7538   -38310.672    295.26124     241.6885 
   92800    136.44577   -963.78854    134867.39   -35614.873    2638.7924   -38253.665    295.84591    237.46249 
   92850    140.07447   -897.31974    134749.23   -35596.573    2708.9696   -38305.543    295.33317    243.77767 
   92900    137.23079   -535.53763    134768.08   -35611.307    2653.9742   -38265.281    295.89715    238.82869 
   92950    135.16248   -674.98177    134807.92   -35680.362    2613.9743   -38294.336    296.28654    235.22913 
   93000    141.10295   -587.92857    134855.07   -35636.303    2728.8598   -38365.163    295.96724    245.56758 
   93050    141.68563    -572.1471    134927.43   -35631.732    2740.1286   -38371.861     296.0284    246.58164 
   93100    135.41882   -734.10561    134965.59    -35683.16    2618.9316   -38302.092    296.38014    235.67523 
   93150      136.571   -525.18893    134975.58   -35664.705    2641.2142    -38305.92    296.68569    237.68043 
   93200    140.83772   -827.46977    134945.49   -35635.224    2723.7306   -38358.955     296.5957      245.106 
   93250    138.91619   -547.66338    134928.12   -35629.466    2686.5691   -38316.035    296.92592    241.76187 
   93300    139.48911   -725.94225    134975.89   -35645.071     2697.649    -38342.72    297.08908    242.75894 
   93350    139.59273   -665.78223    135017.92    -35607.48    2699.6531   -38307.133    297.51666    242.93929 
   93400    140.02974   -721.16518    135025.85   -35651.998    2708.1046   -38360.103    297.42249    243.69983 
   93450    138.82919   -686.04306     135027.6   -35667.805    2684.8866   -38352.691    297.97027    241.61046 
   93500    137.77833   -650.86582    135131.44   -35670.077    2664.5634   -38334.641    298.22384     239.7816 
   93550    135.47923   -490.20795    135139.37   -35717.079    2620.1001   -38337.179    298.69077    235.78038 
   93600    137.75917   -883.66779    135070.31    -35679.25    2664.1929   -38343.443    298.82367    239.74826 
   93650    139.26991    -644.1738    135011.23   -35678.908    2693.4098   -38372.318    299.05236    242.37746 
   93700    139.89525   -379.39393    135072.79   -35656.503    2705.5036   -38362.007     299.3703    243.46577 
   93750    136.55691   -601.20954    135097.17   -35738.178    2640.9417    -38379.12    299.23224     237.6559 
   93800    137.80427   -527.84766     135161.3   -35748.455     2665.065    -38413.52    299.70203    239.82674 
   93850    138.80278   -679.68547    135218.31   -35723.963    2684.3758   -38408.339    300.12838     241.5645 
   93900    137.42671   -802.34689     135206.1   -35696.591    2657.7633   -38354.354    301.17243    239.16966 
   93950    137.18251   -679.53212    135243.05   -35708.128    2653.0406   -38361.169    301.31184    238.74467 
   94000    136.97031    -652.3903    135266.93   -35688.373    2648.9368   -38337.309    301.14509    238.37537 
   94050    138.58421   -779.57133    135264.57   -35643.258    2680.1488   -38323.407    301.45427    241.18411 
   94100    139.32439   -584.41172       135225   -35584.744    2694.4634   -38279.208    301.66134    242.47227 
   94150    140.74504   -773.60547    135277.91   -35649.232    2721.9381    -38371.17    301.99439     244.9447 
   94200    136.45378    -487.8761    135320.19   -35635.204    2638.9472   -38274.151    301.69288    237.47642 
   94250    139.78442   -677.14942    135422.97    -35670.39    2703.3602    -38373.75    302.08418    243.27289 
   94300    138.70787   -520.93279     135425.2   -35703.431    2682.5403   -38385.971     301.8806    241.39932 
   94350    137.27473   -662.14685    135506.93   -35726.182     2654.824   -38381.006    302.37295    238.90516 
   94400    136.80139   -779.19634    135494.11   -35728.959    2645.6699   -38374.628    302.79626    238.08139 
   94450    136.65499   -533.13501    135501.35   -35753.807    2642.8386   -38396.646    302.96788    237.82661 
   94500    135.54253   -589.50636    135505.86   -35681.157    2621.3242   -38302.482    303.11124    235.89054 
   94550    138.43733   -621.06694    135571.94   -35710.119    2677.3081   -38387.427    303.09324    240.92848 
   94600    138.71146   -672.95592    135648.72   -35702.679    2682.6097   -38385.289    303.53557    241.40557 
   94650    138.60105   -598.15454    135719.94   -35639.421    2680.4743   -38319.896    304.17778    241.21341 
   94700      139.505   -822.78199    135761.07   -35605.208    2697.9563   -38303.164    304.06719    242.78659 
   94750    137.85372   -690.21026    135705.41   -35644.982    2666.0214   -38311.003    303.81358     239.9128 
   94800    137.90694   -350.99242    135658.88    -35656.59    2667.0506    -38323.64    304.02441    240.00542 
   94850     139.3512   -583.51616    135769.88   -35638.861    2694.9818   -38333.843    303.91281    242.51893 
   94900    139.41911   -841.57122    135744.77   -35639.836    2696.2953   -38336.132    304.30372    242.63712 
   94950    140.97063   -859.51204    135739.99   -35608.297     2726.301   -38334.598    304.12951    245.33731 
   95000    136.98884   -940.68234    135621.72    -35691.31    2649.2951   -38340.605    304.05275    238.40762 
   95050    138.31589    -872.6323    135565.87   -35630.488    2674.9596   -38305.448    304.17433    240.71715 
   95100     140.3778   -783.71743    135635.23   -35576.556    2714.8358   -38291.392    304.64669    244.30557 
   95150    138.94201   -819.58719     135622.7   -35658.337    2687.0685   -38345.405     304.8649    241.80681 
   95200    139.48098   -930.75313    135489.66   -35670.134    2697.4919   -38367.626    304.60807     242.7448 
   95250    138.99797   -807.31448    135410.35   -35662.281    2688.1505   -38350.432    304.64683    241.90419 
   95300    139.32869   -1054.8503    135284.59   -35694.017    2694.5465   -38388.564    304.79341    242.47975 
   95350    139.46948   -771.49638    135257.26   -35660.858    2697.2695   -38358.127    304.74499    242.72479 
   95400    138.63205   -667.85794    135250.53    -35706.25    2681.0739   -38387.324    305.02054    241.26736 
   95450    138.46193   -652.80565    135287.98    -35714.67    2677.7839   -38392.454    304.92826     240.9713 
   95500    138.82614     -648.247    135242.19   -35704.745    2684.8275   -38389.572    305.51369    241.60515 
   95550    138.46251   -418.88824    135291.83   -35671.691    2677.7951   -38349.487    305.76139     240.9723 
   95600    139.58582   -679.73935    135378.22   -35677.168    2699.5194   -38376.688     305.8816    242.92726 
   95650    138.35313   -797.98434    135371.05   -35720.382    2675.6797   -38396.062    305.95638    240.78195 
   95700    139.27896   -523.09248    135323.72   -35727.805    2693.5848    -38421.39    306.15113    242.39321 
   95750    139.85702   -535.00013     135409.8   -35690.488    2704.7643   -38395.253    305.89271    243.39924 
   95800    138.56767   -660.06839    135422.19   -35726.428    2679.8288   -38406.257    305.95658    241.15532 
   95850    137.63035   -1018.6776    135416.86   -35753.924    2661.7015   -38415.626    306.31246    239.52406 
   95900    139.49974   -618.40066    135342.33    -35691.61    2697.8545   -38389.464     306.1838    242.77744 
   95950    137.45221   -701.95228    135390.04   -35705.086    2658.2563   -38363.342    306.31428    239.21403 
   96000    136.86668   -575.28407    135454.85   -35755.833    2646.9326   -38402.766    306.32718    238.19502 
   96050    136.85688   -609.33327    135563.76    -35718.69     2646.743   -38365.433    307.11392    238.17796 
   96100    137.34857   -832.77065       135585   -35731.055    2656.2521   -38387.307     307.2253    239.03367 
   96150    135.32464   -806.70827     135513.8   -35727.085    2617.1103   -38344.195    307.46169    235.51134 
   96200    137.09066   -807.06877    135458.92   -35701.142    2651.2643   -38352.406    307.57297    238.58482 
   96250    138.61667   -708.63537    135483.56   -35762.774    2680.7765   -38443.551    307.85522     241.2406 
   96300    136.24465   -459.61887    135550.32   -35745.363    2634.9029   -38380.266    308.05832    237.11247 
   96350    137.07926   -818.60799    135574.34   -35762.705    2651.0437   -38413.749    308.02853    238.56497 
   96400    138.23683   -682.25924    135530.84   -35779.696    2673.4306   -38453.127    307.94854    240.57955 
   96450    136.64885   -900.63811    135421.39   -35776.341    2642.7198   -38419.061    308.04692    237.81592 
   96500    137.56503   -731.37503    135393.93    -35795.91    2660.4383   -38456.348    307.90204    239.41038 
   96550    134.92402     -637.884    135364.84    -35798.99    2609.3626   -38408.353    308.02464    234.81413 
   96600    135.97055   -791.82651    135382.48   -35804.368    2629.6019    -38433.97    308.03854    236.63544 
   96650    134.47188   -424.53947    135392.18   -35813.675    2600.6183   -38414.293    307.97638    234.02724 
   96700    137.64725     -636.011    135403.06   -35739.372    2662.0283   -38401.401    308.17121    239.55347 
   96750    136.78181   -704.82303    135366.56   -35762.624    2645.2912   -38407.916    307.91283    238.04731 
   96800    137.83318   -551.20701    135322.56    -35721.64    2665.6242   -38387.265    308.19765    239.87706 
   96850    139.32764   -746.78763    135319.41   -35727.109    2694.5263   -38421.636    308.37638    242.47793 
   96900    138.51522   -802.25234    135241.05   -35760.025    2678.8145   -38438.839    308.69891    241.06404 
   96950    135.08714   -866.00534    135232.32   -35844.224    2612.5172   -38456.741    308.68223    235.09801 
   97000    133.53433   -880.47069    135266.42   -35819.696    2582.4866   -38402.183    308.80141    232.39559 
   97050    136.78349   -840.30633    135243.15   -35847.203    2645.3237   -38492.527    308.54034    238.05024 
   97100    137.01312    -819.3548    135199.81   -35875.981    2649.7647   -38525.746    308.48525    238.44988 
   97150    137.55958   -944.78344    135239.76   -35830.225    2660.3329   -38490.558     308.8023     239.4009 
   97200     134.3558   -835.43471     135218.4   -35774.261    2598.3733   -38372.634    308.94488    233.82522 
   97250    135.12047   -1008.3333    135208.01    -35826.47    2613.1618   -38439.632    308.31431    235.15602 
   97300    135.88086   -836.70974    135255.79   -35800.212    2627.8674   -38428.079    308.31154    236.47936 
   97350    137.46499    -1071.361    135250.77   -35766.342    2658.5036   -38424.846    308.82449    239.23628 
   97400    135.94434   -728.65014    135245.54   -35770.554     2629.095   -38399.649    308.68813    236.58983 
   97450    138.85519   -513.88525    135292.28   -35740.843    2685.3893   -38426.232    308.44702    241.65571 
   97500    138.55438   -750.86852    135226.68   -35683.378    2679.5719    -38362.95    308.48776     241.1322 
   97550    137.83242   -665.43937    135166.79   -35701.722    2665.6094   -38367.331    308.24261    239.87573 
   97600    137.10102   -558.24919    135173.08   -35689.355    2651.4647   -38340.819    308.36265    238.60286 
   97650     139.0195   -725.80844    135218.57   -35636.542     2688.567   -38325.109    307.87169    241.94166 
   97700    136.46947   -917.45674    135136.84   -35667.955    2639.2508   -38307.206     308.2381    237.50374 
   97750    136.96346   -854.54421    135150.26   -35655.931    2648.8043   -38304.735    307.78976    238.36345 
   97800    139.03665   -781.94229    135095.23    -35653.18    2688.8987   -38342.079    308.23648    241.97151 
   97850    137.62887   -463.25741    135075.48   -35664.302    2661.6729   -38325.974    308.29766    239.52149 
   97900    138.74691    -622.6744    135083.26   -35676.817    2683.2953   -38360.112    308.04345    241.46726 
   97950    135.05724   -716.46136    135066.05   -35711.361     2611.939     -38323.3    308.06599    235.04597 
   98000    135.48747   -841.90818    135006.18   -35706.597    2620.2593   -38326.856    307.74329    235.79471 
   98050    138.00082   -591.56647     135021.4   -35692.439    2668.8662   -38361.305    307.63949    240.16881 
   98100    136.17501   -1014.0457    134970.24   -35673.892     2633.556   -38307.448    307.43092    236.99127 
   98150    140.05492   -328.23751    134992.83   -35661.115    2708.5914   -38369.707    307.34102    243.74364 
   98200    139.94467   -579.53342    135113.52   -35646.414    2706.4594   -38352.873    307.52479    243.55178 
   98250    137.79005   -957.28354    135125.23   -35642.796    2664.7901   -38307.586    307.31101      239.802 
   98300    139.25887     -686.572    135025.05   -35648.856    2693.1963   -38342.052    307.05791    242.35825 
   98350    136.69903   -683.34405    135056.93   -35646.233    2643.6903   -38289.924    307.03438    237.90325 
   98400    137.37632   -913.41388    135039.16   -35716.669    2656.7888   -38373.458    306.82731    239.08197 
   98450    137.07202   -766.68945    134977.76   -35709.545    2650.9038   -38360.449    306.78395    238.55239 
   98500    139.70228   -696.84422    135000.93   -35679.982    2701.7716   -38381.754    307.07732    243.12993 
   98550     136.2278   -719.21337    134944.02    -35713.72    2634.5769   -38348.297    307.79881    237.08314 
   98600    138.59683   -686.93099     134954.7   -35720.336    2680.3929   -38400.729    308.31722    241.20608 
   98650    140.33232    -775.4457    135019.16   -35733.505    2713.9562   -38447.461    308.82334    244.22642 
   98700    135.54533   -625.61146    135016.19   -35777.904    2621.3783   -38399.283    309.11963    235.89541 
   98750     138.6975   -805.41536    134994.35   -35766.261    2682.3397     -38448.6    309.69465    241.38127 
   98800    137.43823   -931.78459    134998.27   -35808.513     2657.986   -38466.499    309.96866     239.1897 
   98850    133.77873   -673.13857    134988.49   -35830.131    2587.2132   -38417.345      310.083    232.82093 
   98900    138.34025   -554.57765    135127.68   -35804.878    2675.4306   -38480.309    310.16255    240.75953 
   98950    136.92994   -683.91637    135181.12   -35801.755     2648.156   -38449.911    310.25906    238.30511 
   99000     135.6627   -654.72115    135193.84   -35798.128    2623.6481   -38421.776    310.44856    236.09967 
   99050    137.34632   -695.96773    135243.44   -35797.449    2656.2086   -38453.657    310.21377    239.02976 
   99100    137.69895    -506.9827    135274.77   -35835.393    2663.0283   -38498.421     310.4466    239.64346 
   99150     138.7572   -524.16847    135386.56   -35798.417    2683.4943   -38481.912    310.43696    241.48518 
   99200    138.17367   -480.91845    135434.36   -35764.005    2672.2091   -38436.214    310.62187    240.46963 
   99250    136.54824   -610.75285    135509.85   -35783.632     2640.774   -38424.406    311.07538    237.64081 
   99300    135.54442   -710.49446    135470.57   -35778.894    2621.3607   -38400.255    311.46597    235.89382 
   99350    137.22087   -553.38508    135443.48   -35798.489    2653.7824   -38452.272    311.64016    238.81143 
   99400    135.06836    -465.7381    135505.73   -35807.201     2612.154   -38419.355    311.63274    235.06532 
   99450    139.31262   -747.27475    135558.86   -35802.161    2694.2358   -38496.397    311.70664    242.45179 
   99500    137.34757   -695.77201    135542.79   -35755.636    2656.2327   -38411.869    311.85047    239.03193 
   99550    140.42382   -581.45539    135579.35   -35768.563    2715.7259   -38484.289    312.22933    244.38567 
   99600    138.35048   -625.33908    135597.58   -35783.797    2675.6285   -38459.426    312.58543    240.77733 
   99650    136.09416   -754.92456    135613.12   -35857.958    2631.9925    -38489.95    312.67265    236.85057 
   99700    137.25754   -704.01119    135650.27   -35851.716    2654.4917   -38506.207    312.66988    238.87525 
   99750    136.24655   -803.73929    135654.05   -35835.968    2634.9396   -38470.908    313.11601    237.11578 
   99800    135.36451   -700.80726    135710.91   -35812.314    2617.8813   -38430.195    313.85201    235.58072 
   99850     138.9693   -717.99811    135761.35    -35789.71    2687.5962   -38477.306     313.7624     241.8543 
   99900    138.55001   -858.28527       135760   -35769.707    2679.4874   -38449.195    313.91568     241.1246 
   99950    138.12123   -655.71343    135763.59   -35761.556    2671.1948    -38432.75     314.3482    240.37836 
  100000    136.42763    -757.1297    135830.02   -35789.755    2638.4416   -38428.196    314.43353    237.43092 
Loop time of 56.2509 on 90 procs for 100000 steps with 6489 atoms

Performance: 767.987 ns/day, 0.031 hours/ns, 1777.748 timesteps/s
97.2% CPU use with 90 MPI tasks x no OpenMP threads

MPI task timing breakdown:
Section |  min time  |  avg time  |  max time  |%varavg| %total
---------------------------------------------------------------
Pair    | 7.399      | 18.03      | 39.383     | 303.6 | 32.05
Neigh   | 0.57768    | 1.3219     | 3.3312     |  82.6 |  2.35
Comm    | 4.9493     | 19.331     | 42.19      | 310.9 | 34.37
Output  | 0.14952    | 0.15252    | 0.16194    |   0.5 |  0.27
Modify  | 3.4362     | 16.609     | 39.267     | 377.0 | 29.53
Other   |            | 0.8066     |            |       |  1.43

Nlocal:    72.1 ave 160 max 43 min
Histogram: 60 0 0 6 9 0 0 0 2 13
Nghost:    720.822 ave 1050 max 442 min
Histogram: 30 0 0 3 27 0 0 0 13 17
Neighs:    0 ave 0 max 0 min
Histogram: 90 0 0 0 0 0 0 0 0 0
FullNghs:  5773.18 ave 19031 max 1591 min
Histogram: 60 0 0 0 15 0 0 0 1 14

Total # of neighbors = 519586
Ave neighs/atom = 80.0718
Neighbor list builds = 5994
Dangerous builds = 0

write_data		${DIR}/data.eq-${NAME}-${TEMP}
write_data		run_4/data.eq-${NAME}-${TEMP}
write_data		run_4/data.eq-het_freeze_4-${TEMP}
write_data		run_4/data.eq-het_freeze_4-240
undump          1

reset_timestep  0

unfix           2
unfix           3
unfix           4


################################################
#######         Run Simulation         #########
################################################

log				${DIR}/log.run_${NAME}
log				run_4/log.run_${NAME}
log				run_4/log.run_het_freeze_4
