LAMMPS data file via write_data, version 16 Mar 2018, timestep = 100000

6750 atoms
2 atom types

0.0000000000000000e+00 4.9219999999999999e+01 xlo xhi
0.0000000000000000e+00 4.9019635930410494e+01 ylo yhi
3.9430171337816589e-01 5.9667698286622354e+01 zlo zhi

Masses

1 18.015
2 12.01

Atoms # atomic

1835 1 1.6234296328791145e+00 1.4362207436117465e+00 6.3254373148536054e+00 0 1 1
3626 1 3.6793461595450725e+00 2.5576671333888257e+00 2.7517289582895028e+00 2 2 0
4727 1 4.1987998020154436e+00 2.1037173516041667e+00 5.9811235518431998e+00 0 1 1
1532 1 6.3991786091604022e+00 2.7537610596297619e+00 1.9482482202732827e+00 0 0 1
5343 1 7.9509779378640353e+00 1.5053297058032595e+00 3.6686167298763581e+00 1 2 0
3085 1 4.7629092413464091e-01 1.2102932435722151e+01 4.1926866004882317e+00 1 1 1
3159 1 4.5360096778103536e+00 2.0284089762924115e+01 2.4785814079823405e+00 1 1 1
563 1 7.8031670536447786e+00 2.4280124693948125e+01 7.7723275469366806e+00 1 1 1
5320 1 3.4847287066027266e+00 4.8069164340994321e+00 5.9284104165238993e+00 0 -1 0
339 1 1.0574344617795051e+00 5.8181891568860502e+00 6.3548999998268183e+00 0 1 0
360 1 3.6624330131234903e+00 5.9027896919351202e+00 3.3218266346220884e+00 2 0 0
569 1 8.2716165909562367e+00 5.5882611852463446e+00 5.5098242227421181e+00 0 -1 1
594 1 8.3384881159780520e+00 6.1496526158755858e+00 2.8663597894192470e+00 -1 1 1
568 1 5.7575441763125754e+00 5.8235869506233247e+00 1.6273318248313278e+00 -1 1 1
3527 1 1.2235545052355794e+01 1.9316036648842012e+01 5.7432537047087031e+00 1 0 0
5201 1 1.0449456221574293e+01 4.9083157274867091e+00 1.7249349719910385e+00 -1 0 0
5550 1 6.3253716042410613e+00 8.8118440914796992e+00 1.8115273916645527e+00 0 1 0
2247 1 8.9348182219817414e+00 1.2712374814403018e+01 1.3614173982832712e+01 0 2 1
3278 1 8.6662481856387039e+00 9.1523309045188324e+00 4.2198602352942771e+00 0 1 0
1310 1 6.1003554208757729e+00 9.3855502883605197e+00 4.7109668558241093e+00 0 1 1
172 1 6.0418514208586094e-01 9.4057609955972907e+00 3.2935172716647152e+00 0 0 0
5041 1 9.7679974389790001e+00 8.9297118817488013e+00 1.2933980840865171e+00 1 2 1
4742 1 1.0359000642450106e+01 1.2362789341501646e+01 3.3783004328751125e+00 0 1 0
5621 1 1.2069740140443413e+01 1.5903239235791666e+01 2.0987685414798145e+00 2 1 0
5265 1 2.8155053121865130e+00 1.2256374931183242e+01 5.3223597928498707e+00 0 -1 1
1919 1 6.4677195279155670e+00 1.6302553625492173e+01 4.4326687306932531e+00 0 0 0
4979 1 7.4484942381815271e+00 2.2665359549519703e+01 5.6585160723275765e+00 0 0 1
3859 1 5.3176808742941652e+00 1.2137942593009713e+01 3.9688593881638474e+00 0 0 1
3474 1 7.7158646236717203e+00 1.3373024297058103e+01 2.5992217964317290e+00 1 0 0
2309 1 6.5822138585333585e+00 1.3688680771553043e+01 5.9338597964676385e+00 0 2 1
3577 1 8.5770858893617596e+00 1.5967670032048657e+01 2.5069948718981427e+00 0 0 0
4982 1 2.1425055844651051e+00 1.6455825186699933e+01 1.3794616238644872e+00 -1 0 1
6696 1 1.0393413777551345e+01 1.8180712621805508e+01 3.6543806412708308e+00 1 1 1
234 1 5.4721506991049944e+00 2.2913543094445693e+01 1.3018063485912567e+01 0 0 0
1319 1 5.8839229021755834e-01 1.3218730765315927e+01 9.1273491376524962e+00 0 2 1
3877 1 5.9643392369144788e-01 1.5298122853236514e+01 5.9623502087106237e+00 2 0 1
469 1 4.8026879862589018e+00 1.7478590551489710e+01 2.5888055111539208e+00 0 0 0
3455 1 2.1261712959097010e+00 2.0947842368671690e+01 2.9412257318026516e+00 1 -1 1
5631 1 4.3055469167081872e+00 2.4452998317848365e+01 3.8298231586922884e+00 0 -2 1
3544 1 1.0712704930518955e+01 1.9798326821516202e+01 1.1508905787619765e+00 0 0 0
6621 1 1.4704031365128925e+00 1.3664596698614661e+01 1.6408945136628108e+00 2 0 0
3485 1 1.6990949301212066e+00 1.2380214437718994e+01 1.3443217343425125e+01 2 0 0
5440 1 8.7542754029807757e+00 1.6726753040518460e+01 1.4706902352637234e+01 1 0 0
1730 1 2.9943375077431487e+00 9.7735492827413033e+00 1.1072481648626638e+01 0 0 0
6593 1 5.7894021206028579e-01 1.0375676915308372e+01 9.8323274917249890e+00 1 0 1
1679 1 6.0174376590372072e+00 2.2544722106155561e+01 3.2027408138936670e+00 -1 0 1
1759 1 3.2113401261337340e+00 9.7412689914945609e+00 1.9240183322044371e+00 0 1 0
444 1 9.6395619874645639e+00 2.1746671762146949e+01 1.4516819198166223e+01 -1 0 0
3805 1 1.0588886408260425e+01 1.0898008053813173e+01 8.0375387440276462e+00 0 0 0
321 1 9.3095197792268236e-01 1.4728461677175246e+00 8.9099201316443768e+00 1 1 0
1911 1 3.4169767913157028e+00 1.4825695011474673e+00 1.0005502405484117e+01 1 0 0
6359 1 3.7450235595060173e+00 1.2525905348674387e+01 1.5672896773843987e+00 0 0 1
4978 1 5.4425819268523288e+00 1.9496887634493520e+00 8.2360830733874248e+00 0 1 0
5574 1 1.3355921109848286e+00 1.8979251553745726e+01 9.3231999103104606e+00 0 0 1
4996 1 9.5018002214184634e+00 2.9258057846627423e+00 5.4635025892956932e+00 -1 1 1
3153 1 1.2053553267794682e+01 3.3603886119942170e+00 8.7317417737987668e+00 1 0 1
3427 1 1.1930136818817854e+01 1.0629484355357860e+01 2.1374746443115109e+00 0 0 0
478 1 9.3648366710971782e+00 4.5242555497278065e+00 8.4325707038129369e+00 -1 1 0
3483 1 6.5777078994759952e+00 4.2241061140361520e+00 9.0873844916306918e+00 1 -1 0
2103 1 4.7604607389637019e+00 7.7578920192169933e+00 1.1735325467353507e+01 0 1 0
1711 1 1.0063023820989235e+01 7.5131775692263227e+00 6.0334128332513277e+00 1 1 0
4799 1 8.9275240226276793e+00 8.6908020686149055e+00 8.5733180777451956e+00 1 0 1
2153 1 1.0198725952723953e+01 6.6220966542179962e+00 9.8019905849127724e+00 1 1 0
2251 1 6.7556602635186969e-01 4.3868263900643099e+00 1.0737651897524211e+01 0 0 1
6688 1 5.7189256404671145e+00 6.0539043001272574e+00 7.3317305718735373e+00 0 0 0
1423 1 2.5256449929091378e+00 9.9023173952573167e+00 6.3399526596366327e+00 1 1 1
1899 1 3.5558462665570008e+00 7.1226543133447553e+00 9.0166101706144097e+00 2 1 1
1706 1 4.1101496447435215e+00 1.0135219300406538e+01 8.5149116970689711e+00 -1 0 1
1618 1 6.2295474410331941e+00 8.7152437060071417e+00 7.3506968642192190e+00 -1 0 1
1810 1 9.1230528753538542e-01 2.2155798660971868e+01 8.7750258287522360e+00 1 0 0
4767 1 9.3959237544659029e+00 1.1879995545614356e+01 5.8941580166443046e+00 1 0 1
1953 1 4.3314423891209826e+00 1.6245639776476796e+01 6.8849582749183122e+00 2 1 0
216 1 2.6683420006906569e+00 1.3912246959865383e+01 7.3407775062317926e+00 0 1 0
5341 1 1.0965956317579899e+01 1.3981739549245655e+00 7.4041756128962470e+00 1 0 0
3915 1 5.5404298126221940e+00 1.3859948035565754e+01 1.0894306749653452e+01 1 1 1
6702 1 5.2080913035359702e+00 1.2800249444919656e+01 8.3735988574681102e+00 1 0 1
5514 1 8.3288995498188108e+00 1.6890373500512432e+01 8.2787600669289034e+00 2 0 0
3224 1 9.5194703310780930e+00 1.4762434502010549e+01 7.0700344118765290e+00 0 1 1
1307 1 1.1531891077169186e+01 1.6507842861137846e+01 6.2205711930814580e+00 -1 1 1
3235 1 9.4118110237037005e+00 1.7009347126386075e+01 1.0709099411627593e+01 -1 1 1
383 1 3.3003859033674083e+00 2.1392680247451196e+01 1.3000943616209957e+01 1 0 0
2000 1 7.6717835172145254e-01 6.6739303707233502e+00 9.1035060140586754e+00 0 2 0
285 1 8.4129594823307985e-01 1.9382621399866878e+01 4.7536836364306625e+00 0 0 0
4783 1 2.1152844607780636e+00 1.8018647262702959e+01 6.6494952397350380e+00 1 -1 1
1753 1 3.3250196543981030e+00 2.0891204969130609e+01 1.0622640015661878e+01 1 1 0
1694 1 5.9078591431491825e+00 1.7730641420762648e+01 8.6166236696549952e+00 0 0 1
5351 1 8.2286293267890169e+00 1.8040961360741573e+01 5.6441075858011995e+00 1 1 0
5089 1 7.5760088381490815e+00 2.0347775737349718e+01 6.8730089541311541e+00 1 1 0
1581 1 9.7850157384739482e+00 2.0746213819518104e+01 8.4127822567646788e+00 0 1 1
3250 1 1.1801322852733785e+01 2.1812665962993812e+01 6.7565050013186658e+00 1 1 0
2016 1 1.1154053483961311e+01 1.9282375050179702e+01 1.0318302507507683e+01 1 1 0
5529 1 1.0736942811926435e+00 2.3180588644128708e+01 1.3372778407561000e+01 2 0 0
1757 1 1.3586746917937700e+00 5.2631211642271207e+00 1.9442733244800516e+00 1 1 0
3733 1 8.4831310719738284e-01 7.7936280209266595e+00 1.2769295409264249e+01 0 0 1
2188 1 3.8335372912796544e+00 2.0451154927596143e+01 6.1762743200717303e+00 1 1 0
4780 1 5.7836407976987729e+00 2.0593306400049666e+01 9.3283386898556184e+00 0 -1 1
416 1 3.5338369236017648e+00 2.3122636188498625e+01 7.8685141904696314e+00 -1 0 0
243 1 9.5845405850115473e+00 2.3081398183096130e+01 9.6832426660738875e+00 -1 1 0
2 1 5.9363262305866087e+00 2.3366304067839994e+01 9.6929705919930971e+00 1 1 1
6538 1 3.1144322290900148e+00 3.3352501773150984e+00 1.2042114884408765e+01 1 2 1
167 1 3.7337093925621136e+00 2.3924865820053882e+00 1.4581763762742629e+01 0 0 0
1868 1 7.1424967163478179e+00 1.8992129568735111e-01 1.3889602702442140e+01 -1 1 0
3945 1 3.6543431416964998e+00 8.1365630174466315e+00 4.4106035743533170e+00 0 0 1
357 1 8.4372992573522119e+00 1.4247955141920294e+00 9.5748646005680182e+00 0 0 0
3254 1 8.4725555208556962e+00 2.5917236235493974e+00 1.2537003247674788e+01 0 -1 1
3052 1 3.1282503870908043e+00 7.1073043997247520e+00 1.4197338960910457e+01 -1 1 1
1631 1 1.2009741267583928e+01 1.4548434041391063e+01 4.4054782913052914e+00 0 0 1
3791 1 5.2611020256165419e+00 4.8171807588794531e+00 1.1224760614974214e+01 1 2 0
5102 1 6.9217496689314730e+00 4.7891834556567954e+00 1.3265333340716772e+01 1 -1 0
2152 1 8.4439466216150567e+00 7.2124074961265325e+00 1.4312234203312160e+01 1 0 0
3931 1 1.0731032026019776e+01 3.5510197469887901e+00 1.3104670200963460e+01 1 0 1
5292 1 1.0580674163439767e+01 6.1379069237677895e+00 1.2800315016375272e+01 1 1 0
6443 1 9.8701222626456797e+00 2.3189643432570691e+01 4.9106091454730478e+00 0 0 1
3770 1 8.2477378857919206e+00 2.2416459288724838e+01 1.1734642771517047e+01 1 1 0
405 1 4.1593151715223611e+00 1.2047166326423808e+01 1.2341958746702565e+01 0 0 0
4968 1 5.8920649576579756e+00 1.1120467321828160e+01 1.4326496383097904e+01 2 1 1
5466 1 6.7804051284611182e+00 8.9571777347845547e+00 1.3063015870885911e+01 0 1 0
3297 1 8.5620878467450368e+00 9.9320484547974299e+00 1.0723526062695818e+01 2 0 1
3441 1 1.1318057316264696e+01 9.2807557655331880e+00 1.1401251376515956e+01 1 -1 1
4813 1 9.9650493388316743e+00 1.3465471066068361e+01 9.3109302713238247e+00 1 1 1
1491 1 1.0646106978178983e+01 1.0733129371345205e+01 1.3920335816279934e+01 0 0 1
5566 1 8.1072307454763131e+00 2.3489343503125838e+01 1.2549204561912279e+00 1 1 1
190 1 8.2029336335399865e+00 1.2683498529732786e+01 1.0829947120928445e+01 0 0 0
2160 1 3.1952448136607754e+00 1.8757289521904127e+01 1.4257972658368306e+01 1 0 0
2136 1 1.0647223263268712e+01 1.4833708840160224e+01 1.3329329604275470e+01 -1 1 0
146 1 1.1495663038023757e+01 1.5198186551259619e+01 1.0590993835732961e+01 2 0 0
3542 1 1.3482248176362579e+00 1.4561580843710429e+01 1.1837089814167758e+01 1 1 0
3034 1 2.2077095794772053e+00 1.7299116410879865e+01 1.1735532707810510e+01 -1 0 1
6335 1 7.7620058749254772e+00 1.6022314941284961e+01 1.2267371968342278e+01 -1 1 1
4807 1 7.8158407398238507e+00 1.9832402686832072e+01 1.1147287724636103e+01 1 -1 0
4905 1 5.9987874987540160e+00 1.8954651707085489e+01 1.3145668474107962e+01 -1 1 1
482 1 5.0663427675051063e+00 1.6858910541531781e+01 1.0942820218058721e+01 1 1 1
1411 1 5.7179341846321332e+00 1.3801215516574159e+01 6.8391177671384973e-01 1 0 1
3193 1 1.1271159965280392e+01 2.1178149406671313e+01 1.2191440079240378e+01 0 0 1
4765 1 1.0400123159139230e+01 2.2509545010762199e+01 2.4179397580687829e+00 -1 1 1
5653 1 1.1665128874279922e+01 3.5123884723995551e+00 3.5239307964096738e+00 0 0 1
5325 1 1.1960036658447988e+01 2.3795588607845115e+01 1.0813890543783231e+01 1 0 0
4719 1 1.8471473931666589e+00 7.5315851233888038e+00 4.0791583511979856e-01 -1 1 1
517 1 2.3067345780634052e+00 2.3150930743183515e+01 5.1475622794346902e+00 1 0 0
4716 1 1.1183102922538053e-01 2.0676313279111334e+01 1.3316499103006811e+00 -1 0 1
536 1 4.6090128629654687e+00 4.7589068494017059e+00 1.4853693328279107e+01 0 0 0
247 1 8.1015336744301294e+00 2.4297043654359513e+01 1.4322535151698956e+01 1 1 0
3377 1 1.2188638346105785e+01 2.4419567021900839e+01 1.0564180843856583e+00 -1 0 1
5508 1 4.6210183232228390e+00 4.4312936351779797e-02 1.4972539144113219e+01 0 0 0
5504 1 2.4541322562284789e+00 1.1599008725221411e+00 2.0560607513011789e+01 0 -1 1
1330 1 6.6099658405454944e+00 2.3387580549739482e+01 2.4171754863709875e+01 1 1 1
1658 1 7.3300896963757696e+00 2.0122237858069791e+01 1.5449034918490520e+01 0 1 1
5567 1 7.6356992828497763e+00 1.3496185095568838e+00 1.6415518526107828e+01 1 0 1
317 1 8.7712067282195587e+00 1.4183200305352199e+00 2.0609382519485997e+01 1 0 0
1723 1 9.9644989513418303e-01 5.1325112299183955e+00 1.9265483400211160e+01 -1 0 0
3693 1 1.9999209636344817e+00 2.3589283708522320e+01 2.4126836507620482e+01 1 0 0
3160 1 1.0309857140099650e+01 6.8696188361680222e-01 1.7177854815760416e+01 1 0 1
96 1 1.1157431355577714e+01 8.1849885394870170e-01 1.9566117680791002e+01 1 1 0
917 2 1.1074500000000002e+01 2.3444173705848499e+01 2.6808582100265333e+01 0 0 0
3688 1 1.5706759729512347e+00 4.8092957764659054e+00 1.6506460727790156e+01 0 2 0
448 1 1.1376468024630460e+01 2.9626818705267102e+00 1.5583716855447040e+01 0 1 0
3673 1 7.8242757063772705e+00 3.9211191088149944e+00 1.6047026085571275e+01 0 2 0
3851 1 7.9386402606812716e+00 8.1107772214426568e+00 2.0111464350217584e+01 0 1 0
267 1 9.6294954044955343e+00 4.8605462974023688e+00 1.7841151028367772e+01 0 1 0
4803 1 1.9983741331670182e+00 4.7909632404010860e-01 1.7926922393618955e+01 1 0 1
3943 1 9.5421437231754371e+00 4.2379349413156246e+00 2.0584157382451693e+01 1 1 1
6347 1 1.1029423495957730e+01 1.7153998963089549e+01 2.1014691485008395e+01 1 1 1
194 1 1.0601577515607275e+01 1.8917301288067929e+01 1.5316579552468756e+01 1 0 1
268 1 2.8427097289835341e+00 1.0585249752045216e+01 1.7162780564351440e+01 1 0 1
3401 1 1.7244256801169475e+00 9.4323779995986108e+00 1.9275325229904180e+01 1 0 0
5565 1 5.7809035299964924e+00 6.4528601365054472e+00 1.6990553035368993e+01 0 1 1
2285 1 7.4116287465406900e+00 1.2782930307897360e+01 1.6209429891502722e+01 0 0 0
57 1 7.5780681326109507e+00 1.1407104801367936e+01 1.8828949458340656e+01 0 0 1
379 1 8.2330825256982259e+00 7.4566745244703085e+00 1.7439631461494677e+01 1 1 0
6447 1 1.0361020276553088e+01 9.3921211464553700e+00 1.5939012803173991e+01 1 1 1
356 1 1.0219645371066472e+01 1.0626685518791360e+01 1.8578845681850471e+01 0 1 0
3778 1 4.7889122130079302e+00 1.2322953630668227e+01 1.7713804647688807e+01 0 -1 0
2092 1 2.8975903902639555e+00 1.4526773187636591e+01 1.7536749758406255e+01 0 1 0
3200 1 6.3952474664365040e+00 2.7167002694633385e-01 1.8930399635083056e+01 0 2 1
893 2 9.8440000000000012e+00 2.4154603212086336e+01 2.6808582100265333e+01 0 0 0
5028 1 9.1195239279223959e+00 1.5681170554251443e+01 2.0087778285963896e+01 0 1 0
5385 1 1.1214783020702798e+01 1.4838530498732645e+01 1.7340946162981389e+01 -1 1 0
1947 1 3.3851350810258269e+00 1.8652770847895550e+01 1.9934937592790565e+01 0 1 0
1487 1 8.3082522373637657e-01 1.3787007705796393e+01 1.5866025821547307e+01 1 1 1
3968 1 1.9105619846176534e+00 1.8096207458356265e+01 1.7797003468367770e+01 1 1 1
1626 1 6.8423909692007800e+00 1.7585213714369786e+01 1.7018719569853648e+01 -1 0 1
1442 1 7.2058336297874153e+00 1.9238397760731512e+01 1.9360340513640640e+01 1 1 1
1691 1 8.4688403670444554e+00 1.5267594076939659e+01 1.7328702292883481e+01 0 0 1
2028 1 3.0582738821919606e+00 2.2634777562383519e+01 1.7518772472998311e+01 -1 1 0
2073 1 4.1224860002127679e+00 1.6899482201268949e+01 1.6656816840638825e+01 0 0 0
6590 1 5.0248782857989482e+00 2.3199758804581162e+01 1.9443083799792760e+01 1 0 1
1394 1 1.4010293542417178e+00 1.6869348903929360e+01 2.3979295401499684e+01 1 2 1
3650 1 4.7152453745702233e-01 1.1404542189642685e+01 2.0747576114462255e+01 0 0 0
581 1 2.6986388547020757e+00 1.4482451881693190e+00 2.3189929491422443e+01 -1 0 1
897 2 1.1074500000000002e+01 2.2023314693372832e+01 2.6808582100265333e+01 0 0 0
2147 1 5.0134212752898124e+00 2.1345264468068783e+00 2.0667152008284049e+01 0 0 0
3171 1 1.1108594362463869e+01 2.0823374549618073e+01 2.2983748245842122e+01 0 1 1
330 1 5.3850238600284861e+00 1.9451283122320298e+00 2.3476593997850113e+01 0 1 0
3056 1 2.3560149908680823e+00 1.3791794207043171e+01 2.0209309446347802e+01 0 0 1
6716 1 8.0001718886091329e+00 1.2177886325041605e+00 2.3708870043709389e+01 1 0 1
6713 1 1.1352373487993781e+00 1.8532144389610263e+01 2.1890134939632194e+01 0 0 1
4998 1 1.0010540824339149e+01 3.2546762074843385e+00 2.3434097578920451e+01 0 1 1
1771 1 1.5073906729814435e-01 2.1498105571598636e+01 1.7122081296652450e+01 0 1 0
31 1 2.7915101284643997e+00 5.7956803018328245e+00 2.3601652917505856e+01 2 -1 1
5104 1 3.2617029833012681e+00 5.7382674641579001e+00 2.0833786129523329e+01 -1 0 1
1755 1 9.5126758436358134e+00 2.3134916396233542e+01 1.9964432074374240e+01 0 0 0
4802 1 5.3431252064364028e+00 4.8424995436601215e+00 2.3498864064426584e+01 0 1 1
1637 1 5.3108943424949491e+00 4.6026446178202223e+00 1.8943969740772573e+01 1 -1 0
6380 1 6.8659946491142376e+00 6.8629312302946808e+00 2.4463686457876282e+01 0 0 1
6651 1 6.9709755393161039e+00 5.5817316005192872e+00 2.1032482053565385e+01 1 -1 1
6694 1 5.0396603205914960e+00 2.2028328249109546e+01 1.5737213583402470e+01 0 0 1
1913 1 9.2102955804566502e+00 5.8437187911543278e+00 2.3867265674883697e+01 0 1 0
3513 1 4.5057588305389809e+00 8.8161926807745470e+00 1.5923597319240137e+01 1 0 0
3536 1 3.6287594593072630e+00 8.3569689677208956e+00 2.0998218559614632e+01 1 0 0
246 1 2.7086927337345856e+00 8.6754196618945159e+00 2.3753683693940737e+01 1 3 0
4999 1 4.3168945756200774e+00 1.0915974291636363e+01 2.4498764160838100e+01 1 1 1
1996 1 6.4741540909630437e+00 9.3838706686289282e+00 2.3383791739911473e+01 0 0 0
1580 1 5.8169503795087909e+00 9.7657517261230726e+00 2.0913302724570563e+01 0 0 0
6565 1 1.1258258539380330e+01 8.6574358611047799e+00 2.0510105372437739e+01 0 1 1
3737 1 8.5035878983860478e+00 1.0478302767683479e+01 2.3796721643264743e+01 1 -1 0
433 1 1.1067972529998290e+01 9.4108251811359516e+00 2.2827792838160068e+01 0 0 0
2149 1 1.2233213954990121e+00 2.3725103920996622e+00 1.5979453223875863e+01 -1 1 0
3044 1 3.9975954347900919e+00 1.3172177693721583e+01 2.3310186216057531e+01 1 0 1
1527 1 1.4716003464268819e+00 1.4184452822623768e+01 2.3477566773208856e+01 1 1 0
3639 1 5.3744331203201305e+00 1.2787742106121028e+01 2.0801730325478985e+01 1 0 0
1561 1 6.4228920383404988e+00 1.4644667405854435e+01 2.4296877192551815e+01 0 1 1
3075 1 8.4906753617598305e+00 1.3086090519938725e+01 2.3728322230334779e+01 -1 0 1
1523 1 7.9059819708190107e+00 1.3247608615311087e+01 2.1008792905445528e+01 1 -1 1
4944 1 1.1449883163530512e+01 1.3785284605837916e+01 2.3960123589189543e+01 0 0 1
2227 1 4.4845045170076352e+00 1.6450243860484299e+01 2.3514046975485986e+01 0 1 0
6608 1 5.0735673472222098e-01 1.9285602456527691e+01 1.5533220863052268e+01 0 0 0
5090 1 1.1449124789637823e+01 2.3409674175119079e+01 2.3450340901849536e+01 0 0 0
891 2 8.6134999999999984e+00 2.3444173705848499e+01 2.6808582100265333e+01 0 0 0
1396 1 4.2058633871181472e+00 1.6122664772316412e+01 2.0920373618703213e+01 1 0 1
6463 1 6.9266441673819514e+00 1.7289237205198653e+01 2.1109343384246117e+01 1 1 0
1976 1 8.0495649859103686e+00 1.7114910023575344e+01 2.3492481453048271e+01 0 0 0
1888 1 4.2327745873388212e+00 1.9335927158117915e+01 2.4025868759051018e+01 0 -1 0
863 2 8.6135000000000002e+00 2.2023314693372832e+01 2.6808582100265333e+01 0 0 0
5165 1 1.0735408578801040e+01 1.6519539867896061e+01 2.3582116684944772e+01 2 1 0
4857 1 8.8516605723694362e+00 1.9684173990654227e+01 2.4201080257149790e+01 1 0 1
5398 1 1.1656754607453639e+01 5.9479934259840626e+00 2.1406467808882375e+01 1 1 0
3852 1 1.9733282025960555e+00 2.0846983712221252e+01 2.3490702431312855e+01 0 0 0
6512 1 2.9584649448287133e+00 2.1330486822146671e+01 2.0769183040086229e+01 1 -1 1
6673 1 1.1600225430944162e+00 3.7417556710742135e+00 2.3198406119535996e+01 0 1 1
228 1 7.2040835737793856e+00 2.1892601160611612e+01 2.0857444342511581e+01 0 0 1
1992 1 6.5631265113209807e+00 2.0900125479256914e+01 2.3445288880713978e+01 1 1 0
347 1 1.0047497347366198e+01 1.9674292891028056e+01 2.0496148457738890e+01 1 0 0
518 1 1.1834467681713020e+01 2.1838755706441596e+01 1.8383535343139489e+01 0 -1 0
2195 1 1.1143380929081994e+01 7.2161042924486365e+00 2.4483259709791280e+01 0 0 0
4815 1 4.3887715747349693e-01 3.1498817174514615e+00 2.0518098661079375e+01 1 0 1
618 2 0.0000000000000000e+00 2.8417180249513345e+00 2.6808582100265333e+01 0 0 0
620 2 0.0000000000000000e+00 0.0000000000000000e+00 2.6808582100265333e+01 0 0 0
622 2 1.2305000000000001e+00 7.1042950623783474e-01 2.6808582100265333e+01 0 0 0
629 2 1.2305000000000001e+00 2.1312885187134998e+00 2.6808582100265333e+01 0 0 0
631 2 2.4610000000000003e+00 2.8417180249513345e+00 2.6808582100265333e+01 0 0 0
633 2 2.4610000000000003e+00 0.0000000000000000e+00 2.6808582100265333e+01 0 0 0
635 2 3.6915000000000004e+00 7.1042950623783474e-01 2.6808582100265333e+01 0 0 0
650 2 3.6914999999999996e+00 2.1312885187134998e+00 2.6808582100265333e+01 0 0 0
652 2 4.9220000000000006e+00 2.8417180249513332e+00 2.6808582100265333e+01 0 0 0
654 2 4.9220000000000006e+00 0.0000000000000000e+00 2.6808582100265333e+01 0 0 0
656 2 6.1524999999999999e+00 7.1042950623783407e-01 2.6808582100265333e+01 0 0 0
679 2 6.1524999999999999e+00 2.1312885187134989e+00 2.6808582100265333e+01 0 0 0
681 2 7.3829999999999991e+00 2.8417180249513345e+00 2.6808582100265333e+01 0 0 0
683 2 7.3829999999999991e+00 0.0000000000000000e+00 2.6808582100265333e+01 0 0 0
685 2 8.6134999999999984e+00 7.1042950623783407e-01 2.6808582100265333e+01 0 0 0
716 2 8.6134999999999984e+00 2.1312885187135002e+00 2.6808582100265333e+01 0 0 0
718 2 9.8440000000000012e+00 2.8417180249513332e+00 2.6808582100265333e+01 0 0 0
720 2 9.8440000000000012e+00 0.0000000000000000e+00 2.6808582100265333e+01 0 0 0
722 2 1.1074500000000002e+01 7.1042950623783330e-01 2.6808582100265333e+01 0 0 0
761 2 1.1074500000000002e+01 2.1312885187135002e+00 2.6808582100265333e+01 0 0 0
623 2 0.0000000000000000e+00 7.1042950623783341e+00 2.6808582100265333e+01 0 0 0
625 2 0.0000000000000000e+00 4.2625770374269996e+00 2.6808582100265333e+01 0 0 0
627 2 1.2305000000000001e+00 4.9730065436648339e+00 2.6808582100265333e+01 0 0 0
642 2 1.2305000000000001e+00 6.3938655561404980e+00 2.6808582100265333e+01 0 0 0
644 2 2.4610000000000003e+00 7.1042950623783341e+00 2.6808582100265333e+01 0 0 0
646 2 2.4610000000000003e+00 4.2625770374269996e+00 2.6808582100265333e+01 0 0 0
648 2 3.6914999999999996e+00 4.9730065436648339e+00 2.6808582100265333e+01 0 0 0
671 2 3.6914999999999996e+00 6.3938655561404980e+00 2.6808582100265333e+01 0 0 0
673 2 4.9220000000000006e+00 7.1042950623783341e+00 2.6808582100265333e+01 0 0 0
675 2 4.9220000000000006e+00 4.2625770374269978e+00 2.6808582100265333e+01 0 0 0
677 2 6.1524999999999999e+00 4.9730065436648339e+00 2.6808582100265333e+01 0 0 0
708 2 6.1524999999999999e+00 6.3938655561404980e+00 2.6808582100265333e+01 0 0 0
710 2 7.3830000000000009e+00 7.1042950623783341e+00 2.6808582100265333e+01 0 0 0
712 2 7.3829999999999991e+00 4.2625770374269996e+00 2.6808582100265333e+01 0 0 0
714 2 8.6135000000000002e+00 4.9730065436648339e+00 2.6808582100265333e+01 0 0 0
753 2 8.6135000000000002e+00 6.3938655561404980e+00 2.6808582100265333e+01 0 0 0
755 2 9.8440000000000012e+00 7.1042950623783341e+00 2.6808582100265333e+01 0 0 0
757 2 9.8440000000000012e+00 4.2625770374270004e+00 2.6808582100265333e+01 0 0 0
759 2 1.1074500000000002e+01 4.9730065436648339e+00 2.6808582100265333e+01 0 0 0
800 2 1.1074500000000002e+01 6.3938655561404980e+00 2.6808582100265333e+01 0 0 0
636 2 0.0000000000000000e+00 1.1366872099805333e+01 2.6808582100265333e+01 0 0 0
638 2 0.0000000000000000e+00 8.5251540748539991e+00 2.6808582100265333e+01 0 0 0
640 2 1.2305000000000001e+00 9.2355835810918343e+00 2.6808582100265333e+01 0 0 0
663 2 1.2305000000000001e+00 1.0656442593567498e+01 2.6808582100265333e+01 0 0 0
665 2 2.4610000000000003e+00 1.1366872099805333e+01 2.6808582100265333e+01 0 0 0
667 2 2.4610000000000003e+00 8.5251540748539991e+00 2.6808582100265333e+01 0 0 0
669 2 3.6915000000000004e+00 9.2355835810918343e+00 2.6808582100265333e+01 0 0 0
700 2 3.6914999999999996e+00 1.0656442593567499e+01 2.6808582100265333e+01 0 0 0
702 2 4.9220000000000006e+00 1.1366872099805333e+01 2.6808582100265333e+01 0 0 0
704 2 4.9220000000000006e+00 8.5251540748539991e+00 2.6808582100265333e+01 0 0 0
706 2 6.1524999999999999e+00 9.2355835810918343e+00 2.6808582100265333e+01 0 0 0
745 2 6.1524999999999999e+00 1.0656442593567499e+01 2.6808582100265333e+01 0 0 0
747 2 7.3829999999999991e+00 1.1366872099805333e+01 2.6808582100265333e+01 0 0 0
749 2 7.3830000000000009e+00 8.5251540748539991e+00 2.6808582100265333e+01 0 0 0
751 2 8.6134999999999984e+00 9.2355835810918343e+00 2.6808582100265333e+01 0 0 0
792 2 8.6134999999999984e+00 1.0656442593567498e+01 2.6808582100265333e+01 0 0 0
794 2 9.8440000000000012e+00 1.1366872099805333e+01 2.6808582100265333e+01 0 0 0
796 2 9.8440000000000012e+00 8.5251540748539956e+00 2.6808582100265333e+01 0 0 0
798 2 1.1074500000000002e+01 9.2355835810918343e+00 2.6808582100265333e+01 0 0 0
839 2 1.1074500000000002e+01 1.0656442593567498e+01 2.6808582100265333e+01 0 0 0
841 2 1.2304999999999998e+01 1.1366872099805333e+01 2.6808582100265333e+01 0 0 0
657 2 0.0000000000000000e+00 1.5629449137232333e+01 2.6808582100265333e+01 0 0 0
659 2 0.0000000000000000e+00 1.2787731112280996e+01 2.6808582100265333e+01 0 0 0
661 2 1.2305000000000001e+00 1.3498160618518829e+01 2.6808582100265333e+01 0 0 0
692 2 1.2305000000000001e+00 1.4919019630994494e+01 2.6808582100265333e+01 0 0 0
694 2 2.4610000000000003e+00 1.5629449137232328e+01 2.6808582100265333e+01 0 0 0
696 2 2.4610000000000003e+00 1.2787731112280996e+01 2.6808582100265333e+01 0 0 0
698 2 3.6915000000000004e+00 1.3498160618518829e+01 2.6808582100265333e+01 0 0 0
737 2 3.6915000000000004e+00 1.4919019630994494e+01 2.6808582100265333e+01 0 0 0
739 2 4.9220000000000006e+00 1.5629449137232333e+01 2.6808582100265333e+01 0 0 0
741 2 4.9220000000000006e+00 1.2787731112280996e+01 2.6808582100265333e+01 0 0 0
743 2 6.1524999999999990e+00 1.3498160618518829e+01 2.6808582100265333e+01 0 0 0
784 2 6.1524999999999990e+00 1.4919019630994494e+01 2.6808582100265333e+01 0 0 0
786 2 7.3829999999999991e+00 1.5629449137232333e+01 2.6808582100265333e+01 0 0 0
788 2 7.3829999999999991e+00 1.2787731112280996e+01 2.6808582100265333e+01 0 0 0
790 2 8.6135000000000002e+00 1.3498160618518835e+01 2.6808582100265333e+01 0 0 0
831 2 8.6135000000000002e+00 1.4919019630994494e+01 2.6808582100265333e+01 0 0 0
833 2 9.8440000000000012e+00 1.5629449137232328e+01 2.6808582100265333e+01 0 0 0
835 2 9.8440000000000012e+00 1.2787731112280996e+01 2.6808582100265333e+01 0 0 0
837 2 1.1074500000000002e+01 1.3498160618518829e+01 2.6808582100265333e+01 0 0 0
873 2 1.1074500000000002e+01 1.4919019630994494e+01 2.6808582100265333e+01 0 0 0
686 2 0.0000000000000000e+00 1.9892026174659328e+01 2.6808582100265333e+01 0 0 0
688 2 0.0000000000000000e+00 1.7050308149707998e+01 2.6808582100265333e+01 0 0 0
690 2 1.2305000000000001e+00 1.7760737655945832e+01 2.6808582100265333e+01 0 0 0
729 2 1.2305000000000001e+00 1.9181596668421495e+01 2.6808582100265333e+01 0 0 0
731 2 2.4610000000000003e+00 1.9892026174659328e+01 2.6808582100265333e+01 0 0 0
733 2 2.4610000000000003e+00 1.7050308149707998e+01 2.6808582100265333e+01 0 0 0
735 2 3.6914999999999996e+00 1.7760737655945832e+01 2.6808582100265333e+01 0 0 0
776 2 3.6914999999999996e+00 1.9181596668421495e+01 2.6808582100265333e+01 0 0 0
778 2 4.9220000000000006e+00 1.9892026174659328e+01 2.6808582100265333e+01 0 0 0
780 2 4.9220000000000006e+00 1.7050308149707998e+01 2.6808582100265333e+01 0 0 0
782 2 6.1524999999999999e+00 1.7760737655945832e+01 2.6808582100265333e+01 0 0 0
823 2 6.1524999999999999e+00 1.9181596668421495e+01 2.6808582100265333e+01 0 0 0
825 2 7.3829999999999991e+00 1.9892026174659328e+01 2.6808582100265333e+01 0 0 0
827 2 7.3830000000000009e+00 1.7050308149707998e+01 2.6808582100265333e+01 0 0 0
829 2 8.6134999999999984e+00 1.7760737655945832e+01 2.6808582100265333e+01 0 0 0
865 2 8.6135000000000002e+00 1.9181596668421495e+01 2.6808582100265333e+01 0 0 0
867 2 9.8440000000000012e+00 1.9892026174659335e+01 2.6808582100265333e+01 0 0 0
869 2 9.8440000000000012e+00 1.7050308149707998e+01 2.6808582100265333e+01 0 0 0
871 2 1.1074500000000002e+01 1.7760737655945835e+01 2.6808582100265333e+01 0 0 0
899 2 1.1074500000000002e+01 1.9181596668421495e+01 2.6808582100265333e+01 0 0 0
903 2 1.2304999999999998e+01 1.7050308149707998e+01 2.6808582100265333e+01 0 0 0
770 2 2.4610000000000003e+00 2.4154603212086325e+01 2.6808582100265333e+01 0 0 0
768 2 1.2304999999999993e+00 2.3444173705848499e+01 2.6808582100265333e+01 0 0 0
772 2 2.4610000000000003e+00 2.1312885187134995e+01 2.6808582100265333e+01 0 0 0
815 2 3.6915000000000004e+00 2.3444173705848499e+01 2.6808582100265333e+01 0 0 0
723 2 0.0000000000000000e+00 2.4154603212086325e+01 2.6808582100265333e+01 0 0 0
774 2 3.6914999999999996e+00 2.2023314693372832e+01 2.6808582100265333e+01 0 0 0
727 2 1.2304999999999993e+00 2.2023314693372832e+01 2.6808582100265333e+01 0 0 0
725 2 0.0000000000000000e+00 2.1312885187134999e+01 2.6808582100265333e+01 0 0 0
857 2 6.1524999999999999e+00 2.3444173705848499e+01 2.6808582100265333e+01 0 0 0
821 2 6.1524999999999990e+00 2.2023314693372832e+01 2.6808582100265333e+01 0 0 0
861 2 7.3829999999999991e+00 2.1312885187134999e+01 2.6808582100265333e+01 0 0 0
819 2 4.9220000000000006e+00 2.1312885187134995e+01 2.6808582100265333e+01 0 0 0
859 2 7.3830000000000009e+00 2.4154603212086336e+01 2.6808582100265333e+01 0 0 0
817 2 4.9220000000000006e+00 2.4154603212086325e+01 2.6808582100265333e+01 0 0 0
895 2 9.8440000000000012e+00 2.1312885187134999e+01 2.6808582100265333e+01 0 0 0
4862 1 1.1098137792682028e+01 2.3637381328218048e+01 1.6557974238686644e+01 0 1 1