LAMMPS data file via write_data, version 16 Mar 2018, timestep = 6000000

6750 atoms
2 atom types

0.0000000000000000e+00 4.9219999999999999e+01 xlo xhi
0.0000000000000000e+00 4.9019635930410494e+01 ylo yhi
2.4548632934848769e-01 5.9816513670635928e+01 zlo zhi

Masses

1 18.015
2 12.01

Atoms # atomic

2185 1 3.1911476471158879e+00 2.6453569931640342e+00 2.4691474827584963e+00 0 0 0
3580 1 8.3837777437301753e-01 3.0468100901818449e+00 1.4073380959663808e+00 -1 2 0
6398 1 3.2845068767268408e+00 2.6252872145001066e-01 1.6727917432424795e+00 1 3 1
3646 1 7.4055054042948738e+00 1.0236470335077335e+00 1.6195681246360949e+00 -1 1 0
530 1 7.3713752353785118e+00 3.5789712496450470e+00 2.2162075859431498e+00 2 0 0
308 1 7.1506817193170651e+00 3.8948463819782266e+00 4.8040097326618270e+00 1 0 0
1508 1 9.7625152565157922e+00 5.9339560071098241e-01 2.4284088111133357e+00 0 -1 1
1513 1 4.2973682802376096e+00 2.4423623536361735e+01 9.2886069760663226e+00 -1 0 1
5569 1 2.0314644392294969e+00 7.2192249780467721e+00 1.6661027445716570e+00 1 0 1
2169 1 1.1644435281573076e+01 6.4709975082258362e+00 8.7187940537730224e+00 0 -1 0
67 1 5.0637353991597465e+00 4.3327412183281497e+00 1.5977551787039601e+00 3 2 0
3336 1 4.5625821348534998e+00 6.6229635801317190e+00 2.7520395633964330e+00 0 0 0
2143 1 9.3640957875433486e+00 5.2979080797689999e+00 1.7603638590162085e+00 0 -1 0
5525 1 9.0232295589171834e+00 7.9176859468627363e+00 2.2765985786807792e+00 2 2 0
5001 1 1.1775221535757787e+01 4.4735256108756243e+00 2.3486022412133498e+00 2 2 1
3759 1 1.2056294282693033e+01 2.4494154352753988e+01 1.2878575543973827e+01 1 -1 0
6444 1 9.1876573933470524e+00 7.5418450160197468e+00 5.1463571202786111e+00 -1 -1 1
120 1 1.5978442106725752e+00 9.4382896614332275e+00 2.9846928390749228e+00 2 1 0
1745 1 3.3461680550158395e+00 1.1173481665626642e+01 1.7982185029188602e+00 -1 2 1
3154 1 6.2824945302192692e+00 8.2858797945354787e+00 1.6686354014710718e+00 1 -2 1
131 1 6.1241849028691631e+00 1.0742195693254926e+01 2.7372600931094166e+00 1 1 0
45 1 1.1097791429330337e+01 9.4197799892319978e+00 1.2687084235861532e+00 1 0 0
4994 1 1.0118691304071433e+01 1.1854675482709911e+01 2.2165720566838569e+00 -1 1 0
5104 1 3.0862226860055704e+00 1.3713794821277244e+01 2.8168135946498030e+00 -1 0 1
3663 1 3.3232049139770237e-01 2.3437796600927701e+01 6.4744229614312063e+00 -1 0 0
510 1 4.5752464440988430e+00 1.5487646998474581e+01 1.7865169542093460e+00 2 1 0
1334 1 7.0081839322043180e+00 1.4780476075453336e+01 3.1307024485469950e+00 1 0 1
5237 1 7.6994672792787737e+00 1.2578764197191896e+01 1.6168509783233549e+00 -2 0 1
3817 1 1.1578547768686816e+01 1.5481150596732647e+01 2.6708871656544084e+00 1 1 1
6701 1 1.5142433554220898e+00 1.8444184207341145e+01 1.9208944593208790e+00 2 0 0
3196 1 3.8132226416501434e+00 1.7805620653534216e+01 2.9141288261118303e+00 1 -4 1
223 1 6.0679009234086285e+00 1.9379642849536118e+01 1.9258235895261453e+00 3 0 1
1652 1 9.0543432871565042e+00 1.6208369473990665e+01 1.9473861179243641e+00 0 0 0
4769 1 8.6154557177515727e+00 1.8702502236568108e+01 2.8622469401673611e+00 2 0 1
2149 1 1.0384755286728785e+01 2.0660349196452344e+01 2.1587141766957947e+00 -3 1 0
1999 1 7.0733941920671617e-01 2.1122740784040126e+01 2.6096077097809851e+00 0 0 0
6743 1 2.7142518491881242e+00 2.2653835392548025e+01 1.8400102357704795e+00 2 0 1
31 1 5.0680842094571412e+00 2.1770562481902214e+01 2.9515455968203499e+00 3 -1 1
1370 1 6.9769502690369416e+00 2.3699938166059482e+01 2.1166376218610745e+00 0 0 1
130 1 9.6032526801695344e+00 2.3092026185940643e+01 2.7764495208472342e+00 1 -1 1
2245 1 7.8597819550528101e+00 2.0955046433116191e+01 1.3906418254629974e+01 0 -1 0
5193 1 2.8398550005359899e+00 2.6233483726063498e+00 5.0646724901207341e+00 -1 1 0
1845 1 4.9354696945274412e+00 2.4191627578885889e+01 1.3452572064956151e+01 0 2 0
411 1 2.0930613388970452e+00 1.6338683497819908e+00 9.8105523019643712e+00 2 -1 0
1797 1 3.1444325469624892e+00 4.0677691107228187e+00 9.0035649692408430e+00 2 1 0
304 1 5.2803927824650909e+00 2.2804855717097294e+00 5.8081984423888962e+00 1 -1 1
5661 1 5.9594041886490539e+00 3.5915212569242692e+00 8.3320062933958461e+00 0 -1 1
3863 1 1.0040550807075872e+01 8.9891838440585581e-01 5.1511101299568072e+00 1 0 0
112 1 9.6999204680699016e+00 3.5718051753499882e+00 5.8620091402686407e+00 1 1 0
5061 1 9.8896150936468228e+00 2.9580697745011606e+00 1.0281655298115359e+01 0 1 0
5328 1 8.6127142651140220e-01 2.3208071687019071e+01 1.3497415948326008e+01 -1 -1 0
5537 1 7.4158519599528008e+00 2.3525692411539730e+01 1.2876670834611881e+01 0 0 0
4782 1 2.5285795682785701e+00 4.8620772513822974e+00 6.4767233530166681e+00 1 0 1
5205 1 2.5511593497254053e+00 6.4169821230035060e+00 1.0128651792017434e+01 2 3 0
2226 1 1.1900681164347503e+01 9.7315749385539774e-01 9.5398217714394704e+00 0 2 0
6486 1 4.0152831599824029e-01 7.2085354275856544e+00 1.3579094348864965e+01 2 -1 1
6428 1 4.3919268572577943e+00 6.6360545342013495e+00 5.1383854595564600e+00 0 3 1
4830 1 7.1991269117568031e+00 5.7618304878508857e+00 8.2000230991930358e+00 0 0 0
2036 1 7.0457102170404236e+00 6.3740758190224289e+00 5.6587187267063674e+00 1 2 0
3197 1 6.9530930531195301e+00 7.6932236538306107e+00 1.0037246482955499e+01 1 1 1
4727 1 9.5019066399177259e+00 4.8012488677962759e+00 8.3797779270731851e+00 -1 0 1
4949 1 1.1575070718701364e+01 7.1098583959017754e+00 6.1234639732094660e+00 -1 -2 1
542 1 5.7374505462138947e-01 1.3910220076419852e+01 1.2515493402461551e+01 1 1 1
1416 1 1.6227796518021285e+00 9.4421984086744768e+00 5.5573067047103546e+00 0 1 1
5238 1 1.1981915747508036e+00 1.1448576342839161e+01 9.2103688874695830e+00 -1 1 0
3036 1 1.0561250583318782e+00 1.1749736994628970e+01 6.4719972869990432e+00 -1 0 1
13 1 3.6287515777269843e+00 1.0791415085096608e+01 1.0005135122281914e+01 1 -2 1
6558 1 4.3705852594237316e+00 8.8595398243565580e+00 6.4412798750379121e+00 3 0 1
5172 1 4.3607894450372324e+00 8.3216193156075438e+00 9.3087841264431539e+00 0 -1 0
3961 1 6.1031750027020220e+00 1.0625078309543554e+01 5.3142179835151220e+00 0 3 1
6528 1 5.1658017618743610e+00 1.2631443341638969e+01 8.9458667330739647e+00 3 0 1
6500 1 8.8424893856533977e+00 9.9056160009581138e+00 6.1362121897499931e+00 1 2 1
5651 1 1.0414411162471261e+01 1.1684615693968119e+01 5.0133382846255783e+00 2 -1 1
3395 1 8.4872938810325458e+00 9.5117363634071790e+00 8.9682787400536554e+00 2 0 0
5558 1 1.1224690322702369e+01 8.7763636419029840e+00 9.6049978340838322e+00 1 -2 1
1864 1 7.6865170395982521e+00 1.1844173299141699e+01 9.7521332484321697e+00 0 1 0
3907 1 2.5991299570125559e+00 1.3547728706927577e+01 5.4758453562146912e+00 0 2 0
6381 1 2.0480611046957562e+00 1.5816255638319284e+01 6.5918181059027017e+00 -1 -1 1
6563 1 1.9931077320344652e+00 1.5605008747615246e+01 9.3138061527198470e+00 2 -1 0
1906 1 4.1046837968596184e-01 1.3796416702983329e+01 9.9696420209922483e+00 -2 -1 1
4698 1 7.4438894820343737e+00 1.4971910116675275e+01 5.7299410950346825e+00 2 1 1
1985 1 5.2294205852162117e+00 1.3276768029971809e+01 6.2217806180939341e+00 0 1 0
3517 1 4.5801018330069443e+00 1.5159391668665890e+01 9.8457809211368001e+00 0 -1 1
2105 1 1.0107044481879083e+01 1.4107252827322860e+01 6.3274515680877661e+00 1 -1 0
2302 1 1.0067275628259678e+01 1.3985460866230294e+01 8.9706221014349516e+00 -1 2 1
1785 1 1.2141416568276773e+01 1.5787724515324076e+01 5.4186634904378392e+00 0 0 0
448 1 3.4396637285058076e+00 1.9898921111497174e+01 9.5437972109976688e+00 0 2 0
280 1 3.1617273597497588e+00 2.0203710778287157e+01 6.7129009205290489e+00 1 0 0
347 1 1.5291997128416506e+00 1.8130437522119749e+01 1.0191980658138036e+01 2 0 0
3289 1 3.9750986943398363e+00 1.7688232421016039e+01 5.7683968352483230e+00 -1 0 1
5496 1 6.6868961088023440e+00 1.6938297110818155e+01 9.3660067728064575e+00 0 -2 1
4739 1 6.4633593435272871e+00 1.7412567130847972e+01 6.3613183267487825e+00 2 1 1
3141 1 8.2773326667980989e+00 1.9257996485324341e+01 5.7297915774023194e+00 -2 2 1
5006 1 1.0996143068456615e+01 1.8119867691941689e+01 6.4412972091851088e+00 1 2 1
1546 1 1.1267738296680331e+01 1.8307579907653988e+01 9.2040758083684207e+00 1 -1 1
5 1 6.8093797259286344e+00 2.3717096768839991e+01 1.0239264917103103e+01 2 2 0
5664 1 4.1587589974656269e-01 1.2415984255732870e+00 5.3233536392753065e+00 1 3 1
211 1 9.0349858670474181e-01 2.1040547665083107e+01 5.3679939008809585e+00 -1 -2 0
5683 1 1.2242963978937953e+01 4.1917978557362218e-01 6.8447676160190412e+00 2 1 1
1575 1 5.0617436489470213e+00 2.2027376847063586e+01 5.7217054261172198e+00 0 -1 1
216 1 7.5597059921791976e+00 2.1163815092275989e+01 9.5252193098202067e+00 0 0 0
342 1 7.4692107611868046e+00 2.1497601081785451e+01 6.7442005832303353e+00 1 2 0
5649 1 2.8298723970903312e+00 2.2389790580279300e+01 1.0219433668499022e+01 1 -1 1
5388 1 9.7448683006657220e+00 2.2786814365880531e+01 5.4470939010374808e+00 0 0 0
2031 1 1.2017459070641438e+01 2.1247770633964755e+00 1.6205976818583034e+00 1 0 0
5406 1 2.3465405028824247e+00 1.2808274835165419e+00 1.2766721503854260e+01 0 -1 0
3215 1 4.0463226095168663e+00 3.2257576446085867e+00 1.3591677785182883e+01 2 0 1
2286 1 7.5034513869578072e+00 1.8969527001458144e+00 1.0109637180082103e+01 -1 0 1
3813 1 6.5233442109555906e+00 2.2284123892414009e+00 1.2675492608450520e+01 -1 1 0
3647 1 8.1077705367133124e+00 4.3907979724705140e+00 1.3361713603130589e+01 -1 -1 0
1495 1 1.1519274446854194e+01 8.0892152065823741e-01 1.3070527856751390e+01 0 0 1
6456 1 1.0859567793853840e+01 3.6838447475222988e+00 1.2881631292519796e+01 0 0 1
3305 1 5.7985665045921297e-01 1.4529666945622289e+01 2.0222550190244082e+00 -1 2 1
5659 1 2.7579343263717724e+00 5.7926651521994925e+00 1.3024003004824591e+01 -1 0 1
5586 1 7.1117556920967129e+00 7.0001963692405909e+00 1.2679009164067789e+01 2 1 1
3463 1 4.7124264466421399e+00 7.9277779877946815e+00 1.3410299610114535e+01 2 -1 0
4832 1 1.1458287131497753e+01 8.5390327037845744e+00 1.2380114313222521e+01 1 -1 0
4817 1 1.2205361314101448e+00 1.1153588275949842e+01 1.3345379985170563e+01 3 0 1
3310 1 3.7396012498294779e+00 1.0437325019448137e+01 1.2831472267391364e+01 0 2 0
200 1 8.2341332927167912e+00 1.1512955741388442e+01 1.2617768979618456e+01 0 1 0
3710 1 5.8503347093437110e+00 1.2278249275825827e+01 1.3268678226826275e+01 0 -1 0
1919 1 8.8531283238423200e+00 8.8584221083084991e+00 1.3457781889628837e+01 0 2 0
6699 1 4.3378894922595507e-01 2.3097393795803335e+01 9.2895457645772819e+00 0 -1 1
1343 1 4.2548173743493883e-01 5.1807146841660989e+00 3.0256217879692713e+00 -1 0 1
3126 1 2.6017742102757819e+00 1.5487795967216737e+01 1.3814717155263882e+01 -1 1 1
3884 1 4.9487094671463305e+00 1.4909596165558499e+01 1.2542543853157586e+01 -2 1 0
1951 1 9.0981189484592644e+00 1.6323343824845587e+01 1.0051148625545217e+01 0 -1 0
5077 1 1.0130201945285885e+01 1.3331101800303038e+01 1.3385620392504807e+01 1 1 1
173 1 9.6372997773117817e+00 1.5932150636047385e+01 1.2801063599573935e+01 1 -1 0
124 1 3.4616856015524657e+00 1.9629572508051918e+01 1.3935974246899150e+01 -1 -1 0
5207 1 1.9666483759769933e+00 1.7749441548698861e+01 1.2868833754732609e+01 1 -1 0
1789 1 5.9901069462715606e+00 1.9209228410186959e+01 1.0341755712811585e+01 0 -1 0
1414 1 5.9623877758326831e+00 1.9257152332245720e+01 1.2955583491390819e+01 1 -2 1
3322 1 7.1572316313414266e+00 1.7016348929748833e+01 1.3740486677627471e+01 -2 2 1
3148 1 1.0156728846816426e+01 2.0558638663938076e+01 1.0087237158553991e+01 -1 0 0
230 1 1.1298573362844385e+01 1.7532899937630422e+01 1.3858101350533426e+01 0 0 1
1310 1 1.0520726497093133e+01 2.0082810551850052e+01 1.2689960237547913e+01 -1 1 1
3674 1 3.1702691252194444e+00 2.2082699156199027e+01 1.3024605967692919e+01 -1 -2 0
3072 1 1.2023134019289621e+01 4.7852338439328861e+00 5.0198806502426399e+00 2 0 1
6424 1 1.1787878006447093e+01 2.4418765554403986e+01 1.0048166240260743e+01 0 1 1
2218 1 2.0457022890301602e-01 5.2228043270315085e+00 5.6915076438845853e+00 2 -1 0
184 1 4.4874345015703119e+00 2.4397321010539464e+01 6.5730608657354122e+00 2 1 0
6464 1 2.2591452856633096e+00 1.0426936269729350e+00 1.7174412594416332e+01 2 1 1
1644 1 1.9791926230985128e+00 1.3898429580221219e+00 1.9959939274665004e+01 -2 -2 1
5013 1 3.6931118246622319e+00 3.3007932423829849e+00 1.6101392595608807e+01 1 1 1
5211 1 6.6788960744484109e+00 2.5515010053031184e+00 1.7052804999218552e+01 1 -1 0
3993 1 6.6051402015167975e+00 2.5126639010748510e+00 1.9854854731639357e+01 2 2 0
283 1 8.5293820312283621e+00 4.1311159747459714e+00 1.5860032010766266e+01 2 2 0
3540 1 1.1842320720140210e+01 6.6700622876324955e-01 1.5910732473427773e+01 1 1 0
3629 1 1.0945143583245629e+01 3.3721415817153111e+00 1.6947574686615642e+01 0 0 1
513 1 1.0559686584850841e+01 3.5230217649425222e+00 1.9806184448858456e+01 1 0 1
3856 1 2.8392710140969295e+00 5.5902493777094424e+00 1.6930733738172805e+01 0 1 0
3082 1 3.0917053144974500e+00 5.9182603235482700e+00 1.9810741513330012e+01 -1 -1 1
891 2 8.6134999999999984e+00 2.3444173705848499e+01 2.6792401304658917e+01 0 0 0
3104 1 7.2736897089024364e+00 7.0928766131947425e+00 1.6684008369506682e+01 -1 0 1
3063 1 4.5916434018079517e+00 7.7278031048287890e+00 1.5936954177489731e+01 0 0 1
4890 1 7.5570251851316916e+00 6.8564696584882592e+00 1.9643509305455570e+01 -1 -1 1
6660 1 1.1620941595018111e+01 7.7610289625716904e+00 1.6496741397515013e+01 0 -2 1
563 1 1.1849071864626826e+01 8.0174584736180527e+00 1.9479172459870508e+01 1 0 1
917 2 1.1074500000000002e+01 2.3444173705848499e+01 2.6792401304658917e+01 0 0 0
4808 1 1.4637546557344903e+00 1.1029985332581289e+01 1.5873835459564306e+01 -1 -1 0
1759 1 3.7896668718797661e+00 1.0276767093744255e+01 1.6953469657887904e+01 -1 2 0
5183 1 4.1779798188363806e+00 1.0218546029398601e+01 1.9351909468149092e+01 0 -2 0
3899 1 5.7654059595405558e+00 1.2188237581051238e+01 1.6330928720405449e+01 2 -1 1
581 1 8.1881436308659712e+00 1.1381645456922099e+01 1.6924594859433491e+01 0 -2 1
6641 1 8.7246564153981740e+00 1.1403821635281574e+01 1.9757019032296064e+01 1 -1 0
5247 1 8.9014941076215344e+00 8.8251008681295602e+00 1.6016234622261170e+01 -1 2 1
329 1 2.4863669727840425e+00 1.5492247188345216e+01 1.6439390650775955e+01 0 0 0
6356 1 8.2299209321192734e-01 1.3441323964677526e+01 1.7157697854385688e+01 -2 1 1
467 1 7.6975202384583075e-01 1.3297755125893826e+01 1.9867272116824243e+01 -1 0 0
1761 1 4.9886691890886494e+00 1.4738780610027318e+01 1.7469580729876615e+01 3 4 1
1782 1 5.4308250009613355e+00 1.4488940527245713e+01 2.0218034888191248e+01 0 0 0
5166 1 1.0107530545259401e+01 1.3190774994957660e+01 1.6053148581221201e+01 -1 1 0
5159 1 9.3008411070770531e+00 1.5655695782752939e+01 1.7067851072688669e+01 2 0 0
4804 1 9.7530362589016928e+00 1.5843337784885012e+01 1.9679609831431200e+01 1 0 1
2206 1 2.0216342384686485e+00 1.8110503805933099e+01 1.7357471050187950e+01 -1 0 1
3520 1 3.7354745616889184e+00 1.9931977039207947e+01 1.6650077303634284e+01 2 -3 1
29 1 2.0910916007886740e+00 1.7699685396978285e+01 2.0159539842316850e+01 -2 -1 1
5305 1 7.0543299519655083e+00 1.6469812836474549e+01 1.6367879577562555e+01 1 -1 0
306 1 6.4619955978161947e+00 1.8900241832020107e+01 1.7446353386016636e+01 0 -1 0
3915 1 6.2229438910368833e+00 1.8687667551436910e+01 1.9989103788134340e+01 -1 3 1
3626 1 1.1089972199200995e+01 1.7540272386796058e+01 1.6427066606305925e+01 3 3 0
1425 1 1.0639079586156409e+01 2.0159324514130109e+01 1.7229895928939207e+01 -1 0 0
477 1 1.0699752100425878e+01 2.0005446902282184e+01 1.9829489875866436e+01 -1 0 0
893 2 9.8440000000000012e+00 2.4154603212086336e+01 2.6792401304658917e+01 0 0 0
2201 1 3.0428791413556211e+00 2.2467887805034128e+01 1.7443208204363213e+01 -2 -1 1
6535 1 7.4412172281431310e+00 2.3209227972274054e+01 1.7431216482554472e+01 -1 0 0
525 1 4.7993771306195626e-01 2.2817901220263977e+01 1.6225478133683740e+01 1 0 1
5538 1 7.2383291019447222e+00 2.3058145697784159e+01 2.0122077737351098e+01 -2 2 0
3003 1 8.0832219099381888e+00 2.0783710476421525e+01 1.6630321881968317e+01 1 0 1
5242 1 3.5253137964767350e-01 6.8479727518620432e+00 1.6286918271625566e+01 2 1 0
1432 1 1.9002922437627190e+00 1.7523220883360635e+00 2.3936806059708932e+01 1 2 1
6433 1 1.2506105450550660e+00 4.3892965730631621e+00 2.3056227431821299e+01 0 1 1
4989 1 4.5360261930086399e+00 6.7648100462280580e-01 2.0711169002066718e+01 -2 1 0
5412 1 1.3842155803120553e+00 4.0219083035410783e+00 2.0467009737513354e+01 1 -1 0
423 1 4.3448954977855951e+00 7.5579559326333479e-01 2.3611185678833426e+01 -3 -1 1
570 1 6.4089600100275419e+00 2.6610586301668850e+00 2.4397503137558179e+01 0 -1 1
1544 1 8.7942224986688764e+00 1.6525249621239146e+00 2.0487810534458163e+01 0 1 1
5606 1 8.6817634212968429e+00 1.4823201100546504e+00 2.3497861954538116e+01 -1 -1 1
176 1 1.0692248431426517e+01 3.2127287293620301e+00 2.3974140239599258e+01 0 3 0
3891 1 3.2211432987984465e+00 5.6946337093526500e+00 2.4042888620918369e+01 -1 -1 0
3457 1 2.2384189397613445e+00 8.3984181439224379e+00 2.0488565384757976e+01 0 2 0
4810 1 5.8512458970593570e+00 5.0924759699045339e+00 2.0684905449078162e+01 0 2 1
2320 1 5.6939545819596020e+00 4.9077498617885782e+00 2.3222147103898855e+01 1 0 1
4958 1 7.4877981223847776e+00 6.4984973776032939e+00 2.3931677105427450e+01 -2 1 1
1784 1 9.9987962410515436e+00 6.1434291077328504e+00 2.0691582275831578e+01 -1 1 1
3584 1 9.9289091320239535e+00 5.9144591193092326e+00 2.3277003386734371e+01 -2 -2 1
1581 1 1.1589199279208495e+01 7.8585237401445962e+00 2.3934751851216959e+01 0 1 1
5492 1 2.2587553317686666e+00 8.2395288624445691e+00 2.3240658602150127e+01 0 -1 0
2171 1 4.2029138063666878e+00 9.8438828400927214e+00 2.4019418887956764e+01 2 -1 0
5108 1 6.7508168468451766e+00 9.3769104014031548e+00 2.0158243894807967e+01 -1 -3 1
4908 1 6.6357949370444054e+00 9.0327684905205619e+00 2.3062992940858344e+01 2 -1 1
417 1 8.4592657129466708e+00 1.0878597516637203e+01 2.3556272952638075e+01 0 1 0
6689 1 1.1274564673478586e+01 1.0428036099815033e+01 2.0381040009922177e+01 1 -3 0
3458 1 1.1000870722504985e+01 1.0567322688298118e+01 2.3190142223134302e+01 0 1 0
6659 1 3.7463945790073958e+00 1.2627202712298898e+01 2.0485794620418503e+01 2 2 1
515 1 3.5374702713424964e+00 1.2548141494016795e+01 2.3414992792672230e+01 -1 3 1
4951 1 9.3320623291435656e-01 1.3423072132112571e+01 2.4322620496149089e+01 0 1 0
897 2 1.1074500000000002e+01 2.2023314693372832e+01 2.6792401304658917e+01 0 0 0
895 2 9.8440000000000012e+00 2.1312885187134999e+01 2.6792401304658917e+01 0 0 0
3046 1 5.3474498572353166e+00 1.4490162654122342e+01 2.3738520323952883e+01 3 1 1
5323 1 8.1787366993878994e+00 1.3848096916777957e+01 2.0228685452403262e+01 -2 1 0
5048 1 7.8613563936822413e+00 1.3654632871129301e+01 2.3054719109771298e+01 -1 -2 1
539 1 9.6497833952927916e+00 1.5212909037005895e+01 2.3994604943021333e+01 -1 2 0
480 1 4.9688797379859233e+00 2.3968523846091415e+01 1.6416544913270638e+01 -1 -1 1
5252 1 1.2243768326598149e+01 1.4759222446577960e+01 2.3297822334273317e+01 -2 2 0
5417 1 1.9289808275700759e+00 1.7921254342842946e+01 2.4207513957710898e+01 0 2 0
3769 1 4.3072284897071498e+00 1.6885384805729075e+01 2.3733863174609773e+01 1 -1 1
6482 1 1.2881330602673620e+00 2.0335830390664078e+01 2.0633820792164450e+01 0 -1 1
3329 1 1.3836387168607094e+00 2.0546954258319349e+01 2.3256936324648450e+01 -1 -2 1
3475 1 4.3554882925088760e+00 1.6953082259168205e+01 2.0897534285804522e+01 -1 0 1
5515 1 6.4987174596529540e+00 1.8879564324536631e+01 2.3694708129236499e+01 -1 1 0
471 1 8.8344141528092592e+00 1.8060891582642867e+01 2.0822137173506128e+01 2 -2 0
1996 1 9.0123802879156329e+00 1.7821923034566726e+01 2.3586904101017627e+01 -1 0 0
1528 1 1.1237203454596953e+01 1.9596526190034687e+01 2.4461740040214146e+01 0 2 0
5157 1 2.9970510662976046e+00 2.2292589573075993e+01 2.0263439735827863e+01 2 0 0
3284 1 3.4174402556269308e+00 2.2155078787283244e+01 2.4279310418736241e+01 2 1 0
3752 1 5.5112738703047555e+00 2.1199024819655143e+01 2.0868736743581938e+01 1 0 0
3865 1 5.8749024513028854e+00 2.1378994316413184e+01 2.3590874928348160e+01 -1 0 0
1998 1 7.7385614864364678e+00 2.3041566434315687e+01 2.4195210889217758e+01 0 0 0
821 2 6.1524999999999990e+00 2.2023314693372832e+01 2.6792401304658917e+01 0 0 0
863 2 8.6135000000000002e+00 2.2023314693372832e+01 2.6792401304658917e+01 0 0 0
3636 1 1.0026074186081875e+01 2.2156969355253189e+01 2.0945898635552879e+01 1 -2 1
6615 1 1.0351395490948025e+01 2.2294022935105975e+01 2.3917614792118371e+01 1 -1 1
618 2 0.0000000000000000e+00 2.8417180249513345e+00 2.6792401304658917e+01 0 0 0
620 2 0.0000000000000000e+00 0.0000000000000000e+00 2.6792401304658917e+01 0 0 0
622 2 1.2305000000000001e+00 7.1042950623783474e-01 2.6792401304658917e+01 0 0 0
629 2 1.2305000000000001e+00 2.1312885187134998e+00 2.6792401304658917e+01 0 0 0
631 2 2.4610000000000003e+00 2.8417180249513345e+00 2.6792401304658917e+01 0 0 0
633 2 2.4610000000000003e+00 0.0000000000000000e+00 2.6792401304658917e+01 0 0 0
635 2 3.6915000000000004e+00 7.1042950623783474e-01 2.6792401304658917e+01 0 0 0
650 2 3.6914999999999996e+00 2.1312885187134998e+00 2.6792401304658917e+01 0 0 0
652 2 4.9220000000000006e+00 2.8417180249513332e+00 2.6792401304658917e+01 0 0 0
654 2 4.9220000000000006e+00 0.0000000000000000e+00 2.6792401304658917e+01 0 0 0
656 2 6.1524999999999999e+00 7.1042950623783407e-01 2.6792401304658917e+01 0 0 0
679 2 6.1524999999999999e+00 2.1312885187134989e+00 2.6792401304658917e+01 0 0 0
681 2 7.3829999999999991e+00 2.8417180249513345e+00 2.6792401304658917e+01 0 0 0
683 2 7.3829999999999991e+00 0.0000000000000000e+00 2.6792401304658917e+01 0 0 0
685 2 8.6134999999999984e+00 7.1042950623783407e-01 2.6792401304658917e+01 0 0 0
716 2 8.6134999999999984e+00 2.1312885187135002e+00 2.6792401304658917e+01 0 0 0
718 2 9.8440000000000012e+00 2.8417180249513332e+00 2.6792401304658917e+01 0 0 0
720 2 9.8440000000000012e+00 0.0000000000000000e+00 2.6792401304658917e+01 0 0 0
722 2 1.1074500000000002e+01 7.1042950623783330e-01 2.6792401304658917e+01 0 0 0
761 2 1.1074500000000002e+01 2.1312885187135002e+00 2.6792401304658917e+01 0 0 0
623 2 0.0000000000000000e+00 7.1042950623783341e+00 2.6792401304658917e+01 0 0 0
625 2 0.0000000000000000e+00 4.2625770374269996e+00 2.6792401304658917e+01 0 0 0
627 2 1.2305000000000001e+00 4.9730065436648339e+00 2.6792401304658917e+01 0 0 0
642 2 1.2305000000000001e+00 6.3938655561404980e+00 2.6792401304658917e+01 0 0 0
644 2 2.4610000000000003e+00 7.1042950623783341e+00 2.6792401304658917e+01 0 0 0
646 2 2.4610000000000003e+00 4.2625770374269996e+00 2.6792401304658917e+01 0 0 0
648 2 3.6914999999999996e+00 4.9730065436648339e+00 2.6792401304658917e+01 0 0 0
671 2 3.6914999999999996e+00 6.3938655561404980e+00 2.6792401304658917e+01 0 0 0
673 2 4.9220000000000006e+00 7.1042950623783341e+00 2.6792401304658917e+01 0 0 0
675 2 4.9220000000000006e+00 4.2625770374269978e+00 2.6792401304658917e+01 0 0 0
677 2 6.1524999999999999e+00 4.9730065436648339e+00 2.6792401304658917e+01 0 0 0
708 2 6.1524999999999999e+00 6.3938655561404980e+00 2.6792401304658917e+01 0 0 0
710 2 7.3830000000000009e+00 7.1042950623783341e+00 2.6792401304658917e+01 0 0 0
712 2 7.3829999999999991e+00 4.2625770374269996e+00 2.6792401304658917e+01 0 0 0
714 2 8.6135000000000002e+00 4.9730065436648339e+00 2.6792401304658917e+01 0 0 0
753 2 8.6135000000000002e+00 6.3938655561404980e+00 2.6792401304658917e+01 0 0 0
755 2 9.8440000000000012e+00 7.1042950623783341e+00 2.6792401304658917e+01 0 0 0
757 2 9.8440000000000012e+00 4.2625770374270004e+00 2.6792401304658917e+01 0 0 0
759 2 1.1074500000000002e+01 4.9730065436648339e+00 2.6792401304658917e+01 0 0 0
800 2 1.1074500000000002e+01 6.3938655561404980e+00 2.6792401304658917e+01 0 0 0
636 2 0.0000000000000000e+00 1.1366872099805333e+01 2.6792401304658917e+01 0 0 0
638 2 0.0000000000000000e+00 8.5251540748539991e+00 2.6792401304658917e+01 0 0 0
640 2 1.2305000000000001e+00 9.2355835810918343e+00 2.6792401304658917e+01 0 0 0
663 2 1.2305000000000001e+00 1.0656442593567498e+01 2.6792401304658917e+01 0 0 0
665 2 2.4610000000000003e+00 1.1366872099805333e+01 2.6792401304658917e+01 0 0 0
667 2 2.4610000000000003e+00 8.5251540748539991e+00 2.6792401304658917e+01 0 0 0
669 2 3.6915000000000004e+00 9.2355835810918343e+00 2.6792401304658917e+01 0 0 0
700 2 3.6914999999999996e+00 1.0656442593567499e+01 2.6792401304658917e+01 0 0 0
702 2 4.9220000000000006e+00 1.1366872099805333e+01 2.6792401304658917e+01 0 0 0
704 2 4.9220000000000006e+00 8.5251540748539991e+00 2.6792401304658917e+01 0 0 0
706 2 6.1524999999999999e+00 9.2355835810918343e+00 2.6792401304658917e+01 0 0 0
745 2 6.1524999999999999e+00 1.0656442593567499e+01 2.6792401304658917e+01 0 0 0
747 2 7.3829999999999991e+00 1.1366872099805333e+01 2.6792401304658917e+01 0 0 0
749 2 7.3830000000000009e+00 8.5251540748539991e+00 2.6792401304658917e+01 0 0 0
751 2 8.6134999999999984e+00 9.2355835810918343e+00 2.6792401304658917e+01 0 0 0
792 2 8.6134999999999984e+00 1.0656442593567498e+01 2.6792401304658917e+01 0 0 0
794 2 9.8440000000000012e+00 1.1366872099805333e+01 2.6792401304658917e+01 0 0 0
796 2 9.8440000000000012e+00 8.5251540748539956e+00 2.6792401304658917e+01 0 0 0
798 2 1.1074500000000002e+01 9.2355835810918343e+00 2.6792401304658917e+01 0 0 0
839 2 1.1074500000000002e+01 1.0656442593567498e+01 2.6792401304658917e+01 0 0 0
841 2 1.2304999999999998e+01 1.1366872099805333e+01 2.6792401304658917e+01 0 0 0
657 2 0.0000000000000000e+00 1.5629449137232333e+01 2.6792401304658917e+01 0 0 0
659 2 0.0000000000000000e+00 1.2787731112280996e+01 2.6792401304658917e+01 0 0 0
661 2 1.2305000000000001e+00 1.3498160618518829e+01 2.6792401304658917e+01 0 0 0
692 2 1.2305000000000001e+00 1.4919019630994494e+01 2.6792401304658917e+01 0 0 0
694 2 2.4610000000000003e+00 1.5629449137232328e+01 2.6792401304658917e+01 0 0 0
696 2 2.4610000000000003e+00 1.2787731112280996e+01 2.6792401304658917e+01 0 0 0
698 2 3.6915000000000004e+00 1.3498160618518829e+01 2.6792401304658917e+01 0 0 0
737 2 3.6915000000000004e+00 1.4919019630994494e+01 2.6792401304658917e+01 0 0 0
739 2 4.9220000000000006e+00 1.5629449137232333e+01 2.6792401304658917e+01 0 0 0
741 2 4.9220000000000006e+00 1.2787731112280996e+01 2.6792401304658917e+01 0 0 0
743 2 6.1524999999999990e+00 1.3498160618518829e+01 2.6792401304658917e+01 0 0 0
784 2 6.1524999999999990e+00 1.4919019630994494e+01 2.6792401304658917e+01 0 0 0
786 2 7.3829999999999991e+00 1.5629449137232333e+01 2.6792401304658917e+01 0 0 0
788 2 7.3829999999999991e+00 1.2787731112280996e+01 2.6792401304658917e+01 0 0 0
790 2 8.6135000000000002e+00 1.3498160618518835e+01 2.6792401304658917e+01 0 0 0
831 2 8.6135000000000002e+00 1.4919019630994494e+01 2.6792401304658917e+01 0 0 0
833 2 9.8440000000000012e+00 1.5629449137232328e+01 2.6792401304658917e+01 0 0 0
835 2 9.8440000000000012e+00 1.2787731112280996e+01 2.6792401304658917e+01 0 0 0
837 2 1.1074500000000002e+01 1.3498160618518829e+01 2.6792401304658917e+01 0 0 0
873 2 1.1074500000000002e+01 1.4919019630994494e+01 2.6792401304658917e+01 0 0 0
686 2 0.0000000000000000e+00 1.9892026174659328e+01 2.6792401304658917e+01 0 0 0
688 2 0.0000000000000000e+00 1.7050308149707998e+01 2.6792401304658917e+01 0 0 0
690 2 1.2305000000000001e+00 1.7760737655945832e+01 2.6792401304658917e+01 0 0 0
729 2 1.2305000000000001e+00 1.9181596668421495e+01 2.6792401304658917e+01 0 0 0
731 2 2.4610000000000003e+00 1.9892026174659328e+01 2.6792401304658917e+01 0 0 0
733 2 2.4610000000000003e+00 1.7050308149707998e+01 2.6792401304658917e+01 0 0 0
735 2 3.6914999999999996e+00 1.7760737655945832e+01 2.6792401304658917e+01 0 0 0
776 2 3.6914999999999996e+00 1.9181596668421495e+01 2.6792401304658917e+01 0 0 0
778 2 4.9220000000000006e+00 1.9892026174659328e+01 2.6792401304658917e+01 0 0 0
780 2 4.9220000000000006e+00 1.7050308149707998e+01 2.6792401304658917e+01 0 0 0
782 2 6.1524999999999999e+00 1.7760737655945832e+01 2.6792401304658917e+01 0 0 0
823 2 6.1524999999999999e+00 1.9181596668421495e+01 2.6792401304658917e+01 0 0 0
825 2 7.3829999999999991e+00 1.9892026174659328e+01 2.6792401304658917e+01 0 0 0
827 2 7.3830000000000009e+00 1.7050308149707998e+01 2.6792401304658917e+01 0 0 0
829 2 8.6134999999999984e+00 1.7760737655945832e+01 2.6792401304658917e+01 0 0 0
865 2 8.6135000000000002e+00 1.9181596668421495e+01 2.6792401304658917e+01 0 0 0
867 2 9.8440000000000012e+00 1.9892026174659335e+01 2.6792401304658917e+01 0 0 0
869 2 9.8440000000000012e+00 1.7050308149707998e+01 2.6792401304658917e+01 0 0 0
871 2 1.1074500000000002e+01 1.7760737655945835e+01 2.6792401304658917e+01 0 0 0
899 2 1.1074500000000002e+01 1.9181596668421495e+01 2.6792401304658917e+01 0 0 0
903 2 1.2304999999999998e+01 1.7050308149707998e+01 2.6792401304658917e+01 0 0 0
725 2 0.0000000000000000e+00 2.1312885187134999e+01 2.6792401304658917e+01 0 0 0
774 2 3.6914999999999996e+00 2.2023314693372832e+01 2.6792401304658917e+01 0 0 0
768 2 1.2304999999999993e+00 2.3444173705848499e+01 2.6792401304658917e+01 0 0 0
772 2 2.4610000000000003e+00 2.1312885187134995e+01 2.6792401304658917e+01 0 0 0
723 2 0.0000000000000000e+00 2.4154603212086325e+01 2.6792401304658917e+01 0 0 0
815 2 3.6915000000000004e+00 2.3444173705848499e+01 2.6792401304658917e+01 0 0 0
770 2 2.4610000000000003e+00 2.4154603212086325e+01 2.6792401304658917e+01 0 0 0
727 2 1.2304999999999993e+00 2.2023314693372832e+01 2.6792401304658917e+01 0 0 0
861 2 7.3829999999999991e+00 2.1312885187134999e+01 2.6792401304658917e+01 0 0 0
817 2 4.9220000000000006e+00 2.4154603212086325e+01 2.6792401304658917e+01 0 0 0
819 2 4.9220000000000006e+00 2.1312885187134995e+01 2.6792401304658917e+01 0 0 0
859 2 7.3830000000000009e+00 2.4154603212086336e+01 2.6792401304658917e+01 0 0 0
857 2 6.1524999999999999e+00 2.3444173705848499e+01 2.6792401304658917e+01 0 0 0
379 1 1.1768561521548330e+01 2.4051303231709962e+01 2.0110456490352295e+01 1 2 0
1723 1 1.2231277049063658e+01 1.4501047079736187e+01 2.0593441463872928e+01 -2 -2 0
3712 1 1.1898687628552670e+01 2.4057970664353494e+01 1.7548853424678377e+01 0 0 0