LAMMPS data file via write_data, version 16 Mar 2018, timestep = 100000

6337 atoms
2 atom types

0.0000000000000000e+00 4.9219999999999999e+01 xlo xhi
0.0000000000000000e+00 4.9019635930410494e+01 ylo yhi
2.4671790066663668e+00 5.7594820993331396e+01 zlo zhi

Masses

1 18.015
2 12.01

Atoms # atomic

1914 1 8.7890755321273613e+00 6.1025978584347340e-01 3.3776697574820673e+00 0 2 0
6336 1 3.6423276573769696e+00 7.3527139855268697e-01 6.8095284204056110e+00 0 1 0
5191 1 9.2698634149878227e+00 8.3065871549576524e+00 4.4615728258861029e+00 -1 1 0
3066 1 4.1285297227830950e+00 3.1591109417563561e+00 5.5221597117381336e+00 0 0 0
1862 1 8.8040943887643106e+00 4.8075309769653032e+00 4.4498319339568049e+00 0 1 0
2124 1 7.2884788504653057e+00 8.5526776155734083e+00 6.6503458732075602e+00 0 1 0
5157 1 1.0797093013719263e+00 7.2857365856202332e+00 5.8377391205773552e+00 0 0 0
2982 1 5.8596068041158889e+00 5.7721192785562936e-01 8.6136620042038725e+00 0 1 0
3504 1 1.6621527588660603e+00 1.1769126475679707e+01 5.4284640965293676e+00 0 1 0
3193 1 4.0078357717852073e+00 5.5653139416828532e+00 9.1059954092298234e+00 1 0 1
4962 1 1.0936966084950639e+00 3.9537620655151922e+00 4.3772357295066655e+00 1 1 0
6252 1 9.6807652212137043e+00 1.0736392373174461e+01 3.4026590215249533e+00 0 1 1
6283 1 8.0846421888083562e+00 2.2581658905915556e+00 7.5089539348701271e+00 1 0 1
4462 1 4.2021068058062688e-01 7.8043724111094885e+00 3.1645193457578555e+00 0 0 1
6006 1 2.1161187986863119e+00 4.6691941359997600e+00 7.0551478101605678e+00 0 1 1
6163 1 7.6213006321662684e+00 6.8806718859727081e+00 2.7279268579914255e+00 1 0 0
4730 1 8.5111799267804189e-01 3.4533837775140768e+00 8.9923504170969473e+00 1 1 1
5169 1 6.7980169399881838e+00 4.0443711625386332e+00 6.0067126593619093e+00 0 1 0
5263 1 6.6267306388992440e+00 6.2627032008787573e+00 7.7753357050229441e+00 0 1 1
6029 1 5.4852809864073269e+00 1.0744974192439788e+01 7.0858712360430003e+00 1 -1 1
4759 1 2.7515973023346372e+00 9.5010003370331244e+00 7.0981188367503272e+00 2 -1 1
2019 1 2.4359648277528509e+00 1.5539963846887366e+00 3.4599554193134066e+00 0 0 0
3131 1 9.1342134722507371e+00 8.8153608076071031e+00 9.0130665897828202e+00 0 0 1
42 1 5.0983598237563221e+00 1.1991260615864327e+01 4.7905814648019103e+00 2 0 1
1275 1 2.1230300991273694e+00 1.0442661959970996e+00 9.2789626694002614e+00 1 1 1
2875 1 4.6246316436320312e+00 1.0586969203178125e+01 2.5397197302451935e+00 0 1 0
4437 1 7.3772559063294549e+00 1.0958426436402547e+01 9.3542755839469436e+00 1 1 1
4422 1 5.2111425149895778e+00 3.4604537426332436e+00 1.2684064338743370e+01 1 1 0
4895 1 8.5905036513300335e+00 1.7293001500079490e+00 1.2279000103283721e+01 1 1 0
3547 1 5.8444812248050022e+00 6.3567802832380167e+00 1.5805560784028186e+01 1 0 0
5048 1 1.7830060106916790e-02 8.4129532510667460e+00 1.4904993345654708e+01 1 0 1
4527 1 9.0702977726028724e+00 7.0508346132849304e+00 1.0721228296885480e+01 0 0 1
1986 1 7.5278107970995887e+00 4.5756294268786446e+00 1.2439372398046013e+01 1 1 0
6228 1 2.6897610557604312e+00 9.3264885906470596e+00 1.4517990069345213e+01 0 -1 1
1396 1 3.4508703860088890e+00 5.6042983378443676e+00 1.1820328451557080e+01 1 0 1
5016 1 4.5313152653229665e+00 7.4792001073915353e+00 1.3586698006772133e+01 1 1 0
6121 1 7.8248175175349726e+00 4.4457567003469718e+00 1.5342449243995210e+01 1 0 1
1806 1 3.9151910066675844e+00 1.0553733526093499e+01 1.2081122552987516e+01 0 1 0
2051 1 7.1816010517429536e+00 8.4444726711906917e+00 1.2954078528918947e+01 0 0 0
3178 1 6.7238825962264315e+00 1.0793184040445214e+01 1.2018531671574397e+01 0 1 0
4981 1 9.1193040824044882e+00 8.3498832848377109e+00 1.5331602521802100e+01 0 0 0
3741 1 4.6659174887164054e+00 3.0803979931124208e+00 1.5452293350345174e+01 -1 0 0
291 1 4.4190020501413523e+00 1.3515995628799098e+00 1.1056335685513732e+01 0 0 0
2899 1 4.3247361261805195e-01 5.2245545529785007e+00 1.1335610465566065e+01 0 0 1
2058 1 2.5758260550981489e+00 1.1992350293092151e+00 1.5204069316803617e+01 0 0 0
3320 1 5.5727711262725543e-01 8.4743551915630206e+00 9.6521374677460798e+00 0 1 1
3516 1 3.3086293799116255e+00 8.3701920877210920e+00 9.9556611338576246e+00 0 0 0
3469 1 2.4069222748387582e+00 1.2209681049007115e+01 1.0601705702941864e+01 0 -1 1
1534 1 7.9904922662416569e+00 1.0760921323738444e+01 1.6244940243568298e+01 2 1 1
1377 1 6.9678372364828336e+00 1.2241675049296642e+01 1.4131358121542135e+01 0 0 1
3371 1 8.1176035133933482e+00 4.4798265914147697e+00 9.4608916562883394e+00 0 0 0
1284 1 4.9525932821378547e+00 1.5693124391701305e+00 1.9424541432770546e+01 1 -1 0
1988 1 3.3482841229161555e+00 1.0114366355603501e+01 1.7408244574134784e+01 0 0 0
4766 1 9.3058768951279802e+00 2.5054106054340988e+00 1.8480180697767075e+01 0 1 0
3470 1 2.6625806670929864e+00 7.8904260000969639e+00 2.0917387023868056e+01 0 0 0
1577 1 2.5065119677036041e+00 3.3189504934094787e+00 1.9199349478536494e+01 0 0 0
5203 1 8.0237414521478438e+00 3.3470866782770043e+00 2.0964900588300800e+01 0 0 0
1636 1 5.5345990803024545e+00 4.2350514149722036e+00 1.9960778052586722e+01 1 1 0
3303 1 7.6162094095037047e-01 2.4929808690012236e+00 1.6902225608273145e+01 0 0 0
4599 1 6.1839612445270289e+00 1.0108337470779196e+01 1.8265212708167251e+01 0 0 1
3098 1 2.4384615682346245e+00 7.4917903645789847e+00 1.7954763902624251e+01 0 1 0
6026 1 6.9721007313588244e+00 2.0048200881872438e+00 1.6946416861653560e+01 0 1 1
5122 1 7.7572505797955662e+00 7.7355461893111714e+00 1.7665013041368518e+01 1 1 0
6046 1 6.8212156093886493e+00 6.8071594790293055e+00 2.1275048190643776e+01 0 0 0
1860 1 3.2867722045252887e+00 8.6917305166591663e-01 2.1581793629029836e+01 0 1 0
1460 1 5.5707004437844831e-01 9.7039973810325719e+00 2.1656922200715655e+01 0 0 1
4857 1 4.3578204673869397e-01 1.3995762733173351e+00 2.0197114095082028e+01 1 0 1
101 1 8.3299262377950107e+00 1.0129481351651975e+01 2.1296286938494930e+01 -1 0 0
3385 1 4.0949841231805379e+00 4.4545205450054439e+00 2.2604336420532888e+01 0 0 0
1842 1 3.2710217527270933e+00 1.1403250415180349e+01 2.0513598263408490e+01 0 0 0
1542 1 9.4283785607473813e+00 1.9171659631804233e-01 2.0205415482659429e+01 0 0 1
3160 1 1.3116677814698898e+00 5.3356371461321679e+00 2.1454418462837065e+01 1 1 1
2981 1 6.8185337400128780e+00 5.7189232778526544e-01 2.1377846327052868e+01 0 0 1
3287 1 5.1087527911643553e+00 8.7718636077199310e+00 2.1516452341290751e+01 1 0 0
4867 1 6.0522744551417382e+00 1.1796486459879926e+01 2.0815022594269468e+01 1 0 0
354 1 9.3054699337301958e+00 7.6087196163247794e+00 2.0099476237226522e+01 -1 0 0
5047 1 4.1435090630761229e+00 5.2644055214720176e+00 1.7552693620438596e+01 0 1 0
208 1 1.6332158589152797e+00 1.2242131840796679e+01 1.8004993420503283e+01 0 1 0
3571 1 9.7632849367480157e-01 2.2171362033846362e+00 2.4472066796651266e+01 1 0 0
5212 1 3.9055420842596953e+00 1.9868159069398927e+00 2.4054487985600009e+01 1 1 0
2043 1 6.4310043214567338e+00 9.5565057366233852e-01 2.4062735642631321e+01 0 1 0
728 2 8.6134999999999984e+00 1.0656442593567498e+01 2.6856369378021618e+01 0 0 0
1691 1 5.9414176799586391e+00 1.2044100243650940e+01 2.3963585160488964e+01 0 0 1
1837 1 6.1114157311276029e+00 5.7633690184041795e+00 2.4369838335614077e+01 1 0 0
2104 1 7.5405581535221105e+00 3.4027710932140529e+00 2.4014347962698295e+01 -1 1 0
5190 1 8.2539762779267516e+00 7.5285968535170564e+00 2.3750273422923875e+01 0 1 0
339 1 2.1067342159939155e+00 9.9290067873283672e+00 2.4093125676869036e+01 0 0 0
30 1 2.9399192618691203e+00 7.0580891614085974e+00 2.4246448987687820e+01 0 0 0
640 2 4.9220000000000006e+00 8.5251540748539991e+00 2.6856369378021618e+01 0 0 0
296 1 5.3544267435661403e+00 8.9962073412349781e+00 2.4054282727171550e+01 0 -1 1
554 2 0.0000000000000000e+00 2.8417180249513345e+00 2.6856369378021618e+01 0 0 0
556 2 0.0000000000000000e+00 0.0000000000000000e+00 2.6856369378021618e+01 0 0 0
558 2 1.2305000000000001e+00 7.1042950623783474e-01 2.6856369378021618e+01 0 0 0
565 2 1.2305000000000001e+00 2.1312885187134998e+00 2.6856369378021618e+01 0 0 0
567 2 2.4610000000000003e+00 2.8417180249513345e+00 2.6856369378021618e+01 0 0 0
569 2 2.4610000000000003e+00 0.0000000000000000e+00 2.6856369378021618e+01 0 0 0
571 2 3.6915000000000004e+00 7.1042950623783474e-01 2.6856369378021618e+01 0 0 0
586 2 3.6914999999999996e+00 2.1312885187134998e+00 2.6856369378021618e+01 0 0 0
588 2 4.9220000000000006e+00 2.8417180249513332e+00 2.6856369378021618e+01 0 0 0
590 2 4.9220000000000006e+00 0.0000000000000000e+00 2.6856369378021618e+01 0 0 0
592 2 6.1524999999999999e+00 7.1042950623783407e-01 2.6856369378021618e+01 0 0 0
615 2 6.1524999999999999e+00 2.1312885187134989e+00 2.6856369378021618e+01 0 0 0
617 2 7.3829999999999991e+00 2.8417180249513345e+00 2.6856369378021618e+01 0 0 0
619 2 7.3829999999999991e+00 0.0000000000000000e+00 2.6856369378021618e+01 0 0 0
621 2 8.6134999999999984e+00 7.1042950623783407e-01 2.6856369378021618e+01 0 0 0
652 2 8.6134999999999984e+00 2.1312885187135002e+00 2.6856369378021618e+01 0 0 0
561 2 0.0000000000000000e+00 4.2625770374269996e+00 2.6856369378021618e+01 0 0 0
563 2 1.2305000000000001e+00 4.9730065436648339e+00 2.6856369378021618e+01 0 0 0
578 2 1.2305000000000001e+00 6.3938655561404980e+00 2.6856369378021618e+01 0 0 0
582 2 2.4610000000000003e+00 4.2625770374269996e+00 2.6856369378021618e+01 0 0 0
584 2 3.6914999999999996e+00 4.9730065436648339e+00 2.6856369378021618e+01 0 0 0
607 2 3.6914999999999996e+00 6.3938655561404980e+00 2.6856369378021618e+01 0 0 0
559 2 0.0000000000000000e+00 7.1042950623783341e+00 2.6856369378021618e+01 0 0 0
580 2 2.4610000000000003e+00 7.1042950623783341e+00 2.6856369378021618e+01 0 0 0
611 2 4.9220000000000006e+00 4.2625770374269978e+00 2.6856369378021618e+01 0 0 0
613 2 6.1524999999999999e+00 4.9730065436648339e+00 2.6856369378021618e+01 0 0 0
644 2 6.1524999999999999e+00 6.3938655561404980e+00 2.6856369378021618e+01 0 0 0
648 2 7.3829999999999991e+00 4.2625770374269996e+00 2.6856369378021618e+01 0 0 0
650 2 8.6135000000000002e+00 4.9730065436648339e+00 2.6856369378021618e+01 0 0 0
689 2 8.6135000000000002e+00 6.3938655561404980e+00 2.6856369378021618e+01 0 0 0
609 2 4.9220000000000006e+00 7.1042950623783341e+00 2.6856369378021618e+01 0 0 0
646 2 7.3830000000000009e+00 7.1042950623783341e+00 2.6856369378021618e+01 0 0 0
574 2 0.0000000000000000e+00 8.5251540748539991e+00 2.6856369378021618e+01 0 0 0
576 2 1.2305000000000001e+00 9.2355835810918343e+00 2.6856369378021618e+01 0 0 0
603 2 2.4610000000000003e+00 8.5251540748539991e+00 2.6856369378021618e+01 0 0 0
605 2 3.6915000000000004e+00 9.2355835810918343e+00 2.6856369378021618e+01 0 0 0
572 2 0.0000000000000000e+00 1.1366872099805333e+01 2.6856369378021618e+01 0 0 0
599 2 1.2305000000000001e+00 1.0656442593567498e+01 2.6856369378021618e+01 0 0 0
601 2 2.4610000000000003e+00 1.1366872099805333e+01 2.6856369378021618e+01 0 0 0
636 2 3.6914999999999996e+00 1.0656442593567499e+01 2.6856369378021618e+01 0 0 0
681 2 6.1524999999999999e+00 1.0656442593567499e+01 2.6856369378021618e+01 0 0 0
638 2 4.9220000000000006e+00 1.1366872099805333e+01 2.6856369378021618e+01 0 0 0
685 2 7.3830000000000009e+00 8.5251540748539991e+00 2.6856369378021618e+01 0 0 0
642 2 6.1524999999999999e+00 9.2355835810918343e+00 2.6856369378021618e+01 0 0 0
683 2 7.3829999999999991e+00 1.1366872099805333e+01 2.6856369378021618e+01 0 0 0
687 2 8.6134999999999984e+00 9.2355835810918343e+00 2.6856369378021618e+01 0 0 0
3402 1 8.6915754705537047e+00 1.0129826833610247e+01 2.4209969284004540e+01 -1 0 0
2037 1 7.9502025728144565e-01 5.1666662034255362e+00 2.4105156660915146e+01 1 0 0
555 2 0.0000000000000000e+00 1.4208590124756650e+00 3.0030999999998915e+01 0 0 0
557 2 0.0000000000000000e+00 0.0000000000000000e+00 3.0030999999998915e+01 0 0 0
566 2 1.2305000000000001e+00 2.1312885187134998e+00 3.0030999999998915e+01 0 0 0
568 2 2.4610000000000003e+00 1.4208590124756650e+00 3.0030999999998915e+01 0 0 0
570 2 2.4610000000000003e+00 0.0000000000000000e+00 3.0030999999998915e+01 0 0 0
587 2 3.6914999999999996e+00 2.1312885187134998e+00 3.0030999999998915e+01 0 0 0
564 2 1.2305000000000001e+00 3.5521475311891644e+00 3.0030999999998915e+01 0 0 0
585 2 3.6914999999999996e+00 3.5521475311891644e+00 3.0030999999998915e+01 0 0 0
883 2 0.0000000000000000e+00 2.8417180249513345e+00 3.3205630621976987e+01 0 0 0
884 2 0.0000000000000000e+00 0.0000000000000000e+00 3.3205630621976987e+01 0 0 0
885 2 1.2305000000000001e+00 7.1042950623783474e-01 3.3205630621976987e+01 0 0 0
889 2 1.2305000000000001e+00 2.1312885187134998e+00 3.3205630621976987e+01 0 0 0
890 2 2.4610000000000003e+00 2.8417180249513345e+00 3.3205630621976987e+01 0 0 0
891 2 2.4610000000000003e+00 0.0000000000000000e+00 3.3205630621976987e+01 0 0 0
892 2 3.6915000000000004e+00 7.1042950623783474e-01 3.3205630621976987e+01 0 0 0
900 2 3.6914999999999996e+00 2.1312885187134998e+00 3.3205630621976987e+01 0 0 0
589 2 4.9220000000000006e+00 1.4208590124756650e+00 3.0030999999998915e+01 0 0 0
591 2 4.9220000000000006e+00 0.0000000000000000e+00 3.0030999999998915e+01 0 0 0
616 2 6.1524999999999999e+00 2.1312885187134989e+00 3.0030999999998915e+01 0 0 0
618 2 7.3829999999999991e+00 1.4208590124756659e+00 3.0030999999998915e+01 0 0 0
620 2 7.3829999999999991e+00 0.0000000000000000e+00 3.0030999999998915e+01 0 0 0
653 2 8.6134999999999984e+00 2.1312885187135002e+00 3.0030999999998915e+01 0 0 0
614 2 6.1524999999999999e+00 3.5521475311891644e+00 3.0030999999998915e+01 0 0 0
651 2 8.6134999999999984e+00 3.5521475311891657e+00 3.0030999999998915e+01 0 0 0
901 2 4.9220000000000006e+00 2.8417180249513332e+00 3.3205630621976987e+01 0 0 0
902 2 4.9220000000000006e+00 0.0000000000000000e+00 3.3205630621976987e+01 0 0 0
903 2 6.1524999999999999e+00 7.1042950623783407e-01 3.3205630621976987e+01 0 0 0
915 2 6.1524999999999999e+00 2.1312885187134989e+00 3.3205630621976987e+01 0 0 0
916 2 7.3829999999999991e+00 2.8417180249513345e+00 3.3205630621976987e+01 0 0 0
917 2 7.3829999999999991e+00 0.0000000000000000e+00 3.3205630621976987e+01 0 0 0
918 2 8.6134999999999984e+00 7.1042950623783407e-01 3.3205630621976987e+01 0 0 0
934 2 8.6134999999999984e+00 2.1312885187135002e+00 3.3205630621976987e+01 0 0 0
560 2 0.0000000000000000e+00 5.6834360499026637e+00 3.0030999999998915e+01 0 0 0
562 2 0.0000000000000000e+00 4.2625770374269996e+00 3.0030999999998915e+01 0 0 0
579 2 1.2305000000000001e+00 6.3938655561404980e+00 3.0030999999998915e+01 0 0 0
581 2 2.4610000000000003e+00 5.6834360499026637e+00 3.0030999999998915e+01 0 0 0
583 2 2.4610000000000003e+00 4.2625770374269996e+00 3.0030999999998915e+01 0 0 0
608 2 3.6914999999999996e+00 6.3938655561404980e+00 3.0030999999998915e+01 0 0 0
577 2 1.2305000000000001e+00 7.8147245686161639e+00 3.0030999999998915e+01 0 0 0
606 2 3.6914999999999996e+00 7.8147245686161639e+00 3.0030999999998915e+01 0 0 0
887 2 0.0000000000000000e+00 4.2625770374269996e+00 3.3205630621976987e+01 0 0 0
888 2 1.2305000000000001e+00 4.9730065436648339e+00 3.3205630621976987e+01 0 0 0
896 2 1.2305000000000001e+00 6.3938655561404980e+00 3.3205630621976987e+01 0 0 0
898 2 2.4610000000000003e+00 4.2625770374269996e+00 3.3205630621976987e+01 0 0 0
899 2 3.6914999999999996e+00 4.9730065436648339e+00 3.3205630621976987e+01 0 0 0
911 2 3.6914999999999996e+00 6.3938655561404980e+00 3.3205630621976987e+01 0 0 0
886 2 0.0000000000000000e+00 7.1042950623783341e+00 3.3205630621976987e+01 0 0 0
897 2 2.4610000000000003e+00 7.1042950623783341e+00 3.3205630621976987e+01 0 0 0
610 2 4.9220000000000006e+00 5.6834360499026637e+00 3.0030999999998915e+01 0 0 0
612 2 4.9220000000000006e+00 4.2625770374269978e+00 3.0030999999998915e+01 0 0 0
645 2 6.1524999999999999e+00 6.3938655561404980e+00 3.0030999999998915e+01 0 0 0
647 2 7.3829999999999991e+00 5.6834360499026637e+00 3.0030999999998915e+01 0 0 0
649 2 7.3829999999999991e+00 4.2625770374269996e+00 3.0030999999998915e+01 0 0 0
690 2 8.6135000000000002e+00 6.3938655561404980e+00 3.0030999999998915e+01 0 0 0
643 2 6.1524999999999999e+00 7.8147245686161639e+00 3.0030999999998915e+01 0 0 0
688 2 8.6135000000000002e+00 7.8147245686161639e+00 3.0030999999998915e+01 0 0 0
913 2 4.9220000000000006e+00 4.2625770374269978e+00 3.3205630621976987e+01 0 0 0
914 2 6.1524999999999999e+00 4.9730065436648339e+00 3.3205630621976987e+01 0 0 0
930 2 6.1524999999999999e+00 6.3938655561404980e+00 3.3205630621976987e+01 0 0 0
932 2 7.3829999999999991e+00 4.2625770374269996e+00 3.3205630621976987e+01 0 0 0
933 2 8.6135000000000002e+00 4.9730065436648339e+00 3.3205630621976987e+01 0 0 0
953 2 8.6135000000000002e+00 6.3938655561404980e+00 3.3205630621976987e+01 0 0 0
912 2 4.9220000000000006e+00 7.1042950623783341e+00 3.3205630621976987e+01 0 0 0
931 2 7.3830000000000009e+00 7.1042950623783341e+00 3.3205630621976987e+01 0 0 0
573 2 0.0000000000000000e+00 9.9460130873296642e+00 3.0030999999998915e+01 0 0 0
575 2 0.0000000000000000e+00 8.5251540748539991e+00 3.0030999999998915e+01 0 0 0
602 2 2.4610000000000003e+00 9.9460130873296642e+00 3.0030999999998915e+01 0 0 0
604 2 2.4610000000000003e+00 8.5251540748539991e+00 3.0030999999998915e+01 0 0 0
598 2 1.2305000000000001e+00 1.2077301606043163e+01 3.0030999999998915e+01 0 0 0
600 2 1.2305000000000001e+00 1.0656442593567498e+01 3.0030999999998915e+01 0 0 0
635 2 3.6914999999999996e+00 1.2077301606043163e+01 3.0030999999998915e+01 0 0 0
637 2 3.6914999999999996e+00 1.0656442593567499e+01 3.0030999999998915e+01 0 0 0
894 2 0.0000000000000000e+00 8.5251540748539991e+00 3.3205630621976987e+01 0 0 0
895 2 1.2305000000000001e+00 9.2355835810918343e+00 3.3205630621976987e+01 0 0 0
909 2 2.4610000000000003e+00 8.5251540748539991e+00 3.3205630621976987e+01 0 0 0
910 2 3.6915000000000004e+00 9.2355835810918343e+00 3.3205630621976987e+01 0 0 0
893 2 0.0000000000000000e+00 1.1366872099805333e+01 3.3205630621976987e+01 0 0 0
907 2 1.2305000000000001e+00 1.0656442593567498e+01 3.3205630621976987e+01 0 0 0
908 2 2.4610000000000003e+00 1.1366872099805333e+01 3.3205630621976987e+01 0 0 0
926 2 3.6914999999999996e+00 1.0656442593567499e+01 3.3205630621976987e+01 0 0 0
639 2 4.9220000000000006e+00 9.9460130873296642e+00 3.0030999999998915e+01 0 0 0
641 2 4.9220000000000006e+00 8.5251540748539991e+00 3.0030999999998915e+01 0 0 0
684 2 7.3830000000000009e+00 9.9460130873296642e+00 3.0030999999998915e+01 0 0 0
686 2 7.3830000000000009e+00 8.5251540748539991e+00 3.0030999999998915e+01 0 0 0
680 2 6.1524999999999999e+00 1.2077301606043163e+01 3.0030999999998915e+01 0 0 0
682 2 6.1524999999999999e+00 1.0656442593567499e+01 3.0030999999998915e+01 0 0 0
727 2 8.6135000000000002e+00 1.2077301606043163e+01 3.0030999999998915e+01 0 0 0
729 2 8.6134999999999984e+00 1.0656442593567498e+01 3.0030999999998915e+01 0 0 0
928 2 4.9220000000000006e+00 8.5251540748539991e+00 3.3205630621976987e+01 0 0 0
929 2 6.1524999999999999e+00 9.2355835810918343e+00 3.3205630621976987e+01 0 0 0
951 2 7.3830000000000009e+00 8.5251540748539991e+00 3.3205630621976987e+01 0 0 0
952 2 8.6134999999999984e+00 9.2355835810918343e+00 3.3205630621976987e+01 0 0 0
927 2 4.9220000000000006e+00 1.1366872099805333e+01 3.3205630621976987e+01 0 0 0
949 2 6.1524999999999999e+00 1.0656442593567499e+01 3.3205630621976987e+01 0 0 0
950 2 7.3829999999999991e+00 1.1366872099805333e+01 3.3205630621976987e+01 0 0 0
973 2 8.6134999999999984e+00 1.0656442593567498e+01 3.3205630621976987e+01 0 0 0
3647 1 7.8768061283901547e+00 1.1327291642686871e+01 3.6285273846835821e+01 0 1 0
1703 1 6.0432801133998728e+00 2.8372047341705628e+00 3.5698560196740459e+01 -1 1 -1
1761 1 9.4644823820718411e+00 6.2894698905128257e+00 3.6087002850981037e+01 0 1 0
523 1 4.6151441305845307e+00 7.8198776689241143e+00 3.5658489303386418e+01 0 0 0
1413 1 2.2426487244498268e+00 6.3022644029136616e+00 3.5698920386709688e+01 0 0 0
2003 1 6.6188005013855316e+00 5.7643434795105168e+00 3.6149399985590676e+01 0 0 0
4426 1 6.1533586355712111e-01 4.0441416870181461e+00 3.6254086286553928e+01 -1 1 0
1606 1 1.6088718568907623e+00 1.0614937655008083e+01 3.5730395454508525e+01 0 0 -1
2851 1 4.8321768294800096e+00 1.0768887558154670e+01 3.5774582153836349e+01 0 1 0
4801 1 3.8036699472800470e+00 8.1202034201552853e-01 3.5871742155960007e+01 1 1 -1
3609 1 8.8009919611493270e+00 1.7682147010794325e+00 3.5610725191287003e+01 0 0 -1
6109 1 3.2132474074663114e-01 8.0871013587515677e+00 3.6129424962103400e+01 1 0 0
2843 1 9.8132228010323352e-01 1.2395998194641373e+00 3.5546695247841370e+01 0 0 0
4879 1 3.2739834954078892e+00 1.3187646023203592e+00 3.8549506824850795e+01 1 0 -1
3167 1 1.7673533765480596e+00 1.2141188406462469e+01 4.2605857611446481e+01 0 1 0
4491 1 9.1094282564562459e+00 9.3689502394205793e+00 3.7904476141584126e+01 1 0 0
6329 1 4.9950859742102995e+00 3.6840497974163378e+00 3.8358771577554194e+01 0 0 0
3687 1 4.2487466778757399e-01 9.0123336699685801e+00 4.2769679094776535e+01 0 0 0
1889 1 4.7950727776208968e+00 8.5302064563826576e+00 3.8850274546466778e+01 0 1 -1
1331 1 7.1629959456551417e-01 7.5067138776137643e+00 3.8700423578377624e+01 0 1 0
2169 1 7.4432252878736547e+00 7.2076429453697628e+00 3.8690000376353424e+01 0 1 0
5986 1 1.0172621400560857e+00 9.8775480861632250e+00 4.0174537200877211e+01 1 1 0
4729 1 3.1467871743213056e+00 1.1183473370806615e+01 3.8308191011119945e+01 1 1 0
1246 1 2.5309103039924898e+00 5.8283210270058357e+00 4.0820723232039171e+01 0 0 0
6024 1 8.5504460797855071e+00 1.0417474564974096e+01 4.0982856039047050e+01 0 0 0
1751 1 5.4098369267363120e+00 8.1480725907994938e+00 4.3004089646965724e+01 0 0 -1
4875 1 5.1180041566380519e+00 7.5499801790722476e-01 4.0946977336214943e+01 1 0 0
492 1 5.7614866547305912e+00 3.0515625263320554e+00 4.2355534264472354e+01 0 0 0
455 1 7.0386678315597040e+00 4.3314436718229885e+00 4.0446380361584175e+01 1 0 0
6028 1 9.7345474059652428e+00 6.5239061217544965e+00 4.3062150600422427e+01 1 0 -1
6111 1 3.5008759834478340e+00 5.9770390184990863e+00 3.8355089197619193e+01 1 1 0
2132 1 3.5352519882937012e+00 8.6475953845181142e+00 4.1169997654255994e+01 1 1 0
6195 1 7.5125959015344383e+00 7.5588886723514932e+00 4.1591561548068796e+01 -1 1 0
4755 1 8.4901134911987775e-01 2.5827211187550230e+00 3.8803025258130148e+01 1 1 -1
6314 1 2.3412846427610132e-01 4.1876427323609944e+00 4.1107184157964326e+01 0 1 0
5236 1 3.5209868567562466e+00 4.3971900083407949e+00 4.3194233607385286e+01 1 0 0
1687 1 8.2824791697144153e+00 2.7334898369533582e+00 4.3740048286530168e+01 0 0 0
2010 1 2.5422611484358630e+00 3.3219646784123684e+00 4.6223353318490879e+01 0 0 -1
6310 1 5.5355731715294452e+00 6.1733348661463978e+00 4.7329503632436897e+01 1 1 -1
1762 1 4.9251354127261848e+00 2.2924750277492238e+00 4.8686714412995613e+01 0 0 -1
1616 1 5.2082803506268327e+00 2.4247825252986730e+00 4.5489788734902291e+01 1 0 0
56 1 5.3353943501885759e+00 6.8803454790855660e+00 5.0113588368251982e+01 0 1 0
1238 1 6.7224043454056472e+00 1.1184418255388896e-01 4.6160314366210130e+01 0 0 0
3214 1 2.3932443027013171e+00 1.0357815035253354e+01 4.9494457366646770e+01 0 0 -1
3500 1 1.9769268890286156e+00 7.8720398470793889e+00 4.5180238844440595e+01 0 0 -1
2844 1 4.1627344674379287e+00 6.4700029150916949e+00 4.4716393527442136e+01 0 0 0
3736 1 5.1495841941101785e+00 9.7467235415588842e+00 4.9959339010521816e+01 1 0 0
3345 1 9.7288655784682678e+00 1.0271999352673872e+01 4.6835643762869864e+01 1 -1 -1
2150 1 6.1234532582724119e+00 9.3389517336446257e+00 4.7502008836883320e+01 0 1 0
1271 1 3.1500582295525277e+00 9.8654643542557441e+00 4.6545814602079901e+01 0 0 0
4894 1 1.3733510234054991e+00 7.5577311437887618e+00 5.0069417161001539e+01 1 1 0
4679 1 6.6250534791680389e+00 1.2254435894559714e+01 4.8949161349387722e+01 1 1 0
2956 1 6.7349455851236071e+00 1.1698058425223284e+01 4.6065377629858233e+01 0 1 0
2894 1 7.3735127718094091e+00 4.2626182652213398e+00 4.6300869691261596e+01 1 0 0
4936 1 8.5512013926193386e+00 7.9605620678289313e+00 4.7754204885263846e+01 1 1 -1
5239 1 2.3671119735548429e+00 1.2203853111527051e+01 4.5483538468231643e+01 0 1 0
1653 1 3.1639327945253903e+00 4.7289874241552861e+00 4.8385392047407521e+01 0 0 -1
3146 1 9.5726527709213443e+00 1.2166716647830869e+01 4.8942809320481018e+01 0 0 0
3731 1 9.4409141476630740e+00 6.3169996034426354e+00 4.5783282724339813e+01 1 0 0
4885 1 2.0274576796761989e+00 1.9723432549775786e+00 5.0106822124091551e+01 1 1 -1
1754 1 7.9613802887409291e+00 2.2860233762006601e+00 4.8096843889748641e+01 0 0 -1
1273 1 9.5608991844561171e+00 1.0326990437471490e+00 5.0204872379558125e+01 1 0 0
1276 1 2.5055900722337887e-01 5.7073846956647962e+00 4.8547228460544034e+01 1 1 0
3351 1 6.4818490880453805e-01 3.5582018995952840e+00 4.3880568756676738e+01 0 1 -1
473 1 6.7550663797473001e-02 1.3822423271447200e+00 4.5876814034456743e+01 0 0 0
5043 1 8.8722654186940595e+00 7.9403210283821544e+00 5.0600663364793803e+01 0 1 -1
6217 1 4.9919918165928561e+00 1.0557337213280885e+01 4.4065588036846393e+01 1 1 0
4988 1 1.4853377853624852e+00 3.8030067392943789e+00 5.2374635335817771e+01 0 1 -1
187 1 2.6209916697569469e+00 2.3190453396442909e+00 5.4474283625733705e+01 1 2 -1
425 1 7.6121889298549679e+00 1.8943855857208838e+00 5.2937990063042420e+01 0 1 -1
3465 1 3.0092147211850695e+00 5.8547414672314861e+00 5.1379257898194211e+01 0 0 -1
2940 1 5.7414496151352221e+00 9.7767010977719926e-01 5.1162079805338777e+01 0 1 0
5240 1 6.5005798438378868e+00 4.2102309278866317e+00 5.3860390194795343e+01 0 -1 0
2127 1 8.4881180207231175e+00 8.2437728399442101e+00 5.5524362602899785e+01 1 1 0
4958 1 4.9185740679619805e+00 7.7511145430510640e+00 5.7079273968623724e+01 0 0 -1
3072 1 6.2376692191162784e+00 1.0649809800755698e+01 5.2357733464338708e+01 1 0 0
4577 1 2.1049282340784026e+00 9.8040187922695878e+00 5.4352546606017270e+01 0 1 0
525 1 4.8563116136482369e+00 1.7473798070039908e+00 5.7472272696551727e+01 0 0 0
6150 1 3.3374708383701783e+00 7.4397880261169655e+00 5.3678195252583166e+01 1 0 -1
3521 1 8.9617532054432747e+00 1.0926040611092324e+01 5.1121646220443822e+01 1 2 -1
3499 1 4.1690986909613209e-01 5.4061675245074792e+00 5.6951599186251059e+01 0 1 -1
4552 1 3.6474864897658015e+00 1.1844050139961647e+01 5.3221092877167493e+01 1 1 0
3073 1 6.9352688987952078e+00 6.5908117363011902e+00 5.2315349900994107e+01 0 0 0
5185 1 8.4553996223921963e+00 4.8046834751572387e+00 5.5741931247514515e+01 1 1 -1
142 1 6.0614713471110448e+00 8.4094860944235208e+00 5.4208421117768864e+01 0 1 -1
1609 1 6.9247158158112887e-01 1.3317266334258129e+00 5.6076071783655280e+01 0 1 0
4677 1 4.2639017363049119e+00 3.7663453314494477e+00 5.5744684704354441e+01 0 -1 0
3028 1 2.9729041584788622e+00 6.0423134240938356e+00 5.6036237674323743e+01 0 1 0
5183 1 7.3218558323694589e+00 2.8458204094446931e+00 5.7386101464674809e+01 1 0 0
6275 1 8.9971810990969399e+00 1.0747973074209771e+01 5.5761963057023365e+01 0 0 0
3209 1 4.0125428025226073e+00 1.5747055184852504e-01 5.3225230505357928e+01 1 1 -1
6300 1 1.9089208192775911e+00 9.9220898381064870e+00 5.7053278897728461e+01 1 0 0
3208 1 7.7671095620546344e+00 5.0236401287025634e-01 5.5239739175040313e+01 0 1 -1
4852 1 3.9242595150766868e+00 1.4569498142748772e+01 4.5346562103612147e+00 1 -1 0
5138 1 1.6479529645726296e+00 1.7104988631108217e+01 7.4200614925044155e+00 0 1 0
4786 1 6.3988524939014857e+00 1.6312868831152219e+01 4.0486417907126491e+00 0 1 0
3288 1 7.6722535514441086e+00 2.3911892330501672e+01 6.1191465234392988e+00 0 0 0
3260 1 3.1871547491248204e+00 1.7250904980723131e+01 4.9229816591656119e+00 1 1 1
4609 1 7.7050519627768681e+00 1.7300155998078875e+01 6.0909472734179477e+00 1 0 1
1736 1 7.9020821383411652e+00 1.3203308630433588e+01 7.8619992172163036e+00 1 1 0
6337 1 1.8850966816131340e+00 2.3649296250253318e+01 3.7364979058049066e+00 0 0 1
2034 1 5.6859690684124393e+00 1.9419036590736752e+01 4.9960642578139147e+00 0 1 1
6316 1 8.7224949281549193e+00 2.1552807120966126e+01 5.8294031816498393e+00 1 0 0
5114 1 2.2313390004608427e+00 1.9949106323088490e+01 7.1540464028961637e+00 0 -1 0
52 1 4.4987134316816553e+00 1.2923811445020918e+01 8.7543990791467436e+00 0 1 1
1724 1 1.4591870573800378e+00 2.0903789612815284e+01 4.6533965595433457e+00 0 0 0
3061 1 2.4303874411317161e+00 1.4089407534805241e+01 6.9491777446017506e+00 0 0 1
5983 1 6.3514431856043627e+00 2.4024386815363382e+01 3.2980925878780254e+00 0 0 0
1360 1 2.3587757852851574e+00 1.9062678156043447e+01 2.6919452451678807e+00 0 1 1
4683 1 4.7297508571385878e+00 2.0653030643041195e+01 7.4329239655145285e+00 0 0 1
2110 1 6.1068736437698012e+00 1.5037443884397796e+01 7.4834733924505636e+00 1 -1 0
3706 1 7.3764654380260719e+00 2.1367102847926848e+01 3.5389220592185442e+00 0 1 1
2014 1 8.0990360657836877e+00 1.9377419628085271e+01 8.1958536445691390e+00 0 -1 0
4421 1 5.7078411015468493e+00 2.3346635317519759e+01 7.9720122148958907e+00 0 1 1
3272 1 2.9752158478922506e+00 2.3929202021878538e+01 8.3112808015196613e+00 0 -1 1
5992 1 7.6060764008134827e+00 1.2490618765583912e+01 3.8008906353653589e+00 0 1 1
4870 1 1.0174677371160379e+00 1.2414742805134839e+01 2.8346132649174107e+00 1 0 0
3492 1 9.4405035195922800e+00 1.3526441238733629e+01 5.4961885564172963e+00 1 0 0
1774 1 8.6897398032773250e+00 2.2222653130830174e+01 9.2972783140550028e+00 0 0 0
1672 1 1.5309068523902327e+00 1.4117043038366184e+01 1.2574587206080023e+01 0 1 1
1815 1 5.6003798397687827e+00 1.9121676592403684e+01 9.6194282353508793e+00 0 0 0
2836 1 8.4582607306833655e+00 2.4228742632726131e+01 1.4804870986565787e+01 0 0 1
3392 1 4.6592850448819219e+00 2.1752610280565200e+01 1.4609874896312016e+01 0 -1 0
1723 1 3.8083309682876001e+00 2.4393528730411862e+01 1.4678902989271963e+01 0 0 1
4484 1 7.0022695192232245e+00 1.6329046649875576e+01 1.3301182647115713e+01 0 1 1
334 1 1.0521808682305485e+00 2.0986964801503255e+01 1.5050995160622104e+01 0 -1 0
257 1 5.8600609199836393e+00 2.0740787822042218e+01 1.2117935528957323e+01 0 1 0
6277 1 8.6892229306194988e+00 1.3794629183794100e+01 1.2766492826021032e+01 0 1 0
4931 1 2.8052786761711013e+00 1.9974335006936048e+01 1.1426525181501484e+01 0 0 0