LAMMPS data file via write_data, version 16 Mar 2018, timestep = 6000000

6337 atoms
2 atom types

0.0000000000000000e+00 4.9219999999999999e+01 xlo xhi
0.0000000000000000e+00 4.9019635930410494e+01 ylo yhi
1.6279881566349310e+00 5.8434011843366498e+01 zlo zhi

Masses

1 18.015
2 12.01

Atoms # atomic

255 1 1.1128067714534544e+00 3.6302899981169441e+00 4.6842346403511028e+00 -2 -3 0
4981 1 8.1740292600777540e+00 6.4036328775930214e+00 2.1688955103533694e+00 -2 0 0
6246 1 6.1343762016670880e+00 2.9803161283008088e+00 4.5560355382781932e+00 1 2 1
5995 1 3.9858932811550396e+00 6.1538377813962972e+00 1.8906860920105131e+00 4 1 1
2904 1 3.9660901972722522e+00 4.6410533781282748e+00 4.4255128748825658e+00 0 3 1
2029 1 1.1235125633822551e+00 9.9344575120997671e+00 6.0076121412310286e+00 0 0 1
1682 1 8.2315401353118229e+00 4.7847451914137293e+00 4.5854790980604143e+00 -1 -4 0
3012 1 3.6198498674886563e+00 8.6817793992395647e+00 2.6297484048261208e+00 0 1 0
277 1 7.9659221380933065e+00 9.1084352764576515e+00 5.5713081817136896e+00 -1 0 0
2114 1 7.8639907108815539e+00 9.2274573287176498e+00 2.7317289758162113e+00 1 -1 1
1427 1 1.5417585004369179e+00 1.0242037229898073e+00 6.0490939676956881e+00 1 0 0
6178 1 3.5281704789122230e+00 8.8114129398853223e+00 5.5018530126966105e+00 2 0 1
6238 1 6.1501687773629747e+00 1.1929317527916554e+00 6.4040224712057743e+00 0 -1 1
1503 1 4.6786172482261890e+00 6.3242366512828330e+00 6.4373281648520795e+00 1 -2 1
5201 1 7.3008632328285428e+00 6.5388548325073685e+00 6.4981613302409587e+00 2 3 1
6116 1 5.7383764932342523e+00 1.0183582368099302e+01 6.4569056887809166e+00 1 -1 1
1238 1 9.2272287581460344e-01 3.4139049053818118e+00 1.9629446199526452e+00 2 -2 1
322 1 5.7666891046430973e+00 1.0578230692463059e+01 1.9163373015795067e+00 1 -1 0
1255 1 5.5436586975907769e+00 2.6205611204303692e+00 1.6333054551218709e+00 0 0 0
144 1 3.7442683722830385e+00 3.1381226327445950e+00 9.5878089476141177e+00 1 0 1
1375 1 5.9184416589211013e+00 9.6503198354485633e+00 1.3705412780576721e+01 1 1 1
2012 1 8.3969240543718726e+00 3.1167055895678173e+00 9.9529404213114994e+00 3 -1 0
2112 1 5.9936034552997492e+00 1.5537982169666940e+00 9.3390374995833554e+00 0 -3 1
1541 1 1.4917646234248609e+00 7.2871947596022411e+00 9.6887854826255744e+00 0 0 1
1289 1 8.1341268019200168e+00 1.0825706857778025e+01 1.2611657514584952e+01 1 -3 0
4911 1 5.9882653615418198e+00 7.3677193468230788e+00 1.0024443666477456e+01 2 2 0
6188 1 3.9834297335776880e+00 1.0910385033290021e+01 9.7171297729126156e+00 3 -1 1
3661 1 8.1684644562067614e+00 5.8714376584178325e+00 9.0889950330969782e+00 1 -1 0
321 1 8.5934643550767511e+00 1.0911105501853877e+01 9.8188527853731618e+00 2 -2 0
223 1 3.7936434952014380e+00 5.9028147062378142e+00 8.8963425237562976e+00 3 2 0
1576 1 3.5919970126143483e+00 2.9758942328380908e+00 1.2459941042282527e+01 3 2 0
4753 1 1.5244572765145596e+00 1.6539519909526619e+00 1.3466468708817390e+01 2 2 1
2985 1 8.3629096336247351e+00 3.0684331763747337e+00 1.2758800943961804e+01 1 1 1
1309 1 6.0267966067533916e+00 1.5839773973284530e+00 1.3656763406712566e+01 -1 -1 1
1526 1 1.4436409149655136e+00 7.0633661338115319e+00 1.2529890850262497e+01 0 3 1
4907 1 3.6250958792736481e+00 5.6666824307300496e+00 1.3631962824234302e+01 -1 -3 0
3195 1 5.8315393284876649e+00 6.9631091221076460e+00 1.2781943771696117e+01 -2 -4 1
6305 1 8.0479686464319347e+00 5.9264598434207612e+00 1.3849834317718539e+01 -2 2 0
6239 1 1.4199659434903504e+00 9.8569902343170579e+00 1.3230180113658934e+01 -1 1 1
3270 1 3.7696300161089602e+00 1.1213238942768211e+01 1.2527697569400718e+01 1 -1 0
3324 1 6.3641950035532817e+00 9.6884774125475452e+00 9.0502340684596305e+00 1 0 1
3430 1 1.3927322065979879e+00 1.7650500486804594e+00 8.7404312270030005e+00 -1 0 0
169 1 1.6621020419282166e+00 9.7401090514396387e+00 8.8699078107237526e+00 3 1 0
3644 1 1.4797028122188016e+00 4.1129889364501002e+00 1.7184455677912716e+01 1 0 0
6331 1 1.5282492092996651e+00 1.4116455663539291e+00 1.6291581037385949e+01 1 4 1
3414 1 7.9676433320417610e+00 4.1850333632618386e-01 1.9802372809349531e+01 1 -1 0
5966 1 8.2596180000276682e+00 8.1893550321632027e+00 1.9883445946683011e+01 2 -1 1
3437 1 6.1295034269939084e+00 2.0011408249759217e+00 1.6625828397800468e+01 -2 3 0
2008 1 3.7378712351055592e+00 5.8046273720098380e+00 1.6351665262837958e+01 -1 1 0
2167 1 8.3322726578007025e+00 6.0136545959137360e+00 1.6576807911783401e+01 0 1 1
3705 1 5.8938237334889241e+00 4.8102913630315633e+00 1.7440844820019258e+01 3 0 1
2884 1 3.6029354374214755e+00 8.4469441673813481e+00 1.7004252743166976e+01 0 1 1
1502 1 1.3252265558542442e+00 9.9945964302962054e+00 1.5939584422790189e+01 -2 2 0
6120 1 5.7182694072721754e+00 9.7861643556256741e+00 1.6319653796282513e+01 -1 -1 0
5238 1 8.0771359347108458e+00 8.4926767087155923e+00 1.7188114552344757e+01 1 0 1
5092 1 1.4902830140301679e+00 1.4584412198303485e+00 2.0978663246758678e+01 0 -2 0
328 1 3.8070514489441720e+00 8.1067432085500482e+00 1.9767289710267104e+01 -4 0 0
6171 1 5.8550968309952411e+00 1.7845695946193916e+00 2.0682793339280106e+01 -3 -2 1
1645 1 5.9258892838754926e+00 9.4030345410238230e+00 2.0926549789075068e+01 2 2 1
3441 1 1.4847572175599928e+00 4.1470181296200845e+00 2.0034761881494696e+01 -1 1 0
2128 1 3.4285317412962013e+00 5.6623487707517670e+00 2.0969932976534153e+01 -3 0 1
5294 1 5.7814233774206167e+00 4.4120756026694412e+00 2.0237193527398073e+01 3 -2 1
3647 1 8.2417270689661351e+00 5.6281680384362716e+00 2.1172029768031980e+01 0 4 1
2039 1 1.4344120688556545e+00 9.2393459089079695e+00 2.0919277444677164e+01 3 -1 0
2139 1 3.6331071530236403e+00 2.6479291193488863e-01 1.9898490513340509e+01 1 3 1
2937 1 3.7592509954480859e+00 2.7478932161937825e-01 1.7167920416066504e+01 0 1 1
525 1 8.2644664523808267e+00 2.4394595829376189e-01 1.7102396271154028e+01 0 1 1
1839 1 6.0067766689121589e+00 1.1982450470623355e+01 1.9902001903138196e+01 2 1 0
6129 1 1.4915302143098690e+00 1.1827144432610984e+01 1.9937675043400237e+01 -1 1 1
5211 1 1.8310832725049651e+00 1.2231471038903761e+01 1.7239096189582014e+01 2 1 0
3309 1 1.2120020246878178e+00 1.2752796002407936e+00 2.3716502640984597e+01 1 1 0
161 1 1.2821595458621933e+00 3.8781641329926182e+00 2.4338832597843556e+01 -2 -1 0
681 2 6.1524999999999999e+00 1.0656442593567499e+01 2.6759716560163305e+01 0 0 0
4488 1 6.3952830056747993e+00 1.5671390920153947e+00 2.3450838393368752e+01 0 0 1
728 2 8.6134999999999984e+00 1.0656442593567498e+01 2.6759716560163305e+01 0 0 0
6275 1 3.7772668680094079e+00 5.2800404235035989e+00 2.3463712920288980e+01 -1 1 1
1290 1 6.0748974085303198e+00 4.0776102740303388e+00 2.4226007925734919e+01 2 1 1
2859 1 8.2676561504498078e+00 5.7564762444321467e+00 2.3848033803489450e+01 1 1 1
1524 1 3.1778650917589810e+00 7.8046209902712498e+00 2.4516489145372621e+01 1 0 1
3196 1 9.0690526671252258e-01 9.3204324757995209e+00 2.3609088382346219e+01 1 -1 1
2912 1 3.8288631420719188e+00 6.5225918863401089e-01 2.4112376246232497e+01 1 3 1
5138 1 7.8606793987960941e+00 8.2805261208680960e+00 2.4358524692603886e+01 0 0 0
445 1 5.6704764699678361e+00 9.2574264167915992e+00 2.3713772408192664e+01 0 -2 0
638 2 4.9220000000000006e+00 1.1366872099805333e+01 2.6759716560163305e+01 0 0 0
554 2 0.0000000000000000e+00 2.8417180249513345e+00 2.6759716560163305e+01 0 0 0
556 2 0.0000000000000000e+00 0.0000000000000000e+00 2.6759716560163305e+01 0 0 0
558 2 1.2305000000000001e+00 7.1042950623783474e-01 2.6759716560163305e+01 0 0 0
565 2 1.2305000000000001e+00 2.1312885187134998e+00 2.6759716560163305e+01 0 0 0
567 2 2.4610000000000003e+00 2.8417180249513345e+00 2.6759716560163305e+01 0 0 0
569 2 2.4610000000000003e+00 0.0000000000000000e+00 2.6759716560163305e+01 0 0 0
571 2 3.6915000000000004e+00 7.1042950623783474e-01 2.6759716560163305e+01 0 0 0
586 2 3.6914999999999996e+00 2.1312885187134998e+00 2.6759716560163305e+01 0 0 0
588 2 4.9220000000000006e+00 2.8417180249513332e+00 2.6759716560163305e+01 0 0 0
590 2 4.9220000000000006e+00 0.0000000000000000e+00 2.6759716560163305e+01 0 0 0
592 2 6.1524999999999999e+00 7.1042950623783407e-01 2.6759716560163305e+01 0 0 0
615 2 6.1524999999999999e+00 2.1312885187134989e+00 2.6759716560163305e+01 0 0 0
617 2 7.3829999999999991e+00 2.8417180249513345e+00 2.6759716560163305e+01 0 0 0
619 2 7.3829999999999991e+00 0.0000000000000000e+00 2.6759716560163305e+01 0 0 0
621 2 8.6134999999999984e+00 7.1042950623783407e-01 2.6759716560163305e+01 0 0 0
652 2 8.6134999999999984e+00 2.1312885187135002e+00 2.6759716560163305e+01 0 0 0
561 2 0.0000000000000000e+00 4.2625770374269996e+00 2.6759716560163305e+01 0 0 0
563 2 1.2305000000000001e+00 4.9730065436648339e+00 2.6759716560163305e+01 0 0 0
578 2 1.2305000000000001e+00 6.3938655561404980e+00 2.6759716560163305e+01 0 0 0
582 2 2.4610000000000003e+00 4.2625770374269996e+00 2.6759716560163305e+01 0 0 0
584 2 3.6914999999999996e+00 4.9730065436648339e+00 2.6759716560163305e+01 0 0 0
607 2 3.6914999999999996e+00 6.3938655561404980e+00 2.6759716560163305e+01 0 0 0
559 2 0.0000000000000000e+00 7.1042950623783341e+00 2.6759716560163305e+01 0 0 0
580 2 2.4610000000000003e+00 7.1042950623783341e+00 2.6759716560163305e+01 0 0 0
611 2 4.9220000000000006e+00 4.2625770374269978e+00 2.6759716560163305e+01 0 0 0
613 2 6.1524999999999999e+00 4.9730065436648339e+00 2.6759716560163305e+01 0 0 0
644 2 6.1524999999999999e+00 6.3938655561404980e+00 2.6759716560163305e+01 0 0 0
648 2 7.3829999999999991e+00 4.2625770374269996e+00 2.6759716560163305e+01 0 0 0
650 2 8.6135000000000002e+00 4.9730065436648339e+00 2.6759716560163305e+01 0 0 0
689 2 8.6135000000000002e+00 6.3938655561404980e+00 2.6759716560163305e+01 0 0 0
609 2 4.9220000000000006e+00 7.1042950623783341e+00 2.6759716560163305e+01 0 0 0
646 2 7.3830000000000009e+00 7.1042950623783341e+00 2.6759716560163305e+01 0 0 0
574 2 0.0000000000000000e+00 8.5251540748539991e+00 2.6759716560163305e+01 0 0 0
576 2 1.2305000000000001e+00 9.2355835810918343e+00 2.6759716560163305e+01 0 0 0
603 2 2.4610000000000003e+00 8.5251540748539991e+00 2.6759716560163305e+01 0 0 0
605 2 3.6915000000000004e+00 9.2355835810918343e+00 2.6759716560163305e+01 0 0 0
572 2 0.0000000000000000e+00 1.1366872099805333e+01 2.6759716560163305e+01 0 0 0
599 2 1.2305000000000001e+00 1.0656442593567498e+01 2.6759716560163305e+01 0 0 0
601 2 2.4610000000000003e+00 1.1366872099805333e+01 2.6759716560163305e+01 0 0 0
636 2 3.6914999999999996e+00 1.0656442593567499e+01 2.6759716560163305e+01 0 0 0
687 2 8.6134999999999984e+00 9.2355835810918343e+00 2.6759716560163305e+01 0 0 0
685 2 7.3830000000000009e+00 8.5251540748539991e+00 2.6759716560163305e+01 0 0 0
683 2 7.3829999999999991e+00 1.1366872099805333e+01 2.6759716560163305e+01 0 0 0
640 2 4.9220000000000006e+00 8.5251540748539991e+00 2.6759716560163305e+01 0 0 0
642 2 6.1524999999999999e+00 9.2355835810918343e+00 2.6759716560163305e+01 0 0 0
5200 1 5.5654364875980820e+00 1.1945951216359340e+01 2.4094198379310065e+01 1 -1 0
5284 1 1.4193874188245439e+00 1.2230577514778233e+01 2.4066125599893468e+01 0 -2 1
555 2 0.0000000000000000e+00 1.4208590124756650e+00 3.0031000000000752e+01 0 0 0
557 2 0.0000000000000000e+00 0.0000000000000000e+00 3.0031000000000752e+01 0 0 0
566 2 1.2305000000000001e+00 2.1312885187134998e+00 3.0031000000000752e+01 0 0 0
568 2 2.4610000000000003e+00 1.4208590124756650e+00 3.0031000000000752e+01 0 0 0
570 2 2.4610000000000003e+00 0.0000000000000000e+00 3.0031000000000752e+01 0 0 0
587 2 3.6914999999999996e+00 2.1312885187134998e+00 3.0031000000000752e+01 0 0 0
564 2 1.2305000000000001e+00 3.5521475311891644e+00 3.0031000000000752e+01 0 0 0
585 2 3.6914999999999996e+00 3.5521475311891644e+00 3.0031000000000752e+01 0 0 0
883 2 0.0000000000000000e+00 2.8417180249513345e+00 3.3302283439849695e+01 0 0 0
884 2 0.0000000000000000e+00 0.0000000000000000e+00 3.3302283439849695e+01 0 0 0
885 2 1.2305000000000001e+00 7.1042950623783474e-01 3.3302283439849695e+01 0 0 0
889 2 1.2305000000000001e+00 2.1312885187134998e+00 3.3302283439849695e+01 0 0 0
890 2 2.4610000000000003e+00 2.8417180249513345e+00 3.3302283439849695e+01 0 0 0
891 2 2.4610000000000003e+00 0.0000000000000000e+00 3.3302283439849695e+01 0 0 0
892 2 3.6915000000000004e+00 7.1042950623783474e-01 3.3302283439849695e+01 0 0 0
900 2 3.6914999999999996e+00 2.1312885187134998e+00 3.3302283439849695e+01 0 0 0
589 2 4.9220000000000006e+00 1.4208590124756650e+00 3.0031000000000752e+01 0 0 0
591 2 4.9220000000000006e+00 0.0000000000000000e+00 3.0031000000000752e+01 0 0 0
616 2 6.1524999999999999e+00 2.1312885187134989e+00 3.0031000000000752e+01 0 0 0
618 2 7.3829999999999991e+00 1.4208590124756659e+00 3.0031000000000752e+01 0 0 0
620 2 7.3829999999999991e+00 0.0000000000000000e+00 3.0031000000000752e+01 0 0 0
653 2 8.6134999999999984e+00 2.1312885187135002e+00 3.0031000000000752e+01 0 0 0
614 2 6.1524999999999999e+00 3.5521475311891644e+00 3.0031000000000752e+01 0 0 0
651 2 8.6134999999999984e+00 3.5521475311891657e+00 3.0031000000000752e+01 0 0 0
901 2 4.9220000000000006e+00 2.8417180249513332e+00 3.3302283439849695e+01 0 0 0
902 2 4.9220000000000006e+00 0.0000000000000000e+00 3.3302283439849695e+01 0 0 0
903 2 6.1524999999999999e+00 7.1042950623783407e-01 3.3302283439849695e+01 0 0 0
915 2 6.1524999999999999e+00 2.1312885187134989e+00 3.3302283439849695e+01 0 0 0
916 2 7.3829999999999991e+00 2.8417180249513345e+00 3.3302283439849695e+01 0 0 0
917 2 7.3829999999999991e+00 0.0000000000000000e+00 3.3302283439849695e+01 0 0 0
918 2 8.6134999999999984e+00 7.1042950623783407e-01 3.3302283439849695e+01 0 0 0
934 2 8.6134999999999984e+00 2.1312885187135002e+00 3.3302283439849695e+01 0 0 0
560 2 0.0000000000000000e+00 5.6834360499026637e+00 3.0031000000000752e+01 0 0 0
562 2 0.0000000000000000e+00 4.2625770374269996e+00 3.0031000000000752e+01 0 0 0
579 2 1.2305000000000001e+00 6.3938655561404980e+00 3.0031000000000752e+01 0 0 0
581 2 2.4610000000000003e+00 5.6834360499026637e+00 3.0031000000000752e+01 0 0 0
583 2 2.4610000000000003e+00 4.2625770374269996e+00 3.0031000000000752e+01 0 0 0
608 2 3.6914999999999996e+00 6.3938655561404980e+00 3.0031000000000752e+01 0 0 0
577 2 1.2305000000000001e+00 7.8147245686161639e+00 3.0031000000000752e+01 0 0 0
606 2 3.6914999999999996e+00 7.8147245686161639e+00 3.0031000000000752e+01 0 0 0
887 2 0.0000000000000000e+00 4.2625770374269996e+00 3.3302283439849695e+01 0 0 0
888 2 1.2305000000000001e+00 4.9730065436648339e+00 3.3302283439849695e+01 0 0 0
896 2 1.2305000000000001e+00 6.3938655561404980e+00 3.3302283439849695e+01 0 0 0
898 2 2.4610000000000003e+00 4.2625770374269996e+00 3.3302283439849695e+01 0 0 0
899 2 3.6914999999999996e+00 4.9730065436648339e+00 3.3302283439849695e+01 0 0 0
911 2 3.6914999999999996e+00 6.3938655561404980e+00 3.3302283439849695e+01 0 0 0
886 2 0.0000000000000000e+00 7.1042950623783341e+00 3.3302283439849695e+01 0 0 0
897 2 2.4610000000000003e+00 7.1042950623783341e+00 3.3302283439849695e+01 0 0 0
610 2 4.9220000000000006e+00 5.6834360499026637e+00 3.0031000000000752e+01 0 0 0
612 2 4.9220000000000006e+00 4.2625770374269978e+00 3.0031000000000752e+01 0 0 0
645 2 6.1524999999999999e+00 6.3938655561404980e+00 3.0031000000000752e+01 0 0 0
647 2 7.3829999999999991e+00 5.6834360499026637e+00 3.0031000000000752e+01 0 0 0
649 2 7.3829999999999991e+00 4.2625770374269996e+00 3.0031000000000752e+01 0 0 0
690 2 8.6135000000000002e+00 6.3938655561404980e+00 3.0031000000000752e+01 0 0 0
643 2 6.1524999999999999e+00 7.8147245686161639e+00 3.0031000000000752e+01 0 0 0
688 2 8.6135000000000002e+00 7.8147245686161639e+00 3.0031000000000752e+01 0 0 0
913 2 4.9220000000000006e+00 4.2625770374269978e+00 3.3302283439849695e+01 0 0 0
914 2 6.1524999999999999e+00 4.9730065436648339e+00 3.3302283439849695e+01 0 0 0
930 2 6.1524999999999999e+00 6.3938655561404980e+00 3.3302283439849695e+01 0 0 0
932 2 7.3829999999999991e+00 4.2625770374269996e+00 3.3302283439849695e+01 0 0 0
933 2 8.6135000000000002e+00 4.9730065436648339e+00 3.3302283439849695e+01 0 0 0
953 2 8.6135000000000002e+00 6.3938655561404980e+00 3.3302283439849695e+01 0 0 0
912 2 4.9220000000000006e+00 7.1042950623783341e+00 3.3302283439849695e+01 0 0 0
931 2 7.3830000000000009e+00 7.1042950623783341e+00 3.3302283439849695e+01 0 0 0
573 2 0.0000000000000000e+00 9.9460130873296642e+00 3.0031000000000752e+01 0 0 0
575 2 0.0000000000000000e+00 8.5251540748539991e+00 3.0031000000000752e+01 0 0 0
602 2 2.4610000000000003e+00 9.9460130873296642e+00 3.0031000000000752e+01 0 0 0
604 2 2.4610000000000003e+00 8.5251540748539991e+00 3.0031000000000752e+01 0 0 0
598 2 1.2305000000000001e+00 1.2077301606043163e+01 3.0031000000000752e+01 0 0 0
600 2 1.2305000000000001e+00 1.0656442593567498e+01 3.0031000000000752e+01 0 0 0
635 2 3.6914999999999996e+00 1.2077301606043163e+01 3.0031000000000752e+01 0 0 0
637 2 3.6914999999999996e+00 1.0656442593567499e+01 3.0031000000000752e+01 0 0 0
894 2 0.0000000000000000e+00 8.5251540748539991e+00 3.3302283439849695e+01 0 0 0
895 2 1.2305000000000001e+00 9.2355835810918343e+00 3.3302283439849695e+01 0 0 0
909 2 2.4610000000000003e+00 8.5251540748539991e+00 3.3302283439849695e+01 0 0 0
910 2 3.6915000000000004e+00 9.2355835810918343e+00 3.3302283439849695e+01 0 0 0
893 2 0.0000000000000000e+00 1.1366872099805333e+01 3.3302283439849695e+01 0 0 0
907 2 1.2305000000000001e+00 1.0656442593567498e+01 3.3302283439849695e+01 0 0 0
908 2 2.4610000000000003e+00 1.1366872099805333e+01 3.3302283439849695e+01 0 0 0
926 2 3.6914999999999996e+00 1.0656442593567499e+01 3.3302283439849695e+01 0 0 0
639 2 4.9220000000000006e+00 9.9460130873296642e+00 3.0031000000000752e+01 0 0 0
641 2 4.9220000000000006e+00 8.5251540748539991e+00 3.0031000000000752e+01 0 0 0
684 2 7.3830000000000009e+00 9.9460130873296642e+00 3.0031000000000752e+01 0 0 0
686 2 7.3830000000000009e+00 8.5251540748539991e+00 3.0031000000000752e+01 0 0 0
680 2 6.1524999999999999e+00 1.2077301606043163e+01 3.0031000000000752e+01 0 0 0
682 2 6.1524999999999999e+00 1.0656442593567499e+01 3.0031000000000752e+01 0 0 0
727 2 8.6135000000000002e+00 1.2077301606043163e+01 3.0031000000000752e+01 0 0 0
729 2 8.6134999999999984e+00 1.0656442593567498e+01 3.0031000000000752e+01 0 0 0
928 2 4.9220000000000006e+00 8.5251540748539991e+00 3.3302283439849695e+01 0 0 0
929 2 6.1524999999999999e+00 9.2355835810918343e+00 3.3302283439849695e+01 0 0 0
951 2 7.3830000000000009e+00 8.5251540748539991e+00 3.3302283439849695e+01 0 0 0
952 2 8.6134999999999984e+00 9.2355835810918343e+00 3.3302283439849695e+01 0 0 0
927 2 4.9220000000000006e+00 1.1366872099805333e+01 3.3302283439849695e+01 0 0 0
949 2 6.1524999999999999e+00 1.0656442593567499e+01 3.3302283439849695e+01 0 0 0
950 2 7.3829999999999991e+00 1.1366872099805333e+01 3.3302283439849695e+01 0 0 0
973 2 8.6134999999999984e+00 1.0656442593567498e+01 3.3302283439849695e+01 0 0 0
299 1 3.8658922955673818e+00 3.3947864637345821e+00 3.6459628781218200e+01 1 2 -1
4684 1 1.7691739531175530e+00 1.8594156782842328e+00 3.5921521917560185e+01 -1 -1 0
1331 1 5.9543245429034197e+00 2.2396655752199326e+00 3.5815983585469041e+01 2 2 0
2858 1 8.1137882052163288e+00 3.4546710244456973e+00 3.6346840657051047e+01 1 2 0
1479 1 4.0158489547360139e+00 6.1644248763463843e+00 3.6108474909530628e+01 -1 0 0
3561 1 1.4485664744968128e+00 7.4473434207060798e+00 3.6620188880850932e+01 2 0 0
4922 1 8.3852883184325524e+00 6.0406338282452463e+00 3.5769439143617646e+01 0 1 -1
4993 1 6.4138731247045504e+00 7.6647933783781008e+00 3.6680871713566546e+01 3 -3 -1
2945 1 1.4466590054436808e+00 1.0158121341267876e+01 3.5990800854336939e+01 -1 -1 -1
1445 1 3.7224266111366093e+00 1.1600311937382047e+01 3.6493075528470698e+01 2 4 0
2897 1 8.3462816879566351e+00 1.1517135938211851e+01 3.6397779004771863e+01 -1 0 0
3340 1 6.1493396695185041e+00 1.0271607989557214e+01 3.5736640699566706e+01 1 0 -1
4739 1 1.6528700802871621e+00 1.8752025622579260e+00 3.9822552992601715e+01 -2 2 0
2877 1 3.5926036373754240e+00 3.5128580040697752e+00 3.9149091332655971e+01 -3 0 0
4828 1 5.9913256439817211e+00 2.0271158131421281e+00 3.9720229399953539e+01 2 -1 -1
451 1 8.2306960334699681e+00 3.4516507187195917e+00 3.9067921141714976e+01 0 1 0
6080 1 1.5224089737655040e+00 7.2145648240619789e+00 3.9267622986448259e+01 1 2 0
6181 1 3.8150367884514118e+00 6.0877344612803093e+00 4.0283904218584709e+01 0 2 0
4479 1 6.0604319011896379e+00 7.7253107240486178e+00 3.9636382938523866e+01 -1 0 0
1475 1 8.3689187522546273e+00 6.0535253136565315e+00 4.0403185761827160e+01 -1 2 0
4509 1 4.0602476716683134e+00 1.1875638319659449e+01 3.9372256096183278e+01 3 0 -1
1340 1 1.5253648838533260e+00 9.9433847010958907e+00 4.0151582768927312e+01 3 -2 0
3190 1 8.1214905436432918e+00 1.1500649576858692e+01 3.9203846547997500e+01 0 1 0
6283 1 5.9753138707241273e+00 1.0350622724560266e+01 4.0473318653729564e+01 3 4 0
6062 1 1.2747126720405559e+00 1.3781220723669481e+00 4.2523421435243094e+01 1 1 0
3303 1 3.4061162316841944e+00 2.9835370062639144e+00 4.3792879499590398e+01 -2 2 -1
2883 1 5.5742942690284565e+00 1.7538213840695849e+00 4.2617468666609739e+01 1 1 0
518 1 7.9296135629964306e+00 2.8567556430330114e+00 4.3639455052678755e+01 -1 1 -1
2880 1 3.6669990604282159e+00 5.7835397902060581e+00 4.3174717251125330e+01 4 1 0
335 1 3.9397855343818495e+00 1.1167837058487862e+01 4.4011668632913839e+01 -1 2 -1
6105 1 7.9817008762567108e+00 5.6491511205649365e+00 4.2981056058414012e+01 0 0 0
3359 1 6.2131753905330571e+00 9.9924627421585548e+00 4.2989318160480224e+01 1 2 -1
397 1 1.6285668834182512e+00 1.0007470728555289e+01 4.2970555313783223e+01 1 -3 -1
4694 1 5.8192017351571517e+00 7.2678005728175821e+00 4.3898998792724583e+01 -2 0 0
1657 1 1.3916734306523095e+00 7.2907666057375975e+00 4.3747286904246295e+01 1 2 -1
3366 1 8.2574727138841446e+00 1.1318693113653579e+01 4.3858621545646216e+01 -1 -1 -1
3396 1 3.4390627040921187e+00 2.7944986011689501e+00 4.6510454464735332e+01 1 -2 -1
6112 1 3.7020998427378977e+00 4.9274327169666776e+00 5.1113538192948610e+01 -1 0 -1
4755 1 6.1096891088965517e+00 1.2052121220437849e+01 4.8048373197627598e+01 4 1 -1
1628 1 8.0618730641674592e+00 2.6028255987413469e+00 4.6395824948481035e+01 1 -1 -1
4748 1 1.1514833884161870e+00 4.1624041230102700e+00 4.7503642382831771e+01 -2 -1 0
6265 1 1.5769907134194749e+00 6.7474025345612674e+00 4.6479402402718136e+01 1 1 -1
4519 1 3.7408633964731020e+00 8.1499330367948897e+00 4.7406181261727966e+01 1 1 -1
3591 1 5.8754784283926709e+00 3.9476717139911495e+00 4.7432431618469039e+01 1 -3 -1
1787 1 6.0534537123081433e+00 6.7931225573842111e+00 4.6469522300769398e+01 5 2 -1
60 1 8.2533490161843819e+00 7.9934700499886455e+00 4.7436816841155817e+01 -1 1 -1
1318 1 3.9653584137266567e+00 1.0798926582421403e+01 4.6846718410180003e+01 1 0 -1
5976 1 8.2097514252943053e+00 1.0626247308083968e+01 4.6680592807858176e+01 4 1 0
1493 1 1.4707783076738243e+00 3.5345375966613339e+00 5.0317894561827757e+01 1 0 -1
1245 1 1.8524736658771306e+00 8.2079255328985634e-01 5.1087763727590300e+01 0 -1 0
3540 1 1.5302594567570327e+00 1.1583038278968775e+01 4.7891128778753711e+01 1 0 -1
3233 1 6.0407278821096160e+00 3.8592054510572802e+00 5.0144325254119764e+01 -2 2 -1
2995 1 8.3056226437996177e+00 5.3706318097905790e+00 5.1315233389834233e+01 2 -3 0
198 1 3.8686504808463944e+00 7.7606426251562137e+00 5.0204364451409788e+01 1 1 0
152 1 8.1423664518549561e+00 7.9697307067122471e+00 5.0288883069523308e+01 3 0 -1
3311 1 6.0588412163070045e+00 1.1676534333406398e+01 5.0683193771852345e+01 -1 -1 -1
190 1 1.5525973030554467e+00 1.1603446674854107e+01 5.0568063974347140e+01 0 1 0
3163 1 5.9747274111203588e+00 1.2452716734560119e+00 5.0925980398836728e+01 0 2 0
5111 1 1.5393675875295136e+00 8.9656578247627170e+00 5.1142848541608345e+01 -5 1 -1
1279 1 3.5957381574551133e+00 2.7448976795937341e-01 4.7061802847822420e+01 1 -2 0
1519 1 8.1444712135962547e+00 1.0145923409420021e-01 4.7153339079057830e+01 0 -2 -1
1990 1 1.5722164859869390e+00 1.2616312369105032e+00 5.3867299435602035e+01 0 -2 0
2865 1 3.7051250251831895e+00 2.1626584948172147e+00 5.5058156959036339e+01 1 3 0
3732 1 6.2591645287675428e+00 1.4095671650818602e+00 5.3671155799918836e+01 2 -1 0
1522 1 8.3602265874280537e+00 2.3364272284160754e+00 5.4550757299745030e+01 3 2 0
3428 1 3.6413495925907018e+00 4.5434124734699859e+00 5.3911758881642925e+01 1 2 -1
5977 1 6.1528634421232145e+00 1.0943823547183570e+01 5.5827833310967179e+01 1 -1 0
3116 1 8.3365977675503267e+00 5.0115593733540926e+00 5.4091424561572310e+01 -4 2 -1
5009 1 5.9275958374922570e+00 6.0052956938178461e+00 5.4587551152419834e+01 1 -2 -1
1369 1 2.7210084505002330e+00 8.3976908436965800e+00 5.3710590725613301e+01 0 4 0
70 1 1.3764956835321249e+00 1.0067929162471744e+01 5.7992928256192343e+01 -2 0 0
3248 1 1.6838536317920190e+00 6.1278528455926873e+00 5.5135152796779238e+01 -1 3 -1
1561 1 5.4600240812645815e+00 8.6806979715464561e+00 5.4183950466526923e+01 -2 2 0
1236 1 1.6837014114971196e+00 1.0412404518858285e+01 5.5213357161964666e+01 -2 3 -1
1922 1 3.0104411604044268e+00 1.6101449135176316e+00 5.7513575253544602e+01 3 0 -1
1804 1 8.5470627615579300e+00 2.1121655536709136e+00 5.7240706534755105e+01 1 -1 0
3079 1 6.0013411006938684e+00 5.2731794329689645e+00 5.7440014806891213e+01 1 1 0
1271 1 5.9148792532620895e+00 9.2284416864169554e+00 5.1450577013054897e+01 1 -1 0
4547 1 8.3768235973581842e+00 1.1948849603524797e+01 5.4468011396509596e+01 4 2 0
266 1 1.2502331194145258e+00 5.9459408574302897e+00 5.7807061004424497e+01 -2 -2 -1
6038 1 3.8205859087869323e+00 1.2092952435928952e+01 5.4631510023397638e+01 -1 1 0
353 1 1.3226447420165415e+00 1.2737581696169233e+01 2.7863239068645087e+00 -2 2 0
1450 1 5.8829036968050525e+00 1.3459127010983700e+01 2.4608414666005141e+00 1 1 0
4660 1 3.4146954823985198e+00 1.6862309534746807e+01 2.9134493775433334e+00 0 -2 1
212 1 1.4844479247252189e+00 1.2653803260951412e+01 5.5665533040194290e+00 -1 -2 0
441 1 8.2076356367623902e+00 1.7029634857916214e+01 2.8552365248583644e+00 -4 0 0
4698 1 1.1170886393993764e+00 1.7950149116762763e+01 2.1726272855923714e+00 2 0 0
1872 1 1.5411538198949755e+00 2.0679719570111761e+01 3.1528196019383721e+00 2 -2 1
2143 1 3.7492270261571470e+00 2.1946758513598827e+01 2.3547690933539389e+00 -2 0 1
1807 1 8.0250112319640525e+00 2.1957250363879126e+01 2.2716363929488139e+00 -1 2 0
346 1 5.7624787873881367e+00 2.0558019783065959e+01 3.1950629059484199e+00 0 -1 0
3621 1 6.0438026598279988e+00 1.2597802422011373e+01 5.2380637211793015e+00 0 -1 0
4515 1 7.9598672461155466e+00 2.1527893336200957e+01 6.8475517230589826e+00 2 1 0
410 1 3.6544830308078153e+00 1.3874679195159699e+01 6.2775719428529921e+00 1 1 0
4618 1 8.0874478403511461e+00 1.3427758289809740e+01 6.3236138969803157e+00 6 1 0
2082 1 5.6914769195692791e+00 2.0524050270015810e+01 5.9001303366133504e+00 1 0 0
389 1 3.4281068381843389e+00 1.6552225103954566e+01 5.5711241578696260e+00 2 0 0
3022 1 1.1396824677629669e+00 1.7955065145484710e+01 6.5444776852051705e+00 2 1 0
5088 1 8.1519730446928076e+00 1.6350873617783687e+01 5.7312166396000430e+00 0 0 0
1609 1 5.7459440896485505e+00 1.7553675617100236e+01 6.5294180386273624e+00 1 -2 1
3067 1 1.4006217377796149e+00 2.0612627749056017e+01 5.7768875629717646e+00 -2 1 1
4806 1 3.6207487475169486e+00 2.2024257077304032e+01 6.7722319077114177e+00 -2 0 0
4758 1 3.3902367606603332e+00 1.4467591376361627e+01 1.9264790760418971e+00 4 0 0
3046 1 5.6907896894373327e+00 1.8035729609061324e+01 2.2526240718480834e+00 -3 0 0
4757 1 8.0747230549305584e+00 2.4382948265534495e+01 6.2225495056143778e+00 2 1 0
6160 1 8.3811018078807198e+00 1.4518091407412223e+01 1.7071564369835954e+00 -1 2 0
4969 1 1.6992589714679811e+00 1.5111953226695732e+01 1.0103570920979941e+01 0 2 1
4775 1 8.4841848970766449e+00 1.3650752753829437e+01 9.2952584745318489e+00 1 -1 1
1457 1 6.0701022076118383e+00 1.4958462498056477e+01 1.0191291636776233e+01 0 1 1
3011 1 1.4730072792802531e+00 1.7931261477334008e+01 9.5009223011128263e+00 0 4 1
4835 1 3.9056359381064603e+00 1.9486493125973688e+01 1.0551862789614173e+01 1 1 0
3256 1 6.1650380232441639e+00 2.3537089999954155e+01 1.3470012289919588e+01 1 1 0
3127 1 8.3177253535134419e+00 1.8664619093344385e+01 1.0181934738333201e+01 -1 -1 0
4778 1 5.9617925310161226e+00 1.7524661503152146e+01 9.1852123215369410e+00 4 1 1
2153 1 3.7852281173596500e+00 2.1833102317656074e+01 9.6196548063149727e+00 0 2 1
2910 1 1.2667018514904700e+00 2.3283067328155258e+01 1.0573732142178391e+01 1 1 1
6263 1 8.1659153845052188e+00 2.1482406919906509e+01 9.5913615565945882e+00 -1 0 1
4990 1 6.0830634210293502e+00 2.3220883274633053e+01 1.0545775774074775e+01 -2 0 0
3189 1 1.7559019481398686e+00 1.5049494927434139e+01 1.2939151714990828e+01 1 1 1
1985 1 3.7186884655015069e+00 1.3556394979455023e+01 1.3691814177832772e+01 3 3 0
2165 1 6.1262382254832026e+00 1.5098483672872794e+01 1.3099654651374360e+01 1 -2 1
3173 1 8.3996042363594103e+00 1.3649166782146597e+01 1.3598237685820726e+01 1 2 0
1618 1 1.4886031056320299e+00 1.7681272444697175e+01 1.3764636982917693e+01 1 1 1
4807 1 3.7511444673703824e+00 1.9520172920004907e+01 1.3241553685888526e+01 0 -3 1
2016 1 8.1308355567077744e+00 1.9185962504638496e+01 1.2896773917485110e+01 1 1 0
1733 1 5.8998569169615722e+00 1.8053503695368040e+01 1.4106700112340775e+01 -1 -4 0
4717 1 1.4855210890992980e+00 2.3355916565743211e+01 1.3272039129469936e+01 -1 -2 0
3091 1 3.9863962272056868e+00 2.2139232627820270e+01 1.3837929138441860e+01 1 -2 1
4570 1 8.1549960306548428e+00 2.1884913199932043e+01 1.3673782941566339e+01 2 1 1
1959 1 3.9427540442059672e+00 1.3624814320350302e+01 9.1165971804852646e+00 2 -1 0
5165 1 3.9932112207823698e+00 1.3772169570203820e+01 1.6340264780707230e+01 -2 -3 1
4679 1 1.5903521032865859e+00 1.7607373493971348e+01 2.1006704185517254e+01 1 2 1
1647 1 8.5335625763670535e+00 1.3650006630444498e+01 1.6534948644686736e+01 3 -1 0
4478 1 8.5875345976034172e+00 1.6301668082781557e+01 1.7600810781044462e+01 0 3 1
1831 1 8.2519354594328380e+00 2.1520841486557948e+01 2.0754941954740005e+01 1 0 0