LAMMPS data file via write_data, version 16 Mar 2018, timestep = 6000000

6750 atoms
2 atom types

0.0000000000000000e+00 4.9219999999999999e+01 xlo xhi
0.0000000000000000e+00 4.9019635930410494e+01 ylo yhi
3.2608594437843053e-01 5.9735914055619915e+01 zlo zhi

Masses

1 18.015
2 12.01

Atoms # atomic

5392 1 3.5317782678757204e+00 1.0994124029054064e+00 1.8887005474646414e+00 -2 2 0
4858 1 4.1458950333999463e+00 3.5204444938335717e+00 2.7122122068202543e+00 -1 -1 1
2140 1 7.7343283639611737e+00 8.7044300995524371e-01 1.9404640634196173e+00 -2 2 0
3266 1 7.8988515181167847e+00 3.4505735671311966e+00 2.7155374857555614e+00 -1 2 0
4768 1 1.6238440678325512e+00 4.3747228581120012e+00 1.7435332750505832e+00 -1 -1 1
5285 1 1.8422834249643123e+00 6.8733398903567551e+00 2.5478443699679354e+00 -1 -2 0
1415 1 1.8069400355792611e+00 6.8809246694577313e+00 5.2513650963392733e+00 2 4 1
4925 1 5.9427441008808559e+00 4.8768656885291071e+00 1.7985875598316605e+00 -1 0 1
327 1 6.0944873141921221e+00 7.2840197246358143e+00 2.5792623980716329e+00 -3 2 0
3562 1 1.0529023367499819e+01 4.3965532119349788e+00 1.6848554591726261e+00 2 1 0
453 1 1.0946979119353974e+01 6.9316417050670243e+00 2.3364908058138978e+00 2 -1 0
1547 1 8.5695068003139063e+00 8.0541484654105400e+00 1.7999029319763575e+00 -3 -1 0
215 1 1.0872737483064231e+01 7.1718227004095461e+00 5.0509259258585208e+00 1 -1 0
6405 1 3.9654688986942297e+00 1.0904020145402070e+01 2.5511200367411773e+00 -3 2 1
394 1 1.6910700141833435e+00 1.1882243156227341e+01 1.4595693050441341e+00 4 1 0
3264 1 4.1173282956479067e+00 8.6088096795386555e+00 1.4222607052092904e+00 1 -1 1
145 1 6.3118462370283837e+00 1.1534452099497821e+01 1.4595936053865697e+00 -1 -1 0
3518 1 8.6937077584246865e+00 1.0443083830056773e+01 2.7048176119558156e+00 -1 -1 1
1704 1 1.0883909736657007e+01 1.1755659268335133e+01 1.8169108870701598e+00 0 3 0
2250 1 2.3550379228027882e+00 1.4250244557560498e+01 2.6983739690229473e+00 2 1 1
1900 1 3.1949107925582609e-01 1.5364689844041495e+01 1.6609029723325752e+00 -3 0 1
6463 1 4.6539564370790103e+00 1.5859307161390079e+01 1.8807259670978402e+00 0 1 0
3990 1 6.9840167831022821e+00 1.4263023858754574e+01 2.9664691125328195e+00 0 3 1
3424 1 8.6564755400237772e+00 1.5905798519715061e+01 1.5830548188693783e+00 0 -4 1
2251 1 1.0959497321034927e+01 1.4328760577556146e+01 2.4224389904400594e+00 -1 3 1
6743 1 2.1334262761957365e+00 1.9226722827722309e+01 1.4070839523690244e+00 -2 2 1
3904 1 4.4599470018217335e+00 1.8301684083055175e+01 2.8761028829064226e+00 5 2 1
3310 1 6.6366647330842339e+00 1.9554342062343910e+01 1.8295139763422412e+00 1 2 0
6549 1 8.9664194345931456e+00 1.8107708584487334e+01 2.8203900433952591e+00 0 0 1
5151 1 1.1310620307800150e+01 1.9408185395444672e+01 1.8600425911072942e+00 2 -1 0
1641 1 2.1042030512773162e+00 2.1862712758603855e+01 2.6852307658670309e+00 1 4 0
205 1 8.0953627275459988e-02 2.3332485974523316e+01 1.4147961699954701e+00 0 0 0
2026 1 4.1049130380245380e+00 2.3237714698861598e+01 1.7891175972396296e+00 1 3 0
558 1 6.5966202624945627e+00 2.2259791257675765e+01 2.6697093187377021e+00 0 -4 1
3657 1 9.2379205835058240e+00 2.2986994111439849e+01 1.7104220979281419e+00 1 0 0
3551 1 1.1418763169691957e+01 2.2036160907977084e+01 2.6218425885159311e+00 0 0 1
6519 1 3.4348952392027887e+00 5.3440965990735345e-01 8.8965696422943648e+00 2 0 0
3157 1 3.6019745035644295e+00 6.2020702386427895e-01 6.2575361370726208e+00 2 1 1
426 1 3.6522783288625673e+00 2.9379578142643337e+00 9.8908753319955185e+00 1 1 0
4826 1 4.1196414075750294e+00 3.2208991135589455e+00 5.4756075332085707e+00 3 -2 1
231 1 8.1197225432734470e+00 7.7606675012456827e-01 9.0750100621155827e+00 -3 1 1
5345 1 8.1988233692601113e+00 3.2123101171423167e+00 5.4760611866765627e+00 0 1 1
91 1 7.6965052179124056e+00 6.1041651181382384e-01 6.3970047291055234e+00 -1 1 0
5015 1 8.4815457022115393e+00 3.2523882075244321e+00 1.0056638349050434e+01 2 0 1
6621 1 1.5734878650936819e+00 4.5537801704411951e+00 9.2739182488781573e+00 3 3 0
2072 1 1.7616390737581837e+00 4.3132675492566843e+00 6.2614436954674328e+00 -2 1 0
1835 1 1.6839412093550166e+00 6.8957714629864117e+00 1.0104317339602037e+01 0 0 1
3915 1 4.0923767537525952e+00 7.9286587535574418e+00 8.9254249876490324e+00 0 0 1
3781 1 5.9793109086943428e+00 4.5074387119850226e+00 9.2095280074010741e+00 -1 0 0
3769 1 5.9826820909201857e+00 6.9877096988886143e+00 5.3803596057211545e+00 2 1 1
1743 1 6.1489630529080106e+00 4.5328344379020269e+00 6.4527304247172985e+00 -1 0 1
6634 1 6.2878519569250413e+00 7.0899490456432508e+00 9.8896271474211197e+00 -2 2 0
4682 1 1.0705199901964694e+01 4.5300824596287601e+00 6.0073157257961327e+00 2 -2 1
3016 1 1.0518234604128201e+01 4.3414104768361446e+00 8.7620854782873767e+00 2 -1 1
6652 1 1.0813128224605149e+01 6.8382057321951626e+00 9.3305550759591309e+00 1 -2 1
5494 1 8.6316698805479817e+00 8.1202430195842528e+00 8.8815744853955252e+00 -2 -2 0
3503 1 4.0284830922264669e+00 8.2762805942020314e+00 6.2695680775074329e+00 1 3 0
6356 1 1.7800980607504997e+00 1.1886762293795925e+01 6.6144527950965841e+00 4 1 1
3952 1 1.9099539407744821e+00 1.1663826939463231e+01 9.2152850725632334e+00 -2 -1 1
3869 1 4.1565216497971456e+00 1.0963673396293135e+01 5.3074453483705586e+00 2 1 0
3620 1 4.2299524303420828e+00 1.0542414684901027e+01 1.0129118717707685e+01 1 -2 0
6546 1 6.5857641746162647e+00 1.2119082615705000e+01 9.1679416610452051e+00 0 -2 1
1699 1 6.3754465453312497e+00 1.1962920005403662e+01 6.5844882653008403e+00 0 2 1
3700 1 8.3602978853709669e+00 8.2452325508852180e+00 6.2728088035516665e+00 -1 0 0
1320 1 8.6331086329142455e+00 1.0677415443761404e+01 5.3745236288861973e+00 3 -3 1
505 1 1.0924697486670635e+01 1.1842604281813379e+01 6.1256730431267519e+00 1 2 1
1515 1 1.0703449450931879e+01 1.2144912638178505e+01 8.9373775377762463e+00 2 1 1
2331 1 8.5090377281731815e+00 1.0666370349708618e+01 9.9376286738608588e+00 1 0 1
5300 1 2.2590237299095000e+00 1.4540348530748387e+01 5.4512877603632388e+00 3 -1 0
6719 1 2.1468330495555374e+00 1.4434076561144376e+01 9.7854375632904240e+00 -1 1 1
6744 1 3.9811925174696228e-02 1.5962172919863530e+01 8.6380572306215768e+00 -1 0 0
3431 1 4.5439097809398845e+00 1.5513731109075561e+01 6.4290682284469023e+00 0 1 1
1863 1 7.0574820759264227e+00 1.4681788228840999e+01 5.6932937956137133e+00 4 -1 1
8 1 4.3818053196376194e+00 1.5932865898817148e+01 8.9567466449993844e+00 1 1 1
2266 1 6.6603135200547472e+00 1.4744202470543518e+01 1.0147734475760025e+01 1 0 1
1797 1 1.1118648650763362e+01 1.4551680754500248e+01 5.4533505008673409e+00 2 1 0
3230 1 8.9031882593844394e+00 1.6261115229970670e+01 9.4845673039523994e+00 1 3 1
2326 1 9.1549111690513527e+00 1.5835054704389423e+01 6.8635877258105751e+00 -4 1 1
5593 1 1.1091711696001026e+01 1.4758141004647831e+01 1.0045559998428583e+01 1 1 1
6544 1 2.1556291236562117e+00 1.9830284182243265e+01 6.2995125495422766e+00 -1 -1 1
517 1 2.3862336563642601e+00 1.9616459503556950e+01 8.8866661118336019e+00 -2 1 0
5085 1 4.5944327551589247e-02 1.8411384392265813e+01 9.6546485126278938e+00 1 0 1
3422 1 4.2474298325037729e+00 1.8296996459356937e+01 5.5161379975868332e+00 1 1 0
4831 1 6.6755729177913645e+00 1.9392966870666378e+01 6.4027739579047669e+00 2 -1 1
1554 1 6.8582962480268872e+00 1.9586914582837846e+01 9.0412265914670531e+00 2 -1 1
5683 1 4.5710602303827237e+00 1.8354554804710080e+01 1.0031893733295398e+01 0 2 1
6386 1 8.9226927456847651e+00 1.8325355727488564e+01 5.4068231790705061e+00 4 0 1
3009 1 1.1222982028276313e+01 1.9504005046323876e+01 6.4500945824274973e+00 3 3 1
1466 1 1.1537148710487818e+01 1.9129666571225965e+01 9.2093313394892622e+00 0 1 1
608 1 2.1481776093627185e+00 2.2129032852922613e+01 5.4031396696508187e+00 0 0 0
5047 1 2.5663355924806810e+00 2.2155240931353564e+01 9.7585269026074180e+00 1 2 1
3653 1 1.6379374173229558e-02 2.3229935846691209e+01 8.8537897794512439e+00 4 0 0
4920 1 6.8346048987708237e+00 2.2096485775620820e+01 9.9093297278010404e+00 2 -4 0
1855 1 7.0713136835678494e+00 2.1965735515313032e+01 5.4023789692605639e+00 2 1 0
5051 1 4.6977135709605271e+00 2.3224184900117020e+01 5.8079600304336463e+00 3 1 0
2037 1 4.7902133924145796e+00 2.3375703277698051e+01 8.5884626222396481e+00 4 3 0
183 1 1.1708142156113153e+01 2.1877208680688010e+01 5.3498960502850110e+00 0 -3 0
3038 1 1.1478075934331899e+01 2.1724845185858797e+01 9.8038019795173632e+00 1 -2 1
6345 1 9.2150776764757758e+00 2.3397491922408506e+01 6.1718812236061771e+00 1 0 0
5316 1 9.2269466304444201e+00 2.3266615243421064e+01 8.9448682692431127e+00 0 -1 0
3492 1 1.6879404979369657e+00 1.5656421715576272e+00 1.3535148293812673e+01 1 -1 1
235 1 3.6511203243505048e+00 2.9710385039967879e+00 1.2590502995086096e+01 0 1 1
81 1 6.2626085079253153e+00 2.2390017115266971e+00 1.3392682343295181e+01 4 0 0
1503 1 8.4197184069354272e+00 3.5913590054371221e+00 1.2630059519881879e+01 0 2 1
3717 1 1.0431026869879384e+01 2.0959311671776790e+00 1.3459130722889460e+01 -1 -1 0
5581 1 1.2476401225047329e+00 6.7921809085051077e+00 1.2925300195411237e+01 -1 -1 0
4765 1 3.5771465859456733e+00 5.7054209413070573e+00 1.3103967660508600e+01 1 -1 1
539 1 6.3593093760273982e+00 6.9623802798232157e+00 1.2785278449733772e+01 2 1 0
3182 1 8.6570722158818718e+00 6.0245254539142712e+00 1.3483554452487949e+01 0 1 1
3301 1 1.0875360758164012e+01 6.9798439554827105e+00 1.2291392283594744e+01 0 -1 1
5572 1 1.8020629130589028e+00 9.5480225695581460e+00 1.3420823071515509e+01 1 -2 1
1997 1 3.9708351365941952e+00 1.0632628109174876e+01 1.2536635203030688e+01 2 -1 0
3918 1 6.2996107476370344e+00 9.5118837463195742e+00 1.3412851805869167e+01 0 0 0
5372 1 8.5903894045083646e+00 1.0702486890901419e+01 1.2792442121428955e+01 -1 3 0
3612 1 1.0816962703713060e+01 9.4103734569366093e+00 1.3448700210188681e+01 1 1 0
360 1 1.9903007109670836e+00 1.4728869987323304e+01 1.2424257079977020e+01 2 -1 0
99 1 4.1407937204781309e+00 1.3277595509604655e+01 1.3395548125836024e+01 -4 4 0
6445 1 6.3875160311577561e+00 1.4406491082787745e+01 1.2712428703821583e+01 1 1 1
2122 1 8.8236975242341682e+00 1.3372468850594922e+01 1.3551514500289608e+01 -1 1 0
5173 1 1.1298644189219917e+01 1.4504487662131105e+01 1.2714691463254889e+01 0 2 0
3736 1 1.6540651247136906e-01 1.8696025957178932e+01 1.2249254566979433e+01 3 -1 1
3026 1 2.0560529395053617e+00 1.7308617219741180e+01 1.3380242136754969e+01 3 0 1
189 1 6.7365149667568991e+00 1.6986885374123855e+01 1.3694692777720560e+01 1 2 0
1726 1 4.4948162051043195e+00 1.8300252266692794e+01 1.2760299544296458e+01 -1 1 1
3185 1 9.0516406227044488e+00 1.8650139815566906e+01 1.0300578081387128e+01 1 3 1
451 1 1.1161062187850142e+01 1.7261696401107255e+01 1.3824688645327738e+01 3 0 0
3822 1 9.0201501876513372e+00 1.8376248346804623e+01 1.2980475233821727e+01 1 0 0
3574 1 2.3878143722758178e+00 2.2474134476381121e+01 1.2519577484229185e+01 2 -3 0
516 1 1.1383434020755270e-01 2.1068383775461033e+01 1.3538917428513383e+01 1 -2 0
4705 1 6.7189175229527249e+00 2.2252817457949480e+01 1.2718886209234752e+01 0 2 1
4871 1 4.2944140992788773e+00 2.0816046051123376e+01 1.3496545537319083e+01 1 0 1
5451 1 1.1293747614413494e+01 2.2054111931709649e+01 1.2518800790620638e+01 -1 0 0
1960 1 9.0863456467495514e+00 2.0948894436912152e+01 1.3812247607163915e+01 -1 4 0
3368 1 1.3659774338732067e+00 1.9043199146105318e+00 1.6277394954372681e+01 2 -2 1
3209 1 3.4633003206718835e+00 4.4117978476651998e-01 1.6752671682485545e+01 2 2 1
5004 1 3.8483141413751998e+00 1.9497138939433389e-01 1.9484883283294035e+01 1 -3 1
1957 1 5.9113305492826047e+00 1.5911690919196031e+00 1.5975803746568451e+01 3 4 0
1582 1 6.1953235584259421e+00 4.0669829437693856e+00 1.9630771247784761e+01 0 3 0
1893 1 8.0548514476580984e+00 5.9324018520060762e-01 1.9662978336109546e+01 1 -2 0
3104 1 8.2259991574202154e+00 7.2456316273489563e-01 1.6921736133933351e+01 3 1 1
389 1 1.0709293046035320e+01 1.5466112095249920e+00 1.6147555618706093e+01 4 2 1
6464 1 1.5995654979154317e+00 4.6971454581075918e+00 1.7111540355575659e+01 1 -3 1
3895 1 1.5592435890692933e+00 4.4100708685917809e+00 1.9807026853951228e+01 -1 -1 0
3448 1 4.0114463052175831e+00 5.5755837287037027e+00 1.6004028077739356e+01 3 -2 0
1792 1 6.5763137307406883e+00 4.1988898417267935e+00 1.6740685319431439e+01 0 1 0
3650 1 4.2585925191291745e+00 8.0057479162989331e+00 1.7081466590749454e+01 2 1 0
1378 1 4.3036350453687708e+00 7.7789980194157122e+00 1.9729147487275345e+01 -2 1 1
4854 1 1.0600611675352122e+01 4.3523863594070162e+00 1.9529309130174187e+01 2 -1 1
5210 1 8.6680453124276902e+00 5.8752844325448770e+00 1.6302503815671528e+01 1 2 0
64 1 1.0845089732993195e+01 4.4640045282693830e+00 1.6679773946082488e+01 0 2 0
5527 1 2.0099176327597941e+00 9.2197115799787461e+00 1.6182247195765342e+01 4 -2 0
5234 1 2.0397778339511765e+00 1.1876244278816124e+01 1.7020292602013594e+01 -2 -1 0
270 1 1.5601976945892349e+00 1.1765911912457634e+01 1.9904998622826863e+01 -2 3 1
3764 1 6.4099086402925609e+00 9.5387980571200313e+00 1.6301843903526652e+01 0 -2 0
6635 1 6.5734957824472531e+00 1.1925721123967108e+01 1.7222395340442347e+01 -2 -2 1
3525 1 6.2413297704112543e+00 1.1947247428727469e+01 1.9953721611001200e+01 2 2 0
512 1 8.7987209801729147e+00 8.4472496482675741e+00 1.7043094547478265e+01 0 -1 1
5005 1 1.0939283508429259e+01 9.4943994491668349e+00 1.5998237411604260e+01 1 1 1
5237 1 1.0918734462512504e+01 1.1906601371553073e+01 1.7342607366491947e+01 2 4 1
1506 1 1.0486952643309220e+01 1.2203117861219141e+01 1.9998508312249871e+01 -1 2 1
6741 1 8.8351863317704478e+00 8.1988948514626578e+00 1.9835803414644538e+01 4 2 0
172 1 4.3426520451646189e+00 1.5818329122199339e+01 1.9887697924421392e+01 2 -2 0
1844 1 4.5358242010971033e+00 1.6110623833121696e+01 1.7208551426713466e+01 0 -1 0
191 1 4.2870688219803803e+00 1.3480433422633046e+01 1.6121160794452621e+01 0 0 0
3622 1 8.9135082476029570e+00 1.3178720467768303e+01 1.6403649147103160e+01 -5 0 0
3111 1 9.0041327435115388e+00 1.5777431627847813e+01 1.7351891577749118e+01 -2 1 1
2184 1 8.6728746508042889e+00 1.5986513079418165e+01 2.0080461884623112e+01 2 -3 0
5610 1 1.9570050202997089e+00 1.6792461862711527e+01 1.6300499092651922e+01 1 -2 1
3155 1 2.3642952264406474e+00 1.9331238515074929e+01 1.7372470194806560e+01 2 -1 1
1425 1 2.5087219764990505e+00 1.9471885284524532e+01 1.9973739474040986e+01 -2 -1 0
5425 1 6.9744958296440265e+00 1.7334210936558506e+01 1.6357296498377920e+01 1 0 0
4981 1 7.0238722846393120e+00 1.9949061508795488e+01 1.7246547280879604e+01 0 0 1
2064 1 6.7846671369095244e+00 1.9889669557889810e+01 1.9872763565344393e+01 2 -1 0
1550 1 1.1456374543858136e+01 1.6956844878646187e+01 1.6522332332044432e+01 1 0 1
1879 1 1.1587092279947989e+01 1.9763306021957231e+01 1.7436444975594839e+01 -1 0 0
150 1 1.1171608134589230e+01 1.9717385454365917e+01 2.0044946450285817e+01 1 -2 0
3535 1 7.1883625322007139e-01 2.3355635071365651e+01 1.7207397150669859e+01 2 1 0
223 1 5.8223117979150718e-01 2.3239220711879589e+01 1.9947937014690943e+01 -2 -1 1
1671 1 4.8022614370047484e-02 2.0686536068770010e+01 1.6283893965811142e+01 1 -2 1
3682 1 4.5737283972865130e+00 2.0983722341823608e+01 1.6388293337451454e+01 3 -1 0
393 1 5.4033822865321657e+00 2.3293217045761725e+01 1.7290877516794865e+01 -1 1 0
3871 1 4.9807626221104444e+00 2.3453676430811885e+01 1.9963471874346705e+01 -4 -2 1
1445 1 9.3513889230827498e+00 2.1042898560389027e+01 1.6529682146749060e+01 -2 -2 1
5175 1 9.7467766830578721e+00 2.3697997180357969e+01 1.7046516824933803e+01 0 -2 0
1663 1 9.5230098442965154e+00 2.3593824816889512e+01 1.9851394529946010e+01 0 0 1
3710 1 1.2029699377378932e+01 2.4456068732447108e+01 1.5929400490851238e+01 1 -2 0
5125 1 1.8222907213432129e+00 1.6045804787262121e+00 2.0735087470106350e+01 0 -1 0
220 1 1.6207565984509025e+00 1.3167976349457444e+00 2.3706882937770967e+01 3 -1 0
271 1 1.6156203512026226e+00 4.0582204231573664e+00 2.4654743780343729e+01 -1 0 0
3621 1 5.8505914171512723e+00 1.4905673495111789e+00 2.0804873525834200e+01 3 -1 0
3386 1 6.1990896382082097e+00 1.2370497315468647e+00 2.3371775860750830e+01 2 -1 0
5261 1 6.0639855303127730e+00 4.0274847104368678e+00 2.4190347644265660e+01 2 -2 1
3467 1 1.0343188677529923e+01 1.8793121204165557e+00 2.0654398099044034e+01 1 3 0
5506 1 1.0610721968626057e+01 1.1618613694679436e+00 2.3468199301122279e+01 0 -2 0
5465 1 1.0495269002331788e+01 3.7826541069855075e+00 2.4098862776807547e+01 4 1 0
2279 1 3.6296453966467430e+00 5.0453555279822773e+00 2.3376736699856401e+01 -1 -3 1
3457 1 4.0693346238842194e+00 5.2629208187879541e+00 2.0538685535948041e+01 0 -4 0
4870 1 4.3797784538854492e+00 7.7373066751064199e+00 2.3966210674624257e+01 1 0 1
3831 1 8.5655645933828470e+00 5.1219350334550073e+00 2.3452858540141428e+01 -1 1 0
5290 1 8.2768929383689436e+00 5.3737371492295134e+00 2.0824620502719071e+01 0 0 0
2271 1 2.0451358071457730e+00 9.2858462113310782e+00 2.0719480002269716e+01 2 -3 1
40 1 1.9994009846933660e+00 9.1641664910869469e+00 2.3325780869822317e+01 2 -3 0
3276 1 2.0192719993325303e+00 1.1816462009974860e+01 2.4043669173628334e+01 1 0 1
3300 1 6.5669756879896370e+00 9.3798463364227125e+00 2.0555447435875028e+01 2 3 1
5576 1 6.9006731960442336e+00 9.0897827129395079e+00 2.3347682395985366e+01 1 4 1
3428 1 6.6634346072696111e+00 1.1911863343525564e+01 2.4008169953344051e+01 3 -1 1
3387 1 9.0355273928057560e+00 8.2007205003925225e+00 2.4068260310672095e+01 -1 -1 1
526 1 1.1005590412561896e+01 9.4091313501100871e+00 2.0415391437743580e+01 -2 -1 0
2016 1 1.1254771259468900e+01 9.3165751710435369e+00 2.3353288851098668e+01 0 1 0
281 1 1.1219018162553754e+01 1.1810109732004275e+01 2.4271705827821012e+01 1 -3 0
5440 1 4.0880598552325615e+00 1.5832092985159521e+01 2.4080945145940358e+01 1 0 0
3520 1 3.9939652111377946e+00 1.3258360328242670e+01 2.0899976781111349e+01 3 -2 1
5645 1 4.4003384204338261e+00 1.3078097707892701e+01 2.3577013736997937e+01 -3 0 1
5447 1 8.5279159890530565e+00 1.6095549978965018e+01 2.4008413309425581e+01 1 0 0
3567 1 8.8698419841703835e+00 1.3394761888457264e+01 2.3523858641546678e+01 1 0 1
1894 1 8.2233828156633137e+00 1.3648504422383928e+01 2.1080884104320152e+01 1 1 0
5682 1 2.1514278273038676e+00 1.6902324537526379e+01 2.1050432545340986e+01 1 -1 0
1652 1 1.8248807947657069e+00 1.7373022727762727e+01 2.3531505167895386e+01 1 1 0
1489 1 1.1821291021425038e+00 2.0071612356668844e+01 2.3256844286606857e+01 1 2 1
2997 1 6.2671735258470358e+00 1.7384663251154521e+01 2.0630325041337279e+01 0 -1 1
421 1 6.1612235594336164e+00 1.7291951362816853e+01 2.3232755079699697e+01 1 0 0
5409 1 5.7242830843179124e+00 1.9994908775995693e+01 2.4139281394361245e+01 1 -3 0
3032 1 1.0887929041647196e+01 1.7182793201087335e+01 2.0965762187162913e+01 1 -2 1
6374 1 1.0764963818537979e+01 1.7549026098454672e+01 2.3770337858397422e+01 3 -1 1
5071 1 1.0429759788044311e+01 2.0247093303823128e+01 2.4093681575063563e+01 -2 -3 1
63 1 4.0154609626924409e-01 2.0747060451698275e+01 2.0757146943307546e+01 2 3 1
3695 1 3.4489444705848431e+00 2.1677417430121746e+01 2.3586931956557180e+01 2 0 0
1982 1 4.4849782933265869e+00 2.1036780281265042e+01 2.0873142285746290e+01 4 0 0
3754 1 7.9962104473351037e+00 2.1588482813843090e+01 2.3363437750951345e+01 4 -1 0
1967 1 7.8307683318344425e+00 2.4371340919224824e+01 2.3987352973420677e+01 0 0 0
28 1 7.1596261732126276e+00 2.4393717363577924e+01 2.1164553770069684e+01 0 -3 1
3403 1 9.0426971420338074e+00 2.1056372840121682e+01 2.0766933507500475e+01 3 0 0
618 2 0.0000000000000000e+00 2.8417180249513345e+00 2.6801164954371309e+01 0 0 0
620 2 0.0000000000000000e+00 0.0000000000000000e+00 2.6801164954371309e+01 0 0 0
622 2 1.2305000000000001e+00 7.1042950623783474e-01 2.6801164954371309e+01 0 0 0
629 2 1.2305000000000001e+00 2.1312885187134998e+00 2.6801164954371309e+01 0 0 0
631 2 2.4610000000000003e+00 2.8417180249513345e+00 2.6801164954371309e+01 0 0 0
633 2 2.4610000000000003e+00 0.0000000000000000e+00 2.6801164954371309e+01 0 0 0
635 2 3.6915000000000004e+00 7.1042950623783474e-01 2.6801164954371309e+01 0 0 0
650 2 3.6914999999999996e+00 2.1312885187134998e+00 2.6801164954371309e+01 0 0 0
652 2 4.9220000000000006e+00 2.8417180249513332e+00 2.6801164954371309e+01 0 0 0
654 2 4.9220000000000006e+00 0.0000000000000000e+00 2.6801164954371309e+01 0 0 0
656 2 6.1524999999999999e+00 7.1042950623783407e-01 2.6801164954371309e+01 0 0 0
679 2 6.1524999999999999e+00 2.1312885187134989e+00 2.6801164954371309e+01 0 0 0
681 2 7.3829999999999991e+00 2.8417180249513345e+00 2.6801164954371309e+01 0 0 0
683 2 7.3829999999999991e+00 0.0000000000000000e+00 2.6801164954371309e+01 0 0 0
685 2 8.6134999999999984e+00 7.1042950623783407e-01 2.6801164954371309e+01 0 0 0
716 2 8.6134999999999984e+00 2.1312885187135002e+00 2.6801164954371309e+01 0 0 0
718 2 9.8440000000000012e+00 2.8417180249513332e+00 2.6801164954371309e+01 0 0 0
720 2 9.8440000000000012e+00 0.0000000000000000e+00 2.6801164954371309e+01 0 0 0
722 2 1.1074500000000002e+01 7.1042950623783330e-01 2.6801164954371309e+01 0 0 0
761 2 1.1074500000000002e+01 2.1312885187135002e+00 2.6801164954371309e+01 0 0 0
623 2 0.0000000000000000e+00 7.1042950623783341e+00 2.6801164954371309e+01 0 0 0
625 2 0.0000000000000000e+00 4.2625770374269996e+00 2.6801164954371309e+01 0 0 0
627 2 1.2305000000000001e+00 4.9730065436648339e+00 2.6801164954371309e+01 0 0 0
642 2 1.2305000000000001e+00 6.3938655561404980e+00 2.6801164954371309e+01 0 0 0
644 2 2.4610000000000003e+00 7.1042950623783341e+00 2.6801164954371309e+01 0 0 0
646 2 2.4610000000000003e+00 4.2625770374269996e+00 2.6801164954371309e+01 0 0 0
648 2 3.6914999999999996e+00 4.9730065436648339e+00 2.6801164954371309e+01 0 0 0
671 2 3.6914999999999996e+00 6.3938655561404980e+00 2.6801164954371309e+01 0 0 0
673 2 4.9220000000000006e+00 7.1042950623783341e+00 2.6801164954371309e+01 0 0 0
675 2 4.9220000000000006e+00 4.2625770374269978e+00 2.6801164954371309e+01 0 0 0
677 2 6.1524999999999999e+00 4.9730065436648339e+00 2.6801164954371309e+01 0 0 0
708 2 6.1524999999999999e+00 6.3938655561404980e+00 2.6801164954371309e+01 0 0 0
710 2 7.3830000000000009e+00 7.1042950623783341e+00 2.6801164954371309e+01 0 0 0
712 2 7.3829999999999991e+00 4.2625770374269996e+00 2.6801164954371309e+01 0 0 0
714 2 8.6135000000000002e+00 4.9730065436648339e+00 2.6801164954371309e+01 0 0 0
753 2 8.6135000000000002e+00 6.3938655561404980e+00 2.6801164954371309e+01 0 0 0
755 2 9.8440000000000012e+00 7.1042950623783341e+00 2.6801164954371309e+01 0 0 0
757 2 9.8440000000000012e+00 4.2625770374270004e+00 2.6801164954371309e+01 0 0 0
759 2 1.1074500000000002e+01 4.9730065436648339e+00 2.6801164954371309e+01 0 0 0
800 2 1.1074500000000002e+01 6.3938655561404980e+00 2.6801164954371309e+01 0 0 0
636 2 0.0000000000000000e+00 1.1366872099805333e+01 2.6801164954371309e+01 0 0 0
638 2 0.0000000000000000e+00 8.5251540748539991e+00 2.6801164954371309e+01 0 0 0
640 2 1.2305000000000001e+00 9.2355835810918343e+00 2.6801164954371309e+01 0 0 0
663 2 1.2305000000000001e+00 1.0656442593567498e+01 2.6801164954371309e+01 0 0 0
665 2 2.4610000000000003e+00 1.1366872099805333e+01 2.6801164954371309e+01 0 0 0
667 2 2.4610000000000003e+00 8.5251540748539991e+00 2.6801164954371309e+01 0 0 0
669 2 3.6915000000000004e+00 9.2355835810918343e+00 2.6801164954371309e+01 0 0 0
700 2 3.6914999999999996e+00 1.0656442593567499e+01 2.6801164954371309e+01 0 0 0
702 2 4.9220000000000006e+00 1.1366872099805333e+01 2.6801164954371309e+01 0 0 0
704 2 4.9220000000000006e+00 8.5251540748539991e+00 2.6801164954371309e+01 0 0 0
706 2 6.1524999999999999e+00 9.2355835810918343e+00 2.6801164954371309e+01 0 0 0
745 2 6.1524999999999999e+00 1.0656442593567499e+01 2.6801164954371309e+01 0 0 0
747 2 7.3829999999999991e+00 1.1366872099805333e+01 2.6801164954371309e+01 0 0 0
749 2 7.3830000000000009e+00 8.5251540748539991e+00 2.6801164954371309e+01 0 0 0
751 2 8.6134999999999984e+00 9.2355835810918343e+00 2.6801164954371309e+01 0 0 0
792 2 8.6134999999999984e+00 1.0656442593567498e+01 2.6801164954371309e+01 0 0 0
794 2 9.8440000000000012e+00 1.1366872099805333e+01 2.6801164954371309e+01 0 0 0
796 2 9.8440000000000012e+00 8.5251540748539956e+00 2.6801164954371309e+01 0 0 0
798 2 1.1074500000000002e+01 9.2355835810918343e+00 2.6801164954371309e+01 0 0 0
839 2 1.1074500000000002e+01 1.0656442593567498e+01 2.6801164954371309e+01 0 0 0
841 2 1.2304999999999998e+01 1.1366872099805333e+01 2.6801164954371309e+01 0 0 0
657 2 0.0000000000000000e+00 1.5629449137232333e+01 2.6801164954371309e+01 0 0 0
659 2 0.0000000000000000e+00 1.2787731112280996e+01 2.6801164954371309e+01 0 0 0
661 2 1.2305000000000001e+00 1.3498160618518829e+01 2.6801164954371309e+01 0 0 0
692 2 1.2305000000000001e+00 1.4919019630994494e+01 2.6801164954371309e+01 0 0 0
694 2 2.4610000000000003e+00 1.5629449137232328e+01 2.6801164954371309e+01 0 0 0
696 2 2.4610000000000003e+00 1.2787731112280996e+01 2.6801164954371309e+01 0 0 0
698 2 3.6915000000000004e+00 1.3498160618518829e+01 2.6801164954371309e+01 0 0 0
737 2 3.6915000000000004e+00 1.4919019630994494e+01 2.6801164954371309e+01 0 0 0
739 2 4.9220000000000006e+00 1.5629449137232333e+01 2.6801164954371309e+01 0 0 0
741 2 4.9220000000000006e+00 1.2787731112280996e+01 2.6801164954371309e+01 0 0 0
743 2 6.1524999999999990e+00 1.3498160618518829e+01 2.6801164954371309e+01 0 0 0
784 2 6.1524999999999990e+00 1.4919019630994494e+01 2.6801164954371309e+01 0 0 0
786 2 7.3829999999999991e+00 1.5629449137232333e+01 2.6801164954371309e+01 0 0 0
788 2 7.3829999999999991e+00 1.2787731112280996e+01 2.6801164954371309e+01 0 0 0
790 2 8.6135000000000002e+00 1.3498160618518835e+01 2.6801164954371309e+01 0 0 0
831 2 8.6135000000000002e+00 1.4919019630994494e+01 2.6801164954371309e+01 0 0 0
833 2 9.8440000000000012e+00 1.5629449137232328e+01 2.6801164954371309e+01 0 0 0
835 2 9.8440000000000012e+00 1.2787731112280996e+01 2.6801164954371309e+01 0 0 0
837 2 1.1074500000000002e+01 1.3498160618518829e+01 2.6801164954371309e+01 0 0 0
873 2 1.1074500000000002e+01 1.4919019630994494e+01 2.6801164954371309e+01 0 0 0
686 2 0.0000000000000000e+00 1.9892026174659328e+01 2.6801164954371309e+01 0 0 0
688 2 0.0000000000000000e+00 1.7050308149707998e+01 2.6801164954371309e+01 0 0 0
690 2 1.2305000000000001e+00 1.7760737655945832e+01 2.6801164954371309e+01 0 0 0
729 2 1.2305000000000001e+00 1.9181596668421495e+01 2.6801164954371309e+01 0 0 0
731 2 2.4610000000000003e+00 1.9892026174659328e+01 2.6801164954371309e+01 0 0 0
733 2 2.4610000000000003e+00 1.7050308149707998e+01 2.6801164954371309e+01 0 0 0
735 2 3.6914999999999996e+00 1.7760737655945832e+01 2.6801164954371309e+01 0 0 0
776 2 3.6914999999999996e+00 1.9181596668421495e+01 2.6801164954371309e+01 0 0 0
778 2 4.9220000000000006e+00 1.9892026174659328e+01 2.6801164954371309e+01 0 0 0
780 2 4.9220000000000006e+00 1.7050308149707998e+01 2.6801164954371309e+01 0 0 0
782 2 6.1524999999999999e+00 1.7760737655945832e+01 2.6801164954371309e+01 0 0 0
823 2 6.1524999999999999e+00 1.9181596668421495e+01 2.6801164954371309e+01 0 0 0
825 2 7.3829999999999991e+00 1.9892026174659328e+01 2.6801164954371309e+01 0 0 0
827 2 7.3830000000000009e+00 1.7050308149707998e+01 2.6801164954371309e+01 0 0 0
899 2 1.1074500000000002e+01 1.9181596668421495e+01 2.6801164954371309e+01 0 0 0
903 2 1.2304999999999998e+01 1.7050308149707998e+01 2.6801164954371309e+01 0 0 0
871 2 1.1074500000000002e+01 1.7760737655945835e+01 2.6801164954371309e+01 0 0 0
829 2 8.6134999999999984e+00 1.7760737655945832e+01 2.6801164954371309e+01 0 0 0
865 2 8.6135000000000002e+00 1.9181596668421495e+01 2.6801164954371309e+01 0 0 0
867 2 9.8440000000000012e+00 1.9892026174659335e+01 2.6801164954371309e+01 0 0 0
869 2 9.8440000000000012e+00 1.7050308149707998e+01 2.6801164954371309e+01 0 0 0
723 2 0.0000000000000000e+00 2.4154603212086325e+01 2.6801164954371309e+01 0 0 0
770 2 2.4610000000000003e+00 2.4154603212086325e+01 2.6801164954371309e+01 0 0 0
725 2 0.0000000000000000e+00 2.1312885187134999e+01 2.6801164954371309e+01 0 0 0
772 2 2.4610000000000003e+00 2.1312885187134995e+01 2.6801164954371309e+01 0 0 0
774 2 3.6914999999999996e+00 2.2023314693372832e+01 2.6801164954371309e+01 0 0 0
815 2 3.6915000000000004e+00 2.3444173705848499e+01 2.6801164954371309e+01 0 0 0
768 2 1.2304999999999993e+00 2.3444173705848499e+01 2.6801164954371309e+01 0 0 0
727 2 1.2304999999999993e+00 2.2023314693372832e+01 2.6801164954371309e+01 0 0 0
859 2 7.3830000000000009e+00 2.4154603212086336e+01 2.6801164954371309e+01 0 0 0
819 2 4.9220000000000006e+00 2.1312885187134995e+01 2.6801164954371309e+01 0 0 0
857 2 6.1524999999999999e+00 2.3444173705848499e+01 2.6801164954371309e+01 0 0 0
821 2 6.1524999999999990e+00 2.2023314693372832e+01 2.6801164954371309e+01 0 0 0
817 2 4.9220000000000006e+00 2.4154603212086325e+01 2.6801164954371309e+01 0 0 0
861 2 7.3829999999999991e+00 2.1312885187134999e+01 2.6801164954371309e+01 0 0 0
891 2 8.6134999999999984e+00 2.3444173705848499e+01 2.6801164954371309e+01 0 0 0
897 2 1.1074500000000002e+01 2.2023314693372832e+01 2.6801164954371309e+01 0 0 0
893 2 9.8440000000000012e+00 2.4154603212086336e+01 2.6801164954371309e+01 0 0 0
917 2 1.1074500000000002e+01 2.3444173705848499e+01 2.6801164954371309e+01 0 0 0
863 2 8.6135000000000002e+00 2.2023314693372832e+01 2.6801164954371309e+01 0 0 0
895 2 9.8440000000000012e+00 2.1312885187134999e+01 2.6801164954371309e+01 0 0 0
619 2 0.0000000000000000e+00 1.4208590124756650e+00 3.0030999999999285e+01 0 0 0
621 2 0.0000000000000000e+00 0.0000000000000000e+00 3.0030999999999285e+01 0 0 0
628 2 1.2305000000000001e+00 3.5521475311891644e+00 3.0030999999999285e+01 0 0 0
630 2 1.2305000000000001e+00 2.1312885187134998e+00 3.0030999999999285e+01 0 0 0
632 2 2.4610000000000003e+00 1.4208590124756650e+00 3.0030999999999285e+01 0 0 0
634 2 2.4610000000000003e+00 0.0000000000000000e+00 3.0030999999999285e+01 0 0 0
649 2 3.6914999999999996e+00 3.5521475311891644e+00 3.0030999999999285e+01 0 0 0
651 2 3.6914999999999996e+00 2.1312885187134998e+00 3.0030999999999285e+01 0 0 0