LAMMPS data file via write_data, version 16 Mar 2018, timestep = 6000000

6489 atoms
2 atom types

0.0000000000000000e+00 4.9219999999999999e+01 xlo xhi
0.0000000000000000e+00 4.9019635930410494e+01 ylo yhi
7.7823601750548477e-01 5.9283763982482242e+01 zlo zhi

Masses

1 18.015
2 12.01

Atoms # atomic

6108 1 4.6943560831407041e+00 2.1366656945992930e+00 3.2064036871154471e+00 1 -1 1
6412 1 2.5582111765907656e+00 3.7139054504447377e-01 2.4739170710377669e+00 1 0 0
3067 1 9.0468811121868509e+00 1.0376623687278681e+01 6.4344776892028657e+00 1 3 1
2101 1 7.1745188067088010e+00 6.2185356591932983e-01 2.0193421392590887e+00 2 1 1
297 1 9.3544752436738694e+00 2.0623586254643032e+00 2.9871287902928336e+00 -1 -1 0
5308 1 2.4416550473774348e+00 6.5386047107325505e+00 3.2214641156509569e+00 0 1 0
6287 1 4.4994604811737240e+00 5.0596332357079898e+00 2.3495468248941318e+00 1 2 1
4993 1 2.5254540674612516e+00 1.1706925402676646e+01 7.2362878107455977e+00 -2 1 0
3046 1 8.8871597695437483e+00 4.7644864973788756e+00 2.1447494119459556e+00 2 1 1
1660 1 6.7868589648884896e+00 6.2025536669656818e+00 3.3770762607783387e+00 1 2 0
3066 1 2.3947244808701647e+00 9.2347167103161141e+00 2.6911938645079827e+00 0 1 0
3420 1 4.7951213484629500e+00 1.0445310171020795e+01 3.4589819074993624e+00 -1 0 0
2067 1 1.8688849079469032e-02 2.2009781322310769e+00 2.8607405582532439e+00 -1 1 1
6151 1 6.7726148241528277e+00 8.8752817918237348e+00 2.5760674556793135e+00 1 1 1
365 1 9.1183738594469101e+00 1.0149607759356053e+01 3.6145880280722791e+00 2 -1 0
6260 1 6.7814321512373299e+00 1.2049825798887495e+01 7.2558928569643477e+00 1 4 1
2098 1 2.5272593557571734e+00 3.7461267605128086e+00 6.8759642204925591e+00 0 -2 0
3768 1 4.5860163497952779e+00 2.4414895553905578e+00 5.9768029648503562e+00 -2 -1 1
2985 1 9.2897807532961547e+00 2.0862021244606903e+00 5.7708247242357400e+00 -2 0 0
3682 1 7.0103848871179650e+00 3.5008957467887223e+00 6.9677580332245403e+00 1 -3 1
2861 1 2.3456587447908799e+00 6.4331234726272823e+00 6.0152962751909724e+00 0 3 1
2023 1 4.5390625099339017e+00 7.6693267622749044e+00 7.1439115230227044e+00 3 1 0
3572 1 4.7755085345587949e+00 1.0483570712442793e+01 6.1371292632249732e+00 1 0 0
1574 1 9.0161777639047944e+00 7.6382716053606137e+00 7.0123903438363557e+00 3 0 1
1435 1 6.8932258318307760e+00 6.0919954708339095e+00 6.2153395497745541e+00 1 0 1
5027 1 3.3018007570991548e-01 7.8407331149096811e+00 6.9113985655981800e+00 2 1 0
4988 1 1.8871879204531075e-01 2.6429341398970339e+00 5.8525530041400300e+00 0 -1 0
4539 1 9.2027310489200362e-02 1.0555141681013252e+01 3.4680266636998414e+00 5 -1 1
1447 1 1.1759256755454030e-01 5.1578757618348421e+00 2.5371602170471146e+00 2 1 1
1697 1 3.6057580599604538e-01 1.0627267892802912e+01 6.1837339924620620e+00 -2 4 1
82 1 2.5410152261602428e+00 1.1516915568277588e+00 1.0294550680771218e+01 2 -1 1
4872 1 2.3979964432532088e+00 3.8562668124540038e+00 9.5777824722766791e+00 1 1 0
6278 1 7.1463863194276316e+00 8.3017923337982280e-01 1.0482564963213665e+01 -1 2 0
1361 1 7.0797510163000510e+00 3.7380257898816853e+00 9.8301606720104004e+00 -1 -1 1
1320 1 4.6255404957325688e+00 7.6371074947128976e+00 1.0069685960892109e+01 1 0 1
1836 1 2.6264845714804812e+00 8.8268479384473011e+00 1.3769992505139122e+01 1 -3 0
4596 1 2.3083722770462902e+00 1.1575033679111867e+01 1.4329370634457074e+01 -1 1 1
3146 1 4.9022602490384051e+00 4.9482805011210322e+00 1.0577931609229282e+01 0 -3 1
2934 1 9.2369944620686546e+00 7.9738310617219490e+00 9.6490851581397958e+00 2 0 1
1622 1 9.2651845794807777e+00 5.0309356311031106e+00 1.0397796244027205e+01 0 2 1
1645 1 2.2435813238263611e+00 8.8350824891309649e+00 1.0929564896523384e+01 -2 2 1
1451 1 2.4026916893828676e+00 1.1365784072814293e+01 1.0034076411491792e+01 -2 1 1
3647 1 6.9096357338048717e+00 1.1707850795344910e+01 1.0030708071400440e+01 -1 -1 0
6291 1 6.9299331486201332e+00 9.1078690662976669e+00 1.0619683160829256e+01 1 -1 1
3135 1 2.5203539367486623e+00 1.4055128708544595e+00 1.3120741287922220e+01 0 2 0
413 1 2.2637940908086209e+00 4.0085028354395851e+00 1.4339495701568515e+01 -1 0 0
4672 1 1.9353982660972729e-01 5.2148060648979593e+00 1.0549235387475314e+01 2 0 1
3487 1 6.8333447889075973e+00 8.9008409147600265e+00 1.3459787002387543e+01 1 0 0
4940 1 7.0321586986467208e+00 7.6613463628015999e-01 1.3254193157496577e+01 0 -1 1
6446 1 7.3074887112238285e+00 3.5873420693753104e+00 1.4071011220850378e+01 1 0 1
520 1 9.3152603251462711e+00 7.6377765940754374e+00 1.4514212078503650e+01 2 0 1
1993 1 4.7275421881995108e+00 4.6728548833865018e+00 1.3463805428532968e+01 2 0 0
4603 1 4.8901303690483955e+00 7.2845953292122658e+00 1.4379906141657763e+01 3 0 1
1312 1 9.5059699125747343e+00 4.9994881814057957e+00 1.3186850799291209e+01 0 -1 1
5161 1 6.8001813024419411e+00 1.1552059767622357e+01 1.4484134240746108e+01 3 3 1
3493 1 2.2209825707525499e-01 7.6890788485810990e+00 1.4421480712554914e+01 1 2 0
5116 1 1.5386992895533141e-01 7.8280818663541254e+00 9.6567906829901027e+00 -1 -2 1
3395 1 4.0171239900966266e-01 9.6437768551023054e-02 1.4381487358677159e+01 3 -1 0
4550 1 2.1530495679467885e+00 3.5558423501888643e+00 1.7072579526174298e+01 2 3 1
1492 1 5.9445950242854284e+00 1.1229622489927333e+01 2.1119941336176655e+01 0 0 1
5180 1 8.8238327821876723e+00 1.0080150717248726e+01 2.1020883597830792e+01 -3 1 0
6149 1 4.3411654147659196e+00 2.2816436765772150e+00 1.8169249987910874e+01 1 2 1
3116 1 6.9399108089713026e+00 3.5299971714903249e+00 1.6819296995971779e+01 1 2 1
5230 1 8.9956538216228701e+00 1.7641331663145465e+00 1.7413089000375940e+01 -1 0 0
5135 1 2.4320438909303306e+00 6.2683586390620460e+00 1.8010565313493839e+01 0 -2 0
5340 1 1.0770158459778978e+00 1.0584438781718823e+01 2.0738634635580375e+01 1 2 0
1715 1 4.7413294797627490e+00 7.6354326349481925e+00 1.7195522415933421e+01 3 0 0
1481 1 8.8225319711799770e+00 7.4604807754460998e+00 1.7270408512282224e+01 0 -1 1
4986 1 6.7529735345224022e+00 6.0448902728015419e+00 1.8253457907294198e+01 1 0 0
5205 1 2.5655144483002097e+00 1.1856364439029495e+01 1.7272142579318729e+01 0 -1 0
3198 1 4.5830686322233261e+00 1.0157473014256285e+01 1.8178584205185985e+01 2 0 0
1936 1 3.8635834455417823e+00 9.3874965604325418e+00 2.1027119331838847e+01 1 -1 0
3728 1 9.2992651203513059e+00 9.9402805195343475e+00 1.8134006428935269e+01 0 0 1
3263 1 6.9791193298858056e+00 1.1268197973336159e+01 1.7369032359729509e+01 1 0 0
1664 1 1.9116574944420663e+00 3.0744622123383363e+00 2.0891524315452887e+01 2 -2 0
234 1 4.3582939816091146e+00 1.9299175140020883e+00 2.1154168674412890e+01 1 4 0
1914 1 9.0374536160272605e+00 1.6171740562574657e+00 2.0093054414231187e+01 -2 1 1
4689 1 6.8576114529870766e+00 2.8374393986642725e+00 2.1418703427192490e+01 -1 -1 1
2167 1 1.6700574365194607e+00 5.9659261649264419e+00 2.0807996058213849e+01 -2 2 1
3222 1 4.1418618605790449e+00 6.4593758559394638e+00 2.1493216475565127e+01 -1 0 1
3258 1 9.1133069344689055e+00 7.3314032564063947e+00 2.1448959859674382e+01 0 3 1
425 1 6.9196100047950742e+00 5.5158990482977810e+00 2.0901608783236810e+01 1 -1 0
1415 1 1.8872297699791851e-01 2.3094866218484387e+00 1.8538364160776084e+01 1 1 1
2214 1 3.6089187650051799e-02 1.0817946011660883e+01 1.7954592756377409e+01 -2 1 1
1515 1 2.9132660942469474e-01 7.9859324602255475e+00 1.7247831011013083e+01 1 1 1
4504 1 4.1690385346921373e+00 1.4589280422070874e+00 2.4084281479938323e+01 -3 2 1
8 1 1.7080126743598190e+00 2.5516972583108228e+00 2.3596590106342401e+01 1 0 1
1477 1 8.9280301235757342e+00 1.6381080111459936e+00 2.4402588661089847e+01 -1 -1 1
175 1 6.7253984124157213e+00 2.8028458187039305e+00 2.4129459149636840e+01 1 3 0
4707 1 3.4108442389793971e+00 6.6604798016119657e+00 2.4510287098877399e+01 1 -2 1
1454 1 9.7791124415745212e-01 5.4347814502126859e+00 2.4315626650173776e+01 -1 -1 1
4879 1 6.0722008939446379e+00 5.6447308937542191e+00 2.3840566941925726e+01 0 0 0
3741 1 8.6679044813349915e+00 7.1996734813072729e+00 2.4050964323201459e+01 0 1 1
3013 1 3.5437023585129266e+00 9.6171065756174681e+00 2.4215242979923037e+01 0 0 1
242 1 1.3093225554026813e+00 1.0947469069615419e+01 2.3813533786197251e+01 0 1 0
6445 1 8.7180947307398853e+00 1.0127414618730421e+01 2.3938334971303867e+01 2 3 0
5140 1 6.0512946474475182e+00 1.1140615164169095e+01 2.4097146510135225e+01 -2 1 0
572 2 0.0000000000000000e+00 2.8417180249513345e+00 2.6736199777021316e+01 0 0 0
574 2 0.0000000000000000e+00 0.0000000000000000e+00 2.6736199777021316e+01 0 0 0
576 2 1.2305000000000001e+00 7.1042950623783474e-01 2.6736199777021316e+01 0 0 0
583 2 1.2305000000000001e+00 2.1312885187134998e+00 2.6736199777021316e+01 0 0 0
585 2 2.4610000000000003e+00 2.8417180249513345e+00 2.6736199777021316e+01 0 0 0
587 2 2.4610000000000003e+00 0.0000000000000000e+00 2.6736199777021316e+01 0 0 0
589 2 3.6915000000000004e+00 7.1042950623783474e-01 2.6736199777021316e+01 0 0 0
604 2 3.6914999999999996e+00 2.1312885187134998e+00 2.6736199777021316e+01 0 0 0
606 2 4.9220000000000006e+00 2.8417180249513332e+00 2.6736199777021316e+01 0 0 0
608 2 4.9220000000000006e+00 0.0000000000000000e+00 2.6736199777021316e+01 0 0 0
610 2 6.1524999999999999e+00 7.1042950623783407e-01 2.6736199777021316e+01 0 0 0
633 2 6.1524999999999999e+00 2.1312885187134989e+00 2.6736199777021316e+01 0 0 0
635 2 7.3829999999999991e+00 2.8417180249513345e+00 2.6736199777021316e+01 0 0 0
637 2 7.3829999999999991e+00 0.0000000000000000e+00 2.6736199777021316e+01 0 0 0
639 2 8.6134999999999984e+00 7.1042950623783407e-01 2.6736199777021316e+01 0 0 0
670 2 8.6134999999999984e+00 2.1312885187135002e+00 2.6736199777021316e+01 0 0 0
579 2 0.0000000000000000e+00 4.2625770374269996e+00 2.6736199777021316e+01 0 0 0
581 2 1.2305000000000001e+00 4.9730065436648339e+00 2.6736199777021316e+01 0 0 0
596 2 1.2305000000000001e+00 6.3938655561404980e+00 2.6736199777021316e+01 0 0 0
600 2 2.4610000000000003e+00 4.2625770374269996e+00 2.6736199777021316e+01 0 0 0
602 2 3.6914999999999996e+00 4.9730065436648339e+00 2.6736199777021316e+01 0 0 0
625 2 3.6914999999999996e+00 6.3938655561404980e+00 2.6736199777021316e+01 0 0 0
577 2 0.0000000000000000e+00 7.1042950623783341e+00 2.6736199777021316e+01 0 0 0
598 2 2.4610000000000003e+00 7.1042950623783341e+00 2.6736199777021316e+01 0 0 0
629 2 4.9220000000000006e+00 4.2625770374269978e+00 2.6736199777021316e+01 0 0 0
631 2 6.1524999999999999e+00 4.9730065436648339e+00 2.6736199777021316e+01 0 0 0
662 2 6.1524999999999999e+00 6.3938655561404980e+00 2.6736199777021316e+01 0 0 0
666 2 7.3829999999999991e+00 4.2625770374269996e+00 2.6736199777021316e+01 0 0 0
668 2 8.6135000000000002e+00 4.9730065436648339e+00 2.6736199777021316e+01 0 0 0
707 2 8.6135000000000002e+00 6.3938655561404980e+00 2.6736199777021316e+01 0 0 0
627 2 4.9220000000000006e+00 7.1042950623783341e+00 2.6736199777021316e+01 0 0 0
664 2 7.3830000000000009e+00 7.1042950623783341e+00 2.6736199777021316e+01 0 0 0
592 2 0.0000000000000000e+00 8.5251540748539991e+00 2.6736199777021316e+01 0 0 0
594 2 1.2305000000000001e+00 9.2355835810918343e+00 2.6736199777021316e+01 0 0 0
621 2 2.4610000000000003e+00 8.5251540748539991e+00 2.6736199777021316e+01 0 0 0
623 2 3.6915000000000004e+00 9.2355835810918343e+00 2.6736199777021316e+01 0 0 0
590 2 0.0000000000000000e+00 1.1366872099805333e+01 2.6736199777021316e+01 0 0 0
617 2 1.2305000000000001e+00 1.0656442593567498e+01 2.6736199777021316e+01 0 0 0
619 2 2.4610000000000003e+00 1.1366872099805333e+01 2.6736199777021316e+01 0 0 0
654 2 3.6914999999999996e+00 1.0656442593567499e+01 2.6736199777021316e+01 0 0 0
703 2 7.3830000000000009e+00 8.5251540748539991e+00 2.6736199777021316e+01 0 0 0
705 2 8.6134999999999984e+00 9.2355835810918343e+00 2.6736199777021316e+01 0 0 0
658 2 4.9220000000000006e+00 8.5251540748539991e+00 2.6736199777021316e+01 0 0 0
746 2 8.6134999999999984e+00 1.0656442593567498e+01 2.6736199777021316e+01 0 0 0
660 2 6.1524999999999999e+00 9.2355835810918343e+00 2.6736199777021316e+01 0 0 0
699 2 6.1524999999999999e+00 1.0656442593567499e+01 2.6736199777021316e+01 0 0 0
701 2 7.3829999999999991e+00 1.1366872099805333e+01 2.6736199777021316e+01 0 0 0
656 2 4.9220000000000006e+00 1.1366872099805333e+01 2.6736199777021316e+01 0 0 0
573 2 0.0000000000000000e+00 1.4208590124756650e+00 3.0030999999994336e+01 0 0 0
575 2 0.0000000000000000e+00 0.0000000000000000e+00 3.0030999999994336e+01 0 0 0
584 2 1.2305000000000001e+00 2.1312885187134998e+00 3.0030999999994336e+01 0 0 0
586 2 2.4610000000000003e+00 1.4208590124756650e+00 3.0030999999994336e+01 0 0 0
588 2 2.4610000000000003e+00 0.0000000000000000e+00 3.0030999999994336e+01 0 0 0
605 2 3.6914999999999996e+00 2.1312885187134998e+00 3.0030999999994336e+01 0 0 0
582 2 1.2305000000000001e+00 3.5521475311891644e+00 3.0030999999994336e+01 0 0 0
603 2 3.6914999999999996e+00 3.5521475311891644e+00 3.0030999999994336e+01 0 0 0
901 2 0.0000000000000000e+00 2.8417180249513345e+00 3.3325800222956460e+01 0 0 0
902 2 0.0000000000000000e+00 0.0000000000000000e+00 3.3325800222956460e+01 0 0 0
903 2 1.2305000000000001e+00 7.1042950623783474e-01 3.3325800222956460e+01 0 0 0
907 2 1.2305000000000001e+00 2.1312885187134998e+00 3.3325800222956460e+01 0 0 0
908 2 2.4610000000000003e+00 2.8417180249513345e+00 3.3325800222956460e+01 0 0 0
909 2 2.4610000000000003e+00 0.0000000000000000e+00 3.3325800222956460e+01 0 0 0
910 2 3.6915000000000004e+00 7.1042950623783474e-01 3.3325800222956460e+01 0 0 0
918 2 3.6914999999999996e+00 2.1312885187134998e+00 3.3325800222956460e+01 0 0 0
607 2 4.9220000000000006e+00 1.4208590124756650e+00 3.0030999999994336e+01 0 0 0
609 2 4.9220000000000006e+00 0.0000000000000000e+00 3.0030999999994336e+01 0 0 0
634 2 6.1524999999999999e+00 2.1312885187134989e+00 3.0030999999994336e+01 0 0 0
636 2 7.3829999999999991e+00 1.4208590124756659e+00 3.0030999999994336e+01 0 0 0
638 2 7.3829999999999991e+00 0.0000000000000000e+00 3.0030999999994336e+01 0 0 0
671 2 8.6134999999999984e+00 2.1312885187135002e+00 3.0030999999994336e+01 0 0 0
632 2 6.1524999999999999e+00 3.5521475311891644e+00 3.0030999999994336e+01 0 0 0
669 2 8.6134999999999984e+00 3.5521475311891657e+00 3.0030999999994336e+01 0 0 0
919 2 4.9220000000000006e+00 2.8417180249513332e+00 3.3325800222956460e+01 0 0 0
920 2 4.9220000000000006e+00 0.0000000000000000e+00 3.3325800222956460e+01 0 0 0
921 2 6.1524999999999999e+00 7.1042950623783407e-01 3.3325800222956460e+01 0 0 0
933 2 6.1524999999999999e+00 2.1312885187134989e+00 3.3325800222956460e+01 0 0 0
934 2 7.3829999999999991e+00 2.8417180249513345e+00 3.3325800222956460e+01 0 0 0
935 2 7.3829999999999991e+00 0.0000000000000000e+00 3.3325800222956460e+01 0 0 0
936 2 8.6134999999999984e+00 7.1042950623783407e-01 3.3325800222956460e+01 0 0 0
952 2 8.6134999999999984e+00 2.1312885187135002e+00 3.3325800222956460e+01 0 0 0
578 2 0.0000000000000000e+00 5.6834360499026637e+00 3.0030999999994336e+01 0 0 0
580 2 0.0000000000000000e+00 4.2625770374269996e+00 3.0030999999994336e+01 0 0 0
597 2 1.2305000000000001e+00 6.3938655561404980e+00 3.0030999999994336e+01 0 0 0
599 2 2.4610000000000003e+00 5.6834360499026637e+00 3.0030999999994336e+01 0 0 0
601 2 2.4610000000000003e+00 4.2625770374269996e+00 3.0030999999994336e+01 0 0 0
626 2 3.6914999999999996e+00 6.3938655561404980e+00 3.0030999999994336e+01 0 0 0
595 2 1.2305000000000001e+00 7.8147245686161639e+00 3.0030999999994336e+01 0 0 0
624 2 3.6914999999999996e+00 7.8147245686161639e+00 3.0030999999994336e+01 0 0 0
905 2 0.0000000000000000e+00 4.2625770374269996e+00 3.3325800222956460e+01 0 0 0
906 2 1.2305000000000001e+00 4.9730065436648339e+00 3.3325800222956460e+01 0 0 0
914 2 1.2305000000000001e+00 6.3938655561404980e+00 3.3325800222956460e+01 0 0 0
916 2 2.4610000000000003e+00 4.2625770374269996e+00 3.3325800222956460e+01 0 0 0
917 2 3.6914999999999996e+00 4.9730065436648339e+00 3.3325800222956460e+01 0 0 0
929 2 3.6914999999999996e+00 6.3938655561404980e+00 3.3325800222956460e+01 0 0 0
904 2 0.0000000000000000e+00 7.1042950623783341e+00 3.3325800222956460e+01 0 0 0
915 2 2.4610000000000003e+00 7.1042950623783341e+00 3.3325800222956460e+01 0 0 0
628 2 4.9220000000000006e+00 5.6834360499026637e+00 3.0030999999994336e+01 0 0 0
630 2 4.9220000000000006e+00 4.2625770374269978e+00 3.0030999999994336e+01 0 0 0
663 2 6.1524999999999999e+00 6.3938655561404980e+00 3.0030999999994336e+01 0 0 0
665 2 7.3829999999999991e+00 5.6834360499026637e+00 3.0030999999994336e+01 0 0 0
667 2 7.3829999999999991e+00 4.2625770374269996e+00 3.0030999999994336e+01 0 0 0
708 2 8.6135000000000002e+00 6.3938655561404980e+00 3.0030999999994336e+01 0 0 0
661 2 6.1524999999999999e+00 7.8147245686161639e+00 3.0030999999994336e+01 0 0 0
706 2 8.6135000000000002e+00 7.8147245686161639e+00 3.0030999999994336e+01 0 0 0
931 2 4.9220000000000006e+00 4.2625770374269978e+00 3.3325800222956460e+01 0 0 0
932 2 6.1524999999999999e+00 4.9730065436648339e+00 3.3325800222956460e+01 0 0 0
948 2 6.1524999999999999e+00 6.3938655561404980e+00 3.3325800222956460e+01 0 0 0
950 2 7.3829999999999991e+00 4.2625770374269996e+00 3.3325800222956460e+01 0 0 0
951 2 8.6135000000000002e+00 4.9730065436648339e+00 3.3325800222956460e+01 0 0 0
971 2 8.6135000000000002e+00 6.3938655561404980e+00 3.3325800222956460e+01 0 0 0
930 2 4.9220000000000006e+00 7.1042950623783341e+00 3.3325800222956460e+01 0 0 0
949 2 7.3830000000000009e+00 7.1042950623783341e+00 3.3325800222956460e+01 0 0 0
591 2 0.0000000000000000e+00 9.9460130873296642e+00 3.0030999999994336e+01 0 0 0
593 2 0.0000000000000000e+00 8.5251540748539991e+00 3.0030999999994336e+01 0 0 0
620 2 2.4610000000000003e+00 9.9460130873296642e+00 3.0030999999994336e+01 0 0 0
622 2 2.4610000000000003e+00 8.5251540748539991e+00 3.0030999999994336e+01 0 0 0
616 2 1.2305000000000001e+00 1.2077301606043163e+01 3.0030999999994336e+01 0 0 0
618 2 1.2305000000000001e+00 1.0656442593567498e+01 3.0030999999994336e+01 0 0 0
653 2 3.6914999999999996e+00 1.2077301606043163e+01 3.0030999999994336e+01 0 0 0
655 2 3.6914999999999996e+00 1.0656442593567499e+01 3.0030999999994336e+01 0 0 0
912 2 0.0000000000000000e+00 8.5251540748539991e+00 3.3325800222956460e+01 0 0 0
913 2 1.2305000000000001e+00 9.2355835810918343e+00 3.3325800222956460e+01 0 0 0
927 2 2.4610000000000003e+00 8.5251540748539991e+00 3.3325800222956460e+01 0 0 0
928 2 3.6915000000000004e+00 9.2355835810918343e+00 3.3325800222956460e+01 0 0 0
911 2 0.0000000000000000e+00 1.1366872099805333e+01 3.3325800222956460e+01 0 0 0
925 2 1.2305000000000001e+00 1.0656442593567498e+01 3.3325800222956460e+01 0 0 0
926 2 2.4610000000000003e+00 1.1366872099805333e+01 3.3325800222956460e+01 0 0 0
944 2 3.6914999999999996e+00 1.0656442593567499e+01 3.3325800222956460e+01 0 0 0
657 2 4.9220000000000006e+00 9.9460130873296642e+00 3.0030999999994336e+01 0 0 0
659 2 4.9220000000000006e+00 8.5251540748539991e+00 3.0030999999994336e+01 0 0 0
702 2 7.3830000000000009e+00 9.9460130873296642e+00 3.0030999999994336e+01 0 0 0
704 2 7.3830000000000009e+00 8.5251540748539991e+00 3.0030999999994336e+01 0 0 0
698 2 6.1524999999999999e+00 1.2077301606043163e+01 3.0030999999994336e+01 0 0 0
700 2 6.1524999999999999e+00 1.0656442593567499e+01 3.0030999999994336e+01 0 0 0
745 2 8.6135000000000002e+00 1.2077301606043163e+01 3.0030999999994336e+01 0 0 0
747 2 8.6134999999999984e+00 1.0656442593567498e+01 3.0030999999994336e+01 0 0 0
946 2 4.9220000000000006e+00 8.5251540748539991e+00 3.3325800222956460e+01 0 0 0
947 2 6.1524999999999999e+00 9.2355835810918343e+00 3.3325800222956460e+01 0 0 0
969 2 7.3830000000000009e+00 8.5251540748539991e+00 3.3325800222956460e+01 0 0 0
970 2 8.6134999999999984e+00 9.2355835810918343e+00 3.3325800222956460e+01 0 0 0
945 2 4.9220000000000006e+00 1.1366872099805333e+01 3.3325800222956460e+01 0 0 0
967 2 6.1524999999999999e+00 1.0656442593567499e+01 3.3325800222956460e+01 0 0 0
968 2 7.3829999999999991e+00 1.1366872099805333e+01 3.3325800222956460e+01 0 0 0
991 2 8.6134999999999984e+00 1.0656442593567498e+01 3.3325800222956460e+01 0 0 0
3058 1 2.2741323706623988e+00 2.9146560367573584e+00 3.6001841203808759e+01 3 1 -1
6425 1 7.1738322990960173e+00 2.9930276463511536e+00 3.6408953279727513e+01 -1 -2 0
1696 1 7.3177172441939238e+00 8.7731491589131014e+00 3.6320303011185743e+01 2 1 -1
1485 1 7.0175097049756721e+00 1.1813906495037253e+01 3.5944663977331054e+01 2 0 0
2133 1 4.9193597964294637e+00 4.3682376293607907e+00 3.6190198372437457e+01 0 1 0
3466 1 9.7129726705641470e+00 4.4675568639972534e+00 3.5914844302624644e+01 1 -1 -1
6280 1 5.0773829615000379e+00 7.4526119370656936e+00 3.6133467849184036e+01 1 1 0
3430 1 2.5544160507795679e+00 1.1955906473241056e+01 3.5983529059170635e+01 4 -5 0
1406 1 9.6034573478251843e+00 7.0635314620898599e+00 3.6461708254533953e+01 2 1 0
5114 1 2.6317959885790199e+00 9.0975278996153932e+00 3.5798013332778112e+01 1 1 -1
399 1 6.3848739605931804e-01 6.9103077506516621e+00 3.5824012678682514e+01 1 1 -1
1997 1 7.1573458654995683e+00 1.1350582736644420e-01 3.5809853276557973e+01 0 0 -1
40 1 2.5609091821381975e+00 1.0423500666769590e-02 3.5772657502731974e+01 1 3 0
142 1 2.1762482675929937e+00 2.2766309954313670e+00 3.9016862190880637e+01 1 1 -1
5317 1 4.8661797611480626e+00 3.5686988720713195e+00 3.9606872279822547e+01 -1 0 -1
6429 1 4.5773229356064327e-01 9.2135523201966796e-01 4.3767369385446081e+01 3 -2 -1
3423 1 7.1723206835163218e+00 2.2111602681083165e+00 3.9058580180835826e+01 1 1 -1
2936 1 6.9360800956688990e+00 4.2743164815145835e+00 4.3751669899302350e+01 1 1 -1
3786 1 1.2870543091362248e+00 6.3116992480052199e+00 3.8355181678371252e+01 -1 0 0
5051 1 3.9826585367357534e+00 6.1787092165107378e+00 3.8548020973472440e+01 1 2 -1
540 1 4.7880931858588447e+00 8.5239391123460884e+00 3.9942800229961883e+01 1 -1 0
2960 1 2.8814849749467669e-01 8.9101933185989139e+00 4.2215427248212052e+01 -1 1 0
6440 1 9.4209414096248967e+00 8.2957985658577087e+00 4.2960612369003520e+01 0 1 -1
1493 1 9.3165657509692004e+00 8.2148309684153542e+00 4.0205214511057079e+01 2 1 -1
5075 1 2.6211242235035583e+00 1.0012620985802801e+01 3.8749497358759839e+01 1 0 -1
191 1 9.0667415728844940e+00 1.0897618804010996e+01 4.4067119492628933e+01 0 0 -1
3331 1 6.9855938863393954e+00 1.2144388517740055e+01 4.0007962609635896e+01 0 2 -1
6322 1 7.3011420243445349e+00 9.3929184812131457e+00 3.9115686222366982e+01 0 2 -1
4865 1 4.6793934744392862e+00 9.0154716579738892e-01 4.3631169389900435e+01 -1 2 0
6463 1 4.5362814719109812e+00 3.2902363991034362e+00 4.2583797791516190e+01 2 3 0
389 1 9.4921129983158075e+00 3.1863214933807580e+00 3.9984562541104175e+01 1 -1 0
266 1 1.6783929375909815e-01 3.6968770030411124e+00 3.9755406972362138e+01 0 -1 0
2974 1 9.3030117517535018e+00 5.3378571910273243e-01 4.3437774901008169e+01 3 1 -1
1969 1 9.2098436531520331e+00 3.2899757611016422e+00 4.2731009551128196e+01 3 1 0
1339 1 2.4330154628407055e+00 7.5632040699693901e+00 4.3603526829537287e+01 -1 0 0
4809 1 2.5573538404182257e+00 4.7230664378681446e+00 4.3675570303381612e+01 2 0 0
4636 1 7.2980621457822625e+00 6.9838293510709564e+00 4.4000418770966434e+01 1 2 -1
377 1 4.8548891220363988e+00 8.0707949927234992e+00 4.2831281738946025e+01 0 3 -1
1431 1 4.6677545862662679e+00 1.0599488597494611e+01 4.3707365920982141e+01 0 0 0
1329 1 3.6788604624099575e-01 8.6671305358862281e+00 3.9572954798900348e+01 1 0 0
4792 1 9.5736638911453138e+00 5.6700906085180653e+00 3.8981271167187103e+01 1 1 0
3446 1 6.8933988885033877e+00 1.1954348592394959e+01 4.2955255892709403e+01 0 3 0
6258 1 8.9950974692321495e-02 1.1063997481888428e+01 4.3658495467275081e+01 0 1 -1
1430 1 3.4681341181847297e-01 3.5805169966638202e+00 4.2593034054947545e+01 0 1 0
4720 1 6.9302878076956835e+00 9.7234822040847213e+00 5.0475649662384662e+01 1 1 0
6479 1 2.4533115315491547e+00 3.7833006369448317e+00 4.6288950467501500e+01 1 1 -1
93 1 2.7025256875264481e-01 1.1085547458345276e+01 5.0937954675557563e+01 0 1 -1
3625 1 5.1843480772263639e+00 3.3560159436617609e+00 4.7540441381768851e+01 -2 1 0
163 1 6.8731259580439765e+00 7.3569364168844213e+00 5.1539277540442022e+01 -1 -1 -1
5342 1 7.8796954563939163e+00 3.4671571099797198e+00 4.6219342450538953e+01 0 1 0
6254 1 9.5836303626975052e+00 7.7669556161885034e-01 4.6160760475647244e+01 -1 2 0
6332 1 2.3481786823506856e+00 7.1419614734483421e+00 4.6562894625939471e+01 -1 1 -1
564 1 4.6797688465130225e+00 6.3584485443637710e+00 4.7575303559855854e+01 1 0 -1
4739 1 4.7206415687553580e+00 1.1135639805064576e+01 5.0729587216185919e+01 3 1 -1
2150 1 7.0402628222817105e+00 7.3595730901977285e+00 4.6986672227737515e+01 0 1 -1
565 1 5.2515663942862796e+00 8.3948571794567572e-01 5.1463307770884356e+01 0 -2 -1
293 1 2.0762803976046840e+00 9.8066204324587574e+00 4.7155151093324847e+01 1 1 -1
3217 1 8.9899834700514862e+00 5.7579409726232491e+00 5.0655891219461530e+01 2 1 0
6391 1 4.4634922028421906e+00 1.0722417866148815e+01 4.6379755437704553e+01 -3 0 0
1467 1 9.1335035010781240e+00 1.1150085225093980e+01 4.6881461573934189e+01 1 1 0
4874 1 6.8397768285260181e+00 9.9441925441482599e+00 4.7782984582676299e+01 2 -3 -1
1302 1 5.0061290663510896e+00 7.7898005173418683e-01 4.6461309977833068e+01 2 2 0
1777 1 4.7833463706570883e-01 9.1257460728723139e-01 5.1614940599309520e+01 1 0 -1
281 1 2.5147508307636612e+00 1.0125419518041086e+01 4.9817144964133384e+01 2 -1 -1
6165 1 6.0448141796539190e+00 3.2234579375253980e+00 5.0180427384997031e+01 0 1 0
1597 1 8.8050586337809751e+00 2.7724491866959760e+00 5.0621522305941404e+01 -1 3 -1
1292 1 2.5080603311670373e+00 7.4971628943030630e+00 5.0910548712750831e+01 0 1 0
6328 1 4.7867736413547499e+00 6.0391316924621972e+00 5.0319394962870618e+01 -1 1 0
59 1 9.5438507449977621e+00 1.1017138810903726e+01 5.0884240430905898e+01 1 3 -1
3333 1 9.0953182523964387e+00 5.7081275228727559e+00 4.7849652978553159e+01 -1 0 -1
5160 1 9.7662751981891738e+00 2.7362566305383323e-01 5.1313801292997645e+01 -1 1 -1
2080 1 8.5737877669948032e-02 6.1247609834058263e+00 4.7540890991640268e+01 -1 -1 -1
1542 1 2.7478154810067112e-01 6.0636372830524881e+00 5.0439261099304332e+01 0 1 0
3578 1 4.7106532625274783e-01 7.1576032199968975e-01 4.6485697022398135e+01 1 2 -1
6474 1 9.5243766795128177e+00 3.6268798887061764e+00 5.3118164413731499e+01 -1 2 0
3111 1 4.6887959380364217e+00 3.9866843599438058e+00 5.2974723993610283e+01 0 2 0
4997 1 4.9825276629577004e+00 1.3507019490603460e+00 5.4261036732295103e+01 3 2 -1
1760 1 9.3841303442760964e+00 8.1395892138374411e+00 5.7365417574827433e+01 1 2 0
1935 1 9.3710422167354483e+00 7.5647803192259766e-01 5.4168759196523062e+01 1 0 -1
2171 1 2.5232244180405887e+00 4.9727902884612014e+00 5.4207262041824485e+01 3 2 -1
6464 1 2.4110598614222734e+00 7.6734531874147933e+00 5.3658792162730222e+01 -1 0 0
165 1 6.9948682486404561e+00 4.9658513832211302e+00 5.4288899356071369e+01 1 1 -1
1315 1 6.7723865975123454e+00 7.6816685102604945e+00 5.3943125624040661e+01 0 1 0
3750 1 4.6582666253932938e+00 8.5968896990209487e+00 5.4905680001722352e+01 1 0 0
5060 1 6.9466855511419343e+00 9.4388599517577667e+00 5.8214839230053023e+01 0 2 -1
4560 1 2.5928893353674689e+00 9.5110336069631067e+00 5.8403988238454389e+01 -4 0 0
1840 1 2.6253672441656939e-01 8.5122629982163804e+00 5.4914792573213568e+01 2 2 -1
410 1 4.5361598516373789e+00 1.1113441533987970e+01 5.3519183963854445e+01 2 0 -1
4819 1 9.7173335390456224e+00 1.0926722652085553e+01 5.3663752362136954e+01 0 1 -1
3330 1 9.1848132962407565e+00 8.5374284758897652e+00 5.4610547742884087e+01 2 1 0
3769 1 2.9138447691747342e+00 1.6919168874228752e+00 5.6492820935098756e+01 1 2 -1
3361 1 6.9905967830172626e+00 1.5444927113604772e+00 5.5887210269837354e+01 1 -2 -1
1422 1 2.4980051560617835e+00 1.2006181241551110e+01 5.7397210921216249e+01 1 -1 0
2169 1 2.4716419872726387e+00 4.4287549811589209e+00 5.6961357071371644e+01 0 0 0
3480 1 4.7204303325257451e+00 8.0502426315789286e+00 5.7551246866831789e+01 1 1 -1
5306 1 1.6419290950306420e-01 3.6542119591222813e+00 5.3405624642066336e+01 2 -2 0
3659 1 9.2098076773817841e+00 5.2011118847759725e+00 5.7930833106107663e+01 0 -1 0
3307 1 7.0124974075900770e+00 4.1687025364912467e+00 5.6679590056698679e+01 1 -1 -1
3624 1 4.8773316798742119e+00 5.2171211060349272e+00 5.8120596592035824e+01 2 0 0
5391 1 3.2899661929461715e-01 8.1571968231050338e+00 5.7635055005970720e+01 -1 -1 -1
3573 1 6.2564414668055379e-01 1.1183196303909109e+00 5.4643701179693402e+01 0 3 -1
2037 1 3.7442679898581577e-01 1.1041142947662600e+01 5.3633915556481021e+01 1 0 0
1901 1 2.5770328111133967e-01 5.5034528965023668e+00 5.8439463815649233e+01 -1 1 -1
4782 1 2.4963898802678028e+00 1.2240627551097553e+01 5.4817953545471440e+01 0 0 -1
3748 1 6.9769130986618029e+00 1.2235834824328329e+01 5.7455254065648234e+01 0 -2 0
1690 1 2.7363926878878031e+00 1.4582873518447329e+01 4.0190572971829646e+00 1 2 0
6483 1 4.7837323957291087e+00 1.3406128148655977e+01 2.7498394996093776e+00 1 2 0
5394 1 9.2464337670550503e+00 2.3613563871702844e+01 7.2385828596972512e+00 2 0 1
228 1 7.1889988326164156e+00 1.4496657156036809e+01 3.8577563063975400e+00 1 -1 1
3523 1 9.4692926078996500e+00 1.2845076017743315e+01 2.6014694502764391e+00 3 1 1
2901 1 2.3373147250291297e+00 1.7185799835508362e+01 2.9110731011689488e+00 2 2 0
3555 1 4.6352371099966740e+00 1.8492204247846665e+01 3.7469492654993903e+00 0 -1 1
5044 1 7.1538565368210683e-02 1.8399755661923798e+01 3.6774994912093804e+00 0 0 0
1863 1 9.1589445183627092e+00 1.8084619386226105e+01 3.7309514105581716e+00 -1 2 0
1804 1 6.5364976029557944e+00 1.6916065764570977e+01 2.7836430069829277e+00 0 0 0
4789 1 2.3843240624065531e+00 2.2336449973612108e+01 3.8558576447903339e+00 -1 -1 1
2959 1 4.6555559586781685e+00 2.0993249042284130e+01 2.9187590687459459e+00 2 3 1
4693 1 6.7760800578777802e+00 2.2207964471201969e+01 6.5475789232411650e+00 0 1 1
3134 1 9.3803146563888760e+00 2.0791110347731937e+01 2.9573373861598609e+00 -1 1 0
3173 1 7.0994186016386926e+00 2.2437076137019528e+01 3.6380825906644034e+00 -1 1 1
1682 1 2.3877554415503845e+00 2.2272893945734054e+01 6.5967181180429852e+00 -1 1 0