LAMMPS data file via write_data, version 16 Mar 2018, timestep = 100000

6489 atoms
2 atom types

0.0000000000000000e+00 4.9219999999999999e+01 xlo xhi
0.0000000000000000e+00 4.9019635930410494e+01 ylo yhi
2.0372381478551880e+00 5.8024761852144721e+01 zlo zhi

Masses

1 18.015
2 12.01

Atoms # atomic

5044 1 5.5291191934641128e+00 2.5264247283810315e+00 7.8165621330882376e+00 1 1 0
3128 1 1.2767168358869045e+00 4.7892120065912094e+00 5.5895508346732274e+00 1 1 1
141 1 2.7431806739261013e+00 1.1287112431366598e+01 2.7220558347081258e+00 0 0 0
2206 1 9.4341754072149122e+00 2.4368228865771715e+00 8.9013465873707975e+00 0 1 1
3512 1 8.8627531567981990e+00 4.4759903428781369e+00 4.3383604516557241e+00 1 0 0
4529 1 4.4893611368993120e+00 3.3509425608688472e+00 4.7856785813106448e+00 1 0 1
3465 1 1.9790103934796832e+00 7.4445138016338657e+00 6.1337426089698877e+00 0 0 0
4600 1 6.2923342755933813e+00 5.3814999252310525e+00 4.2756612308440278e+00 1 1 1
1548 1 4.4420614168636012e+00 6.5137823912528710e+00 6.5315664288877171e+00 1 1 0
16 1 2.0784752110364577e+00 1.6061236059530770e+00 2.3745538560228239e+00 0 0 1
2140 1 2.2163463983880720e+00 1.0179641916808308e+01 5.2225922206964928e+00 1 0 0
4566 1 9.4997707994001193e+00 6.1116272161479674e+00 6.5733695447676332e+00 -1 1 1
2086 1 2.2914887807615054e+00 4.3589003970303661e+00 2.8440770823698149e+00 1 0 0
69 1 4.2259269340087471e+00 1.0514517627324993e+01 7.1687953289679438e+00 1 0 1
1627 1 2.9418833192787295e+00 3.8306402310595167e+00 7.4490068393809619e+00 0 0 1
3510 1 1.9309142080845305e+00 1.3505513673106389e+00 8.4936527751602391e+00 1 0 0
6313 1 7.9517250096422734e+00 2.2376290433336332e+00 6.2768040412592319e+00 1 1 1
329 1 6.9122934708085477e+00 1.0925643935323370e+01 3.3056499032637197e+00 1 0 0
1836 1 9.2355942627310892e+00 1.0055389662710301e+01 7.9431096675070885e+00 0 0 0
3641 1 5.8677646979523663e+00 7.9035547524350820e+00 2.9266334969711609e+00 1 1 1
6318 1 6.0698138766968803e+00 8.8740526711685934e+00 5.7283196074497242e+00 1 1 1
394 1 7.7105828834760679e+00 7.7579718920223675e+00 7.6425995605181472e+00 1 1 1
1288 1 5.6518542717499090e+00 7.8398650467058728e-01 4.1360198957073866e+00 -1 0 1
1932 1 1.3577962376947523e+00 7.2518208176126171e+00 3.1973285284521431e+00 1 1 0
3343 1 1.2336879169392745e-01 7.7911147963455667e+00 8.1219817444100038e+00 1 1 0
1739 1 7.3332244743197919e+00 6.0179650154259248e+00 9.7780870509166835e+00 0 -1 1
3437 1 4.0024672620626554e+00 2.8514134399587703e+00 1.1840097592199703e+01 1 0 0
1657 1 3.5144148963322248e+00 9.9886688693656662e+00 9.5750509276075420e+00 0 0 0
92 1 8.7789168324602826e+00 3.2361875482219653e+00 1.4523202558030194e+01 1 1 0
2873 1 8.9588423302013336e+00 9.2104369505488091e+00 1.2606081298121715e+01 0 -1 1
208 1 9.6535171646610862e-01 8.5761431017829413e+00 1.3013423189814986e+01 1 0 0
1297 1 2.0293502098347540e+00 5.6594192481430925e+00 9.5301928581943471e+00 0 1 1
4982 1 7.1943535857673551e+00 7.2375898277853450e+00 1.2418562179224217e+01 0 0 0
4681 1 8.8338749339114404e+00 1.0668959848867891e+01 1.5040533041737685e+01 1 0 1
5140 1 6.2670550557371749e+00 3.2574933119983309e+00 1.0241348964421311e+01 1 0 0
4956 1 1.4141224338510596e+00 1.7839317890180693e+00 1.4942970368368689e+01 1 0 1
91 1 8.8228761787157133e+00 1.1282527000750184e+01 1.0647846459979474e+01 1 0 1
3796 1 5.7589957741234059e+00 1.1383729110685737e+01 1.0655385184779441e+01 0 0 1
3588 1 2.2098594312775721e+00 4.6963232589315167e+00 1.2120463350464513e+01 1 1 0
1511 1 3.1351767982734629e+00 4.3898523009196089e-01 1.0710986040772967e+01 1 1 0
6242 1 5.0239199698548225e+00 1.0794529783406446e+01 1.3262674741712551e+01 0 0 1
5267 1 5.7584526970676606e+00 1.9480550189185781e+00 1.3928362304297645e+01 1 0 0
4767 1 8.3158721847409698e+00 1.9219644048075375e+00 1.1984290976626639e+01 0 0 1
2947 1 2.8884201453540563e+00 6.6425043603364760e+00 1.4294492139857409e+01 0 1 0
5182 1 9.0774894757903024e-01 9.1307224215200851e+00 1.0487752352400481e+01 1 -1 0
1407 1 5.1235700962446922e+00 8.1583625239237296e+00 1.3786076187864083e+01 0 0 1
1665 1 7.8946575230217597e+00 6.1865640191781477e+00 1.4718595990477606e+01 0 1 1
6471 1 3.6481709491534309e+00 3.6932357954240080e+00 1.5131844986035999e+01 0 1 1
3290 1 4.6781032962854905e+00 7.3795403554103327e+00 9.3090445453448964e+00 0 0 0
3436 1 2.2548137641343926e+00 1.0917901498841415e+01 1.3671683855294154e+01 2 -1 0
4952 1 2.3238215150717849e+00 7.3034817593822288e+00 1.6690897609119691e+01 0 1 1
1994 1 6.7615291447684536e+00 1.8138282178089244e+00 1.8122255432041744e+01 0 1 0
1448 1 7.2351066793869609e+00 5.7306450720047195e+00 1.8132335513065154e+01 0 1 1
1650 1 1.6143388614903358e+00 7.0051402645582361e-01 2.1364943117125353e+01 1 1 1
1521 1 5.0094216008099943e+00 9.7646747614352361e+00 1.8282854331603740e+01 0 0 1
6285 1 8.5091205705297968e-01 3.6123631162584040e+00 1.8474559382775144e+01 1 1 0
4995 1 6.6648100746229408e+00 1.0812238769066647e+01 2.0736155385919862e+01 0 1 1
5396 1 6.1453840141673286e+00 1.4015568247316179e+00 2.1026812338989579e+01 1 0 0
6215 1 5.3536818093462228e+00 8.1636225160063471e+00 2.0981089293325763e+01 0 0 1
1506 1 1.9710841295637418e+00 9.8150542536409411e+00 1.7588816011105472e+01 1 0 1
3488 1 8.7680023691147291e+00 3.4819784450778242e+00 1.7378561703450124e+01 0 0 0
2096 1 3.1062153732386357e+00 1.0716775932847497e+01 2.0335379495189425e+01 0 1 1
3091 1 4.1173603876511136e+00 2.5918245152815095e-01 1.8702931462170326e+01 0 1 1
65 1 8.4532375916354585e+00 8.9694333585233554e+00 1.7050560178959593e+01 1 0 0
3594 1 3.9208731747544299e+00 6.6091519208362621e+00 1.8832589974120722e+01 -1 0 0
3174 1 3.0918779340511451e+00 2.8051410499162417e+00 1.9956613916298419e+01 0 -1 1
4665 1 7.7485050973682803e+00 3.5596510756412543e+00 2.1672240335723814e+01 1 0 1
3660 1 2.0211603530611892e+00 8.3273537025949977e+00 2.1590251061444057e+01 0 0 0
2019 1 2.5746660473683114e-01 5.7149516249059475e+00 1.6834360040427747e+01 1 0 0
4780 1 2.5252621438821210e+00 5.5109102479245138e+00 2.1253370959897598e+01 1 0 1
256 1 7.6243012723710732e+00 6.6432927288511223e+00 2.0839181675636731e+01 0 0 0
3464 1 4.6025907789523153e+00 3.8670005886552059e+00 1.7970022002755538e+01 0 0 0
3486 1 5.9725652562383003e+00 7.7339901634832513e+00 1.6611358440740631e+01 1 -1 0
1760 1 9.0969794538352904e+00 1.0209533840879601e+01 1.9451389339582608e+01 1 1 1
5052 1 5.4850948408534901e+00 1.7854454187861943e+00 2.4071653754389018e+01 0 1 0
5008 1 1.3675706852851774e+00 3.1871217836670960e+00 2.3240080533927866e+01 0 0 0
510 1 7.8961808471445796e+00 3.2348549180094239e+00 2.4329813174884002e+01 1 0 0
3516 1 1.7134394808035738e+00 8.6160203932871333e+00 2.4408799490344020e+01 2 1 0
3240 1 4.0880466618889537e+00 3.9182333558907234e+00 2.3708634050023878e+01 1 1 1
436 1 4.0796142928755357e+00 6.9286167190833305e+00 2.4784451573323061e+01 0 2 0
5284 1 7.5617676196598334e+00 6.2288125023855851e+00 2.3808025222432516e+01 1 1 0
3239 1 2.4049657513482008e+00 1.1222379579358311e+01 2.4380699695578695e+01 0 0 0
197 1 6.0788979178891633e+00 8.6062329403933404e+00 2.3844382424930313e+01 1 1 1
699 2 6.1524999999999999e+00 1.0656442593567499e+01 2.6878003830214826e+01 0 0 0
5374 1 6.7225605973371954e+00 1.1360156099004833e+01 2.3430130295700184e+01 0 0 0
572 2 0.0000000000000000e+00 2.8417180249513345e+00 2.6878003830214826e+01 0 0 0
574 2 0.0000000000000000e+00 0.0000000000000000e+00 2.6878003830214826e+01 0 0 0
576 2 1.2305000000000001e+00 7.1042950623783474e-01 2.6878003830214826e+01 0 0 0
583 2 1.2305000000000001e+00 2.1312885187134998e+00 2.6878003830214826e+01 0 0 0
585 2 2.4610000000000003e+00 2.8417180249513345e+00 2.6878003830214826e+01 0 0 0
587 2 2.4610000000000003e+00 0.0000000000000000e+00 2.6878003830214826e+01 0 0 0
589 2 3.6915000000000004e+00 7.1042950623783474e-01 2.6878003830214826e+01 0 0 0
604 2 3.6914999999999996e+00 2.1312885187134998e+00 2.6878003830214826e+01 0 0 0
606 2 4.9220000000000006e+00 2.8417180249513332e+00 2.6878003830214826e+01 0 0 0
608 2 4.9220000000000006e+00 0.0000000000000000e+00 2.6878003830214826e+01 0 0 0
610 2 6.1524999999999999e+00 7.1042950623783407e-01 2.6878003830214826e+01 0 0 0
633 2 6.1524999999999999e+00 2.1312885187134989e+00 2.6878003830214826e+01 0 0 0
635 2 7.3829999999999991e+00 2.8417180249513345e+00 2.6878003830214826e+01 0 0 0
637 2 7.3829999999999991e+00 0.0000000000000000e+00 2.6878003830214826e+01 0 0 0
639 2 8.6134999999999984e+00 7.1042950623783407e-01 2.6878003830214826e+01 0 0 0
670 2 8.6134999999999984e+00 2.1312885187135002e+00 2.6878003830214826e+01 0 0 0
579 2 0.0000000000000000e+00 4.2625770374269996e+00 2.6878003830214826e+01 0 0 0
581 2 1.2305000000000001e+00 4.9730065436648339e+00 2.6878003830214826e+01 0 0 0
596 2 1.2305000000000001e+00 6.3938655561404980e+00 2.6878003830214826e+01 0 0 0
600 2 2.4610000000000003e+00 4.2625770374269996e+00 2.6878003830214826e+01 0 0 0
602 2 3.6914999999999996e+00 4.9730065436648339e+00 2.6878003830214826e+01 0 0 0
625 2 3.6914999999999996e+00 6.3938655561404980e+00 2.6878003830214826e+01 0 0 0
577 2 0.0000000000000000e+00 7.1042950623783341e+00 2.6878003830214826e+01 0 0 0
598 2 2.4610000000000003e+00 7.1042950623783341e+00 2.6878003830214826e+01 0 0 0
629 2 4.9220000000000006e+00 4.2625770374269978e+00 2.6878003830214826e+01 0 0 0
631 2 6.1524999999999999e+00 4.9730065436648339e+00 2.6878003830214826e+01 0 0 0
662 2 6.1524999999999999e+00 6.3938655561404980e+00 2.6878003830214826e+01 0 0 0
666 2 7.3829999999999991e+00 4.2625770374269996e+00 2.6878003830214826e+01 0 0 0
668 2 8.6135000000000002e+00 4.9730065436648339e+00 2.6878003830214826e+01 0 0 0
707 2 8.6135000000000002e+00 6.3938655561404980e+00 2.6878003830214826e+01 0 0 0
627 2 4.9220000000000006e+00 7.1042950623783341e+00 2.6878003830214826e+01 0 0 0
664 2 7.3830000000000009e+00 7.1042950623783341e+00 2.6878003830214826e+01 0 0 0
592 2 0.0000000000000000e+00 8.5251540748539991e+00 2.6878003830214826e+01 0 0 0
594 2 1.2305000000000001e+00 9.2355835810918343e+00 2.6878003830214826e+01 0 0 0
621 2 2.4610000000000003e+00 8.5251540748539991e+00 2.6878003830214826e+01 0 0 0
623 2 3.6915000000000004e+00 9.2355835810918343e+00 2.6878003830214826e+01 0 0 0
590 2 0.0000000000000000e+00 1.1366872099805333e+01 2.6878003830214826e+01 0 0 0
617 2 1.2305000000000001e+00 1.0656442593567498e+01 2.6878003830214826e+01 0 0 0
619 2 2.4610000000000003e+00 1.1366872099805333e+01 2.6878003830214826e+01 0 0 0
654 2 3.6914999999999996e+00 1.0656442593567499e+01 2.6878003830214826e+01 0 0 0
746 2 8.6134999999999984e+00 1.0656442593567498e+01 2.6878003830214826e+01 0 0 0
660 2 6.1524999999999999e+00 9.2355835810918343e+00 2.6878003830214826e+01 0 0 0
658 2 4.9220000000000006e+00 8.5251540748539991e+00 2.6878003830214826e+01 0 0 0
656 2 4.9220000000000006e+00 1.1366872099805333e+01 2.6878003830214826e+01 0 0 0
703 2 7.3830000000000009e+00 8.5251540748539991e+00 2.6878003830214826e+01 0 0 0
701 2 7.3829999999999991e+00 1.1366872099805333e+01 2.6878003830214826e+01 0 0 0
705 2 8.6134999999999984e+00 9.2355835810918343e+00 2.6878003830214826e+01 0 0 0
3013 1 1.3725615248079466e+00 2.4208423902352141e-01 2.4174022175268110e+01 1 1 1
3732 1 9.3429133676984506e+00 1.2151496083178156e+01 2.3798792721460547e+01 0 0 1
573 2 0.0000000000000000e+00 1.4208590124756650e+00 3.0031000000000258e+01 0 0 0
575 2 0.0000000000000000e+00 0.0000000000000000e+00 3.0031000000000258e+01 0 0 0
584 2 1.2305000000000001e+00 2.1312885187134998e+00 3.0031000000000258e+01 0 0 0
586 2 2.4610000000000003e+00 1.4208590124756650e+00 3.0031000000000258e+01 0 0 0
588 2 2.4610000000000003e+00 0.0000000000000000e+00 3.0031000000000258e+01 0 0 0
605 2 3.6914999999999996e+00 2.1312885187134998e+00 3.0031000000000258e+01 0 0 0
582 2 1.2305000000000001e+00 3.5521475311891644e+00 3.0031000000000258e+01 0 0 0
603 2 3.6914999999999996e+00 3.5521475311891644e+00 3.0031000000000258e+01 0 0 0
901 2 0.0000000000000000e+00 2.8417180249513345e+00 3.3183996169784670e+01 0 0 0
902 2 0.0000000000000000e+00 0.0000000000000000e+00 3.3183996169784670e+01 0 0 0
903 2 1.2305000000000001e+00 7.1042950623783474e-01 3.3183996169784670e+01 0 0 0
907 2 1.2305000000000001e+00 2.1312885187134998e+00 3.3183996169784670e+01 0 0 0
908 2 2.4610000000000003e+00 2.8417180249513345e+00 3.3183996169784670e+01 0 0 0
909 2 2.4610000000000003e+00 0.0000000000000000e+00 3.3183996169784670e+01 0 0 0
910 2 3.6915000000000004e+00 7.1042950623783474e-01 3.3183996169784670e+01 0 0 0
918 2 3.6914999999999996e+00 2.1312885187134998e+00 3.3183996169784670e+01 0 0 0
607 2 4.9220000000000006e+00 1.4208590124756650e+00 3.0031000000000258e+01 0 0 0
609 2 4.9220000000000006e+00 0.0000000000000000e+00 3.0031000000000258e+01 0 0 0
634 2 6.1524999999999999e+00 2.1312885187134989e+00 3.0031000000000258e+01 0 0 0
636 2 7.3829999999999991e+00 1.4208590124756659e+00 3.0031000000000258e+01 0 0 0
638 2 7.3829999999999991e+00 0.0000000000000000e+00 3.0031000000000258e+01 0 0 0
671 2 8.6134999999999984e+00 2.1312885187135002e+00 3.0031000000000258e+01 0 0 0
632 2 6.1524999999999999e+00 3.5521475311891644e+00 3.0031000000000258e+01 0 0 0
669 2 8.6134999999999984e+00 3.5521475311891657e+00 3.0031000000000258e+01 0 0 0
919 2 4.9220000000000006e+00 2.8417180249513332e+00 3.3183996169784670e+01 0 0 0
920 2 4.9220000000000006e+00 0.0000000000000000e+00 3.3183996169784670e+01 0 0 0
921 2 6.1524999999999999e+00 7.1042950623783407e-01 3.3183996169784670e+01 0 0 0
933 2 6.1524999999999999e+00 2.1312885187134989e+00 3.3183996169784670e+01 0 0 0
934 2 7.3829999999999991e+00 2.8417180249513345e+00 3.3183996169784670e+01 0 0 0
935 2 7.3829999999999991e+00 0.0000000000000000e+00 3.3183996169784670e+01 0 0 0
936 2 8.6134999999999984e+00 7.1042950623783407e-01 3.3183996169784670e+01 0 0 0
952 2 8.6134999999999984e+00 2.1312885187135002e+00 3.3183996169784670e+01 0 0 0
578 2 0.0000000000000000e+00 5.6834360499026637e+00 3.0031000000000258e+01 0 0 0
580 2 0.0000000000000000e+00 4.2625770374269996e+00 3.0031000000000258e+01 0 0 0
597 2 1.2305000000000001e+00 6.3938655561404980e+00 3.0031000000000258e+01 0 0 0
599 2 2.4610000000000003e+00 5.6834360499026637e+00 3.0031000000000258e+01 0 0 0
601 2 2.4610000000000003e+00 4.2625770374269996e+00 3.0031000000000258e+01 0 0 0
626 2 3.6914999999999996e+00 6.3938655561404980e+00 3.0031000000000258e+01 0 0 0
595 2 1.2305000000000001e+00 7.8147245686161639e+00 3.0031000000000258e+01 0 0 0
624 2 3.6914999999999996e+00 7.8147245686161639e+00 3.0031000000000258e+01 0 0 0
905 2 0.0000000000000000e+00 4.2625770374269996e+00 3.3183996169784670e+01 0 0 0
906 2 1.2305000000000001e+00 4.9730065436648339e+00 3.3183996169784670e+01 0 0 0
914 2 1.2305000000000001e+00 6.3938655561404980e+00 3.3183996169784670e+01 0 0 0
916 2 2.4610000000000003e+00 4.2625770374269996e+00 3.3183996169784670e+01 0 0 0
917 2 3.6914999999999996e+00 4.9730065436648339e+00 3.3183996169784670e+01 0 0 0
929 2 3.6914999999999996e+00 6.3938655561404980e+00 3.3183996169784670e+01 0 0 0
904 2 0.0000000000000000e+00 7.1042950623783341e+00 3.3183996169784670e+01 0 0 0
915 2 2.4610000000000003e+00 7.1042950623783341e+00 3.3183996169784670e+01 0 0 0
628 2 4.9220000000000006e+00 5.6834360499026637e+00 3.0031000000000258e+01 0 0 0
630 2 4.9220000000000006e+00 4.2625770374269978e+00 3.0031000000000258e+01 0 0 0
663 2 6.1524999999999999e+00 6.3938655561404980e+00 3.0031000000000258e+01 0 0 0
665 2 7.3829999999999991e+00 5.6834360499026637e+00 3.0031000000000258e+01 0 0 0
667 2 7.3829999999999991e+00 4.2625770374269996e+00 3.0031000000000258e+01 0 0 0
708 2 8.6135000000000002e+00 6.3938655561404980e+00 3.0031000000000258e+01 0 0 0
661 2 6.1524999999999999e+00 7.8147245686161639e+00 3.0031000000000258e+01 0 0 0
706 2 8.6135000000000002e+00 7.8147245686161639e+00 3.0031000000000258e+01 0 0 0
931 2 4.9220000000000006e+00 4.2625770374269978e+00 3.3183996169784670e+01 0 0 0
932 2 6.1524999999999999e+00 4.9730065436648339e+00 3.3183996169784670e+01 0 0 0
948 2 6.1524999999999999e+00 6.3938655561404980e+00 3.3183996169784670e+01 0 0 0
950 2 7.3829999999999991e+00 4.2625770374269996e+00 3.3183996169784670e+01 0 0 0
951 2 8.6135000000000002e+00 4.9730065436648339e+00 3.3183996169784670e+01 0 0 0
971 2 8.6135000000000002e+00 6.3938655561404980e+00 3.3183996169784670e+01 0 0 0
930 2 4.9220000000000006e+00 7.1042950623783341e+00 3.3183996169784670e+01 0 0 0
949 2 7.3830000000000009e+00 7.1042950623783341e+00 3.3183996169784670e+01 0 0 0
591 2 0.0000000000000000e+00 9.9460130873296642e+00 3.0031000000000258e+01 0 0 0
593 2 0.0000000000000000e+00 8.5251540748539991e+00 3.0031000000000258e+01 0 0 0
620 2 2.4610000000000003e+00 9.9460130873296642e+00 3.0031000000000258e+01 0 0 0
622 2 2.4610000000000003e+00 8.5251540748539991e+00 3.0031000000000258e+01 0 0 0
616 2 1.2305000000000001e+00 1.2077301606043163e+01 3.0031000000000258e+01 0 0 0
618 2 1.2305000000000001e+00 1.0656442593567498e+01 3.0031000000000258e+01 0 0 0
653 2 3.6914999999999996e+00 1.2077301606043163e+01 3.0031000000000258e+01 0 0 0
655 2 3.6914999999999996e+00 1.0656442593567499e+01 3.0031000000000258e+01 0 0 0
912 2 0.0000000000000000e+00 8.5251540748539991e+00 3.3183996169784670e+01 0 0 0
913 2 1.2305000000000001e+00 9.2355835810918343e+00 3.3183996169784670e+01 0 0 0
927 2 2.4610000000000003e+00 8.5251540748539991e+00 3.3183996169784670e+01 0 0 0
928 2 3.6915000000000004e+00 9.2355835810918343e+00 3.3183996169784670e+01 0 0 0
911 2 0.0000000000000000e+00 1.1366872099805333e+01 3.3183996169784670e+01 0 0 0
925 2 1.2305000000000001e+00 1.0656442593567498e+01 3.3183996169784670e+01 0 0 0
926 2 2.4610000000000003e+00 1.1366872099805333e+01 3.3183996169784670e+01 0 0 0
944 2 3.6914999999999996e+00 1.0656442593567499e+01 3.3183996169784670e+01 0 0 0
657 2 4.9220000000000006e+00 9.9460130873296642e+00 3.0031000000000258e+01 0 0 0
659 2 4.9220000000000006e+00 8.5251540748539991e+00 3.0031000000000258e+01 0 0 0
702 2 7.3830000000000009e+00 9.9460130873296642e+00 3.0031000000000258e+01 0 0 0
704 2 7.3830000000000009e+00 8.5251540748539991e+00 3.0031000000000258e+01 0 0 0
698 2 6.1524999999999999e+00 1.2077301606043163e+01 3.0031000000000258e+01 0 0 0
700 2 6.1524999999999999e+00 1.0656442593567499e+01 3.0031000000000258e+01 0 0 0
745 2 8.6135000000000002e+00 1.2077301606043163e+01 3.0031000000000258e+01 0 0 0
747 2 8.6134999999999984e+00 1.0656442593567498e+01 3.0031000000000258e+01 0 0 0
946 2 4.9220000000000006e+00 8.5251540748539991e+00 3.3183996169784670e+01 0 0 0
947 2 6.1524999999999999e+00 9.2355835810918343e+00 3.3183996169784670e+01 0 0 0
969 2 7.3830000000000009e+00 8.5251540748539991e+00 3.3183996169784670e+01 0 0 0
970 2 8.6134999999999984e+00 9.2355835810918343e+00 3.3183996169784670e+01 0 0 0
945 2 4.9220000000000006e+00 1.1366872099805333e+01 3.3183996169784670e+01 0 0 0
967 2 6.1524999999999999e+00 1.0656442593567499e+01 3.3183996169784670e+01 0 0 0
968 2 7.3829999999999991e+00 1.1366872099805333e+01 3.3183996169784670e+01 0 0 0
991 2 8.6134999999999984e+00 1.0656442593567498e+01 3.3183996169784670e+01 0 0 0
6410 1 1.5448071106739287e+00 1.8953902892197825e+00 3.6821314312109777e+01 0 2 -1
140 1 4.9384059203314612e+00 4.9328752001060447e+00 3.5629142926381306e+01 1 1 0
2075 1 2.4154498766350732e+00 4.3481178224923243e+00 3.6267573109301750e+01 1 1 -1
6401 1 6.2274640671143429e+00 2.4622721738902005e+00 3.6491612476159659e+01 1 0 -1
1487 1 9.2701177029681823e+00 3.3159734565733348e+00 3.5890740281039868e+01 -1 0 0
3367 1 3.7401393710976252e+00 6.1026596691157731e-01 3.6249011010090697e+01 1 1 -1
1740 1 5.1099657334353168e+00 7.9816265616365527e+00 3.5638374364895881e+01 1 -1 -1
3107 1 2.5595837729694813e+00 8.8072090684856015e+00 3.5632205430210774e+01 0 1 0
74 1 7.8069409392497011e+00 5.9338436187073880e+00 3.6202516812146939e+01 0 0 -1
4819 1 9.8422545624535751e-01 6.8392723476938908e+00 3.6269315172527598e+01 1 1 -1
476 1 7.0753210963551041e+00 1.0157735449787433e+01 3.6507053926851853e+01 1 1 0
471 1 9.1860327582142087e+00 8.2708918543713796e+00 3.6122174808092126e+01 -1 0 0
1579 1 7.4403983176723520e-01 6.1377976298929049e+00 3.9162908356471064e+01 0 0 -1
1478 1 2.1045742066695401e+00 4.1971822209612544e+00 4.0801956061504484e+01 0 0 0
147 1 4.7497052413395924e+00 3.6226441137334802e+00 4.0106975179134068e+01 0 0 -1
4647 1 9.3050991648465651e+00 3.9841669850652639e-01 3.8730807849338831e+01 1 0 0
4668 1 6.9112241654559954e+00 1.4192061547705799e+00 4.0569850852764432e+01 0 1 0
4786 1 6.0962519757044715e+00 5.6684004268826875e+00 3.8482966791495215e+01 1 0 0
3417 1 1.4536464651720036e+00 8.5482029932676014e+00 4.0474308949441991e+01 1 0 -1
1588 1 8.1868703542401633e+00 3.4624455694504044e+00 3.8774254994049215e+01 1 0 0
2937 1 6.8999939578045684e+00 7.3672418433331250e+00 4.0400684991783749e+01 1 -1 0
6350 1 2.0064791615019395e+00 9.9871164508244963e+00 3.8139795547738942e+01 0 1 0
1742 1 5.0787280819797758e+00 9.2830253611292282e+00 3.9978181167611368e+01 1 0 -1
1334 1 3.8294745320723322e+00 7.0885407176481205e+00 3.8143784084437542e+01 0 2 0
3496 1 7.6363412308984939e+00 1.0497555236351168e+01 3.9223219843169431e+01 1 1 -1
1431 1 5.1716221014320674e+00 4.2394553358443421e-01 3.8740713042895464e+01 0 0 0
3790 1 2.0803003463474430e+00 5.3475934817952728e+00 4.3682675179097217e+01 0 1 0
4552 1 7.8628791720858597e+00 1.0931183511541617e+01 4.3331107505127264e+01 1 0 0
3298 1 7.2450691371353857e+00 2.3696764915700341e+00 4.3325854510594610e+01 1 1 0
6380 1 5.4045182386127459e+00 4.2131035545156275e+00 4.2799501282386785e+01 0 1 0
2921 1 9.5081790838024975e+00 4.3622353896557433e+00 4.2844752129209780e+01 -1 0 0
4811 1 6.9959335298535992e+00 6.4246941038538630e+00 4.3068333206681089e+01 0 1 0
1387 1 5.2909302500594899e+00 1.0201729072480751e+01 4.2675972086349304e+01 0 -1 0
4823 1 3.6043104391684628e+00 6.9765787018757814e+00 4.1771766001354166e+01 -1 0 -1
3113 1 4.6446385584656857e+00 1.1312265348318338e+01 3.7926679352066500e+01 1 0 0
3344 1 9.6506587648088633e+00 6.0542164377483028e+00 4.0487541507101000e+01 0 0 0
2130 1 1.7386273745720318e+00 1.6333980320906987e+00 3.9699056794101736e+01 0 1 0
2881 1 9.8260739153530761e+00 8.7288682433783418e+00 3.9287805411768346e+01 1 1 0
5359 1 9.3791795568593201e+00 2.7360098682903666e-01 4.8621326811721204e+01 0 2 0
4973 1 4.1992115827323735e+00 4.0132038487573283e+00 4.5417514556451579e+01 1 0 -1
1803 1 8.7879792279103714e+00 8.9605837110733404e+00 4.9487011664670021e+01 0 1 0
1516 1 5.0891864915292144e+00 1.8740548999051216e+00 4.7569776381653355e+01 1 1 -1
5269 1 4.6797892671474326e+00 8.0173224846518618e+00 4.4261407009016168e+01 2 0 -1
2990 1 5.6663714477044884e+00 1.2937586383635837e+00 5.0476816456306452e+01 0 1 0
3402 1 5.9138871196922187e+00 5.5032183027947275e+00 4.9716292401571792e+01 1 1 -1
547 1 4.0042166490187148e+00 5.6943616087377782e+00 4.7493283821655794e+01 0 1 0
6111 1 6.1007575284937809e+00 7.4429094953878447e+00 4.6440319112280349e+01 1 1 -1
1303 1 7.1453146195577322e+00 3.3647376776262083e+00 4.6116734843589285e+01 1 0 0
3603 1 8.2803118631297767e+00 5.9205174286568161e+00 4.5424564397311087e+01 1 1 -1
4701 1 2.0850152014341772e+00 9.7364548231912682e+00 4.4923552396789134e+01 1 0 -1
3322 1 8.4315191815360571e+00 5.8924337418366646e-01 4.5527812525392491e+01 1 0 -1
3054 1 9.2654571304603977e+00 1.0833623743368275e+01 4.7544767891877427e+01 0 0 0
3776 1 2.2805257419742997e+00 1.7823858206251353e+00 4.4519571779805574e+01 1 1 0
3366 1 1.4450865362066145e+00 3.8559794041709616e-01 4.6885075806869793e+01 1 -1 0
4768 1 3.5754443641921205e+00 3.4172714318017410e+00 4.9656895766508313e+01 1 0 0
1553 1 4.1465092643617965e+00 1.0666514811115428e+01 4.9205911149665738e+01 0 0 -1
6221 1 1.1352467932372938e+00 2.2597061009173136e+00 4.9104231943089417e+01 1 0 0
3193 1 7.4441903525052213e+00 1.2201943679139720e+01 4.5973186384368518e+01 1 1 0
6282 1 6.1254137757006264e+00 8.1497312094950658e+00 4.9028264769148791e+01 1 1 0
5360 1 1.6763497959818596e+00 7.3073166326039809e+00 4.8365348929890899e+01 0 0 -1
3245 1 2.0025849029219880e+00 9.9582731918671286e+00 4.7704814538513446e+01 1 0 -1
3355 1 8.8023483536099523e+00 4.9496497891824056e+00 4.8669236212245536e+01 1 0 -1
462 1 3.6920583260059714e-01 7.1074739465763450e+00 4.4923551910472000e+01 0 0 0
3728 1 1.2134941016905253e-01 3.0366572632633155e+00 4.4066553105960310e+01 1 0 0
3418 1 1.4014036551115783e-01 9.7790745700199757e+00 5.7709322539452671e+01 1 0 -1
6304 1 4.7393164389513345e+00 4.0988692610362021e+00 5.2309646933486249e+01 0 -1 -1
4639 1 6.8448950691840227e-01 1.0150611275489025e+01 5.4843549237750878e+01 1 0 0
84 1 7.8482011139466614e+00 2.8255980555437250e+00 5.1765826019469898e+01 0 1 -1
543 1 2.7941331327957047e-01 4.9740933575980293e+00 5.6461738519216070e+01 1 0 -1
2098 1 7.7578242915242184e+00 5.3571703705333427e+00 5.5849362738609429e+01 0 0 -1
4864 1 9.5258662246996533e+00 1.0404896236785220e+01 5.7424101845599012e+01 0 0 0
2178 1 1.1755715058235634e+00 7.5100816192618103e+00 5.1459141372197266e+01 0 0 0
2866 1 3.4492938168890950e+00 6.8555819401438898e+00 5.3325728502704749e+01 0 1 0
1528 1 3.3447798741117207e+00 9.1588538270182376e+00 5.5009717905011499e+01 1 0 0
4707 1 7.8645209967623675e+00 5.8902727183239003e+00 5.1781372467674828e+01 0 0 0
3319 1 4.9667887533431614e+00 1.1181147812658413e+01 5.3851554970225024e+01 1 1 -1
5158 1 7.2430989042609673e+00 9.5776689908553863e+00 5.4587305010208951e+01 1 1 -1
1385 1 5.6004955117320785e+00 4.8048212646460549e+00 5.7652215847480434e+01 1 0 0
522 1 2.3043480076008098e+00 6.1275479701706992e-01 5.5724677911195442e+01 1 1 0
6141 1 3.8354303183725924e+00 3.1183653541048488e+00 5.4690083942962787e+01 0 0 0
3363 1 8.3288110845038350e+00 2.8859216953479248e+00 5.4461481182947622e+01 0 2 0
5162 1 5.9973007148405406e+00 2.5213688451475553e+00 5.6125174129034079e+01 1 1 -1
3147 1 3.5960388811151880e+00 8.5238011975834613e+00 5.7620651841435887e+01 1 -1 0
1537 1 3.1519142010527759e+00 5.5368811493679804e+00 5.6289658071925956e+01 2 0 0
5216 1 6.4743651046701505e+00 6.9056780154092667e+00 5.3860667584401469e+01 1 0 -1
4733 1 2.0303879086387300e-01 9.6867121766714304e-01 5.1417220650776173e+01 0 1 -1
484 1 7.9970622652574885e+00 8.0165385308498873e+00 5.7426189067545565e+01 -1 0 0
1321 1 3.3422877658530581e-02 7.3661321312432122e+00 5.4463677139260398e+01 0 0 0
1929 1 2.6711403078088303e-01 9.9229413423059665e+00 5.1632183000023289e+01 0 0 -1
6436 1 4.3527131773246914e+00 1.2176127361359759e+01 5.1458862297465473e+01 1 0 -1
1772 1 8.7763745156797537e+00 9.6651013728545632e+00 5.2237225917974328e+01 1 1 0
5324 1 1.0692143517279002e+00 1.5197635789452042e+01 5.0327980089316249e+00 0 0 1
5435 1 1.3007998626585360e+00 1.3623258148938870e+01 2.6625836205922093e+00 0 1 1
5047 1 4.6034216933841785e+00 1.5238046113154116e+01 3.6445557260827499e+00 1 0 0
280 1 5.8404186927218031e+00 1.9487069788651961e+01 3.5010091105778720e+00 0 0 0
6487 1 7.9415166700586735e+00 1.6969183573124010e+01 6.7030106310853359e+00 1 0 1
217 1 6.8840232583025767e+00 1.6947653075830566e+01 4.0526083355049121e+00 1 0 0
2208 1 4.1415605703684077e-01 1.3820868467105511e+01 7.4703307998875301e+00 0 0 1
2017 1 5.0700415507632561e+00 1.2843807093341123e+01 2.3674192764958879e+00 0 -1 1
3663 1 3.8975000367621835e+00 2.0112358604538031e+01 5.3395674005859401e+00 0 0 0
94 1 1.4464121886393753e+00 2.0445191222020732e+01 3.4720167275405860e+00 1 -1 0
1928 1 8.9537137195829963e+00 2.3689425237987734e+01 2.9981401036735140e+00 0 1 0
171 1 7.1662232860575710e+00 2.0079399259505941e+01 6.2767621590265454e+00 0 0 1
6184 1 4.3911351817512125e+00 2.2676770247243020e+01 5.6308647548859039e+00 0 0 0
3549 1 6.9522041345915992e+00 2.3032463362758985e+01 6.9188375075879582e+00 0 1 0
1268 1 3.5134475367878308e+00 1.8274672566638376e+01 7.9684445534537316e+00 0 0 1
3533 1 3.7293059678895841e+00 1.5679546940302933e+01 6.4902181180957896e+00 1 1 0
5203 1 3.2129463496195441e+00 2.3355009467764877e+01 7.9837604065894130e+00 1 0 0
3192 1 1.4480345275529654e+00 2.0483743037098439e+01 7.6436682034682155e+00 1 -1 0
5320 1 3.4303739109276234e+00 1.3272807515305242e+01 7.6098388273174473e+00 0 0 0
324 1 6.4452737446615549e+00 1.4406751608694982e+01 7.3904404556353640e+00 1 0 0
268 1 3.5258562729761234e-01 2.2803655081007516e+01 5.9963008047472286e+00 0 -1 0
3058 1 6.3280975036273110e+00 1.8595249857827977e+01 8.5692213590062138e+00 1 0 0
382 1 9.6860824808199215e+00 1.9568147282191973e+01 4.8175020098327943e+00 0 0 0
1971 1 6.0866345516767106e+00 2.3841500033702740e+01 3.4144498586372096e+00 0 0 0
5079 1 1.8922133593396064e+00 2.3203051454452975e+01 3.6186183901350422e+00 1 0 1
1924 1 8.6617411201220129e+00 1.2608009847022299e+01 6.9832869133520399e+00 1 1 0
1747 1 9.7519564398268965e+00 2.3320819395035489e+01 5.7024749493336788e+00 0 0 0
4525 1 7.9470198315444502e+00 2.1109934357107488e+01 2.5941697180417993e+00 0 1 1
3643 1 6.7459386573524682e-02 1.7856922576220523e+01 4.3780558150518303e+00 0 0 0
477 1 9.4146265674684404e+00 1.2280898906297194e+01 4.2657406222777681e+00 0 0 0
3241 1 3.4211202746245286e+00 1.8982186228469629e+01 2.1706856248989794e+00 1 1 0
4964 1 8.6325041127984043e+00 1.6470677430865386e+01 2.2029082107343214e+00 0 0 1
2093 1 7.3198851697783818e+00 2.2251040862286175e+01 1.2725550350339990e+01 -1 0 1
128 1 7.2902921738187088e-01 1.2363079241871750e+01 1.1876158774358402e+01 0 0 0
3550 1 3.0579190592817769e+00 2.4009924250572709e+01 1.1551337333016408e+01 0 0 0
5293 1 2.2162295201349802e+00 1.4344971442827266e+01 1.0067122790645200e+01 0 0 0
5187 1 5.3008996495680867e+00 1.4143614093695454e+01 1.0365931453859146e+01 1 1 0
2001 1 6.4768266852055367e-01 2.3481310562521070e+01 1.3467032254070483e+01 1 0 0
4754 1 7.6568026511732272e+00 1.6139503959682990e+01 9.7593903409546563e+00 0 0 1
3638 1 1.7314732988627748e+00 1.7054199116123471e+01 9.7169045845803588e+00 1 0 0
5194 1 8.2882283974480284e+00 1.8047215849511190e+01 1.1728247990171491e+01 1 0 1
6364 1 1.8457836629498279e+00 2.1571766294660527e+01 1.0147590533537704e+01 0 -1 1