LAMMPS data file via write_data, version 16 Mar 2018, timestep = 6000000

6736 atoms
2 atom types

1.6667746555900465e-01 4.9053322534428261e+01 xlo xhi
1.6599895732329983e-01 4.8853636973065704e+01 ylo yhi
1.6379583273542053e-01 5.9898204167254434e+01 zlo zhi

Masses

1 18.015
2 12.01

Atoms # atomic

1727 1 2.7530084746224879e+00 2.1968341946442611e+00 2.6872499101419147e+00 1 3 0
2572 1 9.1369875055365473e+00 1.7351581175733575e+01 9.7933858797514937e+00 -2 -3 1
3509 1 7.7841637342536822e+00 2.0043000822519668e+00 1.3202385272651835e+00 -1 6 0
5877 1 7.1165606646198638e+00 4.2989382273886889e+00 2.1113708721144233e+00 3 1 1
6293 1 1.0147776313838012e+01 1.8673261378910164e+00 2.1501566340260672e+00 0 0 1
3483 1 1.1530627408266755e+01 3.7319277764586718e+00 1.1004902505539222e+00 -3 -1 0
966 1 1.4223678413170932e+01 3.0135212175907520e+00 2.0697349119223860e+00 2 3 1
6126 1 1.4997375984600268e+01 6.4903299959097893e-01 1.2536409686062449e+00 0 1 1
5394 1 1.1175104550381607e+00 7.0256595633428791e+00 1.4056951831816555e+00 -1 -1 0
3711 1 3.7506516401416166e+00 6.7484181447540914e+00 2.2492459353029624e+00 1 0 0
5918 1 4.4294384860535434e+00 4.2764154295205419e+00 1.5003766704876649e+00 1 0 0
1714 1 8.5515041431663210e+00 6.5506472458670180e+00 1.0479726403612792e+00 0 -1 1
2660 1 1.0768105999124616e+01 6.1159248481148651e+00 2.3809197437651966e+00 2 -3 1
72 1 1.2421833482120345e+01 7.8919439955194211e+00 1.1559094911543502e+00 -2 1 1
1789 1 1.4764690047567692e+01 7.5095080392701323e+00 2.0069665913611181e+00 0 1 1
3748 1 1.5586115673306216e+01 5.1267089082793706e+00 8.4576931020378432e-01 -3 3 0
2804 1 3.8142839854608795e-01 3.0420813163783755e+00 1.6355551157354049e+00 -1 2 1
5826 1 2.2644981416563890e+00 1.1150391983947403e+01 1.3914145523783030e+00 -1 2 1
6094 1 7.7461578563807691e+00 8.7778599933577066e+00 2.4548348398098594e+00 3 1 1
3854 1 4.6677455810851010e+00 1.1239890762618719e+01 2.6231423301425112e+00 2 -3 0
2062 1 5.2349025914288818e+00 8.9348378931977379e+00 1.4128411112401871e+00 2 -2 0
3844 1 9.2214854116941378e+00 1.0661847561412541e+01 1.6172639123142232e+00 -1 1 0
5813 1 1.1745128807221825e+01 1.0359603883228255e+01 1.9159443551145154e+00 0 0 0
3843 1 1.6027833642779569e+01 1.1691795455398271e+01 2.3587102342757444e+00 -1 2 0
5161 1 1.3356933789816333e+01 1.2039186700207784e+01 1.2555462370316284e+00 3 0 0
2001 1 6.7983875096251989e+00 2.4288115280485709e+01 2.5779944986701473e+00 0 1 0
2556 1 1.0978795125051644e+00 1.3926480500543869e+01 2.2356708734130453e+00 3 -4 1
2820 1 2.8379310301182086e+00 1.5968248061135521e+01 1.3092208469198054e+00 -1 -2 1
4531 1 5.1073611084727197e+00 1.5511090756852488e+01 2.6121638250342225e+00 2 4 1
1951 1 5.8032474829224112e+00 1.3249541804761918e+01 1.4733973297585499e+00 3 2 0
736 1 8.2138723846832136e+00 1.3199142012001639e+01 2.4708732863323584e+00 -2 -3 1
1187 1 1.0011245016349077e+01 1.5080516002078506e+01 1.5478882496828041e+00 2 -2 1
1237 1 1.2489983855793158e+01 1.4286442843521796e+01 2.3029691099862739e+00 -1 -3 1
2799 1 3.7875840951022066e-01 2.6975697197935107e+00 9.0028139154518207e+00 1 2 1
6020 1 1.5380251828048355e+00 1.8093074830432421e+01 2.3043085905853897e+00 1 -1 1
5414 1 3.1752164095516346e+00 1.9989668585679482e+01 1.5725244340188882e+00 -2 -3 0
1036 1 6.3927858451725532e+00 1.7630750508792211e+01 1.3055670050767969e+00 -2 5 1
3566 1 5.9187168802417709e+00 1.9925479966778088e+01 2.6859114450817709e+00 2 1 0
1041 1 8.8897734768261714e+00 1.7292291830229519e+01 2.5470577914037871e+00 2 -3 1
5915 1 1.0717284318864662e+01 1.9023865864466135e+01 1.4868974979849319e+00 1 1 1
5159 1 1.4032016164494218e+01 1.6441577427613971e+01 1.4344027640793207e+00 3 2 0
919 1 1.3090802196347836e+01 1.8887794194560215e+01 2.4980773790467721e+00 -3 -1 1
5279 1 2.5522734586298879e+00 2.2533934527984712e+01 2.4943754095405350e+00 -2 2 0
1127 1 7.6612068586508242e+00 2.1712133659303674e+01 1.6746511143152889e+00 -2 4 1
1144 1 1.6099150879043755e+01 1.5950387764982800e+01 5.1141562589534084e+00 -4 1 1
863 1 9.9058151706379629e+00 2.1239337313188059e+01 2.5219947998186871e+00 0 -3 1
5314 1 1.1413923454822628e+01 2.3378980078753099e+01 1.6562685820129217e+00 3 1 1
5284 1 1.4822950206925803e+01 2.0609459211654816e+01 1.3393231388125566e+00 0 1 0
2138 1 1.3991843166014075e+01 2.2831359385639345e+01 2.6118659888316231e+00 4 5 0
2427 1 3.0860548470505580e+00 2.4934135772715744e+00 5.1791549725846746e+00 1 -2 1
2176 1 6.0419224422592921e-01 2.6590374724142292e+00 6.2673330514476149e+00 4 1 0
1029 1 1.0543760537652933e+01 1.9178212681118421e+01 8.8359619603485235e+00 4 0 1
4398 1 8.0254130495450617e+00 1.9587920876707585e+00 6.1276252428117122e+00 2 -2 1
2522 1 1.1311131478528971e+01 2.3067703172968905e+01 8.9483690664204296e+00 -3 0 1
5256 1 1.0422882165198937e+01 1.6038298474381738e+00 5.1512121464677358e+00 5 1 1
209 1 1.1943693614695592e+01 3.7326469139814673e+00 6.1436020903874375e+00 -1 3 0
2010 1 1.5325919344712256e+01 6.9613166363705281e-01 5.8752710020204253e+00 1 -1 1
953 1 1.4197386020596275e+01 3.1972308060870906e+00 4.7949299233683345e+00 -3 0 1
2032 1 1.3778921520392673e+00 7.2477997987264269e+00 6.1903246108229304e+00 0 1 0
1819 1 3.7001704379371785e+00 6.9645015253119675e+00 4.9611870201452302e+00 2 0 0
2912 1 7.2000103273301885e+00 4.2812519493803620e+00 4.6785969676439167e+00 2 -1 1
5191 1 4.6891041242424230e+00 4.5993653479305738e+00 5.8719251023002537e+00 1 0 0
3802 1 8.8179047740308931e+00 6.3216476366090690e+00 6.1133778695939585e+00 0 2 0
6031 1 1.1181835955198851e+01 6.1015297021286257e+00 5.1804908042751512e+00 0 -3 1
1954 1 1.2501318410111422e+01 8.1229041864078209e+00 6.2212136157423679e+00 3 0 0
5876 1 1.5621288474669562e+01 5.2925413371796095e+00 5.8530859843453076e+00 0 0 1
854 1 1.4732110634607778e+01 7.4558395586453337e+00 4.6363618676638856e+00 0 3 0
3726 1 1.6236812110547660e+01 9.4721531073029652e+00 5.9398159728222746e+00 1 -2 0
2213 1 1.9721708220387606e+00 1.1458830599409247e+01 5.9849839465588754e+00 -1 -1 0
5976 1 7.8427292988827801e+00 8.5308763022092702e+00 5.2023753304160554e+00 0 0 1
2793 1 4.7693250836672076e+00 1.1290388657404259e+01 5.2244353767177216e+00 2 2 1
4109 1 5.0948005720293077e+00 8.9980365983172046e+00 6.2148316975211282e+00 -3 4 0
4565 1 8.8249425038063869e+00 1.0654574268826753e+01 6.1944539990671563e+00 3 -1 1
11 1 1.1289047234181099e+01 1.0202946106378590e+01 4.7521983823624332e+00 6 1 0
5275 1 1.6020688832501847e+01 1.1958041387790658e+01 4.8360981905144174e+00 -1 -1 0
4601 1 1.3305862836503039e+01 1.2046545452622828e+01 5.8428390433859558e+00 -3 2 1
3662 1 5.7560878189694291e+00 1.9911952206695627e+01 9.8290063450187937e+00 0 -5 0
5940 1 1.0164545419111592e+00 1.3934387589288303e+01 5.0666726909337934e+00 -2 -2 1
6143 1 2.3258193615967975e+00 1.6019399189246890e+01 6.1745398197845267e+00 -4 1 1
2642 1 4.8812707617391338e+00 1.5488440061331403e+01 5.4230514006619117e+00 -1 -5 1
257 1 6.0173276723450817e+00 1.3265207354523191e+01 6.1804296400670591e+00 -2 0 0
109 1 8.4976490455550859e+00 1.2866932270408089e+01 5.0406020363863302e+00 1 2 0
4190 1 1.0198608643935881e+01 1.4736355823665111e+01 6.0050156692287882e+00 0 2 1
2477 1 1.2503828973096335e+01 1.4224537542241899e+01 4.8476990733053453e+00 1 1 1
405 1 1.3938112360942558e+01 2.3035547813995809e+01 9.9090548686951756e+00 3 1 0
2107 1 1.9731310573963901e+00 1.8330861930830455e+01 5.1801418558110939e+00 3 -3 0
2623 1 3.3794785274098742e+00 2.0256899109315473e+01 6.1714950497466692e+00 1 -3 1
5147 1 6.3276057126149023e+00 1.7412674375674047e+01 6.2606850416220290e+00 1 -2 0
5570 1 5.7072609177917553e+00 1.9764935453538449e+01 5.2722558698982072e+00 4 6 0
941 1 8.9630830512759445e+00 1.7053254743436430e+01 5.2856639838427899e+00 2 1 1
4457 1 1.0586756695693660e+01 1.9009587171632194e+01 6.0072986625808404e+00 2 3 1
1204 1 1.3821455775680853e+01 1.6331657427566341e+01 6.0882697464166906e+00 1 3 0
2060 1 1.2967101134658368e+01 1.8463297005753315e+01 5.1939739061932997e+00 -1 2 0
6253 1 2.4189648525175844e+00 2.2551313704165253e+01 5.0108053975042219e+00 2 -1 1
3865 1 7.5752050664351369e+00 2.1752861622275194e+01 6.0917813594631296e+00 4 -1 1
5290 1 1.6364485822720660e+01 1.6299025965141478e+01 9.7740380448558675e+00 -1 4 0
4617 1 9.7914361064014432e+00 2.1338809442681093e+01 5.3436119974256497e+00 2 -1 1
3758 1 1.1283636448907117e+01 2.3117096271386920e+01 6.5160945846156810e+00 1 0 0
1882 1 1.4510047381812125e+01 2.0394411935242946e+01 6.1040878145532682e+00 3 1 0
6030 1 1.3704580466699140e+01 2.2781097152179811e+01 5.3142022367909822e+00 2 -2 1
510 1 1.3090907168187487e+01 1.8762771752565545e+01 9.9515633620453414e+00 2 4 0
5579 1 5.8286501686064773e-01 9.3020941685775913e+00 2.3055435016349071e+00 0 0 0
4415 1 2.9967382320467197e+00 2.6277803986981456e+00 9.7021377108719165e+00 0 -3 1
3621 1 8.1082016025860781e+00 1.9234176229615125e+00 8.8516015181994732e+00 -1 2 0
958 1 1.0623294249003882e+01 1.5813433113147686e+00 9.5430262342436212e+00 -2 -2 1
5491 1 1.2205896099680048e+01 3.4578978307248098e+00 8.7325171566438886e+00 5 -1 0
2591 1 1.4674206585756862e+01 2.7233499791923541e+00 9.8340285648324386e+00 1 0 1
4151 1 1.5361340216940691e+01 5.9018480699321030e-01 8.5315680916494863e+00 -1 -1 1
1945 1 8.6380737924816386e-01 7.1430178118145431e+00 8.7953341278263952e+00 3 -3 1
996 1 3.5709666729408922e+00 6.9164981627812008e+00 9.7786980646699568e+00 1 0 1
4358 1 6.8438772884724655e+00 4.4316357643304745e+00 9.7930641453888576e+00 -2 4 1
2601 1 4.4418962803141859e+00 4.7638604845809942e+00 8.7446124210474956e+00 3 0 1
4518 1 8.6216213196300906e+00 6.3245138954139701e+00 8.8422776142893991e+00 1 5 1
6281 1 1.1190248716302793e+01 5.8824792493982629e+00 9.7978754687859020e+00 -2 -4 1
2909 1 1.2555238096389946e+01 7.8573033815055906e+00 8.8670871529521449e+00 -4 0 1
6227 1 1.5673617630819756e+01 5.1187311236238981e+00 8.5667077361881265e+00 1 -2 1
2764 1 1.4872046269920839e+01 7.6753991674474333e+00 9.8326440296563788e+00 -2 1 1
2077 1 1.9681381033778202e+00 1.1577601230228790e+01 8.7158213648435758e+00 2 4 0
909 1 7.3328081321665346e+00 2.1976964370259967e+01 8.9985309621723886e+00 1 2 1
1857 1 4.5182406602934941e+00 1.1337506410909731e+01 9.8974618810644159e+00 2 3 0
896 1 7.3499836402734973e+00 8.5346076123802916e+00 9.8937534428429430e+00 0 2 1
4609 1 4.8585633381817059e+00 9.1820333835437200e+00 8.8578175363700975e+00 1 3 1
6010 1 2.4824415322605291e+00 2.2704562548641945e+01 9.6223103738373847e+00 -1 2 1
4613 1 8.8847104808176827e+00 1.0528533734319556e+01 8.8620863641917005e+00 0 2 0
5242 1 1.1506178794878192e+01 1.0152129117227636e+01 9.8216834783904670e+00 2 3 0
2445 1 1.4435557025762336e+01 2.0617763466354415e+01 8.9797021807272603e+00 -2 0 0
2520 1 1.5651818593351296e+01 1.1901725103134378e+01 9.8379000004081600e+00 0 1 0
5307 1 1.3218092398414447e+01 1.2186106419799314e+01 8.9937565657273542e+00 -1 -2 1
5266 1 1.3998243164564850e+00 1.4173919751126121e+01 9.6383755315674922e+00 -1 1 0
255 1 2.3626703739285451e+00 1.6328218379871757e+01 8.7121173914785004e+00 -2 -2 0
1781 1 6.1694411921596792e+00 1.3232585347839997e+01 9.0353835696274452e+00 3 -3 0
4461 1 4.8253951445571586e+00 1.5558744065319264e+01 9.5521426065468802e+00 3 4 1
5215 1 8.7788825442999379e+00 1.2888205716306668e+01 9.9347462308947545e+00 0 0 1
6002 1 9.8959715159598307e+00 1.4982323059646884e+01 8.8532250933340535e+00 5 0 1
5921 1 1.2382642272678851e+01 1.4432780455155571e+01 9.9171759976944571e+00 2 0 0
5926 1 1.3736306399457874e+01 1.6361969433455574e+01 8.8172727858216096e+00 2 4 1
91 1 9.3796624310667127e+00 2.1307904760925119e+01 1.0026242446100133e+01 -2 2 0
2704 1 3.3611954243758140e+00 2.0271909865964869e+01 8.7373721572686591e+00 -1 1 1
4123 1 1.7651958776809178e+00 1.8551211453288715e+01 9.8311599785420629e+00 -4 1 1
2908 1 6.7302747381401558e+00 1.7471599138231586e+01 8.9021862754806502e+00 0 -4 1
5947 1 6.1799825934194859e+00 2.4193074788113641e+01 9.8072226003051384e+00 -1 3 1
4264 1 3.9548825936988865e+00 2.4479009778312822e+01 1.5281744920226399e+00 3 1 1
1182 1 6.6605813043962510e+00 2.4109560146393903e+01 5.2638265175632748e+00 2 0 1
4378 1 6.0925452534884550e-01 9.4968507941692355e+00 9.9202739330592546e+00 6 4 1
6004 1 6.8631689107875737e-01 9.6592926155022472e+00 4.8706876244224642e+00 -1 1 1
3818 1 1.6404264966532459e+01 9.5730705401403657e+00 8.7240538712184659e+00 1 1 0
436 1 4.0488398440348110e+00 2.4498954582612921e+01 5.8721343426259702e+00 1 -1 0
5823 1 4.1115737050722547e+00 2.3457497736207245e-01 1.4796014831959803e+00 3 4 1
226 1 3.8489082826261054e+00 2.8635419781727478e-01 9.2002733622299768e+00 -1 -6 1
5535 1 4.0691045961909413e+00 2.4494556376118410e+01 1.3493346898657075e+01 3 -3 0
5435 1 6.3227526080318945e+00 2.4164609211525072e+01 1.2538514339400026e+01 -2 0 0
1969 1 5.1155222494601804e-01 2.8840091695346133e+00 1.3728624467243641e+01 0 0 1
382 1 8.0139252000523307e+00 1.5398793437795431e+00 1.3764931923834469e+01 -1 -1 0
5376 1 7.7662489690170409e+00 1.8962584573857084e+00 1.6272160458301450e+01 3 2 0
3443 1 1.1976626317148439e+01 2.9083235399257048e+00 1.3446963847198210e+01 -3 1 0
4590 1 5.2431954305922819e+00 1.5747746426152759e+01 1.2442640797830412e+01 4 -3 1
1145 1 1.1563749670947736e+01 3.5615680498088924e+00 1.6038538519126700e+01 1 3 1
4562 1 1.5310855681026544e+01 4.9191012103113130e-01 1.3494709227567892e+01 -2 3 0
3803 1 4.9511281395353981e+00 1.6577116897860023e+01 2.3506187866263726e+01 0 0 0
4392 1 3.3532286786484082e+00 7.0213616371154322e+00 1.2627576906005466e+01 4 -1 1
1205 1 1.1193166597943378e+00 7.1909695443773600e+00 1.3578732957873314e+01 -1 -3 1
3853 1 4.3781808322743396e+00 4.5373688196619604e+00 1.3576676851106262e+01 3 0 0
2595 1 1.5093734976961048e+01 7.8100597982252804e+00 1.2512701555465647e+01 -1 7 1
427 1 4.4496458845241378e+00 4.5283411114576051e+00 1.6356936339645934e+01 1 2 0
791 1 8.4355869762296685e+00 6.0271381100758612e+00 1.3480660986717531e+01 3 -2 1
3423 1 8.3626917382390253e+00 6.2493289772896947e+00 1.6104162814271959e+01 1 -1 0
4420 1 3.6577429286249374e-01 9.5578425439296648e+00 2.0789917184900460e+01 2 2 1
5552 1 2.0600840245663683e+00 1.7477326661054711e+01 2.3282814775619439e+01 4 1 0
3649 1 1.2666378116824893e+01 7.5258655702407928e+00 1.3235477933077854e+01 2 1 0
3806 1 1.5954057969952908e+01 5.2313777349583495e+00 1.3407754278905921e+01 -1 1 0
4217 1 1.2504117727593586e+01 7.7752123324851068e+00 1.5849962801464269e+01 -3 0 1
2706 1 1.5773011524355743e+01 5.1401442112205302e+00 1.6035623538891791e+01 2 1 0
2534 1 1.7166308307524769e+00 1.1729251230994405e+01 1.3678410896960447e+01 1 3 0
35 1 1.1114220903267555e+01 5.4306019079568477e+00 1.2409618282703942e+01 0 -2 0
3516 1 2.0520616101414100e+00 1.1570872655568804e+01 1.6254743918789593e+01 4 -1 0
107 1 4.9787233413290419e+00 8.9451175439370569e+00 1.3563754809346030e+01 -2 -1 1
6183 1 5.6016484153704580e+00 8.7601473217081587e+00 1.6141765482926445e+01 -2 1 1
1998 1 1.0228519673693873e+01 1.4956196632710535e+01 2.3910190741139537e+01 1 2 1
97 1 1.2299745572450952e+01 1.4397574280293137e+01 1.2541845305344607e+01 -2 2 1
2709 1 9.1887000291014100e+00 1.0295439030261978e+01 1.3475626314289780e+01 2 -2 1
5846 1 9.3614533576938630e+00 1.0945803851736601e+01 1.6042706675518893e+01 -4 0 1
2082 1 1.3501762897438402e+01 1.1905861850517434e+01 1.6038467888535411e+01 -5 1 0
5139 1 1.3934642350556087e+01 2.3099944855310167e+01 1.2603117634487203e+01 -1 3 1
4115 1 2.6742397706734091e+00 1.6005852098980625e+01 1.3425407544172630e+01 0 -2 1
2043 1 3.2267543330548187e-01 9.4136098270348416e+00 1.2685335242014682e+01 -2 -2 0
1744 1 2.4877323377806446e+00 1.6051269404523374e+01 1.5960746450768573e+01 1 -4 1
2078 1 5.9769762590169062e+00 1.3258164108098955e+01 1.3420469618646798e+01 2 -3 0
4366 1 6.6957305322451877e+00 1.8538410451825282e+01 2.3884197587890089e+01 -1 1 1
4468 1 9.9812837517980260e+00 2.1632965123293427e+01 1.2601245776644401e+01 3 -1 1
2433 1 1.0035723598220558e+01 1.4999126881258936e+01 1.3821684132055527e+01 5 2 0
4513 1 1.0098284960635858e+01 1.5022987043692172e+01 1.6566553410994050e+01 1 -1 0
2715 1 1.3270760980167728e+01 1.1928636747021780e+01 1.3324579874468531e+01 1 2 1
956 1 2.7864764535622353e+00 2.2928787497175809e+00 1.2492432891403194e+01 -4 0 1
2027 1 1.3540059358369657e+01 2.3107838800008583e+01 2.0792813171212114e+01 2 3 0
3659 1 3.2976717043684718e+00 2.0111333932012787e+01 1.3513145066448907e+01 2 -2 0
2202 1 3.4662498792787284e+00 2.0163683153297523e+01 1.6168765003122722e+01 -3 -3 0
1854 1 1.7977721829317568e+00 1.8367416564093794e+01 1.2387366719765927e+01 -2 -1 0
5439 1 1.4609753799883103e+01 2.9739950950879068e+00 1.2726465843969674e+01 2 -4 0
2538 1 6.7147483009384210e+00 1.7564179579629769e+01 1.3463491232060614e+01 -3 -1 1
2732 1 1.0574368966046675e+01 1.9131982716558110e+01 1.3707279859721512e+01 0 -2 1
4527 1 5.7988177951697821e+00 1.9894227069488959e+01 1.2711214125448498e+01 -2 2 1
5306 1 1.4095142164386168e+01 1.6340659029140298e+01 1.3374577778148954e+01 0 3 0
2710 1 9.1401769924770964e+00 1.7099242364726717e+01 1.2554757545880578e+01 -2 -1 1
2880 1 8.4347546329543786e+00 1.2656492301480890e+01 2.3666752597393984e+01 5 -2 1
6081 1 7.5087764573530968e+00 2.1848887463978944e+01 1.3232594485923446e+01 3 2 1
2182 1 1.2142649289930691e+00 1.4053849454210781e+01 1.2252513683233259e+01 -3 1 0
2169 1 1.1673666355593717e+01 2.3385276060262413e+01 1.3792654527424288e+01 3 -1 0
5222 1 1.6392496989185791e+01 1.6262847940610964e+01 2.0954520134093354e+01 0 -2 0
5553 1 1.4560395682476845e+01 2.0878544017678255e+01 1.3343564337211845e+01 6 -2 0
4445 1 3.3850828999121325e+00 7.1624112358033845e+00 2.3705721416996681e+01 -2 -1 1
4231 1 9.1398933120287218e+00 1.7260503168385128e+01 2.3403645565301556e+01 -5 2 1
5287 1 5.4863280663292153e+00 2.3077352270628886e+00 1.7519051662790471e+01 0 4 0
331 1 4.9686661024602436e+00 2.1082033549532069e+00 2.0083851711627879e+01 1 -2 0
2097 1 9.1141740870419667e+00 3.7196600496804573e+00 1.6936392357045928e+01 3 0 0
3751 1 9.1843413683193695e+00 3.8309342977757792e+00 1.9623319689134998e+01 2 3 0
4459 1 1.5338058107029683e+01 7.8653619432181610e-01 1.6179613481376428e+01 2 4 1
4615 1 1.2547831768781247e+01 1.2460515207308436e+00 1.7035794856006728e+01 -1 1 1
1033 1 1.2683035899001798e+01 1.3246983258020013e+00 1.9973858005374112e+01 -2 4 1
2832 1 1.2242763418058196e+00 7.2326224863897659e+00 1.6312144023244912e+01 -1 0 1
4524 1 2.0406539323749611e+00 4.8092194302474143e+00 1.7154790183486345e+01 2 0 1
961 1 1.9227724954509597e+00 4.8221310729427902e+00 1.9700293901547241e+01 1 0 1
1179 1 5.9464978012890777e+00 6.2361899058097556e+00 1.7386464133833005e+01 0 0 1
1124 1 5.6449549373044530e+00 6.2962294992519325e+00 1.9879600425389160e+01 -2 -3 0
4325 1 1.3399557393232044e+01 5.8194134532884343e+00 1.6934380383484893e+01 -1 0 1
934 1 1.3404738463788766e+01 5.5262670707220956e+00 1.9694847757681764e+01 1 2 1
2470 1 2.8908603971295164e+00 9.3076991320278601e+00 1.7113369446596067e+01 -3 3 1
1725 1 2.7964443686946230e+00 9.5092744325425862e+00 1.9714715839505537e+01 -4 2 0
274 1 7.0021500278151185e+00 1.0908695762106495e+01 1.7329908895215659e+01 1 0 1
6040 1 6.6441782796023068e+00 1.0934097176332690e+01 2.0196178710101883e+01 1 -1 1
81 1 1.0138948687434315e+01 8.3542911731809433e+00 1.6851915894501452e+01 2 1 0
1881 1 1.0032904043964363e+01 8.1929876829322463e+00 1.9754348602075098e+01 -3 2 0
4250 1 1.3907080474971602e+01 9.6077160679375844e+00 1.7248544168963168e+01 -2 0 1
1087 1 1.4168918760458848e+01 9.6517807582557715e+00 1.9871040405111216e+01 -2 -1 1
4211 1 7.0854179399675967e+00 4.0233179402128627e+00 1.2693258904699043e+01 1 -4 1
3781 1 3.4858331716933755e+00 1.3666361257913641e+01 1.6755200397053944e+01 -1 1 0
821 1 3.3095830775049069e+00 1.3966068010914013e+01 1.9587398461256132e+01 2 1 1
3839 1 6.1023553082516440e+00 1.3340786556219626e+01 1.5962332498305503e+01 -3 0 0
178 1 7.4891030443223467e+00 1.5073594254897348e+01 1.7288300594658175e+01 -1 -1 1
3401 1 1.0650488785400920e+01 1.2850603223167006e+01 1.9747143396544651e+01 4 4 0
3773 1 1.1126370070617250e+01 1.2806392136909567e+01 1.7255700820733814e+01 2 1 0
6180 1 1.5034416454527975e+01 1.4193545696227016e+01 1.7330367608474770e+01 1 1 1
2041 1 1.5062502045763324e+01 1.4227323153671900e+01 1.9973437167105846e+01 5 1 0
807 1 1.1829630476907134e+00 2.0699027221885498e+01 1.9788113390527919e+01 -2 5 0
2554 1 4.4843982382992094e+00 1.8125690008078756e+01 2.0027110397408300e+01 2 0 1
1025 1 4.3926520308122425e+00 1.7905617775469690e+01 1.7230799601734155e+01 -1 1 1
275 1 6.6022058386345632e+00 1.7423432439635377e+01 1.6093536736468700e+01 2 4 0
2544 1 8.3649394865654241e+00 1.9334333147479423e+01 1.7278804484381432e+01 -3 2 1
1993 1 1.0700690863825761e+01 1.9123633353027586e+01 1.6238266249469522e+01 -1 1 0
5111 1 8.3292450611498445e+00 1.9952676788713873e+01 2.0016048785552581e+01 2 -1 1
3708 1 1.1991394693468763e+01 1.6993719410285561e+01 1.7063927224567990e+01 2 2 0
6032 1 1.1786207653851354e+01 1.6741725292928951e+01 1.9788117400634967e+01 -2 1 1
841 1 1.4342785703095201e+01 1.6538743189613363e+01 1.5998320751159650e+01 -5 0 1
1708 1 1.5753541223301484e+01 1.8450973728385964e+01 1.7248345561954256e+01 -3 2 0
3686 1 1.5832117717142864e+01 1.8464103494956749e+01 1.9684261821293354e+01 3 -1 0
3694 1 1.5057730421362590e+01 3.1355590389631027e+00 2.3289832300014044e+01 3 1 0
2454 1 1.5826930570485895e+00 1.2817592211888902e+01 2.3274910281319443e+01 3 -1 1
5322 1 9.7883960143071358e-01 2.0527185614543278e+01 1.7068213723299625e+01 0 -4 0
5981 1 7.3421544720796375e+00 2.1728903197068188e+01 1.6148754734353719e+01 -1 -2 1
2844 1 4.9070622054487689e+00 2.2224792165652566e+01 1.7092322703294876e+01 0 0 1
3451 1 5.1175400842105461e+00 2.2517938084736294e+01 1.9743486806120892e+01 5 0 0
5265 1 1.1230642170344879e+01 2.3395824058894434e+01 1.6261174901089170e+01 4 2 1
5268 1 1.2088542158766524e+01 2.0993292505074066e+01 1.7140462048586905e+01 -1 0 0
2734 1 8.6373666739577697e+00 2.4008863394664345e+01 1.6979563245288123e+01 0 0 1
1024 1 4.0687897041301220e+00 1.1307842527151212e+01 1.2675904201563496e+01 -3 -2 1
5193 1 1.2516223543837761e+01 2.1174191721276589e+01 1.9746608096042781e+01 -3 2 0
740 1 1.4592468169571539e+01 2.0962481908133803e+01 1.5965278872811441e+01 -1 0 1
5089 1 1.0164110623194695e+01 2.2113564436479887e+01 2.3797271166658685e+01 -1 4 1
1749 1 2.8371046259606505e+00 2.5806355005729418e+00 2.3496530618026561e+01 3 5 1
5267 1 2.4602870979443900e+00 2.5950620167504317e+00 2.0741871932408170e+01 -2 -4 0
5858 1 8.9980065776869100e+00 2.3958105621270775e+01 1.9804120428857370e+01 4 0 1
5481 1 1.0184336205159864e+01 1.5118007879108992e+00 2.0747235452012941e+01 -1 0 0
3604 1 1.0160892275482503e+01 1.7697293386734529e+00 2.3466438903788411e+01 4 4 1
4128 1 1.4474288788464623e+01 3.3283645466848819e+00 2.0575085761493916e+01 0 -1 0
4587 1 9.8632704436779512e+00 2.1795632411538715e+01 2.0936490548463937e+01 0 2 1
4199 1 3.3517048293897975e+00 6.9932895345886248e+00 2.0880122202452924e+01 0 -1 1
4566 1 5.8925983600349205e+00 2.1441635973455696e+01 2.3437490820237521e+01 3 -2 1
992 1 6.7989285483565238e+00 4.5962541105552601e+00 2.3075698116650464e+01 1 -2 1
5183 1 6.7797126349377113e+00 4.1517991880554117e+00 2.0704301018241097e+01 -1 2 0
4371 1 1.1106467288916656e+01 5.8414482047508178e+00 2.0823757357291484e+01 3 2 1
76 1 1.1391576211678638e+01 6.1718588096878788e+00 2.3424937521293369e+01 -3 3 0
3377 1 4.0458590829913534e+00 2.4419158693529130e+01 1.6036402754091217e+01 -2 -4 0
4382 1 1.5016146101001400e+01 7.4467672768721194e+00 2.0909827487804304e+01 -1 1 1
5359 1 1.0348997651769013e+01 1.2964551995268656e+00 1.2254177439085318e+01 2 2 0
2458 1 4.3860257394129825e+00 1.1812907348120993e+01 2.3832576294906648e+01 -2 -4 1
1039 1 7.4867200973868160e+00 8.5422955662774918e+00 2.3150811809083407e+01 -2 -1 1
1868 1 4.0784291975104416e+00 1.1593249827543888e+01 2.0900683218695757e+01 1 -4 0
1825 1 7.2902931273147242e+00 8.4389137382222330e+00 2.0403337959989287e+01 0 2 0
4148 1 3.5789341839030608e-01 2.9354406987766772e+00 1.6375644248585598e+01 0 -1 1
259 1 1.1484267849454053e+01 1.0401045701906412e+01 2.0703291476961915e+01 -4 -4 0
2696 1 1.2028227474955115e+01 1.0257694833562883e+01 2.3370321904345211e+01 -3 -1 1
3464 1 1.2856151985555586e+01 1.8904717953158475e+01 1.2920551325036168e+01 -1 4 0
5113 1 1.5683911763270032e+01 1.1685341597886554e+01 2.0958017420500823e+01 -1 0 1
1904 1 8.4090295040621588e-01 1.3779415512241128e+01 2.0705463883321041e+01 0 -2 1
5872 1 1.5862495632523993e+01 1.2275569726929781e+01 1.2445923524828705e+01 0 0 0
944 1 1.6202608739483654e+01 6.5118433325549629e-01 2.3192006194299637e+01 -1 -2 1
950 1 7.7806122494802379e+00 1.5286182650790787e+01 1.9939458786423351e+01 -4 0 0
1137 1 5.2330544782875368e+00 1.5656129800457396e+01 2.0946283078254272e+01 3 2 1
1196 1 3.7112774511487334e-01 1.5445471954786724e+01 2.3651837765241908e+01 -1 -1 1
1999 1 1.5929445064394891e+01 2.2633281027342299e+01 1.9908581756744567e+01 1 2 0
301 1 8.4576402373896418e+00 1.2856308453051362e+01 2.0915675786003110e+01 -1 1 0
4113 1 1.2808002026640219e+01 1.4674372237446292e+01 2.3614876139511075e+01 3 -1 0
6009 1 1.2359642526790632e+01 1.4523547443160412e+01 2.0912283414557002e+01 1 -1 1
2888 1 1.5771140717123036e+01 7.2484930320175502e+00 2.3686904883611380e+01 -1 3 1
6022 1 1.8623245343667223e+00 1.8098223467887493e+01 2.0724634350958230e+01 -1 -1 1
3405 1 7.6954516405596882e+00 8.3867361911318294e+00 1.2623995634234541e+01 2 -2 1
5808 1 5.9694524509403424e+00 2.0476317601580856e+01 2.0806487252524338e+01 -1 1 1
2779 1 8.5249905865556634e+00 1.2917241105659317e+01 1.2691760768042579e+01 3 0 1
337 1 3.9784900202602755e+00 5.8516689077510853e-01 1.6185080840538419e+01 -1 -3 0
1049 1 9.2062500912141996e+00 1.7551575201822779e+01 2.0369350548935813e+01 3 0 1
1189 1 1.3367043256134803e+01 1.8859741526074494e+01 2.3306289173916703e+01 3 -4 1
3528 1 1.3360366154870016e+01 1.8689499826880155e+01 2.0795450939168191e+01 5 4 0
5903 1 2.5979866570689651e+00 2.2594045224346480e+01 2.0836295860837279e+01 4 2 0
349 1 1.1530841555385180e+01 9.9170782754362961e+00 1.2525346989863205e+01 5 1 0
6038 1 1.1119532133561032e+00 5.2834241451298092e-01 1.7069137681223467e+01 0 3 1
2094 1 2.9722476551344204e+00 2.2183157455384602e+01 2.3527716824422011e+01 2 3 0
5402 1 1.3776968630165923e+01 1.2070356392672736e+01 2.3960788102011545e+01 3 -1 0
6195 1 1.6161370674168680e+01 2.2742112340749525e+01 1.7219851632417711e+01 -3 3 1
168 1 1.0216235969645833e+00 3.4210029849243323e-01 1.9782647980190564e+01 -3 3 0
5443 1 2.6084081374607564e+00 2.2335570956841277e+01 1.2481434537804340e+01 1 -1 0
454 1 8.6404090243374352e+00 6.3475865853725777e+00 2.3867853419963740e+01 1 0 0
2654 1 1.5076095199616230e+01 2.0680367945347893e+01 2.3918160326020764e+01 0 3 1
2898 1 1.2347856581478595e+01 3.5085194587625974e+00 2.3324843657899649e+01 1 1 1
4537 1 1.4063700924219246e+01 2.3360716948898894e+01 2.3250078976245220e+01 -2 1 1
2928 1 7.7984447532375645e-01 7.6260529402788393e+00 2.4030275029405992e+01 -2 5 1
1740 1 1.6394527185737441e+01 9.7451875897370197e+00 1.5944753086815188e+01 -2 3 0
795 1 1.0686331888827931e+01 1.9390528699667620e+01 2.3907259863260819e+01 -2 1 0
511 2 1.6667746555900465e-01 2.9884707263522694e+00 2.6738964598427529e+01 0 0 0
512 2 1.6667746555900465e-01 1.6599895732329983e-01 2.6738964598427529e+01 0 0 0
513 2 1.3888435922812750e+00 8.7161689958054223e-01 2.6738964598427529e+01 0 0 0
517 2 1.3888435922812750e+00 2.2828527840949198e+00 2.6738964598427529e+01 0 0 0
518 2 2.6110097190035453e+00 2.9884707263522694e+00 2.6738964598427529e+01 0 0 0
519 2 2.6110097190035453e+00 1.6599895732329983e-01 2.6738964598427529e+01 0 0 0
520 2 3.8331758457230887e+00 8.7161689958054223e-01 2.6738964598427529e+01 0 0 0
528 2 3.8331758457230887e+00 2.2828527840949198e+00 2.6738964598427529e+01 0 0 0
529 2 5.0553419724480859e+00 2.9884707263522694e+00 2.6738964598427529e+01 0 0 0
530 2 5.0553419724480859e+00 1.6599895732329983e-01 2.6738964598427529e+01 0 0 0
531 2 6.2775080991676599e+00 8.7161689958054223e-01 2.6738964598427529e+01 0 0 0
543 2 6.2775080991676599e+00 2.2828527840949198e+00 2.6738964598427529e+01 0 0 0
544 2 7.4996742258871727e+00 2.9884707263522694e+00 2.6738964598427529e+01 0 0 0
545 2 7.4996742258871727e+00 1.6599895732329983e-01 2.6738964598427529e+01 0 0 0
4328 1 3.7306865970559864e+00 1.7596069463340314e-01 2.4281196567545482e+01 -2 0 1
546 2 8.7218403526150361e+00 8.7161689958054223e-01 2.6738964598427529e+01 0 0 0
562 2 8.7218403526150361e+00 2.2828527840949198e+00 2.6738964598427529e+01 0 0 0
563 2 9.9440064793371672e+00 2.9884707263522694e+00 2.6738964598427529e+01 0 0 0
564 2 9.9440064793371672e+00 1.6599895732329983e-01 2.6738964598427529e+01 0 0 0
565 2 1.1166172606055246e+01 8.7161689958054223e-01 2.6738964598427529e+01 0 0 0
585 2 1.1166172606055246e+01 2.2828527840949198e+00 2.6738964598427529e+01 0 0 0
586 2 1.2388338732776315e+01 2.9884707263522694e+00 2.6738964598427529e+01 0 0 0
587 2 1.2388338732776315e+01 1.6599895732329983e-01 2.6738964598427529e+01 0 0 0
4117 1 4.9749982615227024e+00 9.1649148698489178e+00 2.4347917111400093e+01 6 2 0
588 2 1.3610504859499459e+01 8.7161689958054223e-01 2.6738964598427529e+01 0 0 0
609 2 1.3610504859499459e+01 2.2828527840949198e+00 2.6738964598427529e+01 0 0 0
610 2 1.4832670986215341e+01 2.9884707263522694e+00 2.6738964598427529e+01 0 0 0
611 2 1.4832670986215341e+01 1.6599895732329983e-01 2.6738964598427529e+01 0 0 0
612 2 1.6054837112946906e+01 8.7161689958054223e-01 2.6738964598427529e+01 0 0 0
633 2 1.6054837112946906e+01 2.2828527840949198e+00 2.6738964598427529e+01 0 0 0
3741 1 7.6150158008975319e+00 2.3167206000801897e+01 2.4419098882333898e+01 -2 1 0
514 2 1.6667746555900465e-01 7.2221783798955910e+00 2.6738964598427529e+01 0 0 0
515 2 1.6667746555900465e-01 4.3997066108665397e+00 2.6738964598427529e+01 0 0 0
516 2 1.3888435922812750e+00 5.1053245531229550e+00 2.6738964598427529e+01 0 0 0