
# Create simulation box and atoms

read_data data.graphite_substrate
  orthogonal box = (0 0 -0.0398667) to (49.22 49.0196 60.1019)
  3 by 2 by 5 MPI processor grid
  reading atoms ...
  6736 atoms
  reading velocities ...
  6736 velocities
group water type 1
3976 atoms in group water
group graphite type 2
2760 atoms in group graphite

# Define potential

pair_style sw
pair_coeff * * mWC.sw mW C
Reading potential file mWC.sw with DATE: 2019-02-27


# Fix graphite atoms in place

fix 5 graphite setforce 0.0 0.0 0.0
velocity graphite set 0.0 0.0 0.0


# Equilibration of molecular water

# Add velocity/set timestep

velocity	    water create ${TEMP} ${SEED} rot yes dist gaussian
velocity	    water create 225 ${SEED} rot yes dist gaussian
velocity	    water create 225 1489 rot yes dist gaussian
timestep	    5.0

# Define output

compute			1 water msd
compute			3 water temp
thermo	    	50
thermo_style	custom step temp press vol etotal ke pe c_1[4] c_3

# Neighbor lists

neigh_modify    delay 0 every 1 check yes

# Set fixes

fix             1 water momentum 10 linear 1 1 1 rescale
fix             2 water nve
fix             3 water temp/csvr ${TEMP} ${TEMP} 500.0 ${SEED}
fix             3 water temp/csvr 225 ${TEMP} 500.0 ${SEED}
fix             3 water temp/csvr 225 225 500.0 ${SEED}
fix             3 water temp/csvr 225 225 500.0 1489
fix             4 water press/berendsen iso ${PRES} ${PRES} 1000.0 modulus 20000
fix             4 water press/berendsen iso 1 ${PRES} 1000.0 modulus 20000
fix             4 water press/berendsen iso 1 1 1000.0 modulus 20000

# Run 0.5 ns equilibration

dump		    1 all atom 2000 ${DIR}/eq.${NAME}-${TEMP}.dump
dump		    1 all atom 2000 run_9/eq.${NAME}-${TEMP}.dump
dump		    1 all atom 2000 run_9/eq.het_freeze_9-${TEMP}.dump
dump		    1 all atom 2000 run_9/eq.het_freeze_9-225.dump

reset_timestep  0

run	            100000
Neighbor list info ...
  update every 1 steps, delay 0 steps, check yes
  max neighbors/atom: 2000, page size: 100000
  master list distance cutoff = 7.76
  ghost atom cutoff = 7.76
  binsize = 3.88, bins = 13 13 16
  1 neighbor lists, perpetual/occasional/extra = 1 0 0
  (1) pair sw, perpetual
      attributes: full, newton on
      pair build: full/bin/atomonly
      stencil: full/bin/3d
      bin: standard
Per MPI rank memory allocation (min/avg/max) = 4.121 | 4.235 | 4.565 Mbytes
Step Temp Press Volume TotEng KinEng PotEng c_1[4] c_3 
       0     132.7951   -1147.9579    145106.76   -36018.829     2665.962   -38684.791            0          225 
      50    172.00032   -669.51592    143544.02   -36465.013    3453.0363    -39918.05   0.86618823    291.42695 
     100    163.59868   -393.96105    142712.76   -36860.504    3284.3672   -40144.871     1.915876    277.19173 
     150     163.1309   -356.56675    142069.21   -37159.736    3274.9761   -40434.712    2.7704829    276.39915 
     200    157.75793   -227.86972    141338.96   -37450.149    3167.1097   -40617.259     3.630549    267.29551 
     250    155.10261   -264.43777     140932.5   -37723.852    3113.8021   -40837.654    4.3701662     262.7965 
     300    152.69184   -194.66287    140568.14    -37881.13    3065.4041   -40946.534    5.1199904    258.71183 
     350    147.42736   -29.661995    140258.03   -38069.741    2959.7156   -41029.457    5.7965247    249.79201 
     400    143.53204   -162.28668    139919.25   -38252.329    2881.5141   -41133.843    6.4326513    243.19202 
     450    143.59262    14.929408     139789.9   -38335.721    2882.7304   -41218.452    6.9790147    243.29467 
     500    146.13455   -164.55649    139644.97    -38452.21    2933.7614   -41385.972    7.5546771    247.60155 
     550    142.59185    -117.2518     139399.9   -38540.384    2862.6391   -41403.024    8.0265895    241.59902 
     600    141.02823   -147.28882    139289.77   -38607.487    2831.2483   -41438.736    8.5299749    238.94972 
     650     140.3109    46.000205    139292.54   -38689.529    2816.8473   -41506.377    8.9862599    237.73432 
     700    139.57721   -202.11309    139155.33   -38709.053     2802.118   -41511.171    9.3900561     236.4912 
     750    140.01846    -7.099787    139192.33   -38737.265    2810.9764   -41548.242    9.8203446    237.23882 
     800    136.24927    55.274147    139106.67   -38793.322     2735.307   -41528.629    10.370331    230.85253 
     850    137.11401    91.154742    139166.25   -38849.386    2752.6673   -41602.053    10.922227    232.31769 
     900    139.09338     48.55807     139233.1   -38867.174    2792.4048   -41659.579    11.372679    235.67143 
     950    139.84734   -105.91881    139248.47    -38875.41     2807.541   -41682.951    11.807923    236.94888 
    1000    136.82813    -135.0176    139221.53   -38902.979    2746.9281   -41649.907    12.317993    231.83332 
    1050    140.04359     61.73203    139354.46   -38895.844     2811.481   -41707.325    12.628558    237.28141 
    1100    137.27478    109.82552    139320.84   -38959.775    2755.8949    -41715.67    13.007379     232.5901 
    1150    135.29153    9.7861046    139404.55   -39020.016    2716.0797   -41736.096    13.392368     229.2298 
    1200    134.19881   -21.670933    139318.37   -39049.187    2694.1425   -41743.329    13.775129    227.37836 
    1250    136.83151    98.161118    139480.13   -39092.375    2746.9959   -41839.371    14.114562    231.83905 
    1300    132.87443   -192.75728    139349.13   -39163.191    2667.5546   -41830.745    14.450201    225.13441 
    1350    133.76778    27.662167    139363.94   -39133.449    2685.4892   -41818.938    14.792194    226.64804 
    1400    134.76954     113.2769    139498.36   -39135.084    2705.6003   -41840.684     15.18961    228.34536 
    1450    134.26877    61.406263    139562.28   -39157.825    2695.5471   -41853.372    15.469501     227.4969 
    1500     132.9265    13.265172    139451.46   -39165.735       2668.6   -41834.335    15.709007    225.22264 
    1550    132.72214   -23.993565    139479.03   -39223.785    2664.4972   -41888.282    15.887833    224.87638 
    1600    135.87762    -63.66338    139375.21   -39197.742    2727.8459   -41925.587    16.104697    230.22283 
    1650    132.75598   -186.95957    139150.18   -39276.928    2665.1767   -41942.104    16.470561    224.93372 
    1700    134.64687     72.00686    139112.78   -39255.736    2703.1377   -41958.874    16.795803    228.13753 
    1750    131.53212    23.407352    139170.48   -39268.489    2640.6068   -41909.096    17.130648    222.86009 
    1800    130.45719    23.495964     139037.6   -39294.372    2619.0267   -41913.399    17.533781    221.03878 
    1850    132.64631    65.624163    139082.23   -39315.188     2662.975   -41978.163      17.9022     224.7479 
    1900    131.81735   -24.349286    139162.04   -39286.876    2646.3329   -41933.208      18.1646    223.34336 
    1950    135.88613    68.183753    139166.12   -39251.839    2728.0167   -41979.856    18.496249    230.23725 
    2000    133.65987   -74.549322    139186.57   -39275.953    2683.3229   -41959.276    18.790414    226.46522 
    2050    136.03616    173.70143    139183.09   -39241.695    2731.0287   -41972.723    19.036378    230.49146 
    2100    134.18225    43.565963    139364.15   -39261.252      2693.81   -41955.062    19.345961     227.3503 
    2150    132.03581    15.965207    139491.04   -39284.041    2650.7187    -41934.76     19.63376    223.71351 
    2200    134.37253   -110.25269    139555.18    -39285.17    2697.6302     -41982.8     19.92859    227.67271 
    2250    131.99905    -88.00515    139410.97   -39340.585    2649.9806   -41990.565    20.087549    223.65122 
    2300    135.80013    90.879509     139559.2   -39304.643    2726.2902   -42030.933    20.215393    230.09154 
    2350    131.00107    38.551714    139552.38   -39332.719    2629.9455   -41962.664    20.440574     221.9603 
    2400    133.10781   -25.615689    139572.96   -39332.084    2672.2399   -42004.324    20.616568    225.52984 
    2450    133.85575    75.505721     139673.8   -39311.249    2687.2553   -41998.505    20.719955     226.7971 
    2500     134.5462    159.97235    139773.34   -39249.866    2701.1166   -41950.982     20.90596    227.96695 
    2550    135.65604    31.381434     139865.2   -39269.765    2723.3976   -41993.163    21.172567    229.84741 
    2600    133.65253   -162.91354    139814.01   -39272.514    2683.1756    -41955.69    21.495751    226.45278 
    2650    132.69189   -144.77828    139638.89   -39247.808    2663.8899   -41911.697    21.747308    224.82512 
    2700    132.78607   -46.542994    139428.02   -39297.596    2665.7807   -41963.377    21.972647     224.9847 
    2750    130.28684   -22.574748    139300.04   -39316.324    2615.6068   -41931.931    22.235234    220.75016 
    2800    134.87151   -39.013438    139107.43    -39327.77    2707.6475   -42035.417     22.43777    228.51815 
    2850    131.33434   -57.433917    139166.67   -39354.492    2636.6362   -41991.128    22.655529    222.52498 
    2900    132.83616    124.82658     139402.1   -39262.706    2666.7862   -41929.492    22.962811    225.06956 
    2950    133.50535    189.42939    139551.16   -39271.066    2680.2208   -41951.287     23.28709    226.20341 
    3000    133.24104    20.876121    139625.17   -39302.696    2674.9146   -41977.611    23.603162    225.75558 
    3050    135.72169   -191.47229    139421.73   -39306.234    2724.7155    -42030.95    23.816472    229.95864 
    3100    133.59673   -40.349874    139254.82   -39311.068    2682.0552   -41993.123    24.063844    226.35822 
    3150    133.74334    2.0131253    139288.29   -39332.493    2684.9986   -42017.492      24.3705    226.60664 
    3200    132.90574   -214.44712    139482.13   -39376.952    2668.1832   -42045.135    24.508607    225.18747 
    3250    128.23261   -70.530876    139475.59   -39396.006    2574.3666   -41970.373    24.742405     217.2696 
    3300    133.25853    42.664018    139355.29   -39415.283    2675.2657   -42090.549    25.039244    225.78521 
    3350    130.00577    -85.97693    139354.71   -39429.209    2609.9641   -42039.173    25.315008    220.27393 
    3400    133.22771   -144.36725     139412.4    -39402.16     2674.647   -42076.807    25.504369    225.73299 
    3450    131.71389   -57.065524    139371.38   -39435.663    2644.2559   -42079.918    25.688937    223.16806 
    3500    134.21538    116.28141     139573.1   -39410.536    2694.4751   -42105.011    25.783276    227.40643 
    3550    133.49264    28.410561    139823.02   -39347.065    2679.9655   -42027.031    25.982077    226.18186 
    3600    133.88539    152.06801    139884.75   -39322.795    2687.8504   -42010.645    26.060019    226.84732 
    3650    133.61108   -120.17256    139959.72   -39353.269    2682.3435   -42035.612    26.387551    226.38255 
    3700    134.08235   -12.618257    139903.63   -39366.417    2691.8045   -42058.222    26.618072    227.18104 
    3750    133.37651    176.56903    139918.89   -39378.373    2677.6343   -42056.007    26.904622    225.98511 
    3800    132.06062    7.2297963    140059.05   -39410.422    2651.2167   -42061.638    27.246015    223.75553 
    3850    132.59398    122.13568    140134.37   -39458.924    2661.9243   -42120.848    27.585067    224.65923 
    3900    130.80702    136.33953    140175.48   -39461.948    2626.0498   -42087.998    27.654701    221.63152 
    3950    132.54367    -16.58761    140264.86   -39479.799    2660.9143   -42140.713    27.763995    224.57399 
    4000    131.25542    38.979128    140140.78   -39499.885    2635.0517   -42134.937    28.105402    222.39125 
    4050    134.09104   -89.925175    140050.35   -39536.522     2691.979   -42228.501    28.377744    227.19576 
    4100    128.76492    88.353592    140100.36   -39538.078    2585.0531   -42123.131    28.598345    218.17151 
    4150    133.91685    3.1066395    140146.16   -39482.479    2688.4819   -42170.961    28.809074    226.90062 
    4200    132.53353    -55.37495    140035.17   -39485.913    2660.7107   -42146.624    29.040399    224.55681 
    4250    132.88291   -39.729728    140029.51   -39507.017    2667.7247   -42174.742     29.22238    225.14877 
    4300      132.247   -226.09693    139945.66   -39444.676    2654.9585   -42099.635    29.618576    224.07133 
    4350    133.46328    46.009108    140007.56   -39415.711    2679.3761   -42095.087    29.922054    226.13212 
    4400    128.27805    58.443424    139988.41   -39428.658    2575.2789   -42003.937    30.291531    217.34659 
    4450    133.27508    50.524041    139898.46   -39451.841     2675.598   -42127.439    30.571496    225.81325 
    4500    131.12726    14.431817     139890.1   -39465.366    2632.4789   -42097.845    30.875227    222.17411 
    4550    130.81707   -27.652159    139829.46   -39440.092    2626.2515   -42066.344    31.170378    221.64854 
    4600    130.48728    12.008322    139716.92   -39427.074    2619.6308   -42046.705    31.463401    221.08977 
    4650    133.57745   -89.291544    139817.59   -39397.489    2681.6682   -42079.157    31.653364    226.32556 
    4700    132.36341   -192.63397     139658.4   -39376.435    2657.2955    -42033.73    31.874223    224.26857 
    4750    131.31672    59.457442    139644.54   -39409.861    2636.2824   -42046.144    32.198305    222.49512 
    4800    132.01962   -14.162507    139658.21   -39443.784    2650.3937   -42094.178      32.5813    223.68608 
    4850    133.50404    -131.2816    139718.03   -39443.857    2680.1945   -42124.051    32.763866    226.20118 
    4900    130.92975   -37.209723     139708.4   -39444.411    2628.5136   -42072.925    32.994811    221.83946 
    4950    133.77927    80.072397     139790.8   -39394.959    2685.7199   -42080.679    33.047549    226.66752 
    5000    132.85676    49.118302    139754.86   -39370.426    2667.1999   -42037.626    33.202428    225.10448 
    5050    133.38703   -66.504926    139705.61   -39347.788    2677.8454   -42025.634    33.261763    226.00293 
    5100     133.2003     212.0002    139894.74   -39335.418    2674.0966   -42009.515    33.478637    225.68654 
    5150    132.41708    23.790562    139930.97   -39361.326    2658.3729   -42019.699    33.587922     224.3595 
    5200    135.51079    103.48886    140137.14   -39354.727    2720.4816   -42075.209    33.726474    229.60131 
    5250    133.97867    113.87971    140054.62   -39366.599     2689.723   -42056.322    34.096112    227.00537 
    5300    133.10018   -148.93204    139998.46   -39400.006    2672.0868   -42072.093    34.423798    225.51692 
    5350    134.04041    79.058442    139876.11   -39418.198    2690.9624    -42109.16    34.692506    227.10997 
    5400    132.68903   -56.859338     139884.7   -39393.022    2663.8326   -42056.854    34.911664    224.82029 
    5450    134.60229    6.0581241    140018.66    -39351.06    2702.2426   -42053.302    35.121737    228.06199 
    5500    131.73174    50.428592    140049.06   -39371.796    2644.6142    -42016.41    35.131305     223.1983 
    5550    130.04077     145.2484    140140.47   -39395.374    2610.6667   -42006.041    35.314328    220.33323 
    5600    131.19956   -59.390681    139941.48   -39429.853    2633.9304   -42063.784    35.545929    222.29662 
    5650    133.62963    27.741587    139813.96   -39431.644    2682.7158    -42114.36    35.836336    226.41398 
    5700    131.45051    92.111376    139794.16    -39425.06    2638.9684   -42064.028    36.067945    222.72181 
    5750    130.17938   -111.27584    139629.91   -39469.223    2613.4495   -42082.673    36.397964    220.56809 
    5800    131.53958   -58.533334    139548.04   -39462.196    2640.7565   -42102.952    36.753527    222.87273 
    5850    134.73827    -15.83506    139543.12   -39420.325    2704.9726   -42125.298    36.885562    228.29239 
    5900    132.77457    166.06454    139671.74   -39430.847    2665.5498   -42096.396    37.044829    224.96521 
    5950    132.84664   -227.41652    139682.99   -39422.277    2666.9967   -42089.274    37.315497    225.08732 
    6000    133.66717   -135.64529    139571.19   -39396.557    2683.4694   -42080.027    37.581223    226.47758 
    6050    130.62782    4.9422792    139532.95    -39369.37    2622.4522   -41991.822    38.045134    221.32789 
    6100    135.78589    34.701581    139544.37    -39343.97    2726.0043   -42069.975    38.425873    230.06741 
    6150    132.11068     20.07661    139521.14   -39377.425    2652.2218   -42029.647    38.770662    223.84037 
    6200    132.64851   -119.63754     139571.8   -39400.743    2663.0191   -42063.762    39.060868    224.75162 
    6250    131.95871   -186.08395    139305.12   -39399.461    2649.1709   -42048.632    39.387132    223.58288 
    6300    132.25789    49.766918    139538.73   -39427.882    2655.1771   -42083.059     39.49137    224.08978 
    6350    133.87561    20.342505    139708.88   -39396.437    2687.6541   -42084.091    39.556766    226.83075 
    6400    133.45573    41.833758    139677.56   -39390.976    2679.2247   -42070.201    39.989848    226.11934 
    6450    132.17793    92.242888    139625.63   -39394.585    2653.5718   -42048.157     40.13486     223.9543 
    6500    133.23712   -32.114364    139676.53    -39371.39    2674.8359   -42046.226     40.38686    225.74894 
    6550    132.43681   -95.206878    139588.71     -39327.8    2658.7691    -41986.57    40.445557    224.39294 
    6600    136.86071    103.60766     139604.4   -39339.133    2747.5822   -42086.715    40.456418    231.88853 
    6650     132.1496    57.377333    139724.54   -39395.276     2653.003   -42048.279    40.907205     223.9063 
    6700    132.66524   -72.219684    139670.92   -39401.941     2663.355   -42065.296    41.172979    224.77998 
    6750    132.25642   -128.24671    139508.24   -39419.051    2655.1476   -42074.199    41.546268    224.08729 
    6800    130.77413    24.480366    139595.76   -39447.685    2625.3895   -42073.075    41.733964    221.57579 
    6850    131.02146   -65.838767    139454.81    -39446.03    2630.3548   -42076.385    41.922354    221.99485 
    6900    131.75641    121.97291    139498.94   -39465.607    2645.1096   -42110.717    42.128822    223.24011 
    6950      132.712   -48.962183    139704.96   -39385.617    2664.2937   -42049.911    42.451743     224.8592 
    7000    134.09969    64.832935    139623.07   -39359.844    2692.1527   -42051.997    42.700407    227.21042 
    7050     137.1942    41.767059    139651.19   -39341.883    2754.2772    -42096.16    42.857849    232.45357 
    7100    135.22037   -108.16742    139450.83   -39381.992    2714.6512   -42096.643    43.166504    229.10924 
    7150    131.63494    274.79276    139535.46   -39401.733    2642.6709   -42044.404    43.431059    223.03429 
    7200      132.887   -45.266394    139776.12   -39408.005     2667.807   -42075.812    43.637777    225.15571 
    7250    132.66197    98.858236    139809.19   -39431.302    2663.2892   -42094.591    43.971454    224.77442 
    7300    132.62946   -54.868235    139731.16   -39413.643    2662.6367    -42076.28    44.170745    224.71935 
    7350    134.83524    20.093146    139745.51    -39376.25    2706.9193   -42083.169    44.458826    228.45668 
    7400    132.21646    12.558446    139920.18   -39374.285    2654.3454    -42028.63    44.622052    224.01959 
    7450     131.4452   -180.47232    139731.44   -39404.689    2638.8617   -42043.551    44.744361    222.71281 
    7500    130.35626    88.253164    139644.01   -39415.675    2617.0005   -42032.676     44.88789    220.86778 
    7550    135.60258   -30.071471    139616.59   -39431.287    2722.3242   -42153.612    44.971114    229.75682 
    7600    132.81703   -38.439589     139482.4   -39453.808    2666.4022   -42120.211    45.083066    225.03716 
    7650    132.89512   -39.801496    139546.04   -39414.518    2667.9699   -42082.488    45.321424    225.16946 
    7700    129.07181   -68.991255     139411.8   -39492.362    2591.2141   -42083.576    45.410781    218.69148 
    7750    132.87501    36.387872    139414.43   -39469.715    2667.5663   -42137.281    45.593764     225.1354 
    7800    134.06954   -44.823873    139415.35    -39428.86    2691.5472   -42120.407    45.741198    227.15933 
    7850    133.21172   -129.35268    139415.66   -39395.387     2674.326   -42069.713    45.725465     225.7059 
    7900    134.37984   -22.938218    139497.78   -39386.692    2697.7769   -42084.469     45.75747    227.68509 
    7950    130.00547   -157.92517    139478.42   -39437.389     2609.958   -42047.347    45.939957    220.27342 
    8000    133.69317    -57.62651    139400.92   -39409.332    2683.9915   -42093.324    46.165848    226.52164 
    8050    133.55929   -30.892038    139290.48   -39397.477    2681.3036   -42078.781    46.402844    226.29479 
    8100    132.38404   -48.443591    139315.17   -39404.282    2657.7096   -42061.992    46.478984    224.30352 
    8150    129.79266   -168.54212    139367.74   -39433.346    2605.6858   -42039.032    46.725024    219.91285 
    8200    129.67756    42.982526    139306.52   -39448.725    2603.3751     -42052.1    47.083251    219.71784 
    8250    132.40846    33.908087    139565.78   -39410.318       2658.2   -42068.518    47.205824    224.34491 
    8300    130.93666    21.271401    139701.28   -39409.615    2628.6523   -42038.268    47.272611    221.85117 
    8350    130.04259    118.44026    139769.92   -39446.361    2610.7033   -42057.065    47.711252    220.33631 
    8400    132.63369    106.35882    139787.74   -39428.265    2662.7216   -42090.986    47.879942    224.72652 
    8450    132.49201    -89.09823     139870.1   -39431.993    2659.8773    -42091.87    48.141618    224.48647 
    8500    133.99286    -96.21396    139624.18   -39400.391    2690.0078   -42090.399    48.449151     227.0294 
    8550    131.89468    99.475569    139773.75   -39408.664    2647.8854   -42056.549    48.314014    223.47439 
    8600    132.24349    13.291122    139651.05   -39415.643     2654.888   -42070.531    48.494167    224.06538 
    8650     130.8643    -21.76289    139624.25   -39408.793    2627.1997   -42035.992    48.664514    221.72857 
    8700    135.35705   -121.74872    139500.94   -39413.126    2717.3951   -42130.521    48.920156    229.34081 
    8750    129.55489   -166.90303    139403.05   -39440.984    2600.9123   -42041.896    49.252016    219.50998 
    8800    135.16234   -53.949939    139347.26   -39428.936     2713.486   -42142.422    49.546221     229.0109 
    8850    132.14949   -175.20396    139194.34   -39442.952    2653.0009   -42095.953    49.859412    223.90612 
    8900    133.48143    138.98052    139232.29   -39436.894    2679.7406   -42116.635    50.181917    226.16287 
    8950    133.62598    -71.50032    139296.08   -39405.905    2682.6425   -42088.547     50.49836    226.40779 
    9000     132.5829    54.027385    139397.07   -39457.372     2661.702   -42119.073    50.844033    224.64047 
    9050    129.90186   -15.187331    139556.99   -39507.477     2607.878   -42115.355    51.064912    220.09787 
    9100    129.70501   -215.52674     139480.5   -39457.604     2603.926    -42061.53    51.323164    219.76433 
    9150    130.98837    147.90736    139487.04   -39460.757    2629.6904   -42090.447    51.498128    221.93878 
    9200    130.27856   -58.384189    139546.59   -39495.036    2615.4405   -42110.477    51.705511    220.73612 
    9250    131.40722    33.864891    139445.79   -39477.062    2638.0992   -42115.161    51.920654    222.64846 
    9300     129.4438    131.49528    139429.42   -39492.268     2598.682    -42090.95    52.156175    219.32175 
    9350    134.23391    154.79182    139632.17   -39455.399    2694.8472   -42150.246    52.329668    227.43784 
    9400    131.69254   -54.198007    139723.86   -39457.806    2643.8274   -42101.634      52.5879     223.1319 
    9450    131.60758     115.6997     139662.4   -39470.899    2642.1216   -42113.021    52.822993    222.98793 
    9500    132.58165    115.78129    139742.58   -39464.127    2661.6769   -42125.803    53.042868    224.63835 
    9550    129.64828    2.7022338    139766.86    -39467.52    2602.7872   -42070.307    53.220601    219.66822 
    9600     130.7763    114.63349    139848.57   -39463.373     2625.433   -42088.806    53.505653    221.57946 
    9650    131.99226    33.091219    139871.99   -39505.501    2649.8444   -42155.345    53.675549    223.63972 
    9700     130.8253   -29.545714     139968.7   -39463.585    2626.4167   -42090.002    54.050309    221.66249 
    9750    131.21877   -57.712675    139953.68   -39486.073     2634.316   -42120.389    54.055942    222.32917 
    9800    130.86564    -23.39396     139877.6     -39468.2    2627.2266   -42095.427    54.128866    221.73084 
    9850    128.76375    51.425803    139708.87   -39461.177    2585.0296   -42046.207    54.280948    218.16952 
    9900    131.45918   -116.79619    139645.22   -39472.915    2639.1424   -42112.058    54.447047     222.7365 
    9950    133.86004    68.045623    139652.56   -39434.926    2687.3414   -42122.267    54.705106    226.80437 
   10000    130.23015   -17.652774     139746.3   -39404.234    2614.4687   -42018.703    54.709126    220.65411 
   10050    131.39019   -8.3823832    139818.34   -39432.244    2637.7574   -42070.001    54.666856    222.61961 
   10100    131.98244   -79.405749    139694.37   -39396.763    2649.6472    -42046.41    54.767048    223.62308 
   10150    134.93585   -10.354947    139656.74   -39379.178    2708.9392   -42088.117    54.956895    228.62716 
   10200    136.09002   -80.595962    139674.97   -39290.087    2732.1101   -42022.197     55.31211    230.58272 
   10250    133.42833    5.7070909    139645.45   -39346.363    2678.6745   -42025.038    55.546225     226.0729 
   10300    132.16683    58.734544    139726.86   -39390.413     2653.349   -42043.762    55.753469     223.9355 
   10350      131.586   -100.52332    139656.16   -39364.073    2641.6883   -42005.762    55.853669    222.95137 
   10400    134.53097   -112.44243    139591.09   -39328.719     2700.811    -42029.53    56.155655    227.94116 
   10450    135.02408   -25.192731    139534.25   -39298.793    2710.7104   -42009.504    56.315569    228.77664 
   10500    135.10696    175.27402    139554.81   -39318.884    2712.3744   -42031.258    56.503027    228.91708 
   10550    134.13343    17.656035    139735.53   -39364.617    2692.8299   -42057.447    56.675575    227.26758 
   10600    130.83166   -82.001115     139739.4   -39376.048    2626.5445   -42002.593    56.883525    221.67327 
   10650    133.83949    41.058265    139835.42   -39343.334    2686.9289   -42030.263     57.11819    226.76955 
   10700    133.34921   -108.05864    139813.79   -39376.819    2677.0861   -42053.906    57.245135    225.93885 
   10750      132.589    103.26971    139649.63   -39389.276    2661.8244     -42051.1    57.552481     224.6508 
   10800    130.86687    41.595878     139629.5   -39334.924    2627.2514   -41962.175    57.660854    221.73293 
   10850     132.0777    102.93936    139556.17   -39320.765    2651.5596   -41972.325    57.845747    223.78448 
   10900    133.43934   -142.63426    139569.03    -39364.63    2678.8956   -42043.526    57.910483    226.09156 
   10950    132.13209    43.098939    139562.23   -39390.762    2652.6516   -42043.414    57.894004    223.87664 
   11000    133.08227    140.60822    139780.11    -39397.17    2671.7272   -42068.897    58.051353    225.48657 
   11050    130.79596   -103.44149    139671.07   -39412.691    2625.8278   -42038.519    58.265099    221.61278 
   11100    129.22135    8.1351672    139581.62   -39469.173    2594.2163   -42063.389    58.555564    218.94486 
   11150    132.20515    76.969081    139640.72   -39428.392    2654.1183    -42082.51    58.738875    224.00042 
   11200    132.29663     173.8006     139751.2   -39420.561    2655.9547   -42076.516    58.817418    224.15542 
   11250    130.93659   -117.05971    139721.67   -39441.944     2628.651   -42070.595    58.932907    221.85105 
   11300    131.59478    40.063144    139665.97   -39438.512    2641.8646   -42080.377    59.250602    222.96625 
   11350    131.49787    121.26583    139709.47   -39417.845    2639.9191   -42057.765    59.343385    222.80205 
   11400    131.18155   -6.5507108    139706.42   -39410.274    2633.5687   -42043.843    59.673942     222.2661 
   11450     133.0137   -179.24301    139598.33   -39397.382    2670.3505   -42067.732    59.887246    225.37038 
   11500    130.19488   -218.98656    139428.97   -39441.665    2613.7606   -42055.426    60.389104    220.59434 
   11550    132.27234   -46.025603    139304.81    -39448.45    2655.4672   -42103.917    60.357361    224.11426 
   11600    130.58288    125.31781    139369.67   -39442.879    2621.5499   -42064.429    60.582703    221.25174 
   11650    133.14486     20.90891    139550.96   -39410.962    2672.9838   -42083.946    60.812017    225.59262 
   11700     132.8162    206.24871    139751.27   -39373.702    2666.3856   -42040.088    61.035325    225.03575 
   11750    133.80329    49.288392    139625.19   -39374.565    2686.2022   -42060.768    61.313424    226.70822 
   11800    134.86163    10.378732    139671.07   -39325.006    2707.4491   -42032.455     61.46411     228.5014 
   11850     131.6202   -99.439497     139704.8    -39382.14    2642.3751   -42024.515    61.549951    223.00933 
   11900    134.66109   -5.2767646    139671.46   -39398.264    2703.4232   -42101.687    61.785375    228.16163 
   11950    134.34131    64.221752    139671.96   -39414.252    2697.0033   -42111.256    61.961104     227.6198 
   12000    132.65962   -149.23311    139438.51   -39381.276    2663.2422   -42044.519    62.117011    224.77046 
   12050    131.45273   -86.059099    139390.47   -39424.731     2639.013   -42063.744    62.455887    222.72558 
   12100    131.91214   -34.118129    139428.97   -39439.748    2648.2359   -42087.983    62.578844    223.50396 
   12150    128.46503   -84.794703    139505.19   -39427.371    2579.0325   -42006.403    62.765132    217.66339 
   12200    130.38976    30.406451    139473.64   -39382.893     2617.673   -42000.566    63.211285    220.92454 
   12250    132.42082   -106.14292    139425.71   -39357.686    2658.4481   -42016.134    63.466857    224.36585 
   12300     135.8994    -127.2181    139425.01   -39336.487    2728.2832    -42064.77     63.57998    230.25975 
   12350     131.9823   -135.75229    139343.78   -39368.718    2649.6445   -42018.363    63.631827    223.62285 
   12400    134.38737    -8.827403    139387.37   -39323.714    2697.9279   -42021.642    63.709508    227.69784 
   12450    131.93667   -142.88605    139376.37   -39351.898    2648.7284   -42000.626    63.866722    223.54553 
   12500    132.84748   -74.595203    139320.73   -39344.973    2667.0135   -42011.987    64.048839    225.08874 
   12550    134.16022    43.762828    139405.46   -39403.029    2693.3678   -42096.397    64.147228    227.31298 
   12600    133.59491   -191.11443    139433.02   -39402.812    2682.0187   -42084.831     64.62366    226.35514 
   12650    134.51163   -11.970847    139380.85    -39347.54    2700.4227   -42047.962    64.917446    227.90839 
   12700     133.7766    136.03686    139476.95   -39357.195    2685.6664   -42042.861    65.136465      226.663 
   12750    132.58939   -40.676919    139467.14   -39357.863    2661.8322   -42019.695    65.522617    224.65145 
   12800    132.83704   -14.266335    139535.41   -39356.934    2666.8039   -42023.738     65.82005    225.07106 
   12850    133.50945   -38.613949    139445.23   -39368.363    2680.3031   -42048.666    65.938354    226.21035 
   12900    131.31831    -40.37757    139336.11   -39407.618    2636.3143   -42043.932     66.14051    222.49782 
   12950    132.39194   -147.76381    139351.49    -39373.49    2657.8682   -42031.358    66.379448     224.3169 
   13000    131.62641   -50.368115     139194.6   -39376.558    2642.4997   -42019.058    66.688138    223.01985 
   13050    133.43185   -30.265455    139254.79   -39332.355    2678.7453   -42011.101    66.843537    226.07888 
   13100     132.6833   -103.53625    139227.45   -39379.556    2663.7175   -42043.274    67.021153    224.81057 
   13150    133.02046    107.21212    139225.03   -39313.589    2670.4862   -41984.076    67.182607    225.38183 
   13200    135.77755    3.2712116    139365.68   -39286.732    2725.8369   -42012.569    67.270967    230.05328 
   13250    132.17912   -66.423998    139374.97   -39355.317    2653.5957   -42008.913     67.77691    223.95632 
   13300    130.47568    112.17079    139460.29   -39352.677    2619.3979   -41972.074    68.312917    221.07011 
   13350     132.4635    -74.71446    139408.25   -39376.878     2659.305   -42036.183     68.63806    224.43816 
   13400    127.95185   -73.779927    139260.94   -39437.007    2568.7301   -42005.738    68.870188    216.79389 
   13450    129.43023   -129.78614    139133.99   -39448.391    2598.4096     -42046.8    69.102005    219.29876 
   13500    135.34821   -79.720432     139015.9   -39394.594    2717.2176   -42111.811    69.152323    229.32583 
   13550    133.29766    25.897488    139086.83   -39358.512    2676.0512   -42034.563    69.376618     225.8515 
   13600    129.36075    108.44021    139077.98   -39382.084    2597.0148   -41979.099    69.561055    219.18105 
   13650     132.0022    129.14709    138969.77   -39453.782     2650.044   -42103.826    69.736362    223.65656 
   13700    129.17956    80.262357    139090.09   -39478.555    2593.3773   -42071.932    70.038991    218.87404 
   13750     133.4617   -63.698892    139194.54   -39444.875    2679.3444    -42124.22    70.233958    226.12944 
   13800    134.43764    129.45398    139339.23    -39407.41    2698.9373   -42106.347    70.460574    227.78303 
   13850    133.56099   -80.366576    139350.95     -39348.9    2681.3378   -42030.237    70.860447    226.29767 
   13900    135.40494   -114.24401    139221.46   -39350.695    2718.3565   -42069.052    71.207062    229.42195 
   13950    132.73086    193.83238    139290.67   -39378.906    2664.6723   -42043.578    71.760206    224.89115 
   14000     133.6584   -21.112344    139343.56   -39357.091    2683.2934   -42040.385    72.256653    226.46273 
   14050    129.26157   -14.655232    139286.98   -39399.653    2595.0238   -41994.676    72.682407    219.01301 
   14100    132.38254    4.5327094     139253.6   -39425.043    2657.6796   -42082.722    73.079264    224.30098 
   14150    131.84542    46.640151    139238.74   -39368.693    2646.8965    -42015.59     73.17984    223.39092 
   14200    134.19236    81.544323    139164.48   -39344.346    2694.0131   -42038.359    73.525099    227.36743 
   14250    132.05913    57.812332    139241.57   -39383.278    2651.1868   -42034.464     73.66856    223.75302 
   14300     136.2962   -4.6098792    139248.91   -39375.268    2736.2493   -42111.517    74.067304    230.93206 
   14350    130.02731   -205.16432    139295.65   -39410.654    2610.3966    -42021.05    74.347061    220.31043 
   14400    130.95819   -57.027414    139144.49    -39425.21    2629.0846   -42054.295    74.482879    221.88765 
   14450    132.07009    29.609146    139195.33   -39362.479    2651.4068   -42013.886    74.815504    223.77158 
   14500    134.20705    79.691573    139219.52   -39364.396     2694.308   -42058.704    74.955602    227.39233 
   14550    133.59209   -96.614736    139078.17   -39421.292    2681.9622   -42103.255    75.197516    226.35037 
   14600    134.26285    192.44022    139254.49   -39390.527    2695.4281   -42085.955    75.392478    227.48686 
   14650     135.5325    77.971052    139442.14   -39359.356    2720.9174   -42080.274    75.904571    229.63809 
   14700    132.47363     50.30057    139344.42   -39326.747    2659.5083   -41986.255    76.121556    224.45533 
   14750    131.42008   -90.884217    139262.95   -39347.669    2638.3574   -41986.026    76.478065    222.67024 
   14800    133.36292   -180.87858    139194.24   -39389.159    2677.3613    -42066.52    77.011059    225.96207 
   14850    132.61465    45.945098    139087.56   -39354.125    2662.3392   -42016.464    77.361894    224.69425 
   14900    132.36233    94.991934     139201.4   -39379.231    2657.2737   -42036.505     77.51873    224.26673 
   14950    132.75774    2.2112138    139210.19   -39380.034    2665.2119   -42045.246    77.887955    224.93669 
   15000    132.12448   -19.378798    139234.95   -39395.841    2652.4988    -42048.34    78.009556    223.86374 
   15050    132.15701   -89.929657    139112.03   -39404.054    2653.1518   -42057.205    78.590575    223.91885 
   15100    133.26706   -121.02256    139238.59   -39426.268     2675.437   -42101.705    78.855754    225.79966 
   15150    133.48067     101.4397    139259.97   -39411.066    2679.7253   -42090.791    78.975092    226.16159 
   15200    132.32035    14.247678    139392.49   -39384.417    2656.4311   -42040.849    79.214616    224.19562 
   15250     131.4927    32.308349    139239.04   -39362.393    2639.8152   -42002.209     79.49102    222.79328 
   15300    134.06577   -102.61695    139097.35   -39311.868    2691.4717    -42003.34    79.861668    227.15295 
   15350    131.92534   -27.339877    139015.34   -39338.489    2648.5009    -41986.99    80.248656    223.52633 
   15400    134.42844   -48.295939     139067.1   -39384.986    2698.7525   -42083.739    80.489087    227.76743 
   15450    131.97679    163.28294    139209.03   -39406.377    2649.5338   -42055.911    80.820882    223.61351 
   15500    132.97377    -110.1084    139174.85   -39394.232     2669.549   -42063.781    80.963543    225.30273 
   15550     133.2522   -6.8465818    139170.66   -39393.027    2675.1385   -42068.165    81.110122    225.77448 
   15600    131.97049    54.629299    139153.37   -39395.204    2649.4073   -42044.611    81.296262    223.60283 
   15650    132.51305    38.728874    139321.68   -39392.513    2660.2997   -42052.813    81.584467    224.52212 
   15700    132.86227  -0.37390118    139436.49   -39394.303    2667.3106   -42061.613    81.933282    225.11382 
   15750     128.9715   -132.33912    139360.62   -39456.892    2589.2004   -42046.092    82.004791    218.52153 
   15800     132.5888    48.450955    139254.31   -39422.695    2661.8205   -42084.515    82.007063    224.65047 
   15850    131.26173   -80.807134       139326   -39473.097    2635.1784   -42108.275    82.228561    222.40195 
   15900    128.81252    3.0467475    139142.07   -39487.666    2586.0086   -42073.675    82.517848    218.25215 
   15950    132.05221    205.01028    139132.04   -39459.328    2651.0479   -42110.375    82.756209    223.74129 
   16000    132.48725    82.830948    139186.57   -39398.176    2659.7816   -42057.958    82.778715    224.47839 
   16050    131.97186    -18.36258    139274.14   -39402.598    2649.4348   -42052.033    83.050606    223.60515 
   16100     133.3454     47.60535    139395.37   -39372.061    2677.0097   -42049.071    83.276932     225.9324 
   16150     130.2917    65.035858    139466.13   -39418.367    2615.7044   -42034.072    83.608903    220.75839 
   16200     132.9994    -112.9845    139300.39   -39419.594    2670.0635   -42089.658    83.652205    225.34616 
   16250    130.83857    40.795462    139326.32   -39396.458    2626.6831   -42023.141     83.76307    221.68497 
   16300    130.22846   -22.572841    139263.44   -39431.244    2614.4348   -42045.679     83.71603    220.65125 
   16350    132.51655    91.448877    139371.81   -39397.319    2660.3699   -42057.689    83.885761    224.52804 
   16400    132.43426    203.34392    139513.89   -39402.911    2658.7178   -42061.628     83.93714    224.38861 
   16450    134.37299   -111.63261    139608.98     -39377.8    2697.6393   -42075.439    84.173881    227.67348 
   16500    129.93451   -135.04569    139584.37   -39416.712    2608.5336   -42025.245    84.264562     220.1532 
   16550    133.26584    30.351527    139522.89    -39394.92    2675.4123   -42070.332    84.644499    225.79758 
   16600    132.98041    4.5913911    139462.18   -39429.327    2669.6823   -42099.009    84.855258    225.31398 
   16650    133.75536     27.29782    139570.22   -39384.502      2685.24   -42069.742    85.129086    226.62701 
   16700    131.90259   -140.18159    139580.99    -39367.43    2648.0441   -42015.474    85.465754    223.48778 
   16750    131.93989    10.312742    139540.53   -39417.667     2648.793    -42066.46    85.799401    223.55098 
   16800    130.30419   -49.373168    139579.05   -39439.552    2615.9551   -42055.507    85.972936    220.77956 
   16850    131.99072   -91.096607    139438.77   -39405.517    2649.8135    -42055.33    86.001233    223.63711 
   16900    130.71966    244.61133    139495.67   -39389.217    2624.2959   -42013.513    86.254843     221.4835 
   16950    133.67007    48.631328    139568.82   -39389.523    2683.5277    -42073.05    86.473168     226.4825 
   17000    130.68864    177.17036    139616.62   -39442.097    2623.6732    -42065.77    86.711601    221.43094 
   17050    134.87223    -24.98121    139643.81   -39403.086     2707.662   -42110.748    86.829334    228.51937 
   17100    133.43998     104.5264    139744.38   -39416.365    2678.9084   -42095.273    86.962513    226.09264 
   17150    131.90959     8.443588    139806.25   -39419.969    2648.1848   -42068.154    87.286984    223.49965 
   17200    132.03504    77.205363    139867.63   -39388.826    2650.7032   -42039.529    87.404091     223.7122 
   17250    133.54348   -100.13707    139821.87   -39416.683    2680.9863   -42097.669     87.53969    226.26801 
   17300    134.00932   -26.790543    139763.38    -39333.43    2690.3384   -42023.769    87.757595     227.0573 
   17350    133.65218    137.08476    139830.84    -39362.87    2683.1686   -42046.039    87.845621    226.45219 
   17400    132.32983    -110.8876    139812.83   -39417.749    2656.6214   -42074.371    88.081774    224.21168 
   17450    133.74296    7.4741654    139827.37   -39418.633    2684.9911   -42103.625    88.358729      226.606 
   17500    132.71852    10.897007    139894.29   -39412.645    2664.4246   -42077.069    88.423213    224.87025 
   17550    130.08295   -58.320135     139863.8   -39457.261    2611.5136   -42068.774    88.396395     220.4047 
   17600    132.27711    -19.91477    139713.98   -39453.884    2655.5629   -42109.447    88.277799    224.12234 
   17650    131.23335   -48.381718     139750.5   -39476.306    2634.6086   -42110.914    88.519729    222.35386 
   17700    132.42529   -91.890777     139649.5   -39449.872    2658.5378    -42108.41    88.307578    224.37342 
   17750    132.04017   -5.0081888    139671.91    -39459.11    2650.8062   -42109.916    88.317982    223.72089 
   17800    132.91401     26.13496    139730.14   -39456.365    2668.3493   -42124.714    88.346058    225.20148 
   17850    133.46177   -78.281497    139711.72   -39487.346    2679.3459   -42166.691    88.432403    226.12957 
   17900    132.98114    47.891571    139825.69   -39463.075    2669.6969   -42132.772    88.730409    225.31521 
   17950    132.27813   -115.49925    139820.37   -39506.934    2655.5835   -42162.518    89.029912    224.12408 
   18000    131.93915    65.681581    139803.66   -39465.151    2648.7782   -42113.929    89.134033    223.54973 
   18050     131.9539   -62.502985    139718.98   -39464.365    2649.0744   -42113.439    89.265008    223.57473 
   18100    134.83775   -113.83258    139682.13   -39449.796    2706.9698   -42156.766    89.518362    228.46095 
   18150    134.11549    95.763589    139647.73   -39428.012    2692.4699   -42120.481     89.93363    227.23719 
   18200    133.46688     86.35586    139736.54   -39455.403    2679.4484   -42134.851    90.098597    226.13822 
   18250    130.79767   -114.79893    139752.08   -39491.405    2625.8621   -42117.267    90.421708    221.61568 
   18300    132.14892   -51.182699    139583.27    -39460.02    2652.9895    -42113.01    90.585558    223.90515 
   18350    133.26558    230.79506    139699.82    -39395.37    2675.4073   -42070.778    90.895254    225.79716 
   18400    135.18364   -161.14396     139587.5    -39419.55    2713.9137   -42133.464    91.174529      229.047 
   18450    131.76352    16.365781    139492.83   -39396.677    2645.2522   -42041.929    91.305573    223.25215 
   18500    129.25902    -41.37088    139394.71   -39451.593    2594.9725   -42046.566     91.29449    219.00868 
   18550    134.40709    47.137786    139409.26   -39425.562    2698.3238   -42123.886    91.478073    227.73125 
   18600    132.71276    85.643627    139355.52   -39439.772     2664.309   -42104.081    91.820472     224.8605 
   18650    135.99566    48.575491    139422.58   -39455.611    2730.2156   -42185.827    92.148588    230.42283 
   18700    132.48969   -17.770215    139434.12   -39460.589    2659.8307   -42120.419    92.396101    224.48253 
   18750      133.026    215.52399    139604.53   -39451.142    2670.5974    -42121.74    92.604475    225.39122 
   18800    131.64208    88.735425    139768.55   -39474.015    2642.8142   -42116.829    93.019225    223.04639 
   18850     132.9315   -131.96355    139794.25   -39420.537    2668.7003   -42089.237    93.449413    225.23111 
   18900    133.83347    28.781818    139755.32   -39495.551     2686.808   -42182.359    93.740973    226.75934 
   18950    131.01348   -112.85379    139796.89   -39504.454    2630.1945   -42134.649    94.005294    221.98132 
   19000    131.54771    125.43075    139811.65   -39461.295    2640.9197   -42102.215    94.336895     222.8865 
   19050    131.38059   -88.092408    139735.66   -39488.924    2637.5647   -42126.488     94.69897    222.60334 
   19100    133.38041    46.999219    139594.83   -39464.247    2677.7126    -42141.96    95.035914    225.99172 
   19150    130.50861     149.7994    139688.84   -39467.965    2620.0589   -42088.024    95.150611    221.12591 
   19200    130.10289    17.556607     139705.7   -39465.282    2611.9137   -42077.196    95.206204    220.43847 
   19250    128.89093    24.022462    139674.07   -39450.557    2587.5829    -42038.14    95.277509    218.38501 
   19300    129.86996    102.14573    139679.91   -39513.165    2607.2375   -42120.402    95.518109    220.04381 
   19350    128.21193    109.57139    139696.53    -39533.98    2573.9514   -42107.932    95.758616    217.23455 
   19400    128.30509    142.44277    139620.59   -39537.369    2575.8217   -42113.191    96.078922    217.39241 
   19450    128.51071   -109.13772    139600.13    -39528.94    2579.9495   -42108.889    96.336711    217.74078 
   19500    130.86873   -46.240943    139627.49     -39531.4    2627.2887   -42158.688    96.614587    221.73607 
   19550     131.2972    72.009203    139764.34   -39501.485    2635.8905   -42137.376    97.198952    222.46205 
   19600    131.99507    33.522011     139798.6   -39486.472    2649.9007   -42136.372    97.608309    223.64447 
   19650    131.03877    30.291611    139851.37   -39492.623    2630.7022   -42123.325    97.978592    222.02417 
   19700    133.20397   -38.282307    139953.44   -39452.369    2674.1704   -42126.539    97.993711    225.69277 
   19750    134.09031    9.9278761    140025.24   -39465.975    2691.9642    -42157.94    98.234629    227.19452 
   19800    133.31723    92.207753    140163.43   -39474.539    2676.4441   -42150.983    98.446119    225.88467 
   19850    132.00331    86.644376    140317.59    -39458.62    2650.0662   -42108.686    98.408562    223.65843 
   19900    130.58555    62.785002    140374.85   -39461.953    2621.6037   -42083.557    98.646044    221.25628 
   19950    130.65396     33.97429    140429.46    -39472.11     2622.977   -42095.087    98.571125    221.37219 
   20000    132.44797   -93.780377    140337.86   -39490.301    2658.9931   -42149.294    98.541051    224.41185 
   20050    132.85105   -50.958415    140146.99   -39457.292    2667.0852   -42124.377    98.615378     225.0948 
   20100    132.32943    32.363628    140182.49   -39475.615    2656.6134   -42132.228    98.953156      224.211 
   20150    131.19265    4.1867492    140201.77    -39467.49    2633.7916   -42101.282    99.154206    222.28491 
   20200     132.1447   -128.93743    140069.47   -39450.581    2652.9048   -42103.486    99.178767    223.89801 
   20250    132.56317    271.69373    140207.12   -39413.452    2661.3058   -42074.758    99.406333    224.60703 
   20300    131.52913    71.245017    140285.09   -39447.742    2640.5467   -42088.289    99.874904    222.85502 
   20350    134.32857   -167.35419    140124.69   -39432.517    2696.7476   -42129.264    100.18418    227.59822 
   20400    134.44227    56.086736    139979.79   -39451.799    2699.0301   -42150.829    100.32651    227.79086 
   20450    132.49763    42.652437    140142.95    -39448.64      2659.99    -42108.63    100.59008    224.49598 
   20500    132.62374    56.398997    140252.57   -39469.786    2662.5219   -42132.308    100.85479    224.70967 
   20550    134.59035   -99.367148    140207.67   -39461.121     2702.003   -42163.125     100.8864    228.04177 
   20600    132.43145    36.416382    140176.39   -39435.212    2658.6613   -42093.873    101.37429    224.38384 
   20650    131.58885    -32.16159    140113.32   -39462.015    2641.7456    -42103.76    101.60998     222.9562 
   20700    132.85344     54.22672    140030.67   -39425.726    2667.1331   -42092.859    101.69709    225.09884 
   20750    134.00131   -57.974803    140017.68    -39438.38    2690.1776   -42128.557    102.14227    227.04374 
   20800    133.55854    -16.77996     140058.6   -39391.316    2681.2887   -42072.604     102.3835    226.29353 
   20850     132.6779    26.941321    139976.69   -39429.654    2663.6091   -42093.263    102.29966    224.80143 
   20900     134.8773   -24.037181    139931.28   -39455.596    2707.7638    -42163.36     102.6146    228.52796 
   20950     131.6475    102.72005    139918.43   -39455.143     2642.923   -42098.066    102.78543    223.05557 
   21000    133.50726   -53.615645    139975.55   -39463.812    2680.2591   -42144.072    102.91388    226.20664 
   21050    131.12773    87.301198    139912.91   -39455.856    2632.4882   -42088.344     103.2993     222.1749 
   21100    133.82057    96.469859     140051.6   -39400.075     2686.549   -42086.624    103.56644    226.73749 
   21150    136.27326   0.59305394    139901.94   -39391.545    2735.7886   -42127.333    103.55516    230.89318 
   21200    135.08496   -143.38325    139964.74   -39387.976    2711.9326   -42099.909    103.82505    228.87979 
   21250    133.34732    114.59659     139934.1   -39374.307    2677.0483   -42051.355    104.10007    225.93565 
   21300    130.23367   -178.00128    139919.29   -39367.327    2614.5394   -41981.866    104.47062    220.66007 
   21350    134.20965   -153.04266    139806.29   -39311.506    2694.3602   -42005.866    104.79607    227.39673 
   21400    134.60965   -8.1283386    139686.88    -39307.23    2702.3904   -42009.621    104.88128    228.07446 
   21450    135.10304   -79.024834    139651.28   -39302.245    2712.2957   -42014.541     105.1392    228.91044 
   21500    133.80221    33.935142    139671.95   -39334.984    2686.1804   -42021.164    105.37284    226.70638 
   21550    134.06412    61.201361    139732.61   -39336.097    2691.4385   -42027.536    105.64726    227.15015 
   21600    131.96033   -3.9802343    139652.62   -39403.353    2649.2034   -42052.556    105.63198    223.58562 
   21650    133.94541    57.876981    139703.21   -39370.422    2689.0552   -42059.477    105.96081    226.94901 
   21700    134.26349   -11.357627    139702.93   -39319.775     2695.441   -42015.216    106.18925    227.48795 
   21750    136.79137    3.7551818    139684.38   -39287.139    2746.1901   -42033.329    106.37816    231.77104 
   21800     136.0285    113.14132    139677.66    -39254.31    2730.8749   -41985.185    106.66798    230.47847 
   21850    134.99628   -12.115286    139780.51   -39282.209    2710.1523   -41992.361    106.65306    228.72954 
   21900    135.44394   -45.944793    139738.32   -39320.763    2719.1394   -42039.902    106.83792    229.48803 
   21950    132.42067   -50.212549    139674.22   -39387.464     2658.445   -42045.909    107.35624    224.36559 
   22000    130.73676    43.165325    139629.08   -39422.268    2624.6393   -42046.908    107.68023    221.51248 
   22050    131.54275    23.652795    139669.68   -39418.267    2640.8202   -42059.087    108.08154     222.8781 
   22100    129.76863   -80.831694    139704.62   -39500.998    2605.2034   -42106.201    108.29752    219.87214 
   22150    128.82666    149.39136    139824.51   -39529.279    2586.2926   -42115.572    108.62097    218.27612 
   22200    130.31194    125.52422    139877.87    -39495.44    2616.1107   -42111.551    108.87333    220.79269 
   22250    130.06012    -14.69452    140014.93   -39491.237    2611.0552   -42102.293    108.98802    220.36602 
   22300    131.89063   -129.50095    139957.74   -39428.642    2647.8041   -42076.446    109.05462    223.46752 
   22350     133.1789    167.80484    140000.49   -39420.786     2673.667   -42094.453    109.23907    225.65028 
   22400    131.38892   -16.795591    140060.79   -39392.687    2637.7319   -42030.419    109.38378    222.61746 
   22450    135.16091    68.458023    140141.96   -39401.707    2713.4575   -42115.164    109.61463    229.00849 
   22500    134.43387   -49.179107    140063.18   -39372.151    2698.8616   -42071.013    109.67262    227.77664 
   22550    132.48989    7.9826582    140005.77   -39404.504    2659.8347   -42064.338    110.11327    224.48288 
   22600    130.20477    60.317804    139900.29   -39432.358    2613.9591   -42046.317    110.14107    220.61109 
   22650    133.29598    113.65444    139953.02   -39407.751    2676.0175   -42083.768    110.49915    225.84866 
   22700    132.48694   -86.058122    139928.84   -39462.983    2659.7754   -42122.759    110.89276    224.47787 
   22750     131.3769   -9.0274507    140102.47   -39435.271    2637.4906   -42072.762    111.04831    222.59709 
   22800    133.50496    104.13575    140048.92   -39432.795    2680.2129   -42113.008    111.25139    226.20274 
   22850    132.80828   -26.408986     140043.5   -39429.269    2666.2266   -42095.496    111.49715    225.02233 
   22900    131.10737   -22.585215    139968.03   -39476.501    2632.0795    -42108.58     111.7835    222.14041 
   22950     131.0286   -166.28349    139981.11   -39509.518    2630.4982   -42140.017    111.92392    222.00696 
   23000    130.64763   -106.67238    139768.56   -39484.772      2622.85   -42107.622    112.21502    221.36146 
   23050    132.59922    0.7408834    139790.76   -39477.555    2662.0295   -42139.585     112.5032    224.66811 
   23100    129.98561    26.716243    139723.82   -39451.308    2609.5593   -42060.867    112.85797    220.23977 
   23150    132.19793    13.363699     139713.1   -39489.049    2653.9733   -42143.022    113.07652    223.98818 
   23200    131.62722    7.1477382    139637.43   -39489.233    2642.5159   -42131.749    113.15863    223.02121 
   23250    128.12358   -90.387691    139518.33   -39582.968    2572.1777   -42155.146    113.35195    217.08486 
   23300    129.82747   -128.13558    139422.59   -39512.164    2606.3845   -42118.548    113.54691    219.97182 
   23350    129.64272    101.29081    139354.39   -39507.875    2602.6757   -42110.551    113.56138     219.6588 
   23400    132.57035    42.991851    139374.47   -39542.956      2661.45   -42204.406    113.74015     224.6192 
   23450     129.6146    69.668307    139382.48   -39500.171    2602.1111   -42102.282    114.18445    219.61115 
   23500    131.82601    139.86953    139532.65   -39441.106    2646.5068   -42087.612    114.40534    223.35803 
   23550    133.89611   -118.02692    139522.99   -39433.718    2688.0655   -42121.783    114.40885    226.86548 
   23600    130.64447   -94.606078    139525.26   -39477.567    2622.7865   -42100.353    114.46251     221.3561 
   23650    129.99489    2.7919933    139461.13   -39440.455    2609.7457   -42050.201    114.51897     220.2555 
   23700    131.43804   -7.6816568    139381.67   -39448.179    2638.7181   -42086.897    114.51244    222.70069 
   23750    132.05746   -53.944455    139360.84    -39465.86    2651.1533   -42117.014    114.53742    223.75019 
   23800    130.79569    76.816685    139303.03   -39449.149    2625.8222   -42074.972    114.45809    221.61231 
   23850    132.34743    190.75495    139300.64    -39409.15    2656.9747   -42066.125    114.59949     224.2415 
   23900     131.4316    34.046472    139521.85    -39431.02    2638.5887   -42069.609    114.79811    222.68977 
   23950     131.3406   -27.770899    139466.68   -39405.659    2636.7617    -42042.42    115.02724    222.53558 
   24000    134.00933    114.89672    139502.89   -39357.224    2690.3385   -42047.562    115.13835    227.05731 
   24050    133.18459    -26.32799    139434.85   -39321.726    2673.7813   -41995.508    115.41666    225.65993 
   24100    133.47574    3.4273125    139477.59   -39330.501    2679.6263   -42010.127    115.67507    226.15323 
   24150    133.52073    127.08503    139437.47   -39336.828    2680.5296   -42017.357    115.90869    226.22947 
   24200    133.99528    181.77147    139703.99   -39306.961    2690.0564   -41997.018    116.38633     227.0335 
   24250    133.17383   -4.9872456    139713.43   -39264.218    2673.5652   -41937.783    116.60381    225.64169 
   24300    134.36671   -66.868955    139661.43   -39300.569    2697.5131   -41998.082    116.52387    227.66283 
   24350    134.97821   -89.403563    139589.75   -39370.104    2709.7895   -42079.893     116.8036    228.69893 
   24400    132.50472   -35.123093    139662.07   -39378.403    2660.1324   -42038.535    116.99009      224.508 
   24450    132.93975    109.18859    139618.94   -39401.096     2668.866   -42069.962    117.08176    225.24509 
   24500    133.34381    3.6269128    139626.85   -39453.841    2676.9778   -42130.819    117.21887     225.9297 
   24550    131.51059   -41.178553    139678.42     -39496.3    2640.1744   -42136.474    117.51296     222.8236 
   24600    130.01388    7.2678484    139638.74   -39464.395    2610.1269   -42074.522    117.63896    220.28767 
   24650    133.10419   -77.212291    139568.48   -39407.675    2672.1672   -42079.842    117.65544     225.5237 
   24700    134.98996    81.892185     139592.9   -39392.516    2710.0255   -42102.541    117.74546    228.71884 
   24750    133.74895   -10.326805     139683.5   -39395.802    2685.1112   -42080.913    117.93014    226.61614 
   24800    134.04369   -147.88238    139657.73   -39381.179    2691.0283   -42072.207    117.91145    227.11553 
   24850    132.35176    94.886158    139706.04   -39415.726    2657.0615   -42072.788    118.03556    224.24883 
   24900    136.77445    25.155447    139834.13    -39395.58    2745.8505   -42141.431    118.22676    231.74237 
   24950    134.92212   -174.67636    139846.62   -39416.776    2708.6634   -42125.439     118.5895    228.60389 
   25000    132.80858    69.932782    139831.83   -39453.234    2666.2326   -42119.467    118.51573    225.02284 
   25050    132.75649    171.81208    140062.78   -39468.818    2665.1869   -42134.005    118.61383    224.93458 
   25100    133.48281   -62.663004    140046.72   -39460.002    2679.7682    -42139.77    118.88463    226.16521 
   25150    133.23794     127.3542     139979.1   -39503.078    2674.8523    -42177.93    119.03746    225.75032 
   25200    129.25937   -136.15636    139926.42   -39524.453    2594.9796   -42119.433    119.42654    219.00928 
   25250    130.79044   -24.903655    139821.87   -39544.271    2625.7168   -42169.988    119.88842    221.60342 
   25300    132.56654    52.529237    139875.28   -39472.346    2661.3735   -42133.719     119.8004    224.61275 
   25350    132.97712    163.58271    139836.45   -39519.051    2669.6162   -42188.667     119.9168     225.3084 
   25400    131.12014    72.377254    139942.95   -39516.751     2632.336   -42149.087    120.19298    222.16206 
   25450    133.91253    51.149757    139944.72   -39489.016    2688.3953   -42177.411    120.42606    226.89331 
   25500    130.24124   -149.67691    139887.11   -39512.113    2614.6913   -42126.804    120.83923    220.67289 
   25550    133.50261    64.003168    139923.42   -39482.646    2680.1658   -42162.811    120.95023    226.19876 
   25600    132.98859    20.852226    139892.01   -39482.259    2669.8464   -42152.105    121.09112    225.32783 
   25650    130.11894   -88.070308    139870.19    -39482.17    2612.2361   -42094.406    121.04297    220.46568 
   25700    130.96384     8.105924    139645.58     -39476.7     2629.198   -42105.898    121.26171    221.89722 
   25750    132.51894    21.007512    139635.94   -39486.611    2660.4179   -42147.029    121.37073    224.53209 
   25800    131.09385    84.369464    139641.22   -39433.045    2631.8081   -42064.854    121.45391     222.1175 
   25850     130.7926    31.118212    139729.29   -39436.769    2625.7603   -42062.529    121.64746    221.60708 
   25900    131.80566    84.891246     139874.7   -39429.708    2646.0983   -42075.806    121.89902    223.32356 
   25950    132.63875    73.002859    139950.18   -39345.429    2662.8231   -42008.253     122.1762    224.73509 
   26000    133.96688   -122.26457    140021.51    -39313.33    2689.4863   -42002.816    122.65914    226.98539 
   26050    134.63605    64.677022    139989.73   -39356.885    2702.9205   -42059.806    122.89627     228.1192 
   26100    133.90767   -59.323694    139923.72   -39356.259    2688.2978   -42044.557    123.23427    226.88508 
   26150    132.75109   -15.183752     139833.4   -39349.054    2665.0784   -42014.133    123.43919    224.92542 
   26200    134.11465    109.20882    139861.62   -39337.322     2692.453   -42029.775    123.95875    227.23577 
   26250    135.26901    10.317827    139892.26    -39359.57    2715.6276   -42075.197    124.03588    229.19164 
   26300    131.05888    67.911216    139873.41   -39360.175    2631.1061   -41991.281    124.31265    222.05826 
   26350    135.69419    28.486593    139854.38    -39309.02    2724.1635   -42033.184    124.55585    229.91205 
   26400    131.10115   -138.50146    139813.73   -39314.525    2631.9546    -41946.48    124.72481    222.12987 
   26450    133.47798   -144.96813     139648.6   -39341.631    2679.6713   -42021.303    124.90126    226.15703 
   26500    132.62413    27.379331    139553.23   -39368.212    2662.5296   -42030.742    124.95985    224.71032 
   26550    131.82018    75.299144    139538.66   -39357.275    2646.3898   -42003.664    125.22492    223.34816 
   26600    133.76925    50.554211    139674.52   -39341.018    2685.5187   -42026.537    125.50987    226.65054 
   26650    133.38273   -98.712605    139579.71   -39312.649     2677.759   -41990.408    125.91213    225.99564 
   26700     135.1286     149.6289    139635.81    -39327.24    2712.8088   -42040.049    126.00955    228.95375 
   26750    131.93663   -273.68138    139617.95   -39421.358    2648.7276   -42070.086    125.94114    223.54546 
   26800    130.24006    94.792646    139665.85   -39384.022    2614.6676    -41998.69    125.95955    220.67089 
   26850     133.9757     89.32082    139622.98   -39392.765    2689.6635   -42082.428    126.09688    227.00034 
   26900      135.076     84.80869    139734.18   -39343.403    2711.7528   -42055.155    126.41898    228.86462 
   26950    136.77365    39.628454    139795.14   -39323.404    2745.8345   -42069.239    126.62004    231.74102 
   27000    136.05594    -64.64146    139641.97   -39331.488    2731.4259   -42062.914    126.61684    230.52497 
   27050    134.46947    68.334807    139616.37   -39366.109    2699.5763   -42065.686    126.91795    227.83695 
   27100    134.69828   -44.107882    139706.86    -39387.52    2704.1699   -42091.689    127.27932    228.22464 
   27150    134.32584   -14.193655    139647.06   -39411.703    2696.6927   -42108.395     127.3736    227.59359 
   27200    132.88926    105.20051    139828.08   -39424.001    2667.8522   -42091.853    127.79513    225.15953 
   27250    132.23473     -20.8859    139965.33   -39426.399    2654.7122   -42081.111    128.28842    224.05054 
   27300    134.55341   -82.041256    139741.16   -39382.438    2701.2614     -42083.7    128.35316    227.97918 
   27350    134.62245    304.62995    139742.43   -39349.747    2702.6473   -42052.395    128.47744    228.09614 
   27400    134.06427   -57.155264    139800.43   -39361.797    2691.4415   -42053.238    128.50472     227.1504 
   27450    130.95463   -283.54095    139617.59    -39427.37    2629.0131   -42056.383    128.60971    221.88162 
   27500    133.84153     92.30194    139620.01   -39451.871    2686.9698   -42138.841    128.89853    226.77301 
   27550    132.39287    146.74289    139644.98   -39462.457     2657.887   -42120.344    129.28075    224.31849 
   27600    132.49175   -40.882179    139654.16   -39509.059     2659.872   -42168.931    129.39483    224.48602 
   27650    131.50475   -29.755612    139606.74   -39520.927    2640.0572   -42160.984    129.75508    222.81371 
   27700    131.13753   -45.594488    139614.73   -39549.719    2632.6851   -42182.404    129.96687    222.19152 
   27750    130.34089   -30.892055    139566.16   -39501.402    2616.6919   -42118.094    130.14639    220.84174 
   27800    132.37124   -44.710342    139645.37   -39501.679    2657.4527   -42159.132    130.17289    224.28184 
   27850    132.64129    -59.03556    139685.33   -39460.136    2662.8742   -42123.011    130.29466     224.7394 
   27900    132.69813    3.0869071    139564.33   -39438.317    2664.0152   -42102.332    130.62673     224.8357 
   27950    133.90433    71.769859    139706.48   -39401.852    2688.2306   -42090.082     130.8316    226.87941 
   28000    135.49588    41.274757    139860.46   -39356.734    2720.1821   -42076.916    130.96613    229.57603 
   28050    133.72688    14.707864    139876.91   -39361.007    2684.6681   -42045.675    130.91778    226.57875 
   28100    133.43541    88.435829    139869.83   -39383.275    2678.8167   -42062.092    131.10921     226.0849 
   28150    133.16694   -99.883963    139844.62   -39335.453    2673.4269   -42008.879    131.20695    225.63002 
   28200     134.4459    47.459518    139907.85   -39311.596    2699.1031   -42010.699    131.30778    227.79702 
   28250    135.54124   -148.95629     139832.8   -39301.924    2721.0927   -42023.016    131.65504    229.65289 
   28300    135.25445    169.33624    139702.22   -39309.996    2715.3353   -42025.331    131.94099    229.16697 
   28350    133.74352    -129.8335    139699.17   -39335.905    2685.0022   -42020.907    132.47134    226.60694 
   28400    133.80814    9.8532083    139557.11   -39353.615    2686.2996   -42039.914    132.86789    226.71644 
   28450    132.30964    10.554852    139598.79   -39342.686    2656.2161   -41998.902    133.06688    224.17747 
   28500    131.11237   -29.566735    139604.77   -39372.601      2632.18   -42004.781    133.10519    222.14889 
   28550     130.7595   -117.18414     139448.8   -39383.292    2625.0957   -42008.388    133.10803      221.551 
   28600    131.18278   -164.56386    139331.91   -39387.703    2633.5935   -42021.296    133.32017    222.26818 
   28650    133.52914   -25.083498    139229.25   -39443.274    2680.6983   -42123.972    133.38089    226.24371 
   28700    130.46684     4.017961    139359.46   -39449.034    2619.2205   -42068.254    133.57144    221.05514 
   28750    129.41986    18.102912    139371.07   -39450.663    2598.2014   -42048.865    133.85214    219.28119 
   28800    130.29188    17.183282    139413.22   -39454.878     2615.708   -42070.586    133.93898     220.7587 
   28850    130.04741    2.8202159    139478.11   -39445.385       2610.8   -42056.185    133.80743    220.34448 
   28900    130.17754   -172.02112    139400.35   -39438.667    2613.4125   -42052.079    134.07321    220.56497 
   28950    130.29444    61.019548    139404.53   -39419.662    2615.7594   -42035.421    134.23402    220.76304 
   29000    131.04446   -6.9936291    139390.09   -39408.941    2630.8166   -42039.757    134.58191    222.03382 
   29050    132.10095    52.405962    139299.29   -39373.918    2652.0264   -42025.944    134.62548    223.82387 
   29100    132.57045   -79.665543    139233.04   -39357.328     2661.452    -42018.78    134.95711    224.61937 
   29150    129.31313    145.50478    139294.92   -39419.646    2596.0589   -42015.705    135.56312    219.10037 
   29200    131.44584    -39.60144    139324.84   -39423.477    2638.8746   -42062.352    135.74925     222.7139 
   29250    132.57822   -61.992187    139312.42   -39433.002    2661.6079    -42094.61    135.92681    224.63253 
   29300    132.63618   -33.969987    139171.49   -39415.257    2662.7716   -42078.028    136.48519    224.73074 
   29350    133.97684  -0.17946336     139253.1   -39382.892    2689.6863   -42072.578    136.72635    227.00227 
   29400    133.13283    60.009514    139267.46   -39348.326    2672.7423   -42021.069    137.01514    225.57224 
   29450    133.89053    118.82396    139347.83   -39250.376    2687.9536    -41938.33    137.42906    226.85604 
   29500    134.57414   -199.54002    139442.24   -39271.091    2701.6776   -41972.768    137.81278     228.0143 
   29550    133.39218   -15.271118    139401.63   -39292.605    2677.9489   -41970.554    138.01323    226.01166 
   29600    134.92986     1.319892    139524.48   -39279.231     2708.819    -41988.05    138.26832    228.61701 
   29650    134.60526    21.397862    139558.82   -39255.849    2702.3023   -41958.152    138.92487    228.06702 
   29700    133.26189   -57.901198    139515.38   -39264.366    2675.3332   -41939.699    139.17015    225.79091 
   29750    136.53839   -102.88409    139493.45   -39238.772    2741.1115   -41979.884    139.19891    231.34241 
   29800    134.43483    38.684514    139531.72   -39296.632    2698.8807   -41995.512     139.3394    227.77825 
   29850     130.2065   -109.18729     139462.2   -39356.218    2613.9939   -41970.212    139.65627    220.61403 
   29900    132.33977    6.3475637    139391.81   -39362.517    2656.8209   -42019.338    139.70751    224.22852 
   29950    132.53153   -43.133095    139478.01   -39450.643    2660.6705   -42111.313    139.97727    224.55342 
   30000    134.43803    18.059609    139562.49   -39433.776     2698.945   -42132.721    140.30747    227.78367 
   30050    130.78959   -30.002787    139570.98   -39465.258       2625.7   -42090.958    140.72379    221.60199 
   30100    133.17732   -29.032402     139584.3   -39436.432    2673.6353   -42110.067    141.00777    225.64761 
   30150     132.4698    92.270011    139578.48   -39405.305    2659.4313   -42064.736    141.48221    224.44883 
   30200    132.19807   -10.625293    139518.29   -39378.704    2653.9761    -42032.68    141.84488    223.98843 
   30250    133.26106   -18.558905    139576.76   -39412.749    2675.3165   -42088.065    141.91498    225.78949 
   30300    130.46712   -11.402683    139447.22   -39403.289    2619.2259   -42022.515    142.34391     221.0556 
   30350    135.14046    225.24556    139695.96   -39343.421    2713.0469   -42056.468    142.51393    228.97384 
   30400    133.91555    -42.14173    139822.37   -39371.191    2688.4559   -42059.647    142.92469    226.89843 
   30450    131.33824    49.970322    139781.01   -39400.911    2636.7143   -42037.626    142.81311    222.53158 
   30500     133.9499    -129.0864    139847.31    -39440.52    2689.1454   -42129.666    142.93538    226.95662 
   30550    129.46207   -100.08031    139790.53   -39474.547     2599.049   -42073.596    142.85479    219.35272 
   30600    133.96135    79.987542    139773.12    -39373.65    2689.3754   -42063.025    143.09245    226.97603 
   30650    132.77116    63.378808    139952.78   -39364.614    2665.4813   -42030.095    143.40798    224.95943 
   30700    135.77352   -175.00891    140070.17   -39326.608    2725.7561   -42052.364    143.98089    230.04646 
   30750    134.80469   -20.256297    139933.26   -39347.964    2706.3061    -42054.27    144.36595    228.40493 
   30800    133.09793    57.189109    139897.13    -39352.96    2672.0416   -42025.002    144.74502     225.5131 
   30850    133.15456   -9.7706159    139748.66   -39361.744    2673.1785   -42034.922    145.21768    225.60905 
   30900     132.0287   -157.68444    139785.67   -39352.283    2650.5759   -42002.859     145.3427    223.70146 
   30950     135.2275    75.570875    139927.43   -39334.624    2714.7943   -42049.418    145.44504    229.12132 
   31000    135.69333   -36.303043    139796.09     -39356.8    2724.1462   -42080.947    146.01035    229.91059 
   31050    133.78684    43.360869     139853.2     -39405.2    2685.8719   -42091.072    146.36277    226.68034 
   31100    131.53848    34.352822    139766.87   -39441.851    2640.7345   -42082.586     146.3929    222.87086 
   31150    129.13188   -29.410624    139611.76   -39415.144    2592.4201   -42007.564    146.66654    218.79326 
   31200    129.02248   -74.942068    139659.26   -39367.995    2590.2238   -41958.219    146.67856     218.6079 
   31250    130.47657   -146.45201    139618.76   -39372.784    2619.4157     -41992.2    146.72462    221.07162 
   31300    131.21129   0.95032349     139541.9   -39388.749    2634.1659   -42022.915    146.98253     222.3165 
   31350    132.69035    104.08702    139709.87   -39383.387     2663.859   -42047.246    147.09065    224.82252 
   31400    130.89142     6.977389    139735.84   -39310.388    2627.7443   -41938.132    147.44918    221.77453 
   31450    133.95829   -26.969612    139729.49   -39292.827    2689.3139   -41982.141     147.9624    226.97084 
   31500    134.56875    -121.4037    139710.55   -39284.042    2701.5693   -41985.611    148.27993    228.00516 
   31550    131.55049   -5.5432625    139889.68   -39272.383    2640.9755   -41913.358    148.72094    222.89121 
   31600    134.08104   -11.387497    139729.42   -39235.715    2691.7781   -41927.494    148.82174    227.17881 
   31650    134.54658    -48.87158    139804.37   -39229.448    2701.1244   -41930.572    149.05235    227.96761 
   31700    135.02018   -132.05593    139670.62   -39252.256    2710.6321   -41962.888    149.06408    228.77004 
   31750    134.10385   -68.115971    139587.71   -39240.697    2692.2361   -41932.933    149.30227    227.21747 
   31800    133.30857    -53.50427    139604.86   -39253.238    2676.2702   -41929.509    149.41699    225.86999 
   31850     133.5721   -27.201103    139612.71   -39210.673    2681.5607   -41892.234    149.58396    226.31649 
   31900    133.32449   -59.878941    139603.76   -39277.012    2676.5898   -41953.602    149.69583    225.89696 
   31950    130.16936    107.49921    139784.02   -39340.273    2613.2482   -41953.521    149.68466     220.5511 
   32000     132.1568   -89.553482    139730.71   -39352.466    2653.1476   -42005.613    150.19809     223.9185 
   32050    131.31524   -11.949247    139621.45   -39382.494    2636.2527   -42018.747    150.45274    222.49262 
   32100    132.43174    20.110702    139575.16   -39372.581    2658.6673   -42031.248      150.734    224.38435 
   32150    130.05608   -54.546727    139680.38   -39417.001    2610.9741   -42027.975    150.97652    220.35917 
   32200    131.51646   -77.156554    139399.26   -39384.478    2640.2923    -42024.77    151.34392    222.83354 
   32250    131.38541    239.91405    139516.64   -39381.095    2637.6615   -42018.756    151.69419    222.61151 
   32300    130.47904   -68.291516    139701.22   -39369.051    2619.4652   -41988.516    152.23784     221.0758 
   32350    133.49083    69.356259    139579.29   -39385.418    2679.9292   -42065.347    152.39238     226.1788 
   32400    131.80034   -18.420199    139695.01    -39395.79    2645.9914   -42041.781    152.39452    223.31454 
   32450    132.45121    73.919625    139643.33   -39446.187    2659.0582   -42105.245    152.23429    224.41734 
   32500    129.42717    90.847261     139748.6   -39464.552    2598.3483     -42062.9    152.21477    219.29359 
   32550    134.47474   -16.108114    139587.76   -39432.536     2699.682   -42132.218    152.46086    227.84588 
   32600    132.44847   -13.291419    139682.06   -39383.329    2659.0032   -42042.332    152.67589     224.4127 
   32650    134.28263    -177.9303    139754.83   -39366.363    2695.8253   -42062.188    152.85208    227.52038 
   32700    133.24629    35.434566    139686.34   -39352.532    2675.0199   -42027.552    153.01566    225.76446 
   32750    134.72931    79.999635    139830.39   -39323.097    2704.7927    -42027.89    153.21213    228.27721 
   32800    131.69163   -17.099986    139823.73   -39335.815    2643.8091   -41979.624    153.41869    223.13035 
   32850    133.73148   -164.82331    139684.76   -39320.967    2684.7606   -42005.728    153.53731    226.58655 
   32900    133.57535   -15.021783    139472.21   -39363.689    2681.6262   -42045.316    153.64505    226.32202 
   32950    130.08024    65.099453    139490.61   -39426.853    2611.4592   -42038.313    154.10729    220.40011 
   33000    133.99661    14.646737    139490.51   -39410.761    2690.0832   -42100.844    154.17334    227.03577 
   33050    132.00062    98.331044    139715.45   -39409.865    2650.0121   -42059.878    154.40974    223.65388 
   33100    134.32118    126.02094    139807.51   -39449.964    2696.5992   -42146.563    154.73517    227.58569 
   33150    130.82155    60.170486    139827.19   -39490.848    2626.3414   -42117.189    154.94688    221.65613 
   33200    131.49989    105.60346    139810.13   -39520.332    2639.9597   -42160.292    155.17103    222.80547 
   33250    131.40182   -72.985075    139937.88   -39523.436    2637.9907   -42161.427    155.67039     222.6393 
   33300    129.87776   -108.74245    139937.33   -39514.868    2607.3941   -42122.262     155.6841    220.05703 
   33350    129.88373   -8.8876973    139885.44   -39487.719     2607.514   -42095.233    156.32132    220.06715 
   33400    130.47887    63.669461    139909.06   -39415.475     2619.462   -42034.937    156.25156    221.07552 
   33450    133.73834    57.274404    140047.47   -39382.297    2684.8981   -42067.195    156.61391    226.59816 
   33500    132.66081   -115.89328    139906.14   -39429.872     2663.266   -42093.138    156.75091    224.77247 
   33550    135.75172    56.610425    139967.21   -39366.629    2725.3183   -42091.947    156.97242    230.00952 
   33600    133.68938   -8.0153705    140048.42   -39393.024    2683.9153   -42076.939    157.13723    226.51521 
   33650     134.0008   -65.130509    139904.81   -39407.142    2690.1673   -42097.309     157.0315    227.04287 
   33700    131.65487   -6.4810532    139872.52   -39436.683     2643.071   -42079.754     157.3544    223.06806 
   33750    133.22605    182.92489    139864.37   -39412.629    2674.6136   -42087.243    157.75696    225.73017 
   33800    134.19126    12.037422    140084.29     -39400.8     2693.991   -42094.791    157.98789    227.36557 
   33850    131.49158   -234.69679    140007.55   -39389.911    2639.7927   -42029.704    158.22449    222.79139 
   33900    134.16648    15.181125    139872.59   -39368.735    2693.4935   -42062.229    158.59007    227.32359 
   33950    135.64359   -67.633385     139693.3   -39358.168    2723.1476   -42081.316    158.88052    229.82631 
[...]
   92000      133.905    16.542651    139631.79   -39348.007     2688.244   -42036.251    422.48385    226.88054 
   92050    133.92897    147.41777    139779.35   -39385.177    2688.7254   -42073.903    422.97364    226.92117 
   92100    133.43911   -174.57058    139935.11   -39377.579    2678.8909    -42056.47    423.63352    226.09116 
   92150     132.6405    -170.1839    139824.19   -39379.239    2662.8582   -42042.097    423.44363    224.73805 
   92200    133.32364   -98.050056    139666.85   -39331.802    2676.5728   -42008.374    423.82301    225.89552 
   92250    134.14892    58.574386    139487.93   -39305.614    2693.1409   -41998.755    423.49917    227.29383 
   92300    134.99085    19.429011    139629.87   -39292.315    2710.0433   -42002.358    423.55189    228.72035 
   92350     134.5728    -51.16662    139618.96   -39291.063    2701.6507   -41992.713    423.43175    228.01203 
   92400    133.12324    87.092611    139582.06   -39301.319    2672.5496   -41973.869    423.74126    225.55598 
   92450    133.08577    94.784343    139672.61   -39335.199    2671.7974   -42006.996    424.26353    225.49249 
   92500     132.2066   -119.15256    139770.21   -39374.019    2654.1475   -42028.166    424.72164    224.00289 
   92550    135.24247   -71.452461    139640.68   -39395.214    2715.0948   -42110.309    424.97156    229.14668 
   92600    133.11757    71.780075    139627.51   -39364.827    2672.4358   -42037.263    424.92714    225.54637 
   92650    134.09565    72.746738    139705.41   -39342.952    2692.0714   -42035.023    424.90689    227.20357 
   92700    130.05221    87.780713    139669.29   -39367.743    2610.8964    -41978.64    425.05895    220.35261 
   92750    133.33378   -79.944645    139656.77   -39309.104    2676.7764    -41985.88    425.07788     225.9127 
   92800    134.95319    20.416189    139637.19   -39278.278    2709.2873   -41987.565    424.94461    228.65654 
   92850    133.10673    130.84975    139631.83   -39327.349    2672.2183   -41999.568    425.08698    225.52801 
   92900    133.94097   -135.33845    139579.57   -39376.874    2688.9662    -42065.84    425.45918     226.9415 
   92950    130.40956   -74.025065    139678.41   -39421.584    2618.0705   -42039.654    425.95523    220.95808 
   93000     130.8993   -148.65574    139536.21   -39418.427    2627.9024    -42046.33    425.94601    221.78787 
   93050    135.50851    143.78253    139590.22   -39390.641    2720.4357   -42111.076    426.32122    229.59743 
   93100    134.34138   -65.479641    139704.07   -39352.517    2697.0048   -42049.522    427.33856    227.61993 
   93150    134.93092   -158.81399    139740.53   -39327.039    2708.8402    -42035.88    427.51011    228.61881 
   93200    132.15436    -58.80136    139638.31    -39343.35    2653.0986   -41996.448    427.79265    223.91436 
   93250    133.46981    130.62162    139613.51   -39363.075    2679.5073   -42042.582    428.51634    226.14319 
   93300    135.05683  -0.70410129    139689.68   -39313.151     2711.368   -42024.519      428.994    228.83214 
   93350    134.97998   -63.044398    139668.25   -39308.307    2709.8251   -42018.133    428.93131    228.70192 
   93400    132.54254    124.54815    139741.38    -39344.72    2660.8917   -42005.612    429.72521    224.57208 
   93450    136.73549    81.890189    139842.24   -39271.607    2745.0683   -42016.675     430.3709    231.67636 
   93500    135.57892   -19.520424    139737.06   -39278.816    2721.8492   -42000.665    430.38416    229.71673 
   93550    134.53712    129.63304    139773.16   -39253.066    2700.9343       -41954     430.6513    227.95157 
   93600    132.29088    12.456514    139806.75   -39290.299    2655.8395   -41946.138    431.06421    224.14569 
   93650    131.74527   -125.74001    139662.45   -39315.318    2644.8859   -41960.204    430.91879    223.22123 
   93700    136.41236    13.588602    139618.92   -39296.906    2738.5813   -42035.487    430.30242    231.12887 
   93750    132.96147   -22.199261    139627.91   -39353.176     2669.302   -42022.478    430.47021    225.28189 
   93800    132.68477   -143.67064    139501.07    -39390.67    2663.7469   -42054.417    430.81216    224.81305 
   93850     133.0537   -35.118254    139545.85   -39391.147    2671.1535     -42062.3    431.42948    225.43815 
   93900    132.00198    18.048099    139602.08   -39431.319    2650.0395   -42081.359    432.40414    223.65619 
   93950    131.07023    156.42021     139699.5   -39361.167     2631.334   -41992.501    433.30051    222.07749 
   94000    134.83373     112.8519     139710.6   -39371.183    2706.8891   -42078.072    433.11774    228.45414 
   94050    129.77976    64.218906    139628.18   -39422.881    2605.4268   -42028.308    433.01226    219.89099 
   94100    131.75056    114.08712    139662.94   -39409.068     2644.992    -42054.06    433.10069    223.23019 
   94150    130.38542   -1.9535178    139653.27   -39409.703    2617.5859   -42027.289    432.67363    220.91718 
   94200     132.0295   -12.057645    139726.14   -39378.803     2650.592   -42029.395     432.8854    223.70282 
   94250    130.84696  -0.51668623    139792.84   -39387.061    2626.8516   -42013.912    433.22008    221.69919 
   94300    131.87547    12.923122    139683.57   -39418.457    2647.4996   -42065.957    433.42986    223.44183 
   94350     130.7971   -127.30388    139436.36   -39461.255    2625.8506   -42087.106    433.70838    221.61471 
   94400    131.86944    2.0904684    139320.96   -39426.845    2647.3787   -42074.224    433.39294    223.43162 
   94450    134.82131    34.091355    139336.29    -39429.25    2706.6396   -42135.889    433.60408    228.43308 
   94500    132.30783   -11.828512     139372.7   -39402.004    2656.1797   -42058.184    434.07976     224.1744 
   94550    130.76736    53.968609    139331.64   -39435.409    2625.2535   -42060.662    433.87451    221.56431 
   94600    130.28985    27.500224    139292.67   -39485.458    2615.6671   -42101.125    433.97052    220.75525 
   94650    129.61243    71.793194    139391.79   -39452.085    2602.0674   -42054.153    434.23517    219.60747 
   94700    131.98086    137.38403    139420.01   -39481.497    2649.6155   -42131.112     434.6034     223.6204 
   94750    131.54933   -64.406885    139470.77    -39476.28    2640.9523   -42117.232    434.89099    222.88925 
   94800    128.49328   0.31507748    139515.74   -39559.527    2579.5997   -42139.127    435.19255    217.71126 
   94850     132.5473   -7.7878371    139693.24   -39506.041    2660.9873   -42167.028    435.81533    224.58015 
   94900    132.67056   -71.737588    139741.45   -39465.326    2663.4617   -42128.788    436.45415    224.78898 
   94950    131.63665    65.206154    139627.74   -39483.223    2642.7053   -42125.928    436.81198     223.0372 
   95000    132.77397   -62.089241    139677.03   -39458.924    2665.5377   -42124.461    437.18243    224.96419 
   95050    133.40184    26.411251    139558.15   -39468.468    2678.1427   -42146.611    437.33226    226.02802 
   95100    131.25214     -124.933    139638.21   -39441.291     2634.986   -42076.277    438.00047    222.38571 
   95150    130.67007    99.018636    139699.19    -39446.43    2623.3005   -42069.731     437.6075    221.39948 
   95200     133.9152    67.366615    139778.71   -39420.129    2688.4489   -42108.578    438.92286    226.89784 
   95250    131.50499    -201.5068     139735.8    -39428.44     2640.062   -42068.502    439.15089    222.81411 
   95300    132.38221   -76.741082    139768.51   -39366.307     2657.673    -42023.98    440.05481    224.30043 
   95350    135.08119   -113.26533    139608.68    -39337.33     2711.857   -42049.187    440.13003    228.87342 
   95400    131.23824   -70.929958    139579.15     -39399.2    2634.7068   -42033.907    440.08437    222.36214 
   95450    133.54765    7.1750835    139514.54   -39414.407      2681.07   -42095.477    440.21113    226.27507 
   95500    132.95604   -33.475754    139635.09   -39387.624    2669.1931   -42056.817    440.23137    225.27269 
   95550    131.78999    62.457164    139530.01   -39376.598    2645.7835   -42022.382    440.29678    223.29699 
   95600    133.90205   -44.506122     139546.9     -39348.6    2688.1848   -42036.785    440.43061    226.87554 
   95650    133.34824    115.77152    139597.67    -39370.78    2677.0667   -42047.847    440.67076    225.93721 
   95700     134.0395    48.538438     139731.3   -39318.666    2690.9443    -42009.61    440.83297    227.10844 
   95750    133.03519   -30.899581    139633.97   -39362.997    2670.7819   -42033.779    441.03591    225.40679 
   95800    134.57606   -161.59602    139582.79   -39331.689    2701.7161   -42033.405    441.42598    228.01755 
   95850    135.66709   -167.99759    139485.85    -39341.88    2723.6194     -42065.5    441.34086    229.86613 
   95900    132.89267    2.8738407    139341.33   -39348.506    2667.9207   -42016.427    441.07199    225.16531 
   95950    133.50611     82.29373     139409.6    -39368.15    2680.2361   -42048.386    441.27545     226.2047 
   96000    133.68494   -233.97161    139302.43   -39439.598    2683.8263   -42123.424    441.53684     226.5077 
   96050    133.59094    174.11333    139365.13   -39416.598     2681.939   -42098.537     441.7019    226.34842 
   96100    134.48554    -83.18269    139349.98   -39380.394    2699.8989   -42080.293    442.49514    227.86418 
   96150    133.45692   -19.344491    139479.22   -39369.302    2679.2485   -42048.551    443.25003    226.12135 
   96200    134.68725    10.008115    139567.05    -39380.74    2703.9483   -42084.688    443.77721    228.20595 
   96250     130.1378   -93.104631    139503.92    -39399.17    2612.6146   -42011.784    443.55568    220.49763 
   96300     132.3609   -138.33493    139344.57   -39417.366     2657.245   -42074.611    443.53203    224.26431 
   96350    130.83998    12.617691    139285.74   -39389.161    2626.7116   -42015.873    443.30666    221.68737 
   96400    130.05438    46.668072    139440.39   -39442.558      2610.94   -42053.498    443.50985    220.35629 
   96450    131.35359   -128.68544    139439.04   -39447.514    2637.0227   -42084.537    443.11963     222.5576 
   96500    132.03053   -25.404581    139401.55   -39398.332    2650.6127   -42048.944    443.38056    223.70456 
   96550    131.49913   -88.786252    139410.61   -39387.059    2639.9444   -42027.004    443.73575    222.80419 
   96600    130.63288      43.5573    139327.84   -39438.648    2622.5537   -42061.201    444.07604    221.33646 
   96650     131.8679    35.092992    139394.82   -39478.041    2647.3478   -42125.388    444.19651    223.42901 
   96700    130.65369   -2.6960766    139520.94   -39541.138    2622.9716    -42164.11    443.79503    221.37173 
   96750    127.42072    11.119847    139537.51   -39562.353    2558.0672    -42120.42    444.15186    215.89397 
   96800     129.2695    40.410446    139460.52   -39544.812     2595.183   -42139.995    444.47804    219.02644 
   96850    131.50072    145.45451    139509.32   -39537.947    2639.9763   -42177.923     444.9481    222.80688 
   96900    133.62389   -91.991526    139639.75   -39520.667    2682.6006   -42203.267    445.18784    226.40425 
   96950    134.19845   -161.31401    139455.72   -39506.157    2694.1352   -42200.293    445.57991    227.37775 
   97000    131.78439   -27.050555    139494.25   -39481.746    2645.6712   -42127.418    446.03051    223.28751 
   97050    130.27948   -1.1824788    139338.36   -39546.417     2615.459   -42161.876    445.36089    220.73769 
   97100    130.11929   -23.302648     139399.3   -39526.678    2612.2431   -42138.921    445.89458    220.46627 
   97150    129.98176   -94.399502    139393.42   -39529.008    2609.4821    -42138.49    446.06523    220.23325 
   97200    129.24008     79.81761    139492.06   -39518.839    2594.5923   -42113.432    446.39607    218.97659 
   97250    129.89308    27.084524    139428.77   -39495.479    2607.7017   -42103.181    447.16293    220.08299 
   97300    130.89989    212.58976     139547.1   -39493.224    2627.9142   -42121.139    447.27601    221.78887 
   97350    133.87498    92.466765    139535.15   -39430.628    2687.6414   -42118.269    448.05386    226.82969 
   97400    134.43773   -66.008667    139596.85   -39399.597    2698.9391   -42098.536    449.06118    227.78318 
   97450    133.43442   -11.960789    139579.34   -39400.326    2678.7969   -42079.123    448.88506    226.08323 
   97500    133.54156    119.34219    139706.92   -39374.784    2680.9478   -42055.732    449.70894    226.26476 
   97550    130.94864     90.22934    139857.06   -39359.814    2628.8929   -41988.707      449.823    221.87147 
   97600    132.57121   -110.08806    139679.22   -39322.458    2661.4673   -41983.925    449.88806    224.62066 
   97650     132.9275   -35.097429    139564.61   -39340.338    2668.6199   -42008.958    450.19003    225.22432 
   97700    132.52224    62.160202    139423.43   -39368.183    2660.4841   -42028.667    450.38413    224.53768 
   97750    134.18539    21.124516     139489.5   -39360.669    2693.8732   -42054.542    451.38546    227.35563 
   97800    130.08736   -103.37266    139438.66   -39350.815     2611.602   -41962.417     451.2323    220.41216 
   97850    131.61578    -28.13904    139510.59   -39378.068    2642.2863   -42020.355    451.51346    223.00184 
   97900    133.41731    86.469313    139620.25    -39346.49    2678.4533   -42024.943    452.31087    226.05424 
   97950    135.19894    172.11809       139618   -39322.884    2714.2208   -42037.104    453.10469    229.07291 
   98000    135.35463    21.937515    139647.01   -39267.792    2717.3464   -41985.138    453.84554    229.33671 
   98050    132.17467   -35.655984    139595.87   -39278.755    2653.5063   -41932.262      454.237    223.94878 
   98100    133.58967    24.138389    139611.87   -39268.521    2681.9135   -41950.434    454.69238    226.34627 
   98150    136.48993   -14.161503    139619.04   -39332.518    2740.1385   -42072.656    454.98661    231.26029 
   98200     133.4742    95.035992    139788.06   -39318.255    2679.5955    -41997.85    455.98567    226.15063 
   98250    133.43036    86.283269    139961.33   -39324.897    2678.7154   -42003.612    456.80563    226.07635 
   98300    132.68826    53.457743    140039.72   -39328.993     2663.817    -41992.81     457.1673    224.81897 
   98350     131.6798   -95.996655    139932.13   -39388.322    2643.5716   -42031.893    456.89365    223.11031 
   98400    130.40838   -75.051428    139850.96   -39398.879    2618.0468   -42016.925    456.96207    220.95609 
   98450    133.61757   -52.267113     139848.4    -39329.81    2682.4738   -42012.284    457.49501    226.39355 
   98500    132.80535    17.716625    139726.31   -39383.402    2666.1678    -42049.57    457.98755    225.01737 
   98550    134.39497   -68.411544    139823.99   -39386.582    2698.0806   -42084.663     458.4979    227.71072 
   98600    131.86208   -21.939601    139842.12   -39364.327    2647.2309   -42011.558    458.53141    223.41915 
   98650    131.76481   -71.382552    139861.94   -39342.112    2645.2781    -41987.39    458.69315    223.25434 
   98700    134.32569   -102.50483    139880.53   -39337.822    2696.6897   -42034.512    459.60364    227.59334 
   98750    132.75767   -102.90252    139819.29   -39355.817    2665.2106   -42021.027    460.61883    224.93658 
   98800    134.22637   -110.99889     139788.8   -39410.464    2694.6958    -42105.16    460.81084    227.42506 
   98850    132.23584   -11.076581    139760.98   -39371.537    2654.7345   -42026.272     460.9507    224.05243 
   98900    134.60991    32.182409    139729.79   -39436.879    2702.3956   -42139.275    461.89008     228.0749 
   98950    132.06671   -104.87921    139590.38   -39482.838     2651.339   -42134.177    462.24011    223.76586 
   99000    131.09955   -80.951539    139431.71   -39496.082    2631.9226   -42128.004    462.87968    222.12717 
   99050    133.44654    134.37495    139394.56   -39427.156    2679.0401   -42106.196    462.88946    226.10376 
   99100    135.57942    70.558169    139437.08   -39375.436    2721.8593   -42097.295    463.97558    229.71758 
   99150    134.64659    -134.8738    139501.94   -39400.602    2703.1321   -42103.734    464.58793    228.13706 
   99200    134.37744   -8.0418098    139536.95   -39423.817    2697.7287   -42121.546    465.72048    227.68103 
   99250    132.76011    -148.5259    139505.38   -39421.723    2665.2596   -42086.983    466.13377    224.94072 
   99300    131.91744   -109.92847    139386.55   -39427.037    2648.3422   -42075.379    466.08526    223.51294 
   99350    132.16568    150.61134    139435.88   -39389.933     2653.326   -42043.259    466.47381    223.93356 
   99400    133.76188    -9.602978    139584.75   -39362.699    2685.3708   -42048.069    467.06691    226.63805 
   99450    129.74552   -34.670496    139615.59    -39399.23    2604.7393   -42003.969    467.55669    219.83297 
   99500    134.82174    -5.229702    139605.69     -39360.4    2706.6483   -42067.048    468.14612    228.43381 
   99550    136.04913   -99.066111    139741.45   -39356.153    2731.2892   -42087.442     468.6338    230.51344 
   99600    133.16836   -62.063513    139697.92   -39399.098    2673.4555   -42072.554    469.27983    225.63243 
   99650    133.98454     -42.6148    139597.06   -39417.917    2689.8409   -42107.758    469.86461    227.01532 
   99700    135.15101    40.445704    139526.07   -39370.133    2713.2586   -42083.392    470.16178    228.99171 
   99750    131.92448    20.345904    139571.54   -39387.186    2648.4836    -42035.67    469.85173    223.52487 
   99800    131.82947    99.060858    139628.83   -39440.418    2646.5761   -42086.994    470.56714    223.36389 
   99850    133.37149   -141.21464    139634.77   -39425.274    2677.5334   -42102.807    471.13359    225.97659 
   99900    132.00434     -35.3502    139460.83   -39428.987    2650.0868   -42079.074    471.62039    223.66018 
   99950    131.90744   -45.099444    139469.82   -39415.879    2648.1415   -42064.021    471.54795      223.496 
  100000    133.89591   -72.832659    139332.89   -39378.087    2688.0615   -42066.149    471.56063    226.86514 
Loop time of 417.953 on 30 procs for 100000 steps with 6736 atoms

Performance: 103.361 ns/day, 0.232 hours/ns, 239.261 timesteps/s
99.6% CPU use with 30 MPI tasks x no OpenMP threads

MPI task timing breakdown:
Section |  min time  |  avg time  |  max time  |%varavg| %total
---------------------------------------------------------------
Pair    | 80.649     | 203.35     | 359.24     | 729.8 | 48.65
Neigh   | 2.7543     | 5.5625     | 15.511     | 190.7 |  1.33
Comm    | 36.151     | 154.05     | 208.76     | 452.6 | 36.86
Output  | 0.17306    | 0.18147    | 0.2849     |   4.5 |  0.04
Modify  | 5.3176     | 53.372     | 124.43     | 787.8 | 12.77
Other   |            | 1.444      |            |       |  0.35

Nlocal:    224.533 ave 523 max 151 min
Histogram: 24 0 0 0 0 0 0 0 3 3
Nghost:    1451.03 ave 1872 max 981 min
Histogram: 12 0 0 0 0 0 0 0 15 3
Neighs:    0 ave 0 max 0 min
Histogram: 30 0 0 0 0 0 0 0 0 0
FullNghs:  27262.5 ave 96378 max 9813 min
Histogram: 24 0 0 0 0 0 0 0 2 4

Total # of neighbors = 817874
Ave neighs/atom = 121.418
Neighbor list builds = 6138
Dangerous builds = 0

write_data		${DIR}/data.eq-${NAME}-${TEMP}
write_data		run_9/data.eq-${NAME}-${TEMP}
write_data		run_9/data.eq-het_freeze_9-${TEMP}
write_data		run_9/data.eq-het_freeze_9-225
undump          1

reset_timestep  0

unfix           2
unfix           3
unfix           4


################################################
#######         Run Simulation         #########
################################################

log				${DIR}/log.run_${NAME}
log				run_9/log.run_${NAME}
log				run_9/log.run_het_freeze_9
