LAMMPS data file via write_data, version 16 Mar 2018, timestep = 100000

4537 atoms
2 atom types

0.0000000000000000e+00 4.9219999999999999e+01 xlo xhi
0.0000000000000000e+00 4.9019635930410494e+01 ylo yhi
1.5879329035346803e+00 3.2352067096466058e+01 zlo zhi

Masses

1 18.015
2 12.01

Atoms # atomic

96 2 0.0000000000000000e+00 2.8417180249513345e+00 3.2437508896223686e+00 0 0 0
98 2 0.0000000000000000e+00 0.0000000000000000e+00 3.2437508896223686e+00 0 0 0
100 2 1.2305000000000001e+00 7.1042950623783474e-01 3.2437508896223686e+00 0 0 0
107 2 1.2305000000000001e+00 2.1312885187134998e+00 3.2437508896223686e+00 0 0 0
109 2 2.4610000000000003e+00 2.8417180249513345e+00 3.2437508896223686e+00 0 0 0
111 2 2.4610000000000003e+00 0.0000000000000000e+00 3.2437508896223686e+00 0 0 0
113 2 3.6915000000000004e+00 7.1042950623783474e-01 3.2437508896223686e+00 0 0 0
128 2 3.6914999999999996e+00 2.1312885187134998e+00 3.2437508896223686e+00 0 0 0
130 2 4.9220000000000006e+00 2.8417180249513332e+00 3.2437508896223686e+00 0 0 0
132 2 4.9220000000000006e+00 0.0000000000000000e+00 3.2437508896223686e+00 0 0 0
134 2 6.1524999999999999e+00 7.1042950623783407e-01 3.2437508896223686e+00 0 0 0
157 2 6.1524999999999999e+00 2.1312885187134989e+00 3.2437508896223686e+00 0 0 0
159 2 7.3829999999999991e+00 2.8417180249513345e+00 3.2437508896223686e+00 0 0 0
161 2 7.3829999999999991e+00 0.0000000000000000e+00 3.2437508896223686e+00 0 0 0
163 2 8.6134999999999984e+00 7.1042950623783407e-01 3.2437508896223686e+00 0 0 0
194 2 8.6134999999999984e+00 2.1312885187135002e+00 3.2437508896223686e+00 0 0 0
103 2 0.0000000000000000e+00 4.2625770374269996e+00 3.2437508896223686e+00 0 0 0
105 2 1.2305000000000001e+00 4.9730065436648339e+00 3.2437508896223686e+00 0 0 0
120 2 1.2305000000000001e+00 6.3938655561404980e+00 3.2437508896223686e+00 0 0 0
124 2 2.4610000000000003e+00 4.2625770374269996e+00 3.2437508896223686e+00 0 0 0
126 2 3.6914999999999996e+00 4.9730065436648339e+00 3.2437508896223686e+00 0 0 0
149 2 3.6914999999999996e+00 6.3938655561404980e+00 3.2437508896223686e+00 0 0 0
101 2 0.0000000000000000e+00 7.1042950623783341e+00 3.2437508896223686e+00 0 0 0
122 2 2.4610000000000003e+00 7.1042950623783341e+00 3.2437508896223686e+00 0 0 0
153 2 4.9220000000000006e+00 4.2625770374269978e+00 3.2437508896223686e+00 0 0 0
155 2 6.1524999999999999e+00 4.9730065436648339e+00 3.2437508896223686e+00 0 0 0
186 2 6.1524999999999999e+00 6.3938655561404980e+00 3.2437508896223686e+00 0 0 0
190 2 7.3829999999999991e+00 4.2625770374269996e+00 3.2437508896223686e+00 0 0 0
192 2 8.6135000000000002e+00 4.9730065436648339e+00 3.2437508896223686e+00 0 0 0
231 2 8.6135000000000002e+00 6.3938655561404980e+00 3.2437508896223686e+00 0 0 0
151 2 4.9220000000000006e+00 7.1042950623783341e+00 3.2437508896223686e+00 0 0 0
188 2 7.3830000000000009e+00 7.1042950623783341e+00 3.2437508896223686e+00 0 0 0
116 2 0.0000000000000000e+00 8.5251540748539991e+00 3.2437508896223686e+00 0 0 0
118 2 1.2305000000000001e+00 9.2355835810918343e+00 3.2437508896223686e+00 0 0 0
145 2 2.4610000000000003e+00 8.5251540748539991e+00 3.2437508896223686e+00 0 0 0
147 2 3.6915000000000004e+00 9.2355835810918343e+00 3.2437508896223686e+00 0 0 0
114 2 0.0000000000000000e+00 1.1366872099805333e+01 3.2437508896223686e+00 0 0 0
141 2 1.2305000000000001e+00 1.0656442593567498e+01 3.2437508896223686e+00 0 0 0
143 2 2.4610000000000003e+00 1.1366872099805333e+01 3.2437508896223686e+00 0 0 0
178 2 3.6914999999999996e+00 1.0656442593567499e+01 3.2437508896223686e+00 0 0 0
182 2 4.9220000000000006e+00 8.5251540748539991e+00 3.2437508896223686e+00 0 0 0
184 2 6.1524999999999999e+00 9.2355835810918343e+00 3.2437508896223686e+00 0 0 0
227 2 7.3830000000000009e+00 8.5251540748539991e+00 3.2437508896223686e+00 0 0 0
229 2 8.6134999999999984e+00 9.2355835810918343e+00 3.2437508896223686e+00 0 0 0
180 2 4.9220000000000006e+00 1.1366872099805333e+01 3.2437508896223686e+00 0 0 0
223 2 6.1524999999999999e+00 1.0656442593567499e+01 3.2437508896223686e+00 0 0 0
225 2 7.3829999999999991e+00 1.1366872099805333e+01 3.2437508896223686e+00 0 0 0
270 2 8.6134999999999984e+00 1.0656442593567498e+01 3.2437508896223686e+00 0 0 0
97 2 0.0000000000000000e+00 1.4208590124756650e+00 6.2541373093051877e+00 0 0 0
99 2 0.0000000000000000e+00 0.0000000000000000e+00 6.2541373093051877e+00 0 0 0
108 2 1.2305000000000001e+00 2.1312885187134998e+00 6.2541373093051877e+00 0 0 0
110 2 2.4610000000000003e+00 1.4208590124756650e+00 6.2541373093051877e+00 0 0 0
112 2 2.4610000000000003e+00 0.0000000000000000e+00 6.2541373093051877e+00 0 0 0
129 2 3.6914999999999996e+00 2.1312885187134998e+00 6.2541373093051877e+00 0 0 0
106 2 1.2305000000000001e+00 3.5521475311891644e+00 6.2541373093051877e+00 0 0 0
127 2 3.6914999999999996e+00 3.5521475311891644e+00 6.2541373093051877e+00 0 0 0
131 2 4.9220000000000006e+00 1.4208590124756650e+00 6.2541373093051877e+00 0 0 0
133 2 4.9220000000000006e+00 0.0000000000000000e+00 6.2541373093051877e+00 0 0 0
158 2 6.1524999999999999e+00 2.1312885187134989e+00 6.2541373093051877e+00 0 0 0
160 2 7.3829999999999991e+00 1.4208590124756659e+00 6.2541373093051877e+00 0 0 0
162 2 7.3829999999999991e+00 0.0000000000000000e+00 6.2541373093051877e+00 0 0 0
195 2 8.6134999999999984e+00 2.1312885187135002e+00 6.2541373093051877e+00 0 0 0
156 2 6.1524999999999999e+00 3.5521475311891644e+00 6.2541373093051877e+00 0 0 0
193 2 8.6134999999999984e+00 3.5521475311891657e+00 6.2541373093051877e+00 0 0 0
102 2 0.0000000000000000e+00 5.6834360499026637e+00 6.2541373093051877e+00 0 0 0
104 2 0.0000000000000000e+00 4.2625770374269996e+00 6.2541373093051877e+00 0 0 0
121 2 1.2305000000000001e+00 6.3938655561404980e+00 6.2541373093051877e+00 0 0 0
123 2 2.4610000000000003e+00 5.6834360499026637e+00 6.2541373093051877e+00 0 0 0
125 2 2.4610000000000003e+00 4.2625770374269996e+00 6.2541373093051877e+00 0 0 0
150 2 3.6914999999999996e+00 6.3938655561404980e+00 6.2541373093051877e+00 0 0 0
119 2 1.2305000000000001e+00 7.8147245686161639e+00 6.2541373093051877e+00 0 0 0
148 2 3.6914999999999996e+00 7.8147245686161639e+00 6.2541373093051877e+00 0 0 0
152 2 4.9220000000000006e+00 5.6834360499026637e+00 6.2541373093051877e+00 0 0 0
154 2 4.9220000000000006e+00 4.2625770374269978e+00 6.2541373093051877e+00 0 0 0
187 2 6.1524999999999999e+00 6.3938655561404980e+00 6.2541373093051877e+00 0 0 0
189 2 7.3829999999999991e+00 5.6834360499026637e+00 6.2541373093051877e+00 0 0 0
191 2 7.3829999999999991e+00 4.2625770374269996e+00 6.2541373093051877e+00 0 0 0
232 2 8.6135000000000002e+00 6.3938655561404980e+00 6.2541373093051877e+00 0 0 0
185 2 6.1524999999999999e+00 7.8147245686161639e+00 6.2541373093051877e+00 0 0 0
230 2 8.6135000000000002e+00 7.8147245686161639e+00 6.2541373093051877e+00 0 0 0
115 2 0.0000000000000000e+00 9.9460130873296642e+00 6.2541373093051877e+00 0 0 0
117 2 0.0000000000000000e+00 8.5251540748539991e+00 6.2541373093051877e+00 0 0 0
144 2 2.4610000000000003e+00 9.9460130873296642e+00 6.2541373093051877e+00 0 0 0
146 2 2.4610000000000003e+00 8.5251540748539991e+00 6.2541373093051877e+00 0 0 0
140 2 1.2305000000000001e+00 1.2077301606043163e+01 6.2541373093051877e+00 0 0 0
142 2 1.2305000000000001e+00 1.0656442593567498e+01 6.2541373093051877e+00 0 0 0
177 2 3.6914999999999996e+00 1.2077301606043163e+01 6.2541373093051877e+00 0 0 0
179 2 3.6914999999999996e+00 1.0656442593567499e+01 6.2541373093051877e+00 0 0 0
181 2 4.9220000000000006e+00 9.9460130873296642e+00 6.2541373093051877e+00 0 0 0
183 2 4.9220000000000006e+00 8.5251540748539991e+00 6.2541373093051877e+00 0 0 0
226 2 7.3830000000000009e+00 9.9460130873296642e+00 6.2541373093051877e+00 0 0 0
228 2 7.3830000000000009e+00 8.5251540748539991e+00 6.2541373093051877e+00 0 0 0
222 2 6.1524999999999999e+00 1.2077301606043163e+01 6.2541373093051877e+00 0 0 0
224 2 6.1524999999999999e+00 1.0656442593567499e+01 6.2541373093051877e+00 0 0 0
269 2 8.6135000000000002e+00 1.2077301606043163e+01 6.2541373093051877e+00 0 0 0
271 2 8.6134999999999984e+00 1.0656442593567498e+01 6.2541373093051877e+00 0 0 0
425 2 0.0000000000000000e+00 2.8417180249513345e+00 9.2645237289879745e+00 0 0 0
426 2 0.0000000000000000e+00 0.0000000000000000e+00 9.2645237289879745e+00 0 0 0
427 2 1.2305000000000001e+00 7.1042950623783474e-01 9.2645237289879745e+00 0 0 0
431 2 1.2305000000000001e+00 2.1312885187134998e+00 9.2645237289879745e+00 0 0 0
432 2 2.4610000000000003e+00 2.8417180249513345e+00 9.2645237289879745e+00 0 0 0
433 2 2.4610000000000003e+00 0.0000000000000000e+00 9.2645237289879745e+00 0 0 0
434 2 3.6915000000000004e+00 7.1042950623783474e-01 9.2645237289879745e+00 0 0 0
442 2 3.6914999999999996e+00 2.1312885187134998e+00 9.2645237289879745e+00 0 0 0
443 2 4.9220000000000006e+00 2.8417180249513332e+00 9.2645237289879745e+00 0 0 0
444 2 4.9220000000000006e+00 0.0000000000000000e+00 9.2645237289879745e+00 0 0 0
445 2 6.1524999999999999e+00 7.1042950623783407e-01 9.2645237289879745e+00 0 0 0
457 2 6.1524999999999999e+00 2.1312885187134989e+00 9.2645237289879745e+00 0 0 0
458 2 7.3829999999999991e+00 2.8417180249513345e+00 9.2645237289879745e+00 0 0 0
459 2 7.3829999999999991e+00 0.0000000000000000e+00 9.2645237289879745e+00 0 0 0
460 2 8.6134999999999984e+00 7.1042950623783407e-01 9.2645237289879745e+00 0 0 0
476 2 8.6134999999999984e+00 2.1312885187135002e+00 9.2645237289879745e+00 0 0 0
491 2 6.1524999999999999e+00 1.0656442593567499e+01 9.2645237289879745e+00 0 0 0
429 2 0.0000000000000000e+00 4.2625770374269996e+00 9.2645237289879745e+00 0 0 0
430 2 1.2305000000000001e+00 4.9730065436648339e+00 9.2645237289879745e+00 0 0 0
438 2 1.2305000000000001e+00 6.3938655561404980e+00 9.2645237289879745e+00 0 0 0
440 2 2.4610000000000003e+00 4.2625770374269996e+00 9.2645237289879745e+00 0 0 0
441 2 3.6914999999999996e+00 4.9730065436648339e+00 9.2645237289879745e+00 0 0 0
453 2 3.6914999999999996e+00 6.3938655561404980e+00 9.2645237289879745e+00 0 0 0
428 2 0.0000000000000000e+00 7.1042950623783341e+00 9.2645237289879745e+00 0 0 0
439 2 2.4610000000000003e+00 7.1042950623783341e+00 9.2645237289879745e+00 0 0 0
455 2 4.9220000000000006e+00 4.2625770374269978e+00 9.2645237289879745e+00 0 0 0
456 2 6.1524999999999999e+00 4.9730065436648339e+00 9.2645237289879745e+00 0 0 0
472 2 6.1524999999999999e+00 6.3938655561404980e+00 9.2645237289879745e+00 0 0 0
474 2 7.3829999999999991e+00 4.2625770374269996e+00 9.2645237289879745e+00 0 0 0
475 2 8.6135000000000002e+00 4.9730065436648339e+00 9.2645237289879745e+00 0 0 0
495 2 8.6135000000000002e+00 6.3938655561404980e+00 9.2645237289879745e+00 0 0 0
454 2 4.9220000000000006e+00 7.1042950623783341e+00 9.2645237289879745e+00 0 0 0
473 2 7.3830000000000009e+00 7.1042950623783341e+00 9.2645237289879745e+00 0 0 0
492 2 7.3829999999999991e+00 1.1366872099805333e+01 9.2645237289879745e+00 0 0 0
436 2 0.0000000000000000e+00 8.5251540748539991e+00 9.2645237289879745e+00 0 0 0
437 2 1.2305000000000001e+00 9.2355835810918343e+00 9.2645237289879745e+00 0 0 0
451 2 2.4610000000000003e+00 8.5251540748539991e+00 9.2645237289879745e+00 0 0 0
452 2 3.6915000000000004e+00 9.2355835810918343e+00 9.2645237289879745e+00 0 0 0
435 2 0.0000000000000000e+00 1.1366872099805333e+01 9.2645237289879745e+00 0 0 0
449 2 1.2305000000000001e+00 1.0656442593567498e+01 9.2645237289879745e+00 0 0 0
450 2 2.4610000000000003e+00 1.1366872099805333e+01 9.2645237289879745e+00 0 0 0
468 2 3.6914999999999996e+00 1.0656442593567499e+01 9.2645237289879745e+00 0 0 0
493 2 7.3830000000000009e+00 8.5251540748539991e+00 9.2645237289879745e+00 0 0 0
515 2 8.6134999999999984e+00 1.0656442593567498e+01 9.2645237289879745e+00 0 0 0
494 2 8.6134999999999984e+00 9.2355835810918343e+00 9.2645237289879745e+00 0 0 0
470 2 4.9220000000000006e+00 8.5251540748539991e+00 9.2645237289879745e+00 0 0 0
471 2 6.1524999999999999e+00 9.2355835810918343e+00 9.2645237289879745e+00 0 0 0
469 2 4.9220000000000006e+00 1.1366872099805333e+01 9.2645237289879745e+00 0 0 0
2830 1 8.0203412636277509e+00 6.0580073079353989e+00 1.1764390430247477e+01 2 1 0
823 1 1.0294631512178949e+00 3.3703335742180980e+00 1.1709820709228822e+01 1 2 0
1492 1 9.7418437491907124e+00 2.3126044644378427e+00 1.1721715233524069e+01 1 1 0
1431 1 3.2024753197528009e+00 5.4019321265612410e+00 1.1761974445721096e+01 1 2 0
4497 1 6.8345427246054440e+00 1.8475146107385256e+00 1.1797310501349543e+01 0 0 -1
2874 1 6.1913752295653079e+00 8.3677941417565176e+00 1.1793990801203398e+01 0 0 0
4405 1 1.0345088947634948e+00 4.0688158708889910e+00 1.4373107195661678e+01 0 0 0
2261 1 1.7778102019499842e+00 1.0958278332004488e+01 1.2359870642463360e+01 0 0 0
3081 1 7.3717260488565088e+00 7.6422966704740745e+00 2.0428998953537082e+01 1 0 0
3028 1 9.0177002671387001e+00 7.3305012579199358e-02 1.9881251570077850e+01 0 0 -1
4440 1 5.0177510868132931e+00 3.5474260584127065e-01 1.4935156524326198e+01 0 1 0
788 1 7.1965260933193358e+00 2.2084773493080623e+00 1.4602763955144122e+01 1 1 0
3021 1 4.7137052834114099e+00 4.7482918489913164e+00 2.1942855942501751e+01 0 1 0
3005 1 3.2771747452891904e+00 5.5346251512979672e+00 1.5258684833170800e+01 0 1 0
625 1 6.4722239162052766e+00 9.6703143101728983e+00 1.8050622720395808e+01 0 0 -1
4438 1 7.6851922418721657e+00 7.0599123976489526e+00 1.4792921226219576e+01 0 0 0
2961 1 5.8195778674859078e+00 4.6369766119572731e+00 1.4991542463644588e+01 -1 -1 0
1381 1 5.1181069271003246e+00 5.9139098605088565e+00 1.9409522073204400e+01 1 0 0
649 1 1.5678012327409387e+00 7.1083020805466939e+00 1.9559998539429472e+01 0 1 0
3890 1 1.4725934605585083e+00 1.0468085255578835e+01 1.5236070525851632e+01 0 1 0
2136 1 3.6639049358504385e+00 8.3490741235733434e+00 1.5036626872728439e+01 0 0 0
3758 1 6.3255828419302631e+00 9.3450147949463211e+00 1.5355242621027624e+01 0 0 -1
3872 1 3.3679146314090285e+00 8.3085181948178608e+00 1.2162389482720570e+01 1 0 0
3128 1 5.0912798998322728e+00 1.5069347952969379e+00 1.8825006355520841e+01 1 1 0
3695 1 5.5689118245297360e+00 1.2068558206890861e+01 1.8933548982393710e+01 0 0 -1
2235 1 6.2048390589678561e+00 3.8028809021289249e+00 1.7820366803916180e+01 1 0 -1
877 1 8.9958327740961543e+00 3.2368436821675086e+00 1.7140927345625428e+01 0 1 1
2144 1 2.6597066710997495e+00 4.9557092935510560e+00 1.7917207368220531e+01 0 0 0
636 1 2.1781041997387405e+00 6.9087977498254860e-01 1.1997920658806120e+01 0 1 0
1439 1 8.4150139319878803e-01 9.2565927669663511e-02 1.9275773616954247e+01 0 1 0
729 1 9.2661443357497646e+00 1.0836867605805402e+01 1.8911003710541124e+01 1 1 0
3803 1 3.0840575546701294e+00 1.1625672244098290e+01 1.7643014340554508e+01 1 1 0
774 1 7.5549787294703732e+00 1.0521251232287327e+01 1.2810527651540669e+01 -1 0 0
2194 1 2.6785031892386186e+00 2.4491753437876933e+00 1.9248050425625792e+01 0 1 0
2251 1 2.2039874257654102e+00 3.8783945223045362e+00 2.1546535309773233e+01 1 0 0
674 1 6.5211955288057366e+00 9.5160664020124819e-01 2.1084491963335573e+01 0 0 0
648 1 4.8628240813742361e+00 1.2906380382259350e-01 1.2063663466738161e+01 0 1 0
1348 1 1.1760121428874899e-02 7.7576713722375912e+00 1.2039360651739424e+01 0 -1 0
3609 1 7.1139586587255013e-02 1.1838367328430319e+00 1.6758500374963745e+01 0 0 0
89 1 2.2395960856669141e+00 1.5001493397840593e+00 1.4741426201380731e+01 0 0 0
3723 1 3.8348897014690961e+00 8.9620986128231621e+00 1.8877011948835069e+01 0 1 0
700 1 1.9602401915414809e+00 1.1598145129356581e+01 2.1070305364029771e+01 0 0 -1
1419 1 5.5880744847140216e+00 4.6154907119850801e+00 1.2305843831751218e+01 1 1 0
801 1 2.9686999553290940e+00 9.0898559045742715e+00 2.1531022892860790e+01 1 0 0
4417 1 8.6604401360369554e+00 5.4961363499965010e+00 2.1957750048605767e+01 0 1 0
3833 1 9.4404173970153700e+00 6.0887145225575532e+00 1.6677776731085842e+01 0 0 0
2960 1 9.6416904647132409e+00 8.2794182047194109e+00 1.8765357594212361e+01 0 1 0
1585 1 2.1724714650887185e+00 2.3961076728391411e+00 2.3779081587077734e+01 1 -1 0
3050 1 4.3986791285646989e+00 1.1212091889017533e+00 2.4791569543101495e+01 -1 1 0
48 1 6.4874366212258288e+00 2.7860024332695685e+00 2.5154188410614452e+01 1 0 0
1434 1 4.9574276469740264e+00 6.5248864311311818e+00 2.3919566776071399e+01 1 1 0
741 1 2.8812978657764794e+00 6.0863368206273325e+00 2.5564471192980591e+01 0 1 0
654 1 5.6861192839889156e+00 8.9119850599339170e+00 2.2493763849322470e+01 0 0 0
2253 1 8.3553237160391109e+00 4.5049947907429768e+00 2.9512482538053924e+01 0 0 0
1626 1 8.5267531319763035e-01 9.4545798164208694e+00 2.4039555276663911e+01 0 0 0
2935 1 9.0880847353829797e+00 1.5143625087843822e+00 2.5697951725917981e+01 -1 0 0
678 1 5.7549076499225755e+00 9.4070088352941781e+00 2.5545557724229994e+01 0 -1 0
3875 1 6.1614357048028889e+00 1.1703533754741200e+01 2.2843100588223038e+01 1 -1 -1
3713 1 6.6844592371185145e+00 1.1491673269791319e+01 2.8730132692637007e+01 1 0 -1
2856 1 5.3790950327939617e+00 1.0803102800431953e+01 3.1172527924270618e+01 1 1 0
3674 1 3.4965548122326435e+00 1.7535828073866446e+00 2.8664423031209587e+01 2 0 -1
4398 1 7.2521882125209478e+00 8.8236878093342650e+00 3.1390312704864414e+01 1 1 0
77 1 4.7714783737366467e-01 2.4663571443322360e-01 2.2923577283812548e+01 1 0 0
2866 1 3.9717610482331611e-01 3.3280816435159659e+00 2.5823267848963646e+01 1 1 0
3598 1 6.5916976228588464e-01 1.2117204273816771e+01 2.3986380543105064e+01 1 0 0
609 1 3.3959777792415404e+00 6.2643488056476873e+00 2.8554475411795401e+01 0 1 0
738 1 7.1683260364685610e+00 5.6119528136993369e+00 2.5439962483447893e+01 1 0 0
1478 1 2.8034395054343171e+00 9.2967803095297921e+00 3.1050951116772325e+01 1 0 1
23 1 7.1941531153475757e-01 1.5349437945621563e-01 3.1571159094434087e+01 0 0 0
3615 1 6.5882429194331600e+00 6.0831967381727550e+00 3.1594001084531563e+01 1 0 0
781 1 6.1561034062732993e+00 6.1296868238433113e+00 2.8272466459223658e+01 1 0 0
2320 1 2.7829482813836735e+00 8.9013866438702927e+00 2.5780692750179945e+01 1 -1 1
3842 1 1.9989102714835822e+00 8.6164187287541552e+00 2.8532647621559292e+01 0 0 0
722 1 5.2980199691684522e+00 1.2013473510187138e+01 2.6509291641944941e+01 1 0 0
2166 1 7.3956665864796269e+00 8.8314780460908597e+00 2.8258569578523826e+01 0 0 0
687 1 9.0681706946588942e+00 8.5629046272949871e+00 2.5650643554918965e+01 0 0 -1
1352 1 3.4577168567018455e+00 1.5892245712207465e+00 3.1643935104639667e+01 1 0 0
734 1 5.7422532449263404e+00 3.2090780261314902e+00 2.8154951342113513e+01 1 1 0
1369 1 5.6409978996559058e+00 3.3494228714810639e+00 3.1218010151013800e+01 1 1 0
716 1 1.6197089312378259e+00 3.7100063578853821e+00 2.8366565690050741e+01 1 0 0
2266 1 3.8676405701030121e+00 6.3659574144967115e+00 3.1350546562049665e+01 2 0 0
1604 1 2.2795430461398456e+00 3.9872111848520881e+00 3.1498465723365300e+01 1 0 0
691 1 9.4639054295807732e+00 8.3850204446182897e+00 2.2847657977572531e+01 0 1 1
63 1 6.8251179171172875e+00 3.2977196627425482e+00 2.2516631329227558e+01 0 0 0
2915 1 7.9807343441129435e+00 1.7162533503074791e+00 3.0819229949332218e+01 0 1 0
862 1 7.3460585252267165e+00 6.8557435852815096e-01 2.8161404646772112e+01 0 0 0
3863 1 9.7592313805037563e+00 1.1209925735924257e+01 2.2227636542549483e+01 0 0 0
137 2 0.0000000000000000e+00 1.2787731112280996e+01 3.2437508896223686e+00 0 0 0
139 2 1.2305000000000001e+00 1.3498160618518829e+01 3.2437508896223686e+00 0 0 0
174 2 2.4610000000000003e+00 1.2787731112280996e+01 3.2437508896223686e+00 0 0 0
176 2 3.6915000000000004e+00 1.3498160618518829e+01 3.2437508896223686e+00 0 0 0
135 2 0.0000000000000000e+00 1.5629449137232333e+01 3.2437508896223686e+00 0 0 0
170 2 1.2305000000000001e+00 1.4919019630994494e+01 3.2437508896223686e+00 0 0 0
172 2 2.4610000000000003e+00 1.5629449137232328e+01 3.2437508896223686e+00 0 0 0
215 2 3.6915000000000004e+00 1.4919019630994494e+01 3.2437508896223686e+00 0 0 0
219 2 4.9220000000000006e+00 1.2787731112280996e+01 3.2437508896223686e+00 0 0 0
221 2 6.1524999999999990e+00 1.3498160618518829e+01 3.2437508896223686e+00 0 0 0
266 2 7.3829999999999991e+00 1.2787731112280996e+01 3.2437508896223686e+00 0 0 0
268 2 8.6135000000000002e+00 1.3498160618518835e+01 3.2437508896223686e+00 0 0 0
217 2 4.9220000000000006e+00 1.5629449137232333e+01 3.2437508896223686e+00 0 0 0
262 2 6.1524999999999990e+00 1.4919019630994494e+01 3.2437508896223686e+00 0 0 0
264 2 7.3829999999999991e+00 1.5629449137232333e+01 3.2437508896223686e+00 0 0 0
309 2 8.6135000000000002e+00 1.4919019630994494e+01 3.2437508896223686e+00 0 0 0
166 2 0.0000000000000000e+00 1.7050308149707998e+01 3.2437508896223686e+00 0 0 0
211 2 2.4610000000000003e+00 1.7050308149707998e+01 3.2437508896223686e+00 0 0 0
164 2 0.0000000000000000e+00 1.9892026174659328e+01 3.2437508896223686e+00 0 0 0
168 2 1.2305000000000001e+00 1.7760737655945832e+01 3.2437508896223686e+00 0 0 0
207 2 1.2305000000000001e+00 1.9181596668421495e+01 3.2437508896223686e+00 0 0 0
209 2 2.4610000000000003e+00 1.9892026174659328e+01 3.2437508896223686e+00 0 0 0
213 2 3.6914999999999996e+00 1.7760737655945832e+01 3.2437508896223686e+00 0 0 0
254 2 3.6914999999999996e+00 1.9181596668421495e+01 3.2437508896223686e+00 0 0 0
258 2 4.9220000000000006e+00 1.7050308149707998e+01 3.2437508896223686e+00 0 0 0
305 2 7.3830000000000009e+00 1.7050308149707998e+01 3.2437508896223686e+00 0 0 0
256 2 4.9220000000000006e+00 1.9892026174659328e+01 3.2437508896223686e+00 0 0 0
260 2 6.1524999999999999e+00 1.7760737655945832e+01 3.2437508896223686e+00 0 0 0
301 2 6.1524999999999999e+00 1.9181596668421495e+01 3.2437508896223686e+00 0 0 0
303 2 7.3829999999999991e+00 1.9892026174659328e+01 3.2437508896223686e+00 0 0 0
307 2 8.6134999999999984e+00 1.7760737655945832e+01 3.2437508896223686e+00 0 0 0
343 2 8.6135000000000002e+00 1.9181596668421495e+01 3.2437508896223686e+00 0 0 0
201 2 0.0000000000000000e+00 2.4154603212086325e+01 3.2437508896223686e+00 0 0 0
203 2 0.0000000000000000e+00 2.1312885187134999e+01 3.2437508896223686e+00 0 0 0
205 2 1.2304999999999993e+00 2.2023314693372832e+01 3.2437508896223686e+00 0 0 0
246 2 1.2304999999999993e+00 2.3444173705848499e+01 3.2437508896223686e+00 0 0 0
248 2 2.4610000000000003e+00 2.4154603212086325e+01 3.2437508896223686e+00 0 0 0
250 2 2.4610000000000003e+00 2.1312885187134995e+01 3.2437508896223686e+00 0 0 0
252 2 3.6914999999999996e+00 2.2023314693372832e+01 3.2437508896223686e+00 0 0 0
293 2 3.6915000000000004e+00 2.3444173705848499e+01 3.2437508896223686e+00 0 0 0
295 2 4.9220000000000006e+00 2.4154603212086325e+01 3.2437508896223686e+00 0 0 0
297 2 4.9220000000000006e+00 2.1312885187134995e+01 3.2437508896223686e+00 0 0 0
299 2 6.1524999999999990e+00 2.2023314693372832e+01 3.2437508896223686e+00 0 0 0
335 2 6.1524999999999999e+00 2.3444173705848499e+01 3.2437508896223686e+00 0 0 0
337 2 7.3830000000000009e+00 2.4154603212086336e+01 3.2437508896223686e+00 0 0 0
339 2 7.3829999999999991e+00 2.1312885187134999e+01 3.2437508896223686e+00 0 0 0
341 2 8.6135000000000002e+00 2.2023314693372832e+01 3.2437508896223686e+00 0 0 0
369 2 8.6134999999999984e+00 2.3444173705848499e+01 3.2437508896223686e+00 0 0 0
138 2 0.0000000000000000e+00 1.2787731112280996e+01 6.2541373093051877e+00 0 0 0
175 2 2.4610000000000003e+00 1.2787731112280996e+01 6.2541373093051877e+00 0 0 0
136 2 0.0000000000000000e+00 1.4208590124756663e+01 6.2541373093051877e+00 0 0 0
171 2 1.2305000000000001e+00 1.4919019630994494e+01 6.2541373093051877e+00 0 0 0
173 2 2.4610000000000003e+00 1.4208590124756663e+01 6.2541373093051877e+00 0 0 0
216 2 3.6915000000000004e+00 1.4919019630994494e+01 6.2541373093051877e+00 0 0 0
220 2 4.9220000000000006e+00 1.2787731112280996e+01 6.2541373093051877e+00 0 0 0
267 2 7.3829999999999991e+00 1.2787731112280996e+01 6.2541373093051877e+00 0 0 0
218 2 4.9220000000000006e+00 1.4208590124756663e+01 6.2541373093051877e+00 0 0 0
263 2 6.1524999999999990e+00 1.4919019630994494e+01 6.2541373093051877e+00 0 0 0
265 2 7.3830000000000009e+00 1.4208590124756663e+01 6.2541373093051877e+00 0 0 0
310 2 8.6135000000000002e+00 1.4919019630994494e+01 6.2541373093051877e+00 0 0 0
167 2 0.0000000000000000e+00 1.7050308149707998e+01 6.2541373093051877e+00 0 0 0
169 2 1.2305000000000001e+00 1.6339878643470165e+01 6.2541373093051877e+00 0 0 0
212 2 2.4610000000000003e+00 1.7050308149707998e+01 6.2541373093051877e+00 0 0 0
214 2 3.6915000000000004e+00 1.6339878643470165e+01 6.2541373093051877e+00 0 0 0
165 2 0.0000000000000000e+00 1.8471167162183658e+01 6.2541373093051877e+00 0 0 0
208 2 1.2305000000000001e+00 1.9181596668421495e+01 6.2541373093051877e+00 0 0 0
210 2 2.4610000000000003e+00 1.8471167162183658e+01 6.2541373093051877e+00 0 0 0
255 2 3.6914999999999996e+00 1.9181596668421495e+01 6.2541373093051877e+00 0 0 0
259 2 4.9220000000000006e+00 1.7050308149707998e+01 6.2541373093051877e+00 0 0 0
261 2 6.1524999999999999e+00 1.6339878643470165e+01 6.2541373093051877e+00 0 0 0
306 2 7.3830000000000009e+00 1.7050308149707998e+01 6.2541373093051877e+00 0 0 0
308 2 8.6134999999999984e+00 1.6339878643470165e+01 6.2541373093051877e+00 0 0 0
257 2 4.9220000000000006e+00 1.8471167162183658e+01 6.2541373093051877e+00 0 0 0
302 2 6.1524999999999999e+00 1.9181596668421495e+01 6.2541373093051877e+00 0 0 0
304 2 7.3829999999999991e+00 1.8471167162183658e+01 6.2541373093051877e+00 0 0 0
344 2 8.6135000000000002e+00 1.9181596668421495e+01 6.2541373093051877e+00 0 0 0
206 2 1.2305000000000001e+00 2.0602455680897162e+01 6.2541373093051877e+00 0 0 0
253 2 3.6915000000000004e+00 2.0602455680897162e+01 6.2541373093051877e+00 0 0 0
202 2 0.0000000000000000e+00 2.2733744199610655e+01 6.2541373093051877e+00 0 0 0
204 2 0.0000000000000000e+00 2.1312885187134999e+01 6.2541373093051877e+00 0 0 0
247 2 1.2304999999999993e+00 2.3444173705848499e+01 6.2541373093051877e+00 0 0 0
249 2 2.4610000000000003e+00 2.2733744199610655e+01 6.2541373093051877e+00 0 0 0
251 2 2.4610000000000003e+00 2.1312885187134995e+01 6.2541373093051877e+00 0 0 0
294 2 3.6915000000000004e+00 2.3444173705848499e+01 6.2541373093051877e+00 0 0 0
300 2 6.1524999999999999e+00 2.0602455680897162e+01 6.2541373093051877e+00 0 0 0
342 2 8.6134999999999984e+00 2.0602455680897162e+01 6.2541373093051877e+00 0 0 0
296 2 4.9220000000000006e+00 2.2733744199610655e+01 6.2541373093051877e+00 0 0 0
298 2 4.9220000000000006e+00 2.1312885187134995e+01 6.2541373093051877e+00 0 0 0
336 2 6.1524999999999999e+00 2.3444173705848499e+01 6.2541373093051877e+00 0 0 0
338 2 7.3829999999999991e+00 2.2733744199610655e+01 6.2541373093051877e+00 0 0 0
340 2 7.3829999999999991e+00 2.1312885187134999e+01 6.2541373093051877e+00 0 0 0
370 2 8.6134999999999984e+00 2.3444173705848499e+01 6.2541373093051877e+00 0 0 0
447 2 0.0000000000000000e+00 1.2787731112280996e+01 9.2645237289879745e+00 0 0 0
448 2 1.2305000000000001e+00 1.3498160618518829e+01 9.2645237289879745e+00 0 0 0
466 2 2.4610000000000003e+00 1.2787731112280996e+01 9.2645237289879745e+00 0 0 0
467 2 3.6915000000000004e+00 1.3498160618518829e+01 9.2645237289879745e+00 0 0 0
446 2 0.0000000000000000e+00 1.5629449137232333e+01 9.2645237289879745e+00 0 0 0
464 2 1.2305000000000001e+00 1.4919019630994494e+01 9.2645237289879745e+00 0 0 0
465 2 2.4610000000000003e+00 1.5629449137232328e+01 9.2645237289879745e+00 0 0 0
487 2 3.6915000000000004e+00 1.4919019630994494e+01 9.2645237289879745e+00 0 0 0
529 2 4.9220000000000006e+00 2.1312885187134995e+01 9.2645237289879745e+00 0 0 0
489 2 4.9220000000000006e+00 1.2787731112280996e+01 9.2645237289879745e+00 0 0 0
490 2 6.1524999999999990e+00 1.3498160618518829e+01 9.2645237289879745e+00 0 0 0
513 2 7.3829999999999991e+00 1.2787731112280996e+01 9.2645237289879745e+00 0 0 0
514 2 8.6135000000000002e+00 1.3498160618518835e+01 9.2645237289879745e+00 0 0 0
488 2 4.9220000000000006e+00 1.5629449137232333e+01 9.2645237289879745e+00 0 0 0
511 2 6.1524999999999990e+00 1.4919019630994494e+01 9.2645237289879745e+00 0 0 0
512 2 7.3829999999999991e+00 1.5629449137232333e+01 9.2645237289879745e+00 0 0 0
535 2 8.6135000000000002e+00 1.4919019630994494e+01 9.2645237289879745e+00 0 0 0
551 2 8.6135000000000002e+00 2.2023314693372832e+01 9.2645237289879745e+00 0 0 0
462 2 0.0000000000000000e+00 1.7050308149707998e+01 9.2645237289879745e+00 0 0 0
485 2 2.4610000000000003e+00 1.7050308149707998e+01 9.2645237289879745e+00 0 0 0
461 2 0.0000000000000000e+00 1.9892026174659328e+01 9.2645237289879745e+00 0 0 0
463 2 1.2305000000000001e+00 1.7760737655945832e+01 9.2645237289879745e+00 0 0 0
483 2 1.2305000000000001e+00 1.9181596668421495e+01 9.2645237289879745e+00 0 0 0
484 2 2.4610000000000003e+00 1.9892026174659328e+01 9.2645237289879745e+00 0 0 0
486 2 3.6914999999999996e+00 1.7760737655945832e+01 9.2645237289879745e+00 0 0 0
507 2 3.6914999999999996e+00 1.9181596668421495e+01 9.2645237289879745e+00 0 0 0
548 2 6.1524999999999999e+00 2.3444173705848499e+01 9.2645237289879745e+00 0 0 0
509 2 4.9220000000000006e+00 1.7050308149707998e+01 9.2645237289879745e+00 0 0 0
533 2 7.3830000000000009e+00 1.7050308149707998e+01 9.2645237289879745e+00 0 0 0
508 2 4.9220000000000006e+00 1.9892026174659328e+01 9.2645237289879745e+00 0 0 0
510 2 6.1524999999999999e+00 1.7760737655945832e+01 9.2645237289879745e+00 0 0 0
531 2 6.1524999999999999e+00 1.9181596668421495e+01 9.2645237289879745e+00 0 0 0
532 2 7.3829999999999991e+00 1.9892026174659328e+01 9.2645237289879745e+00 0 0 0
534 2 8.6134999999999984e+00 1.7760737655945832e+01 9.2645237289879745e+00 0 0 0
552 2 8.6135000000000002e+00 1.9181596668421495e+01 9.2645237289879745e+00 0 0 0
480 2 0.0000000000000000e+00 2.4154603212086325e+01 9.2645237289879745e+00 0 0 0
481 2 0.0000000000000000e+00 2.1312885187134999e+01 9.2645237289879745e+00 0 0 0
482 2 1.2304999999999993e+00 2.2023314693372832e+01 9.2645237289879745e+00 0 0 0
503 2 1.2304999999999993e+00 2.3444173705848499e+01 9.2645237289879745e+00 0 0 0
504 2 2.4610000000000003e+00 2.4154603212086325e+01 9.2645237289879745e+00 0 0 0
505 2 2.4610000000000003e+00 2.1312885187134995e+01 9.2645237289879745e+00 0 0 0
506 2 3.6914999999999996e+00 2.2023314693372832e+01 9.2645237289879745e+00 0 0 0