LAMMPS data file via write_data, version 16 Mar 2018, timestep = 8000000

4560 atoms
2 atom types

0.0000000000000000e+00 4.9219999999999999e+01 xlo xhi
0.0000000000000000e+00 4.9019635930410494e+01 ylo yhi
5.0728368101458088e-01 3.3432716318995375e+01 zlo zhi

Masses

1 18.015
2 12.01

Atoms # atomic

147 2 0.0000000000000000e+00 2.8417180249513345e+00 2.6898945953942128e+00 0 0 0
149 2 0.0000000000000000e+00 0.0000000000000000e+00 2.6898945953942128e+00 0 0 0
151 2 1.2305000000000001e+00 7.1042950623783474e-01 2.6898945953942128e+00 0 0 0
158 2 1.2305000000000001e+00 2.1312885187134998e+00 2.6898945953942128e+00 0 0 0
160 2 2.4610000000000003e+00 2.8417180249513345e+00 2.6898945953942128e+00 0 0 0
162 2 2.4610000000000003e+00 0.0000000000000000e+00 2.6898945953942128e+00 0 0 0
164 2 3.6915000000000004e+00 7.1042950623783474e-01 2.6898945953942128e+00 0 0 0
179 2 3.6914999999999996e+00 2.1312885187134998e+00 2.6898945953942128e+00 0 0 0
181 2 4.9220000000000006e+00 2.8417180249513332e+00 2.6898945953942128e+00 0 0 0
183 2 4.9220000000000006e+00 0.0000000000000000e+00 2.6898945953942128e+00 0 0 0
185 2 6.1524999999999999e+00 7.1042950623783407e-01 2.6898945953942128e+00 0 0 0
208 2 6.1524999999999999e+00 2.1312885187134989e+00 2.6898945953942128e+00 0 0 0
210 2 7.3829999999999991e+00 2.8417180249513345e+00 2.6898945953942128e+00 0 0 0
212 2 7.3829999999999991e+00 0.0000000000000000e+00 2.6898945953942128e+00 0 0 0
214 2 8.6134999999999984e+00 7.1042950623783407e-01 2.6898945953942128e+00 0 0 0
245 2 8.6134999999999984e+00 2.1312885187135002e+00 2.6898945953942128e+00 0 0 0
247 2 9.8440000000000012e+00 2.8417180249513332e+00 2.6898945953942128e+00 0 0 0
249 2 9.8440000000000012e+00 0.0000000000000000e+00 2.6898945953942128e+00 0 0 0
251 2 1.1074500000000002e+01 7.1042950623783330e-01 2.6898945953942128e+00 0 0 0
290 2 1.1074500000000002e+01 2.1312885187135002e+00 2.6898945953942128e+00 0 0 0
154 2 0.0000000000000000e+00 4.2625770374269996e+00 2.6898945953942128e+00 0 0 0
156 2 1.2305000000000001e+00 4.9730065436648339e+00 2.6898945953942128e+00 0 0 0
171 2 1.2305000000000001e+00 6.3938655561404980e+00 2.6898945953942128e+00 0 0 0
175 2 2.4610000000000003e+00 4.2625770374269996e+00 2.6898945953942128e+00 0 0 0
177 2 3.6914999999999996e+00 4.9730065436648339e+00 2.6898945953942128e+00 0 0 0
200 2 3.6914999999999996e+00 6.3938655561404980e+00 2.6898945953942128e+00 0 0 0
152 2 0.0000000000000000e+00 7.1042950623783341e+00 2.6898945953942128e+00 0 0 0
173 2 2.4610000000000003e+00 7.1042950623783341e+00 2.6898945953942128e+00 0 0 0
204 2 4.9220000000000006e+00 4.2625770374269978e+00 2.6898945953942128e+00 0 0 0
206 2 6.1524999999999999e+00 4.9730065436648339e+00 2.6898945953942128e+00 0 0 0
237 2 6.1524999999999999e+00 6.3938655561404980e+00 2.6898945953942128e+00 0 0 0
241 2 7.3829999999999991e+00 4.2625770374269996e+00 2.6898945953942128e+00 0 0 0
202 2 4.9220000000000006e+00 7.1042950623783341e+00 2.6898945953942128e+00 0 0 0
239 2 7.3830000000000009e+00 7.1042950623783341e+00 2.6898945953942128e+00 0 0 0
243 2 8.6135000000000002e+00 4.9730065436648339e+00 2.6898945953942128e+00 0 0 0
282 2 8.6135000000000002e+00 6.3938655561404980e+00 2.6898945953942128e+00 0 0 0
286 2 9.8440000000000012e+00 4.2625770374270004e+00 2.6898945953942128e+00 0 0 0
288 2 1.1074500000000002e+01 4.9730065436648339e+00 2.6898945953942128e+00 0 0 0
329 2 1.1074500000000002e+01 6.3938655561404980e+00 2.6898945953942128e+00 0 0 0
284 2 9.8440000000000012e+00 7.1042950623783341e+00 2.6898945953942128e+00 0 0 0
167 2 0.0000000000000000e+00 8.5251540748539991e+00 2.6898945953942128e+00 0 0 0
169 2 1.2305000000000001e+00 9.2355835810918343e+00 2.6898945953942128e+00 0 0 0
196 2 2.4610000000000003e+00 8.5251540748539991e+00 2.6898945953942128e+00 0 0 0
198 2 3.6915000000000004e+00 9.2355835810918343e+00 2.6898945953942128e+00 0 0 0
165 2 0.0000000000000000e+00 1.1366872099805333e+01 2.6898945953942128e+00 0 0 0
192 2 1.2305000000000001e+00 1.0656442593567498e+01 2.6898945953942128e+00 0 0 0
194 2 2.4610000000000003e+00 1.1366872099805333e+01 2.6898945953942128e+00 0 0 0
229 2 3.6914999999999996e+00 1.0656442593567499e+01 2.6898945953942128e+00 0 0 0
233 2 4.9220000000000006e+00 8.5251540748539991e+00 2.6898945953942128e+00 0 0 0
235 2 6.1524999999999999e+00 9.2355835810918343e+00 2.6898945953942128e+00 0 0 0
278 2 7.3830000000000009e+00 8.5251540748539991e+00 2.6898945953942128e+00 0 0 0
231 2 4.9220000000000006e+00 1.1366872099805333e+01 2.6898945953942128e+00 0 0 0
274 2 6.1524999999999999e+00 1.0656442593567499e+01 2.6898945953942128e+00 0 0 0
276 2 7.3829999999999991e+00 1.1366872099805333e+01 2.6898945953942128e+00 0 0 0
280 2 8.6134999999999984e+00 9.2355835810918343e+00 2.6898945953942128e+00 0 0 0
325 2 9.8440000000000012e+00 8.5251540748539956e+00 2.6898945953942128e+00 0 0 0
327 2 1.1074500000000002e+01 9.2355835810918343e+00 2.6898945953942128e+00 0 0 0
321 2 8.6134999999999984e+00 1.0656442593567498e+01 2.6898945953942128e+00 0 0 0
323 2 9.8440000000000012e+00 1.1366872099805333e+01 2.6898945953942128e+00 0 0 0
368 2 1.1074500000000002e+01 1.0656442593567498e+01 2.6898945953942128e+00 0 0 0
370 2 1.2304999999999998e+01 1.1366872099805333e+01 2.6898945953942128e+00 0 0 0
148 2 0.0000000000000000e+00 1.4208590124756650e+00 5.8217505770221250e+00 0 0 0
150 2 0.0000000000000000e+00 0.0000000000000000e+00 5.8217505770221250e+00 0 0 0
159 2 1.2305000000000001e+00 2.1312885187134998e+00 5.8217505770221250e+00 0 0 0
161 2 2.4610000000000003e+00 1.4208590124756650e+00 5.8217505770221250e+00 0 0 0
163 2 2.4610000000000003e+00 0.0000000000000000e+00 5.8217505770221250e+00 0 0 0
180 2 3.6914999999999996e+00 2.1312885187134998e+00 5.8217505770221250e+00 0 0 0
157 2 1.2305000000000001e+00 3.5521475311891644e+00 5.8217505770221250e+00 0 0 0
178 2 3.6914999999999996e+00 3.5521475311891644e+00 5.8217505770221250e+00 0 0 0
182 2 4.9220000000000006e+00 1.4208590124756650e+00 5.8217505770221250e+00 0 0 0
184 2 4.9220000000000006e+00 0.0000000000000000e+00 5.8217505770221250e+00 0 0 0
209 2 6.1524999999999999e+00 2.1312885187134989e+00 5.8217505770221250e+00 0 0 0
211 2 7.3829999999999991e+00 1.4208590124756659e+00 5.8217505770221250e+00 0 0 0
213 2 7.3829999999999991e+00 0.0000000000000000e+00 5.8217505770221250e+00 0 0 0
207 2 6.1524999999999999e+00 3.5521475311891644e+00 5.8217505770221250e+00 0 0 0
246 2 8.6134999999999984e+00 2.1312885187135002e+00 5.8217505770221250e+00 0 0 0
248 2 9.8440000000000012e+00 1.4208590124756659e+00 5.8217505770221250e+00 0 0 0
250 2 9.8440000000000012e+00 0.0000000000000000e+00 5.8217505770221250e+00 0 0 0
291 2 1.1074500000000002e+01 2.1312885187135002e+00 5.8217505770221250e+00 0 0 0
244 2 8.6134999999999984e+00 3.5521475311891657e+00 5.8217505770221250e+00 0 0 0
289 2 1.1074500000000002e+01 3.5521475311891644e+00 5.8217505770221250e+00 0 0 0
153 2 0.0000000000000000e+00 5.6834360499026637e+00 5.8217505770221250e+00 0 0 0
155 2 0.0000000000000000e+00 4.2625770374269996e+00 5.8217505770221250e+00 0 0 0
172 2 1.2305000000000001e+00 6.3938655561404980e+00 5.8217505770221250e+00 0 0 0
174 2 2.4610000000000003e+00 5.6834360499026637e+00 5.8217505770221250e+00 0 0 0
176 2 2.4610000000000003e+00 4.2625770374269996e+00 5.8217505770221250e+00 0 0 0
201 2 3.6914999999999996e+00 6.3938655561404980e+00 5.8217505770221250e+00 0 0 0
170 2 1.2305000000000001e+00 7.8147245686161639e+00 5.8217505770221250e+00 0 0 0
199 2 3.6914999999999996e+00 7.8147245686161639e+00 5.8217505770221250e+00 0 0 0
203 2 4.9220000000000006e+00 5.6834360499026637e+00 5.8217505770221250e+00 0 0 0
205 2 4.9220000000000006e+00 4.2625770374269978e+00 5.8217505770221250e+00 0 0 0
238 2 6.1524999999999999e+00 6.3938655561404980e+00 5.8217505770221250e+00 0 0 0
240 2 7.3829999999999991e+00 5.6834360499026637e+00 5.8217505770221250e+00 0 0 0
242 2 7.3829999999999991e+00 4.2625770374269996e+00 5.8217505770221250e+00 0 0 0
236 2 6.1524999999999999e+00 7.8147245686161639e+00 5.8217505770221250e+00 0 0 0
283 2 8.6135000000000002e+00 6.3938655561404980e+00 5.8217505770221250e+00 0 0 0
285 2 9.8440000000000012e+00 5.6834360499026637e+00 5.8217505770221250e+00 0 0 0
287 2 9.8440000000000012e+00 4.2625770374270004e+00 5.8217505770221250e+00 0 0 0
330 2 1.1074500000000002e+01 6.3938655561404980e+00 5.8217505770221250e+00 0 0 0
281 2 8.6135000000000002e+00 7.8147245686161639e+00 5.8217505770221250e+00 0 0 0
328 2 1.1074500000000002e+01 7.8147245686161639e+00 5.8217505770221250e+00 0 0 0
166 2 0.0000000000000000e+00 9.9460130873296642e+00 5.8217505770221250e+00 0 0 0
168 2 0.0000000000000000e+00 8.5251540748539991e+00 5.8217505770221250e+00 0 0 0
195 2 2.4610000000000003e+00 9.9460130873296642e+00 5.8217505770221250e+00 0 0 0
197 2 2.4610000000000003e+00 8.5251540748539991e+00 5.8217505770221250e+00 0 0 0
191 2 1.2305000000000001e+00 1.2077301606043163e+01 5.8217505770221250e+00 0 0 0
193 2 1.2305000000000001e+00 1.0656442593567498e+01 5.8217505770221250e+00 0 0 0
228 2 3.6914999999999996e+00 1.2077301606043163e+01 5.8217505770221250e+00 0 0 0
230 2 3.6914999999999996e+00 1.0656442593567499e+01 5.8217505770221250e+00 0 0 0
232 2 4.9220000000000006e+00 9.9460130873296642e+00 5.8217505770221250e+00 0 0 0
234 2 4.9220000000000006e+00 8.5251540748539991e+00 5.8217505770221250e+00 0 0 0
277 2 7.3830000000000009e+00 9.9460130873296642e+00 5.8217505770221250e+00 0 0 0
279 2 7.3830000000000009e+00 8.5251540748539991e+00 5.8217505770221250e+00 0 0 0
273 2 6.1524999999999999e+00 1.2077301606043163e+01 5.8217505770221250e+00 0 0 0
275 2 6.1524999999999999e+00 1.0656442593567499e+01 5.8217505770221250e+00 0 0 0
320 2 8.6135000000000002e+00 1.2077301606043163e+01 5.8217505770221250e+00 0 0 0
369 2 1.1074500000000002e+01 1.0656442593567498e+01 5.8217505770221250e+00 0 0 0
324 2 9.8440000000000012e+00 9.9460130873296642e+00 5.8217505770221250e+00 0 0 0
326 2 9.8440000000000012e+00 8.5251540748539956e+00 5.8217505770221250e+00 0 0 0
322 2 8.6134999999999984e+00 1.0656442593567498e+01 5.8217505770221250e+00 0 0 0
367 2 1.1074500000000002e+01 1.2077301606043163e+01 5.8217505770221250e+00 0 0 0
887 1 1.8234139529121070e+00 9.9712056618206617e+00 6.5065242782213517e-01 -1 -1 1
476 2 0.0000000000000000e+00 2.8417180249513345e+00 8.9536065586549949e+00 0 0 0
477 2 0.0000000000000000e+00 0.0000000000000000e+00 8.9536065586549949e+00 0 0 0
478 2 1.2305000000000001e+00 7.1042950623783474e-01 8.9536065586549949e+00 0 0 0
482 2 1.2305000000000001e+00 2.1312885187134998e+00 8.9536065586549949e+00 0 0 0
483 2 2.4610000000000003e+00 2.8417180249513345e+00 8.9536065586549949e+00 0 0 0
484 2 2.4610000000000003e+00 0.0000000000000000e+00 8.9536065586549949e+00 0 0 0
485 2 3.6915000000000004e+00 7.1042950623783474e-01 8.9536065586549949e+00 0 0 0
493 2 3.6914999999999996e+00 2.1312885187134998e+00 8.9536065586549949e+00 0 0 0
3231 1 1.5240521132922706e+00 2.6767697528054373e+00 1.1236537247049634e+01 -2 0 0
2227 1 4.0395739483313280e+00 3.1941578254398388e+00 1.2288317462270886e+01 -2 5 0
3547 1 9.1526077128277965e+00 8.4946783813188613e+00 1.4669021315056190e+01 -2 0 0
494 2 4.9220000000000006e+00 2.8417180249513332e+00 8.9536065586549949e+00 0 0 0
495 2 4.9220000000000006e+00 0.0000000000000000e+00 8.9536065586549949e+00 0 0 0
496 2 6.1524999999999999e+00 7.1042950623783407e-01 8.9536065586549949e+00 0 0 0
508 2 6.1524999999999999e+00 2.1312885187134989e+00 8.9536065586549949e+00 0 0 0
509 2 7.3829999999999991e+00 2.8417180249513345e+00 8.9536065586549949e+00 0 0 0
510 2 7.3829999999999991e+00 0.0000000000000000e+00 8.9536065586549949e+00 0 0 0
73 1 5.5320798523027079e+00 8.8900364018513656e-01 1.1313036336480238e+01 1 -1 0
4423 1 8.1775258263642971e+00 1.4891138545403002e+00 1.1682078367833196e+01 3 0 0
511 2 8.6134999999999984e+00 7.1042950623783407e-01 8.9536065586549949e+00 0 0 0
527 2 8.6134999999999984e+00 2.1312885187135002e+00 8.9536065586549949e+00 0 0 0
528 2 9.8440000000000012e+00 2.8417180249513332e+00 8.9536065586549949e+00 0 0 0
529 2 9.8440000000000012e+00 0.0000000000000000e+00 8.9536065586549949e+00 0 0 0
530 2 1.1074500000000002e+01 7.1042950623783330e-01 8.9536065586549949e+00 0 0 0
550 2 1.1074500000000002e+01 2.1312885187135002e+00 8.9536065586549949e+00 0 0 0
860 1 9.4428292880012705e+00 4.1539944360580998e+00 1.1440693851985495e+01 4 -1 0
3301 1 4.9024234532230198e+00 1.0107074244070912e+01 1.5697617906656445e+01 1 2 0
480 2 0.0000000000000000e+00 4.2625770374269996e+00 8.9536065586549949e+00 0 0 0
481 2 1.2305000000000001e+00 4.9730065436648339e+00 8.9536065586549949e+00 0 0 0
489 2 1.2305000000000001e+00 6.3938655561404980e+00 8.9536065586549949e+00 0 0 0
491 2 2.4610000000000003e+00 4.2625770374269996e+00 8.9536065586549949e+00 0 0 0
492 2 3.6914999999999996e+00 4.9730065436648339e+00 8.9536065586549949e+00 0 0 0
504 2 3.6914999999999996e+00 6.3938655561404980e+00 8.9536065586549949e+00 0 0 0
479 2 0.0000000000000000e+00 7.1042950623783341e+00 8.9536065586549949e+00 0 0 0
490 2 2.4610000000000003e+00 7.1042950623783341e+00 8.9536065586549949e+00 0 0 0
3154 1 7.6246307333682928e-01 7.4846317061715455e+00 1.1325235825684675e+01 0 2 0
4305 1 3.3157671150886525e+00 7.8210133520936962e+00 1.2199368277750828e+01 0 2 0
119 1 5.0981388751779990e+00 5.7884303619678468e+00 1.1676475638747418e+01 -1 -3 0
506 2 4.9220000000000006e+00 4.2625770374269978e+00 8.9536065586549949e+00 0 0 0
507 2 6.1524999999999999e+00 4.9730065436648339e+00 8.9536065586549949e+00 0 0 0
523 2 6.1524999999999999e+00 6.3938655561404980e+00 8.9536065586549949e+00 0 0 0
525 2 7.3829999999999991e+00 4.2625770374269996e+00 8.9536065586549949e+00 0 0 0
505 2 4.9220000000000006e+00 7.1042950623783341e+00 8.9536065586549949e+00 0 0 0
524 2 7.3830000000000009e+00 7.1042950623783341e+00 8.9536065586549949e+00 0 0 0
1103 1 7.8186786292713473e+00 6.2893143929631634e+00 1.1865623774698060e+01 1 2 0
526 2 8.6135000000000002e+00 4.9730065436648339e+00 8.9536065586549949e+00 0 0 0
546 2 8.6135000000000002e+00 6.3938655561404980e+00 8.9536065586549949e+00 0 0 0
548 2 9.8440000000000012e+00 4.2625770374270004e+00 8.9536065586549949e+00 0 0 0
549 2 1.1074500000000002e+01 4.9730065436648339e+00 8.9536065586549949e+00 0 0 0
570 2 1.1074500000000002e+01 6.3938655561404980e+00 8.9536065586549949e+00 0 0 0
547 2 9.8440000000000012e+00 7.1042950623783341e+00 8.9536065586549949e+00 0 0 0
487 2 0.0000000000000000e+00 8.5251540748539991e+00 8.9536065586549949e+00 0 0 0
488 2 1.2305000000000001e+00 9.2355835810918343e+00 8.9536065586549949e+00 0 0 0
502 2 2.4610000000000003e+00 8.5251540748539991e+00 8.9536065586549949e+00 0 0 0
503 2 3.6915000000000004e+00 9.2355835810918343e+00 8.9536065586549949e+00 0 0 0
486 2 0.0000000000000000e+00 1.1366872099805333e+01 8.9536065586549949e+00 0 0 0
500 2 1.2305000000000001e+00 1.0656442593567498e+01 8.9536065586549949e+00 0 0 0
501 2 2.4610000000000003e+00 1.1366872099805333e+01 8.9536065586549949e+00 0 0 0
519 2 3.6914999999999996e+00 1.0656442593567499e+01 8.9536065586549949e+00 0 0 0
4389 1 7.4039447425427358e+00 1.0648971264301100e+01 1.4767250467176487e+01 -2 3 0
4475 1 4.1471973499978096e+00 1.0283072296556670e+01 1.1721150004475954e+01 1 -1 0
2115 1 6.9875602635937879e+00 1.0847212629731128e+01 1.1897442896543785e+01 1 5 0
521 2 4.9220000000000006e+00 8.5251540748539991e+00 8.9536065586549949e+00 0 0 0
522 2 6.1524999999999999e+00 9.2355835810918343e+00 8.9536065586549949e+00 0 0 0
544 2 7.3830000000000009e+00 8.5251540748539991e+00 8.9536065586549949e+00 0 0 0
520 2 4.9220000000000006e+00 1.1366872099805333e+01 8.9536065586549949e+00 0 0 0
542 2 6.1524999999999999e+00 1.0656442593567499e+01 8.9536065586549949e+00 0 0 0
543 2 7.3829999999999991e+00 1.1366872099805333e+01 8.9536065586549949e+00 0 0 0
1195 1 9.0930008066696804e+00 8.7551709298074076e+00 1.1615351812175497e+01 -2 0 0
545 2 8.6134999999999984e+00 9.2355835810918343e+00 8.9536065586549949e+00 0 0 0
568 2 9.8440000000000012e+00 8.5251540748539956e+00 8.9536065586549949e+00 0 0 0
569 2 1.1074500000000002e+01 9.2355835810918343e+00 8.9536065586549949e+00 0 0 0
566 2 8.6134999999999984e+00 1.0656442593567498e+01 8.9536065586549949e+00 0 0 0
567 2 9.8440000000000012e+00 1.1366872099805333e+01 8.9536065586549949e+00 0 0 0
590 2 1.1074500000000002e+01 1.0656442593567498e+01 8.9536065586549949e+00 0 0 0
591 2 1.2304999999999998e+01 1.1366872099805333e+01 8.9536065586549949e+00 0 0 0
1079 1 1.1677933169611405e+01 8.8950421725246080e+00 1.2006574428447058e+01 6 -1 -1
2114 1 9.3399291571982668e-01 2.5776827919539564e+00 1.5638062739430982e+01 2 5 -1
3312 1 3.9555329918671336e+00 3.0366977621851592e+00 1.5091592019354280e+01 1 1 -1
4558 1 5.7686719189592539e+00 1.0014753366408478e+00 1.5832599888472066e+01 1 0 -1
4462 1 8.2063031350631430e+00 1.2668155747688361e+00 1.4614933309713212e+01 4 1 -1
1293 1 9.7356690754758013e+00 3.7088364945254173e+00 1.5414000624185361e+01 -2 -1 0
4463 1 5.1090238822508960e+00 5.7208477192971126e+00 1.5720238102199467e+01 -1 -1 0
3474 1 3.7360848064736663e-01 7.0855932625962943e+00 1.5147527225117617e+01 1 3 0
4480 1 3.3656584800091807e+00 7.8485227473161761e+00 1.4969335271162182e+01 1 2 0
2422 1 7.8006880231791706e+00 5.9199224319051948e+00 1.4893342122687296e+01 -1 1 1
1004 1 1.2177029050691344e+01 4.4781371292246774e+00 1.1930390644300083e+01 0 -4 0
2086 1 1.1977556168150880e+01 8.8479158867056817e+00 1.4779679655507239e+01 0 1 0
3548 1 5.2105298276395551e-01 2.7036434535290144e-01 1.1862764349520843e+01 0 0 0
4424 1 7.5196198767296940e-02 8.4807415748308287e-02 1.4716329277762075e+01 0 2 0
3521 1 1.9876187423466385e+00 2.7061430372053659e+00 2.0451957824587410e+01 0 1 0
2073 1 1.0966400665159698e+01 1.1159259059818819e+01 2.2490100727340923e+01 0 0 0
3456 1 5.8967403181896678e+00 1.3170749718654409e+00 1.8409201890459624e+01 1 1 0
4432 1 4.6395130413478745e+00 3.2305427323814895e+00 1.9615868503139392e+01 1 1 0
2284 1 8.5763468809991412e+00 1.1926756366928086e+00 1.9189045594486089e+01 -1 -1 0
2249 1 9.8505578384371830e+00 4.0080461807498118e+00 1.8163986635162303e+01 2 0 0
57 1 1.5128736208885056e+00 7.4220874109129751e+00 2.0255516207461525e+01 -1 -1 0
3213 1 4.2976569100604713e+00 8.3070087807196664e+00 1.9674603631906582e+01 0 -1 -1
4391 1 5.4067097370382786e+00 5.8076418787470869e+00 1.8544074999877573e+01 2 2 0
3405 1 8.1263856073406409e+00 6.1855272641797017e+00 1.8836291808271351e+01 6 0 -1
53 1 5.6203563210697363e+00 1.0404365926363720e+01 1.8512271180709710e+01 -1 0 0
4398 1 8.2574129810573851e+00 1.0483518035710125e+01 1.8964333069175318e+01 0 0 -1
3433 1 9.6681611621691914e+00 8.2336573166967018e+00 1.7832291550266639e+01 -2 1 -1
3220 1 8.4178989658318866e+00 1.0439345742647605e+01 2.1589891881220634e+01 0 0 0
3159 1 1.2993818355896436e+00 1.2111038937499073e+01 2.0301534348745648e+01 0 2 0
4483 1 1.5531374664113118e+00 3.6545380404160038e-01 2.1816983593825089e+01 4 -1 -1
2143 1 4.4610654722968262e+00 8.1233721041498475e-01 2.4071779012127962e+01 -2 -1 0
3305 1 4.9211457544580606e+00 3.2835071420056194e+00 2.2575612131810065e+01 2 0 0
4531 1 7.5522153359195094e+00 3.8170227144911095e+00 2.2636494190909474e+01 2 -2 0
2152 1 1.1368391294497258e+01 1.4414901956233934e+00 2.2540626734519499e+01 -3 2 0
3540 1 8.8262652868064162e+00 1.5329051302850583e+00 2.1655731815673448e+01 1 1 0
1173 1 1.6328692236816051e+00 4.9451281356999166e+00 2.5010040752787241e+01 0 0 0
95 1 1.1601668769945628e+00 5.0346081411669426e+00 2.2086737976768017e+01 2 1 0
979 1 4.2596362051424652e+00 5.6058624110908450e+00 2.4047184649928141e+01 -2 1 0
3 1 4.5144635810904328e+00 8.2460781256492997e+00 2.2643399459122840e+01 1 -1 0
1101 1 7.2472143780564133e+00 8.5019749446705664e+00 2.2870388391382008e+01 1 0 -1
3242 1 8.3632457468831873e+00 6.3507264902133080e+00 2.1575249035480340e+01 0 5 0
893 1 1.0910457357779674e+01 6.3207139528548675e+00 2.2424725818631583e+01 1 -1 0
1069 1 1.4528398753887179e+00 9.6680439691333291e+00 2.4511169976322471e+01 3 -3 0
1974 1 4.0825784524473168e+00 1.0553943236991076e+01 2.3965332117019820e+01 -3 -2 0
24 1 1.1099674669548718e+00 9.6452970874744199e+00 2.1756271786451286e+01 -5 -3 0
1014 1 1.4006770705172708e-01 2.6289089931636385e+00 1.8270251812924943e+01 -1 5 0
2 1 1.1100237158622953e+01 1.1075568650841545e+01 2.5175081559032041e+01 1 3 0
4321 1 1.2159561924101546e+01 4.0128562724561965e+00 2.1709147115363283e+01 3 4 -1
141 1 1.8172723199925331e+00 7.1384736216005107e-01 2.4527672454885515e+01 -3 0 0
4437 1 7.4629936012299905e-02 2.7101753719279271e+00 2.5672565078916026e+01 -2 0 0
2307 1 9.7384295436298132e+00 3.7616962847873894e+00 3.3254089151510669e+01 1 -1 0
98 1 6.9279623661859429e+00 1.2485279219266081e+00 2.5864766066368851e+01 1 1 0
1048 1 6.4928121272989818e+00 5.9060454222502545e-01 2.8594904260438920e+01 3 4 0
2041 1 7.2992335843966735e-02 1.8738273283754254e+00 2.8354806223617878e+01 2 0 0
1155 1 1.0200087896395281e+01 3.9465281271667090e+00 2.6152820479791099e+01 -3 1 -1
3421 1 9.3589338740780530e+00 8.2633545379233553e+00 3.3333251362032811e+01 0 0 0
3283 1 1.0681939337660188e+01 1.0425115545490780e+01 3.2558865770291277e+01 4 1 0
999 1 5.9216851079985338e+00 5.9424824620341337e+00 2.6306671632590898e+01 -1 -1 0
1285 1 6.1147205904647057e+00 5.8136800210011987e+00 2.9202347539311624e+01 0 1 0
3158 1 4.6315090714284537e+00 1.0042514776219070e+01 3.2990335267810082e+01 0 0 0
1206 1 5.1872128884332436e-01 1.2161296770091479e+01 3.2312843029256754e+01 0 -2 0
2345 1 6.0567375410361137e+00 1.0855122726014169e+01 2.6007945193993930e+01 1 4 0
1248 1 5.9761291044273390e+00 1.0435745565874999e+01 2.8707385344511945e+01 0 1 0
1969 1 1.1401529422628318e+01 1.6618520398532883e+00 2.5224688692687582e+01 1 1 0
927 1 9.9929782327972259e+00 8.2931317690917190e+00 2.8935372069824929e+01 5 -1 0
1980 1 9.9491490400267182e+00 8.6392044168114044e+00 2.6210897510579098e+01 2 0 0
3186 1 1.2933443127723272e+00 2.8673730250980540e+00 3.2925069217108287e+01 0 -4 -1
4443 1 2.0180669059182366e+00 2.8464379189260600e+00 3.0246180157100898e+01 1 2 0
3167 1 7.2483340841497714e+00 8.3669422758644334e+00 2.9922000965613115e+01 2 0 -1
2021 1 7.2197053745624116e+00 3.1808227013704906e+00 3.2639568839203676e+01 1 2 0
4285 1 4.0413275261608357e+00 8.6589877527235004e-01 3.0332108084708551e+01 -3 2 0
1977 1 7.4223290895542497e+00 3.4666782691706484e+00 2.9838682464066128e+01 0 -1 0
3268 1 5.8379658530494130e+00 7.7778568945502868e-01 3.2911197623785284e+01 1 -2 0
1053 1 1.0025901301150851e+01 4.0466704429668745e+00 2.8852177843289311e+01 -2 1 0
4426 1 1.1545738924942070e+01 1.7676079550415595e+00 2.9768127636685090e+01 2 -1 -1
118 1 1.1231134809402267e+01 1.6734032664005298e+00 3.2375381896498013e+01 2 0 0
4473 1 7.6181005651785707e+00 3.8846523540525988e+00 2.5312672494429826e+01 -1 2 -1
2020 1 3.0780296128676197e+00 6.1891057385535664e-01 3.3261865299413401e+01 2 -1 0
4294 1 9.2306795237209471e-01 7.5067306467870312e+00 3.2781239805237973e+01 1 0 0
4243 1 3.5830123745603348e+00 5.3776600547298532e+00 3.0075542800259690e+01 0 1 0
75 1 2.1323551531541249e+00 7.7987232283345813e+00 3.0216862700087344e+01 -2 2 1
4341 1 5.5883274671050787e+00 5.5002741487208526e+00 3.2489426055517626e+01 1 -1 0
2243 1 6.7793909348552992e+00 7.9783067148630096e+00 3.2440724318669716e+01 3 1 0
2165 1 1.0909329122080582e+01 6.2692264004441602e+00 3.2641199439550064e+01 -2 -2 -1
3396 1 1.1386279982404858e+01 6.0923182703232790e+00 2.9730300898738665e+01 1 1 1
22 1 1.0894683761006926e+01 1.0791659520966432e+01 2.9636032989421718e+01 2 0 0
2196 1 3.6815910701877419e+00 1.0239811343639737e+01 3.0299570470979230e+01 4 -1 -1
4539 1 7.2257219026170851e+00 8.2429242746265068e+00 2.5547400169050970e+01 2 0 -1
2067 1 2.5790887269706078e+00 5.3183234365759589e+00 3.3094611437338614e+01 -4 2 0
1005 1 2.8608377182221495e-01 7.5175948163388933e+00 2.5885500367899716e+01 0 -2 0
2093 1 1.1281801927409676e+01 6.2897761690336278e+00 2.5330326336854977e+01 2 0 0
188 2 0.0000000000000000e+00 1.2787731112280996e+01 2.6898945953942128e+00 0 0 0
190 2 1.2305000000000001e+00 1.3498160618518829e+01 2.6898945953942128e+00 0 0 0
225 2 2.4610000000000003e+00 1.2787731112280996e+01 2.6898945953942128e+00 0 0 0
227 2 3.6915000000000004e+00 1.3498160618518829e+01 2.6898945953942128e+00 0 0 0
186 2 0.0000000000000000e+00 1.5629449137232333e+01 2.6898945953942128e+00 0 0 0
221 2 1.2305000000000001e+00 1.4919019630994494e+01 2.6898945953942128e+00 0 0 0
223 2 2.4610000000000003e+00 1.5629449137232328e+01 2.6898945953942128e+00 0 0 0
266 2 3.6915000000000004e+00 1.4919019630994494e+01 2.6898945953942128e+00 0 0 0
270 2 4.9220000000000006e+00 1.2787731112280996e+01 2.6898945953942128e+00 0 0 0
272 2 6.1524999999999990e+00 1.3498160618518829e+01 2.6898945953942128e+00 0 0 0
317 2 7.3829999999999991e+00 1.2787731112280996e+01 2.6898945953942128e+00 0 0 0
268 2 4.9220000000000006e+00 1.5629449137232333e+01 2.6898945953942128e+00 0 0 0
313 2 6.1524999999999990e+00 1.4919019630994494e+01 2.6898945953942128e+00 0 0 0
315 2 7.3829999999999991e+00 1.5629449137232333e+01 2.6898945953942128e+00 0 0 0
319 2 8.6135000000000002e+00 1.3498160618518835e+01 2.6898945953942128e+00 0 0 0
364 2 9.8440000000000012e+00 1.2787731112280996e+01 2.6898945953942128e+00 0 0 0
366 2 1.1074500000000002e+01 1.3498160618518829e+01 2.6898945953942128e+00 0 0 0
360 2 8.6135000000000002e+00 1.4919019630994494e+01 2.6898945953942128e+00 0 0 0
362 2 9.8440000000000012e+00 1.5629449137232328e+01 2.6898945953942128e+00 0 0 0
402 2 1.1074500000000002e+01 1.4919019630994494e+01 2.6898945953942128e+00 0 0 0
217 2 0.0000000000000000e+00 1.7050308149707998e+01 2.6898945953942128e+00 0 0 0
262 2 2.4610000000000003e+00 1.7050308149707998e+01 2.6898945953942128e+00 0 0 0
215 2 0.0000000000000000e+00 1.9892026174659328e+01 2.6898945953942128e+00 0 0 0
219 2 1.2305000000000001e+00 1.7760737655945832e+01 2.6898945953942128e+00 0 0 0
258 2 1.2305000000000001e+00 1.9181596668421495e+01 2.6898945953942128e+00 0 0 0
260 2 2.4610000000000003e+00 1.9892026174659328e+01 2.6898945953942128e+00 0 0 0
264 2 3.6914999999999996e+00 1.7760737655945832e+01 2.6898945953942128e+00 0 0 0
305 2 3.6914999999999996e+00 1.9181596668421495e+01 2.6898945953942128e+00 0 0 0
309 2 4.9220000000000006e+00 1.7050308149707998e+01 2.6898945953942128e+00 0 0 0
356 2 7.3830000000000009e+00 1.7050308149707998e+01 2.6898945953942128e+00 0 0 0
307 2 4.9220000000000006e+00 1.9892026174659328e+01 2.6898945953942128e+00 0 0 0
311 2 6.1524999999999999e+00 1.7760737655945832e+01 2.6898945953942128e+00 0 0 0
352 2 6.1524999999999999e+00 1.9181596668421495e+01 2.6898945953942128e+00 0 0 0
354 2 7.3829999999999991e+00 1.9892026174659328e+01 2.6898945953942128e+00 0 0 0
398 2 9.8440000000000012e+00 1.7050308149707998e+01 2.6898945953942128e+00 0 0 0
432 2 1.2304999999999998e+01 1.7050308149707998e+01 2.6898945953942128e+00 0 0 0
358 2 8.6134999999999984e+00 1.7760737655945832e+01 2.6898945953942128e+00 0 0 0
394 2 8.6135000000000002e+00 1.9181596668421495e+01 2.6898945953942128e+00 0 0 0
396 2 9.8440000000000012e+00 1.9892026174659335e+01 2.6898945953942128e+00 0 0 0
400 2 1.1074500000000002e+01 1.7760737655945835e+01 2.6898945953942128e+00 0 0 0
428 2 1.1074500000000002e+01 1.9181596668421495e+01 2.6898945953942128e+00 0 0 0
252 2 0.0000000000000000e+00 2.4154603212086325e+01 2.6898945953942128e+00 0 0 0
254 2 0.0000000000000000e+00 2.1312885187134999e+01 2.6898945953942128e+00 0 0 0
256 2 1.2304999999999993e+00 2.2023314693372832e+01 2.6898945953942128e+00 0 0 0
297 2 1.2304999999999993e+00 2.3444173705848499e+01 2.6898945953942128e+00 0 0 0
299 2 2.4610000000000003e+00 2.4154603212086325e+01 2.6898945953942128e+00 0 0 0
301 2 2.4610000000000003e+00 2.1312885187134995e+01 2.6898945953942128e+00 0 0 0
303 2 3.6914999999999996e+00 2.2023314693372832e+01 2.6898945953942128e+00 0 0 0
344 2 3.6915000000000004e+00 2.3444173705848499e+01 2.6898945953942128e+00 0 0 0
346 2 4.9220000000000006e+00 2.4154603212086325e+01 2.6898945953942128e+00 0 0 0
348 2 4.9220000000000006e+00 2.1312885187134995e+01 2.6898945953942128e+00 0 0 0
350 2 6.1524999999999990e+00 2.2023314693372832e+01 2.6898945953942128e+00 0 0 0
386 2 6.1524999999999999e+00 2.3444173705848499e+01 2.6898945953942128e+00 0 0 0
388 2 7.3830000000000009e+00 2.4154603212086336e+01 2.6898945953942128e+00 0 0 0
390 2 7.3829999999999991e+00 2.1312885187134999e+01 2.6898945953942128e+00 0 0 0
392 2 8.6135000000000002e+00 2.2023314693372832e+01 2.6898945953942128e+00 0 0 0
420 2 8.6134999999999984e+00 2.3444173705848499e+01 2.6898945953942128e+00 0 0 0
422 2 9.8440000000000012e+00 2.4154603212086336e+01 2.6898945953942128e+00 0 0 0
424 2 9.8440000000000012e+00 2.1312885187134999e+01 2.6898945953942128e+00 0 0 0
426 2 1.1074500000000002e+01 2.2023314693372832e+01 2.6898945953942128e+00 0 0 0
446 2 1.1074500000000002e+01 2.3444173705848499e+01 2.6898945953942128e+00 0 0 0
189 2 0.0000000000000000e+00 1.2787731112280996e+01 5.8217505770221250e+00 0 0 0
226 2 2.4610000000000003e+00 1.2787731112280996e+01 5.8217505770221250e+00 0 0 0
187 2 0.0000000000000000e+00 1.4208590124756663e+01 5.8217505770221250e+00 0 0 0
222 2 1.2305000000000001e+00 1.4919019630994494e+01 5.8217505770221250e+00 0 0 0
224 2 2.4610000000000003e+00 1.4208590124756663e+01 5.8217505770221250e+00 0 0 0
267 2 3.6915000000000004e+00 1.4919019630994494e+01 5.8217505770221250e+00 0 0 0
271 2 4.9220000000000006e+00 1.2787731112280996e+01 5.8217505770221250e+00 0 0 0
318 2 7.3829999999999991e+00 1.2787731112280996e+01 5.8217505770221250e+00 0 0 0
269 2 4.9220000000000006e+00 1.4208590124756663e+01 5.8217505770221250e+00 0 0 0
314 2 6.1524999999999990e+00 1.4919019630994494e+01 5.8217505770221250e+00 0 0 0
316 2 7.3830000000000009e+00 1.4208590124756663e+01 5.8217505770221250e+00 0 0 0
365 2 9.8440000000000012e+00 1.2787731112280996e+01 5.8217505770221250e+00 0 0 0
361 2 8.6135000000000002e+00 1.4919019630994494e+01 5.8217505770221250e+00 0 0 0
363 2 9.8440000000000012e+00 1.4208590124756663e+01 5.8217505770221250e+00 0 0 0