LAMMPS data file via write_data, version 16 Mar 2018, timestep = 100000

6489 atoms
2 atom types

0.0000000000000000e+00 4.9219999999999999e+01 xlo xhi
0.0000000000000000e+00 4.9019635930410494e+01 ylo yhi
2.2587744609037230e+00 5.7803225539096303e+01 zlo zhi

Masses

1 18.015
2 12.01

Atoms # atomic

5046 1 6.7155293332500143e-01 1.1408392858074592e+01 8.3766509917302461e+00 1 1 1
1424 1 7.3624399273143171e+00 5.2979160883066294e+00 4.1944434824727974e+00 0 0 1
1337 1 4.3814994771321798e+00 2.3357528717515157e+00 3.3093044736761121e+00 1 0 1
2913 1 9.2584046370656203e+00 1.5648999366311251e+00 6.2890759666712039e+00 1 1 1
3244 1 1.0283311402041422e+01 1.7422179401183269e+00 3.6097210092069294e+00 0 0 0
2079 1 1.0187625347408348e+01 6.1648071486940701e+00 7.4203320142872649e+00 0 1 0
411 1 9.2479334253969481e-01 5.2167376667915653e+00 5.4766055307251396e+00 1 1 0
4822 1 1.2097223635824452e+01 1.0528027161414798e+01 6.9656674196006430e+00 2 1 1
457 1 6.1724336334057543e+00 7.1089582895987800e+00 5.9197859555869243e+00 0 0 0
1757 1 1.1211891085741314e+01 4.5509182198281790e+00 3.4328258326163277e+00 1 1 1
3032 1 9.5281580521003502e+00 7.2998854261341757e+00 4.7869442310733046e+00 0 0 1
5009 1 8.5349966710515268e-01 8.6638449167566520e+00 7.3727749375693810e+00 1 -1 0
3385 1 2.4996655502232330e+00 9.9263048253941193e+00 3.7500730379196550e+00 1 0 0
1479 1 5.4099010948329482e+00 1.0451511341346293e+01 7.0313844306317774e+00 0 0 1
2946 1 6.5698858698125226e+00 9.5889249145569444e+00 4.5327769101666444e+00 1 1 1
4623 1 9.2838489061152973e+00 9.5679054995747350e+00 6.2807283788488313e+00 0 0 0
4770 1 1.0549117149685751e+01 1.1417055595249890e+01 3.7300819050542873e+00 0 0 0
3500 1 8.5988288173518796e+00 1.0000126507927455e+01 8.9699315308615173e+00 0 0 0
3740 1 1.1105705309102747e+00 7.4684751411630410e+00 3.6862703610406138e+00 1 1 1
1285 1 3.7066107661790144e+00 1.8102744084604256e+00 7.8616360295508407e+00 0 1 1
3609 1 4.8015221599533557e+00 1.0161148933228169e+01 2.5891826614693172e+00 -1 1 0
4987 1 5.9555900868917897e+00 9.5291008549182077e-01 6.0425684366901597e+00 0 0 1
155 1 1.6639871667834547e+00 2.7186010194958787e+00 4.3718471209507257e+00 0 1 0
186 1 2.3986689669452694e+00 4.3179692539225991e+00 7.8935212441732929e+00 1 0 0
1727 1 1.1057808181768708e+01 3.5570425557694660e+00 7.3135252726447000e+00 0 0 0
3097 1 3.5811870530111585e+00 6.8822477620614189e+00 6.9071152804117704e+00 1 -1 1
6388 1 5.0246671987032732e-01 3.1910767870304868e-01 5.7446299436635888e+00 1 1 0
1392 1 2.6234220173042750e+00 1.1045866826487625e+01 6.0616328935012316e+00 0 0 1
3148 1 7.5016761694093468e+00 5.9627313965860438e+00 8.2670538569212955e+00 1 0 0
5168 1 6.8540235399798117e+00 3.6717536212842425e+00 6.7103871680746883e+00 1 -1 0
124 1 9.0258465470683511e+00 9.5698072386544535e+00 2.5870176392417070e+00 1 0 0
61 1 5.0119378903243685e+00 4.9775584738095464e+00 2.4114414166450659e+00 0 0 0
1474 1 1.2125283226350811e+00 1.1746619645350119e+01 2.3035288260214415e+00 1 0 1
182 1 1.6932744347854234e+00 1.1470105705093205e+00 1.2226229060701868e+01 1 0 1
1325 1 4.8529170354488924e+00 1.4017787464908629e+00 1.2252263236119976e+01 1 1 1
1654 1 4.0778508904443793e+00 5.9081973813684741e+00 1.3297339553980958e+01 0 1 0
4585 1 8.6335576030069596e+00 3.3601715458484303e+00 9.4272792449670302e+00 0 1 1
2212 1 1.4783466800308154e+00 5.2951952256883770e+00 1.0330152487784245e+01 0 0 0
4969 1 1.1036529024200167e+01 4.2043449275795854e+00 1.0867079706113984e+01 0 -1 1
5165 1 4.5112195518574989e+00 3.5283759610077761e+00 1.4866291415503337e+01 0 1 0
3137 1 6.9977180245895241e+00 6.2056077717144200e+00 1.2846258127169458e+01 0 0 1
3176 1 9.4370980320717770e+00 4.6631484290739618e+00 1.3994171937709050e+01 0 1 1
381 1 5.7968756729385493e+00 2.7782815600687973e+00 9.8624598009593001e+00 1 0 0
1931 1 9.6033075871740969e+00 8.4139102511831414e+00 1.1337064162782209e+01 1 1 0
4754 1 6.3090056621111721e+00 1.1061622669440956e+01 1.3190402621701127e+01 0 0 1
4902 1 3.1023207783612294e+00 1.0456979702725025e+01 1.4150303813548595e+01 0 0 0
1699 1 4.0471468602378442e+00 1.1551381472273496e+01 1.1604664468945465e+01 0 1 0
1902 1 5.4548560824526131e+00 9.8234343726273448e+00 9.7403996790553364e+00 0 0 0
3215 1 1.0643668765424556e+01 1.0965630872014154e+01 1.2539414608743353e+01 1 1 1
3286 1 2.7677605438807475e+00 1.2403170252714013e+00 1.4982712026700774e+01 1 0 0
3295 1 6.0894524223091100e+00 1.2093105238554788e+01 1.5948754956034069e+01 0 0 0
94 1 4.4492780877438749e+00 5.3342003450274165e+00 1.0553511618009731e+01 1 0 0
1477 1 8.8980717641554197e+00 2.2202269399067633e+00 1.2343811182345004e+01 0 1 1
3290 1 1.1260072215031848e+01 7.6521788911519559e+00 9.3924131819133052e+00 0 0 0
3026 1 4.5937830539149829e+00 8.0565045125985240e+00 1.4768602355444390e+01 -1 0 1
4831 1 2.9010094967636824e-01 2.2802404204156588e+00 1.6104838140543997e+01 1 0 0
1895 1 2.8862407067852280e+00 7.9766300127646206e+00 9.3575060958868974e+00 0 0 0
5274 1 6.7676748957270370e+00 7.5622809917182385e+00 1.0558076818094413e+01 1 0 0
5323 1 1.3505866887833551e+00 6.1926779786553316e+00 1.4449347537487602e+01 1 0 0
65 1 1.0238478114041976e+01 7.4202594691926480e+00 1.3904617460348764e+01 1 0 0
4500 1 7.1453777368883458e+00 8.2727933995540219e+00 1.4607987898916788e+01 0 0 1
1333 1 1.2089444676447838e+01 3.2028527087789604e+00 1.3334813761981831e+01 0 0 1
3511 1 1.0377341656555306e+01 1.0105189976923159e+01 1.5544542726422973e+01 0 1 0
3282 1 6.8389055923065873e+00 1.8518540241794144e+00 1.4352668817360252e+01 0 1 1
4653 1 1.5191332907168846e+00 9.9955955292070833e+00 1.1131306527966297e+01 1 0 1
1627 1 1.1183934394142536e+01 1.1898826975115240e+00 1.5610335058739173e+01 0 0 1
1964 1 5.3687225545894135e-01 1.0079141690622944e+01 1.5471320469983544e+01 0 0 0
4960 1 9.3684037960569970e+00 5.7545771655679112e-01 9.3546692916104135e+00 0 0 1
2119 1 1.2257071988567988e+01 1.1887060493819678e+01 1.0451337090385698e+01 0 0 0
5273 1 1.1491359085128039e-01 3.3963369872075453e+00 1.1686780593747201e+01 1 0 1
3648 1 2.6229545060384165e+00 5.3212761163493383e-02 9.7355603581645056e+00 0 -1 0
249 1 3.3386433640484570e+00 5.7316084760927921e-01 1.7813020431443199e+01 0 0 0
351 1 7.9483750512120963e+00 6.5414295361978461e+00 1.7030613179200788e+01 1 0 0
1566 1 7.5445420515541111e+00 5.2352611986565538e+00 2.2113717324489869e+01 0 1 0
3607 1 7.6994628303722101e-01 5.9846591275958732e+00 2.2222856914254109e+01 1 0 1
1917 1 6.4980296693199406e+00 7.7979279796417709e+00 1.8846525660172684e+01 1 1 0
6139 1 5.1864852166960125e+00 1.0462267083728598e+01 1.8069690862724535e+01 0 1 0
4967 1 1.9991732428064530e+00 1.3450889303737457e-01 2.1390021577378846e+01 1 1 0
4 1 5.7956172480984787e+00 4.2806760519537468e+00 2.0396352764782421e+01 1 -1 0
5122 1 3.4940425854335238e+00 7.8074438474154659e+00 2.0137439874723970e+01 0 0 0
514 1 2.8491344268565588e+00 1.1666393874983584e+01 1.9782808719660053e+01 0 0 0
5196 1 1.0397728096226484e+01 4.9879437596033567e+00 2.1101015286619120e+01 0 0 0
6159 1 9.6820399096227874e+00 1.9486030697632508e+00 1.7805742801021090e+01 0 1 1
3292 1 9.2379879911992457e+00 9.1916098295913287e+00 2.0188079326225633e+01 0 1 0
210 1 4.0536344861095071e+00 7.0019897191657341e+00 1.7311950435143682e+01 0 1 0
3146 1 2.1045281127688065e+00 9.4548641332783330e+00 1.7903664984474297e+01 0 0 1
428 1 6.7016095166141003e+00 1.0907802557889829e+01 2.0240571641973162e+01 0 0 0
1718 1 3.9108758733969378e+00 1.1684186787201917e+01 2.2494980824991295e+01 0 0 0
292 1 4.9879637695575267e+00 8.9993536477404543e+00 2.2227208210178858e+01 1 0 0
1373 1 1.1922912964842052e+01 9.5020608674397202e+00 2.1564668468100447e+01 0 0 1
3270 1 7.6585288047034537e+00 7.9190460190378911e+00 2.1977875601547979e+01 1 1 0
5412 1 1.0227237076441078e+01 8.2040883740130610e+00 1.7811158056207958e+01 0 0 1
3390 1 2.6052144564026611e+00 3.6476501136179871e+00 1.7677120084623148e+01 0 0 0
1836 1 4.3516647849888450e+00 1.9708758673255111e+00 2.1307497010413627e+01 0 0 0
5302 1 7.6370766657825575e+00 1.8004342079017848e+00 2.1089970858981605e+01 1 1 1
3006 1 1.6092863486868836e+00 6.0098261421976638e+00 1.7315726784063163e+01 1 1 1
520 1 1.1018953045905647e+01 2.4507164202017755e+00 2.0328128343756408e+01 1 1 1
6364 1 9.0743124471406791e+00 1.2220022699059978e+01 1.6468366279985769e+01 0 -1 1
6285 1 1.9920306501623695e+00 3.2717522260524361e+00 2.0267065858289211e+01 1 1 0
5393 1 3.4009647253352173e+00 5.3266091432020053e+00 2.1462849171360165e+01 1 1 0
3418 1 5.4354047860632786e+00 4.6078367730432213e+00 1.7283872644953746e+01 1 0 0
3281 1 8.0771730380249647e+00 3.5754592798727205e+00 1.6290010312211599e+01 1 1 1
3009 1 9.4173562992460482e+00 1.2069324722067870e+01 1.9039182247750020e+01 0 1 1
300 1 1.0258052012130021e+01 4.4979862349798339e-02 2.1147884832769467e+01 2 0 0
60 1 1.7001592319261454e+00 5.8032961953809459e-01 2.4130944723679541e+01 1 1 0
5167 1 4.0936766411902052e+00 2.4819348446254672e+00 2.4088454292853946e+01 1 -1 0
1418 1 6.3941830880243522e-01 4.8846811117375157e+00 2.4598864491319976e+01 0 1 1
4729 1 1.7925916655755132e+00 1.1233474663233309e+01 2.4077178280701762e+01 0 1 0
3188 1 6.1966590474021430e+00 6.3879586993665605e-01 2.4776538055080859e+01 0 2 0
5345 1 3.3795097365329352e+00 5.4330575085509265e+00 2.4560982513136789e+01 1 1 0
1743 1 1.1125713928229384e+00 8.7136718047745934e+00 2.4413626019042070e+01 0 0 0
218 1 1.1329363616725560e+01 9.4946861124431798e+00 2.4122460100399362e+01 0 0 1
437 1 3.8253049665836878e+00 8.0723555091317696e+00 2.4352749473469000e+01 0 1 0
3591 1 1.1181079711145200e+01 4.5834681060935640e+00 2.3860983649563558e+01 1 0 0
746 2 8.6134999999999984e+00 1.0656442593567498e+01 2.6902955930263996e+01 0 0 0
4956 1 8.5292150424695077e+00 9.5163972938860297e+00 2.4127955010050812e+01 1 0 1
68 1 8.3836149600577787e+00 4.4300353711676630e+00 2.4466237772852487e+01 0 1 1
3283 1 8.2462662235856357e+00 1.7484263876200465e+00 2.3805879709474500e+01 -1 1 1
572 2 0.0000000000000000e+00 2.8417180249513345e+00 2.6902955930263996e+01 0 0 0
574 2 0.0000000000000000e+00 0.0000000000000000e+00 2.6902955930263996e+01 0 0 0
576 2 1.2305000000000001e+00 7.1042950623783474e-01 2.6902955930263996e+01 0 0 0
583 2 1.2305000000000001e+00 2.1312885187134998e+00 2.6902955930263996e+01 0 0 0
585 2 2.4610000000000003e+00 2.8417180249513345e+00 2.6902955930263996e+01 0 0 0
587 2 2.4610000000000003e+00 0.0000000000000000e+00 2.6902955930263996e+01 0 0 0
589 2 3.6915000000000004e+00 7.1042950623783474e-01 2.6902955930263996e+01 0 0 0
604 2 3.6914999999999996e+00 2.1312885187134998e+00 2.6902955930263996e+01 0 0 0
606 2 4.9220000000000006e+00 2.8417180249513332e+00 2.6902955930263996e+01 0 0 0
608 2 4.9220000000000006e+00 0.0000000000000000e+00 2.6902955930263996e+01 0 0 0
610 2 6.1524999999999999e+00 7.1042950623783407e-01 2.6902955930263996e+01 0 0 0
633 2 6.1524999999999999e+00 2.1312885187134989e+00 2.6902955930263996e+01 0 0 0
635 2 7.3829999999999991e+00 2.8417180249513345e+00 2.6902955930263996e+01 0 0 0
637 2 7.3829999999999991e+00 0.0000000000000000e+00 2.6902955930263996e+01 0 0 0
639 2 8.6134999999999984e+00 7.1042950623783407e-01 2.6902955930263996e+01 0 0 0
670 2 8.6134999999999984e+00 2.1312885187135002e+00 2.6902955930263996e+01 0 0 0
672 2 9.8440000000000012e+00 2.8417180249513332e+00 2.6902955930263996e+01 0 0 0
674 2 9.8440000000000012e+00 0.0000000000000000e+00 2.6902955930263996e+01 0 0 0
676 2 1.1074500000000002e+01 7.1042950623783330e-01 2.6902955930263996e+01 0 0 0
715 2 1.1074500000000002e+01 2.1312885187135002e+00 2.6902955930263996e+01 0 0 0
579 2 0.0000000000000000e+00 4.2625770374269996e+00 2.6902955930263996e+01 0 0 0
581 2 1.2305000000000001e+00 4.9730065436648339e+00 2.6902955930263996e+01 0 0 0
596 2 1.2305000000000001e+00 6.3938655561404980e+00 2.6902955930263996e+01 0 0 0
600 2 2.4610000000000003e+00 4.2625770374269996e+00 2.6902955930263996e+01 0 0 0
602 2 3.6914999999999996e+00 4.9730065436648339e+00 2.6902955930263996e+01 0 0 0
625 2 3.6914999999999996e+00 6.3938655561404980e+00 2.6902955930263996e+01 0 0 0
577 2 0.0000000000000000e+00 7.1042950623783341e+00 2.6902955930263996e+01 0 0 0
598 2 2.4610000000000003e+00 7.1042950623783341e+00 2.6902955930263996e+01 0 0 0
629 2 4.9220000000000006e+00 4.2625770374269978e+00 2.6902955930263996e+01 0 0 0
631 2 6.1524999999999999e+00 4.9730065436648339e+00 2.6902955930263996e+01 0 0 0
662 2 6.1524999999999999e+00 6.3938655561404980e+00 2.6902955930263996e+01 0 0 0
666 2 7.3829999999999991e+00 4.2625770374269996e+00 2.6902955930263996e+01 0 0 0
627 2 4.9220000000000006e+00 7.1042950623783341e+00 2.6902955930263996e+01 0 0 0
664 2 7.3830000000000009e+00 7.1042950623783341e+00 2.6902955930263996e+01 0 0 0
668 2 8.6135000000000002e+00 4.9730065436648339e+00 2.6902955930263996e+01 0 0 0
707 2 8.6135000000000002e+00 6.3938655561404980e+00 2.6902955930263996e+01 0 0 0
711 2 9.8440000000000012e+00 4.2625770374270004e+00 2.6902955930263996e+01 0 0 0
713 2 1.1074500000000002e+01 4.9730065436648339e+00 2.6902955930263996e+01 0 0 0
754 2 1.1074500000000002e+01 6.3938655561404980e+00 2.6902955930263996e+01 0 0 0
709 2 9.8440000000000012e+00 7.1042950623783341e+00 2.6902955930263996e+01 0 0 0
592 2 0.0000000000000000e+00 8.5251540748539991e+00 2.6902955930263996e+01 0 0 0
594 2 1.2305000000000001e+00 9.2355835810918343e+00 2.6902955930263996e+01 0 0 0
621 2 2.4610000000000003e+00 8.5251540748539991e+00 2.6902955930263996e+01 0 0 0
623 2 3.6915000000000004e+00 9.2355835810918343e+00 2.6902955930263996e+01 0 0 0
590 2 0.0000000000000000e+00 1.1366872099805333e+01 2.6902955930263996e+01 0 0 0
617 2 1.2305000000000001e+00 1.0656442593567498e+01 2.6902955930263996e+01 0 0 0
619 2 2.4610000000000003e+00 1.1366872099805333e+01 2.6902955930263996e+01 0 0 0
654 2 3.6914999999999996e+00 1.0656442593567499e+01 2.6902955930263996e+01 0 0 0
658 2 4.9220000000000006e+00 8.5251540748539991e+00 2.6902955930263996e+01 0 0 0
660 2 6.1524999999999999e+00 9.2355835810918343e+00 2.6902955930263996e+01 0 0 0
703 2 7.3830000000000009e+00 8.5251540748539991e+00 2.6902955930263996e+01 0 0 0
656 2 4.9220000000000006e+00 1.1366872099805333e+01 2.6902955930263996e+01 0 0 0
699 2 6.1524999999999999e+00 1.0656442593567499e+01 2.6902955930263996e+01 0 0 0
701 2 7.3829999999999991e+00 1.1366872099805333e+01 2.6902955930263996e+01 0 0 0
793 2 1.1074500000000002e+01 1.0656442593567498e+01 2.6902955930263996e+01 0 0 0
752 2 1.1074500000000002e+01 9.2355835810918343e+00 2.6902955930263996e+01 0 0 0
748 2 9.8440000000000012e+00 1.1366872099805333e+01 2.6902955930263996e+01 0 0 0
705 2 8.6134999999999984e+00 9.2355835810918343e+00 2.6902955930263996e+01 0 0 0
795 2 1.2304999999999998e+01 1.1366872099805333e+01 2.6902955930263996e+01 0 0 0
750 2 9.8440000000000012e+00 8.5251540748539956e+00 2.6902955930263996e+01 0 0 0
3039 1 1.0663218091337672e+01 6.6704100108083864e-01 2.3875977372314725e+01 1 0 1
3562 1 1.2179161913103165e+01 6.6971871728731625e+00 2.4670738298943832e+01 1 1 0
234 1 8.1546227630261274e+00 1.2248904230529803e+01 2.4467509400942067e+01 0 0 0
573 2 0.0000000000000000e+00 1.4208590124756650e+00 3.0031000000000304e+01 0 0 0
575 2 0.0000000000000000e+00 0.0000000000000000e+00 3.0031000000000304e+01 0 0 0
584 2 1.2305000000000001e+00 2.1312885187134998e+00 3.0031000000000304e+01 0 0 0
586 2 2.4610000000000003e+00 1.4208590124756650e+00 3.0031000000000304e+01 0 0 0
588 2 2.4610000000000003e+00 0.0000000000000000e+00 3.0031000000000304e+01 0 0 0
605 2 3.6914999999999996e+00 2.1312885187134998e+00 3.0031000000000304e+01 0 0 0
582 2 1.2305000000000001e+00 3.5521475311891644e+00 3.0031000000000304e+01 0 0 0
603 2 3.6914999999999996e+00 3.5521475311891644e+00 3.0031000000000304e+01 0 0 0
901 2 0.0000000000000000e+00 2.8417180249513345e+00 3.3159044069732332e+01 0 0 0
902 2 0.0000000000000000e+00 0.0000000000000000e+00 3.3159044069732332e+01 0 0 0
903 2 1.2305000000000001e+00 7.1042950623783474e-01 3.3159044069732332e+01 0 0 0
907 2 1.2305000000000001e+00 2.1312885187134998e+00 3.3159044069732332e+01 0 0 0
908 2 2.4610000000000003e+00 2.8417180249513345e+00 3.3159044069732332e+01 0 0 0
909 2 2.4610000000000003e+00 0.0000000000000000e+00 3.3159044069732332e+01 0 0 0
910 2 3.6915000000000004e+00 7.1042950623783474e-01 3.3159044069732332e+01 0 0 0
918 2 3.6914999999999996e+00 2.1312885187134998e+00 3.3159044069732332e+01 0 0 0
607 2 4.9220000000000006e+00 1.4208590124756650e+00 3.0031000000000304e+01 0 0 0
609 2 4.9220000000000006e+00 0.0000000000000000e+00 3.0031000000000304e+01 0 0 0
634 2 6.1524999999999999e+00 2.1312885187134989e+00 3.0031000000000304e+01 0 0 0
636 2 7.3829999999999991e+00 1.4208590124756659e+00 3.0031000000000304e+01 0 0 0
638 2 7.3829999999999991e+00 0.0000000000000000e+00 3.0031000000000304e+01 0 0 0
632 2 6.1524999999999999e+00 3.5521475311891644e+00 3.0031000000000304e+01 0 0 0
919 2 4.9220000000000006e+00 2.8417180249513332e+00 3.3159044069732332e+01 0 0 0
920 2 4.9220000000000006e+00 0.0000000000000000e+00 3.3159044069732332e+01 0 0 0
921 2 6.1524999999999999e+00 7.1042950623783407e-01 3.3159044069732332e+01 0 0 0
933 2 6.1524999999999999e+00 2.1312885187134989e+00 3.3159044069732332e+01 0 0 0
934 2 7.3829999999999991e+00 2.8417180249513345e+00 3.3159044069732332e+01 0 0 0
935 2 7.3829999999999991e+00 0.0000000000000000e+00 3.3159044069732332e+01 0 0 0
671 2 8.6134999999999984e+00 2.1312885187135002e+00 3.0031000000000304e+01 0 0 0
673 2 9.8440000000000012e+00 1.4208590124756659e+00 3.0031000000000304e+01 0 0 0
675 2 9.8440000000000012e+00 0.0000000000000000e+00 3.0031000000000304e+01 0 0 0
716 2 1.1074500000000002e+01 2.1312885187135002e+00 3.0031000000000304e+01 0 0 0
669 2 8.6134999999999984e+00 3.5521475311891657e+00 3.0031000000000304e+01 0 0 0
714 2 1.1074500000000002e+01 3.5521475311891644e+00 3.0031000000000304e+01 0 0 0
936 2 8.6134999999999984e+00 7.1042950623783407e-01 3.3159044069732332e+01 0 0 0
952 2 8.6134999999999984e+00 2.1312885187135002e+00 3.3159044069732332e+01 0 0 0
953 2 9.8440000000000012e+00 2.8417180249513332e+00 3.3159044069732332e+01 0 0 0
954 2 9.8440000000000012e+00 0.0000000000000000e+00 3.3159044069732332e+01 0 0 0
955 2 1.1074500000000002e+01 7.1042950623783330e-01 3.3159044069732332e+01 0 0 0
975 2 1.1074500000000002e+01 2.1312885187135002e+00 3.3159044069732332e+01 0 0 0
578 2 0.0000000000000000e+00 5.6834360499026637e+00 3.0031000000000304e+01 0 0 0
580 2 0.0000000000000000e+00 4.2625770374269996e+00 3.0031000000000304e+01 0 0 0
597 2 1.2305000000000001e+00 6.3938655561404980e+00 3.0031000000000304e+01 0 0 0
599 2 2.4610000000000003e+00 5.6834360499026637e+00 3.0031000000000304e+01 0 0 0
601 2 2.4610000000000003e+00 4.2625770374269996e+00 3.0031000000000304e+01 0 0 0
626 2 3.6914999999999996e+00 6.3938655561404980e+00 3.0031000000000304e+01 0 0 0
595 2 1.2305000000000001e+00 7.8147245686161639e+00 3.0031000000000304e+01 0 0 0
624 2 3.6914999999999996e+00 7.8147245686161639e+00 3.0031000000000304e+01 0 0 0
905 2 0.0000000000000000e+00 4.2625770374269996e+00 3.3159044069732332e+01 0 0 0
906 2 1.2305000000000001e+00 4.9730065436648339e+00 3.3159044069732332e+01 0 0 0
914 2 1.2305000000000001e+00 6.3938655561404980e+00 3.3159044069732332e+01 0 0 0
916 2 2.4610000000000003e+00 4.2625770374269996e+00 3.3159044069732332e+01 0 0 0
917 2 3.6914999999999996e+00 4.9730065436648339e+00 3.3159044069732332e+01 0 0 0
929 2 3.6914999999999996e+00 6.3938655561404980e+00 3.3159044069732332e+01 0 0 0
904 2 0.0000000000000000e+00 7.1042950623783341e+00 3.3159044069732332e+01 0 0 0
915 2 2.4610000000000003e+00 7.1042950623783341e+00 3.3159044069732332e+01 0 0 0
628 2 4.9220000000000006e+00 5.6834360499026637e+00 3.0031000000000304e+01 0 0 0
630 2 4.9220000000000006e+00 4.2625770374269978e+00 3.0031000000000304e+01 0 0 0
663 2 6.1524999999999999e+00 6.3938655561404980e+00 3.0031000000000304e+01 0 0 0
665 2 7.3829999999999991e+00 5.6834360499026637e+00 3.0031000000000304e+01 0 0 0
667 2 7.3829999999999991e+00 4.2625770374269996e+00 3.0031000000000304e+01 0 0 0
661 2 6.1524999999999999e+00 7.8147245686161639e+00 3.0031000000000304e+01 0 0 0
931 2 4.9220000000000006e+00 4.2625770374269978e+00 3.3159044069732332e+01 0 0 0
932 2 6.1524999999999999e+00 4.9730065436648339e+00 3.3159044069732332e+01 0 0 0
948 2 6.1524999999999999e+00 6.3938655561404980e+00 3.3159044069732332e+01 0 0 0
950 2 7.3829999999999991e+00 4.2625770374269996e+00 3.3159044069732332e+01 0 0 0
930 2 4.9220000000000006e+00 7.1042950623783341e+00 3.3159044069732332e+01 0 0 0
949 2 7.3830000000000009e+00 7.1042950623783341e+00 3.3159044069732332e+01 0 0 0
708 2 8.6135000000000002e+00 6.3938655561404980e+00 3.0031000000000304e+01 0 0 0
710 2 9.8440000000000012e+00 5.6834360499026637e+00 3.0031000000000304e+01 0 0 0
712 2 9.8440000000000012e+00 4.2625770374270004e+00 3.0031000000000304e+01 0 0 0
755 2 1.1074500000000002e+01 6.3938655561404980e+00 3.0031000000000304e+01 0 0 0
706 2 8.6135000000000002e+00 7.8147245686161639e+00 3.0031000000000304e+01 0 0 0
753 2 1.1074500000000002e+01 7.8147245686161639e+00 3.0031000000000304e+01 0 0 0
951 2 8.6135000000000002e+00 4.9730065436648339e+00 3.3159044069732332e+01 0 0 0
971 2 8.6135000000000002e+00 6.3938655561404980e+00 3.3159044069732332e+01 0 0 0
973 2 9.8440000000000012e+00 4.2625770374270004e+00 3.3159044069732332e+01 0 0 0
974 2 1.1074500000000002e+01 4.9730065436648339e+00 3.3159044069732332e+01 0 0 0
995 2 1.1074500000000002e+01 6.3938655561404980e+00 3.3159044069732332e+01 0 0 0
972 2 9.8440000000000012e+00 7.1042950623783341e+00 3.3159044069732332e+01 0 0 0
591 2 0.0000000000000000e+00 9.9460130873296642e+00 3.0031000000000304e+01 0 0 0
593 2 0.0000000000000000e+00 8.5251540748539991e+00 3.0031000000000304e+01 0 0 0
620 2 2.4610000000000003e+00 9.9460130873296642e+00 3.0031000000000304e+01 0 0 0
622 2 2.4610000000000003e+00 8.5251540748539991e+00 3.0031000000000304e+01 0 0 0
616 2 1.2305000000000001e+00 1.2077301606043163e+01 3.0031000000000304e+01 0 0 0
618 2 1.2305000000000001e+00 1.0656442593567498e+01 3.0031000000000304e+01 0 0 0
653 2 3.6914999999999996e+00 1.2077301606043163e+01 3.0031000000000304e+01 0 0 0
655 2 3.6914999999999996e+00 1.0656442593567499e+01 3.0031000000000304e+01 0 0 0
912 2 0.0000000000000000e+00 8.5251540748539991e+00 3.3159044069732332e+01 0 0 0
913 2 1.2305000000000001e+00 9.2355835810918343e+00 3.3159044069732332e+01 0 0 0
927 2 2.4610000000000003e+00 8.5251540748539991e+00 3.3159044069732332e+01 0 0 0
928 2 3.6915000000000004e+00 9.2355835810918343e+00 3.3159044069732332e+01 0 0 0
911 2 0.0000000000000000e+00 1.1366872099805333e+01 3.3159044069732332e+01 0 0 0
925 2 1.2305000000000001e+00 1.0656442593567498e+01 3.3159044069732332e+01 0 0 0
926 2 2.4610000000000003e+00 1.1366872099805333e+01 3.3159044069732332e+01 0 0 0
944 2 3.6914999999999996e+00 1.0656442593567499e+01 3.3159044069732332e+01 0 0 0
657 2 4.9220000000000006e+00 9.9460130873296642e+00 3.0031000000000304e+01 0 0 0
659 2 4.9220000000000006e+00 8.5251540748539991e+00 3.0031000000000304e+01 0 0 0
702 2 7.3830000000000009e+00 9.9460130873296642e+00 3.0031000000000304e+01 0 0 0
704 2 7.3830000000000009e+00 8.5251540748539991e+00 3.0031000000000304e+01 0 0 0
698 2 6.1524999999999999e+00 1.2077301606043163e+01 3.0031000000000304e+01 0 0 0
700 2 6.1524999999999999e+00 1.0656442593567499e+01 3.0031000000000304e+01 0 0 0
946 2 4.9220000000000006e+00 8.5251540748539991e+00 3.3159044069732332e+01 0 0 0
947 2 6.1524999999999999e+00 9.2355835810918343e+00 3.3159044069732332e+01 0 0 0
969 2 7.3830000000000009e+00 8.5251540748539991e+00 3.3159044069732332e+01 0 0 0
945 2 4.9220000000000006e+00 1.1366872099805333e+01 3.3159044069732332e+01 0 0 0
967 2 6.1524999999999999e+00 1.0656442593567499e+01 3.3159044069732332e+01 0 0 0
968 2 7.3829999999999991e+00 1.1366872099805333e+01 3.3159044069732332e+01 0 0 0
749 2 9.8440000000000012e+00 9.9460130873296642e+00 3.0031000000000304e+01 0 0 0
751 2 9.8440000000000012e+00 8.5251540748539956e+00 3.0031000000000304e+01 0 0 0
745 2 8.6135000000000002e+00 1.2077301606043163e+01 3.0031000000000304e+01 0 0 0
747 2 8.6134999999999984e+00 1.0656442593567498e+01 3.0031000000000304e+01 0 0 0
792 2 1.1074500000000002e+01 1.2077301606043163e+01 3.0031000000000304e+01 0 0 0
794 2 1.1074500000000002e+01 1.0656442593567498e+01 3.0031000000000304e+01 0 0 0
970 2 8.6134999999999984e+00 9.2355835810918343e+00 3.3159044069732332e+01 0 0 0
993 2 9.8440000000000012e+00 8.5251540748539956e+00 3.3159044069732332e+01 0 0 0
994 2 1.1074500000000002e+01 9.2355835810918343e+00 3.3159044069732332e+01 0 0 0
991 2 8.6134999999999984e+00 1.0656442593567498e+01 3.3159044069732332e+01 0 0 0
992 2 9.8440000000000012e+00 1.1366872099805333e+01 3.3159044069732332e+01 0 0 0
1015 2 1.1074500000000002e+01 1.0656442593567498e+01 3.3159044069732332e+01 0 0 0
1016 2 1.2304999999999998e+01 1.1366872099805333e+01 3.3159044069732332e+01 0 0 0
1367 1 2.4554106715653252e+00 3.3311864393128139e+00 3.5821527612052833e+01 0 0 0
5344 1 1.6157100652407974e+00 7.7882266388527066e-01 3.5878501577384931e+01 1 0 0
4547 1 1.0216556362267662e+01 9.8979815688943074e+00 3.6356887425724175e+01 0 1 0
4852 1 8.1517162350356767e+00 2.8970408309110476e+00 3.5674039802280554e+01 1 0 -1
4553 1 7.2080816496980535e+00 5.7499771591592532e+00 3.5667701825575612e+01 0 0 0
4766 1 4.0225162384762774e+00 5.6926793802254538e+00 3.5258369960046217e+01 1 0 -1
4533 1 5.2214534161555717e+00 2.2629758190509395e+00 3.5608824031765110e+01 0 2 -1
6437 1 7.3273265728973183e+00 1.0336861767228683e+01 3.5885532568735009e+01 0 1 -1
4537 1 9.5990025700582535e+00 7.2349090731590904e+00 3.6013126225414162e+01 0 1 0
3125 1 9.0742784899431221e+00 3.0361274185298637e-01 3.5565756990485376e+01 0 0 -1
2927 1 3.4757392254868287e+00 1.0636103018614447e+01 3.5383474479145107e+01 0 1 0
2124 1 5.3611744550382410e+00 8.4134469081069181e+00 3.5957804903602891e+01 -1 1 0
4705 1 8.0830479121492638e-01 1.0240782632560117e+01 3.5918718895415374e+01 1 1 0
3786 1 1.1934397869047535e+01 4.2904505882685240e-01 3.6176064116575894e+01 0 1 0
1506 1 7.4768708473479428e-01 7.0968602601144068e+00 3.5511425457965039e+01 1 0 0
1881 1 1.1527463329296040e+01 1.9517497421855594e+00 3.8208660275174552e+01 0 0 -1
2901 1 1.9354873070181566e+00 4.0783980604124705e+00 3.8666116396038355e+01 0 1 -1
491 1 5.0246897609448418e+00 1.1038368366260167e+00 3.8330917025612862e+01 0 0 0
1730 1 4.2119344438607174e+00 3.2877916739539277e+00 4.0100590193254448e+01 0 1 0
4920 1 6.5177140256376465e+00 3.9107065966225867e+00 4.1964368493954041e+01 1 1 -1
489 1 9.0696891364115064e+00 2.9769688282005644e+00 3.8322312667483750e+01 0 2 0
4658 1 9.1743552795150993e+00 6.7357898272512040e+00 3.9053192350874056e+01 -1 0 0
3347 1 2.0774516850758622e+00 6.7345139684584145e+00 3.7817626840372718e+01 0 1 -1
6275 1 2.0356136465119503e+00 3.5835330722037049e+00 4.1976890210334126e+01 0 0 -1
3678 1 7.9503163638406189e+00 8.8920077806928415e+00 4.0221436388391169e+01 1 1 0
5093 1 2.6832773882921659e+00 8.4674310007288440e+00 4.1453553929629173e+01 -1 0 0
6250 1 1.1229108476018235e+01 6.2481134949332109e+00 4.1324234834476862e+01 0 1 0
3611 1 5.0653675295341642e+00 8.1211091560358124e+00 3.9761177583893534e+01 0 1 0
3708 1 3.5147952257370987e+00 1.0084576314888217e+01 3.8272872426423248e+01 -1 -1 0
156 1 1.0137186283225592e+01 1.0364196687523403e+01 3.9043314348142275e+01 1 0 -1
3724 1 6.3640721437802563e+00 1.0920077115754989e+01 3.8533020237936789e+01 0 1 0
1673 1 1.8569850448508254e+00 1.2196380263186542e+01 3.9693561728348534e+01 1 0 -1
3364 1 8.5071380093744811e+00 1.5259713732296309e+00 4.1125903721387431e+01 0 1 -1
3028 1 5.7860119426724033e-01 9.2908420239788416e+00 3.8769985957751331e+01 1 1 0
279 1 4.8059688532694773e+00 1.1738093986761488e+01 4.3089108587393078e+01 0 1 -1
6259 1 8.3166190952739729e+00 8.6782762941870590e+00 4.3023705972440396e+01 0 0 0
4984 1 4.9766143059199974e+00 5.4072722542253491e+00 3.8372173457007207e+01 0 1 -1
4990 1 2.0824622684217471e+00 9.7865960900025470e+00 4.3712382648245580e+01 1 1 -1
5373 1 3.0845938843005674e+00 6.0039002216387001e+00 4.3369235864419174e+01 0 1 0
115 1 7.4035380845157102e+00 4.8738416346169240e+00 3.9533893672821904e+01 0 1 0
5023 1 7.7544111263309521e+00 3.7421651796533034e-01 3.8396675900099957e+01 1 0 0
5221 1 1.1683376112703023e+01 1.0561229843877040e+00 4.1024294705909575e+01 1 0 0
6121 1 5.5413548648377340e+00 8.9429794936306752e+00 4.2669013568639556e+01 2 1 0
6151 1 1.8164776233742499e+00 4.0097447496737232e-01 3.8635659393713802e+01 0 1 0
3287 1 4.0529317963603004e+00 1.7579832392894279e+00 4.3192269754696014e+01 1 0 -1
1507 1 5.6615631216799370e-02 1.4184672300005992e+00 4.2329620659651674e+01 0 1 -1
379 1 9.1452780406698491e+00 3.1955394105292854e+00 4.3532159675770465e+01 0 1 -1
1552 1 9.4153316773387932e+00 6.1821038827279011e+00 4.3809727821175521e+01 0 0 0
5402 1 1.2177376395315941e+01 6.1905877863757937e+00 3.8254805078057181e+01 -1 1 0
6133 1 9.4903155865317801e-01 6.2697083926274866e+00 4.0888086371217177e+01 1 0 0
4624 1 1.2241381715194260e+01 1.0917670838235351e+01 4.1192822485548504e+01 0 0 0
3161 1 6.3484885379458369e+00 1.0870098892368674e-01 4.2135025778024477e+01 0 1 -1
2183 1 9.2374733845809356e+00 1.1017019604432246e+01 4.3862225653157417e+01 1 1 0
1794 1 1.6695172285393671e+00 4.9281358994794427e-01 4.7692183042486754e+01 1 1 -1
1338 1 2.7567035437242806e+00 3.1320412345634181e+00 4.6968567393385179e+01 0 1 0
15 1 1.0084561423172008e+01 1.0936876387011319e+01 4.7858043357947089e+01 0 1 0
6390 1 1.8035944696890684e+00 6.5373858526097239e-01 4.4746209924701823e+01 -1 1 -1
6303 1 1.3712101078110690e+00 9.5603861677648683e-01 5.0557656770051423e+01 0 1 -1
2018 1 5.8019819380356514e+00 5.8354694082075707e+00 5.0202636609234631e+01 1 -1 -1
3736 1 1.1725079868014838e+00 4.0451125950725686e+00 4.4843928791237786e+01 1 0 0
479 1 6.0352947536935666e+00 6.0883560681920237e+00 4.3944612128593818e+01 0 1 0
452 1 4.8283415752682721e+00 3.3423588318421622e+00 4.5040044701125446e+01 1 0 0