LAMMPS data file via write_data, version 16 Mar 2018, timestep = 6000000

6489 atoms
2 atom types

0.0000000000000000e+00 4.9219999999999999e+01 xlo xhi
0.0000000000000000e+00 4.9019635930410494e+01 ylo yhi
6.4092433157616924e-01 5.9421075668415789e+01 zlo zhi

Masses

1 18.015
2 12.01

Atoms # atomic

6359 1 1.7136745248931564e+00 1.2867573671707360e+00 3.0988738219718375e+00 2 0 1
6111 1 2.1872775102330797e+00 3.6884383125760634e+00 1.4565544980663212e+00 1 2 0
5011 1 7.5397299188097264e+00 3.4188952000567654e+00 1.5430866851877019e+00 0 0 0
459 1 1.2108848364345992e+01 5.7881572981136262e+00 2.8483458155053789e+00 2 0 1
2203 1 9.8198507009007621e+00 2.1263342375094134e+00 2.5709121017852965e+00 2 -1 1
4740 1 3.7870064391813445e+00 5.6428458666660006e+00 2.6511220791155310e+00 1 1 0
95 1 4.1895040706344924e+00 2.6998299072089232e-01 3.7309329607564861e+00 1 1 1
3033 1 1.0958518470545270e+01 1.1665123581913008e+01 3.2739084118637867e+00 -1 0 1
3695 1 6.0719625602060328e+00 4.4791216453332563e+00 3.5673359966079730e+00 0 1 0
5162 1 4.5873757840636857e+00 7.6634616132688063e+00 1.5183653036058475e+00 2 0 0
4493 1 1.0047233585293691e+01 7.3416559352441420e+00 1.6445867749968976e+00 0 0 1
5025 1 8.1355098187185888e+00 1.0499482812938556e+01 7.3650421663519454e+00 0 0 0
4956 1 2.1107247991020683e+00 1.1759173052333562e+01 4.4183084048772976e+00 2 -1 1
4607 1 2.2738380087965835e+00 1.1276139594230875e+01 1.4304864072048451e+00 1 0 1
506 1 4.4177534190381911e+00 1.0195768865057733e+01 5.1103267748265582e+00 2 0 0
3216 1 6.0619083183216844e+00 9.2949658092551264e+00 3.2675123527708627e+00 2 1 0
3009 1 6.7070253208600548e+00 1.1224910631486566e+01 1.5690241292972051e+00 0 1 1
4930 1 9.8771985919690639e+00 9.9609893504167193e+00 5.1789430559192278e+00 1 1 0
5393 1 8.4588358410100071e+00 7.9242315654263642e+00 3.9001187447510626e+00 1 1 0
3770 1 9.7433622489028213e+00 4.6541221287750840e+00 6.2101213110949001e+00 0 0 1
1268 1 3.5208975849424093e+00 2.5704243342593278e+00 7.1039878412228861e+00 1 0 1
4782 1 1.2121535042420593e+01 5.8458821878001723e+00 5.7796193435200012e+00 -1 1 0
246 1 7.5807953311422898e+00 8.7528379714802662e-01 6.1801897591809052e+00 -1 -1 0
4895 1 5.5486581322372093e+00 2.0990677272225757e+00 5.2882792770099725e+00 2 1 1
3264 1 9.8772910964567746e+00 1.9748309639888539e+00 5.2378908181614330e+00 0 0 0
1917 1 2.2250506543874451e-01 7.3151897054380033e+00 1.0020977591839668e+00 4 0 0
5292 1 1.1244531815975574e+00 4.1982526927292465e+00 6.5845474149979770e+00 0 0 0
1602 1 2.0170397294644946e+00 6.2131216135068250e+00 4.9022347953540235e+00 1 1 0
6317 1 5.8805383080930635e+00 6.5115188137464708e+00 7.4936554428132593e+00 -1 1 1
271 1 7.5807446092128243e+00 5.8865443992951132e+00 5.3721745143476252e+00 2 2 0
27 1 3.7142299622901764e+00 7.9979082833925883e+00 6.4607996738339883e+00 0 -1 1
350 1 1.1914726799532890e+01 8.6469138342397809e+00 6.2090754681890052e+00 0 0 0
6187 1 6.1330900042226943e+00 1.1933255699083256e+01 6.4689665527679905e+00 2 0 0
470 1 1.2173117000020707e+01 1.0861733231057604e+01 1.1412281267653408e+00 -1 1 1
3647 1 1.2123259911529978e+01 9.2786401289540565e-01 6.2202639057777684e+00 -1 -1 0
4539 1 3.1551408348405254e+00 6.2658271791394748e-01 8.8934921529982205e+00 2 -1 1
3026 1 1.5479064729700807e+00 1.4095226224181390e+00 1.1026266781048987e+01 -2 2 1
4533 1 7.5322349131331237e+00 3.5837545325681202e+00 1.0117140633393891e+01 1 2 0
555 1 7.6314232053914974e+00 1.0537854864602394e+00 9.0386501699782347e+00 -1 0 1
6406 1 1.5783903084523747e+00 9.5629180152423654e+00 1.3965860183313501e+01 0 -1 0
3063 1 9.3937582021779011e+00 1.1785880911955346e+01 9.4641907467535695e+00 0 3 0
4928 1 1.7242446574980812e+00 6.7135808544552500e+00 1.0203285358143553e+01 1 2 0
5429 1 3.9033499440962940e+00 5.4937530419978211e+00 1.1065648258230079e+01 0 0 1
4865 1 2.1421067001634411e+00 1.1448699093991712e+01 1.1986958099637093e+01 -1 1 1
2948 1 5.2125179278861475e+00 4.4127849323629942e+00 9.0559042941227510e+00 -3 -1 0
85 1 9.4242020373929734e+00 4.9682935417128409e+00 8.8738485485378948e+00 -2 -1 1
1828 1 1.0248757282747242e+01 7.4032321127419394e+00 9.8919008917049620e+00 1 2 0
6297 1 2.2101461901297075e+00 8.8319490477017109e+00 8.4847419923991048e+00 0 3 1
2943 1 3.8256684944037200e+00 1.0477485910243978e+01 1.0069690390903752e+01 0 0 1
4681 1 7.7239151962471571e+00 8.2091777619602500e+00 8.8427511568949839e+00 0 -2 1
387 1 6.2058485839870228e+00 9.3703172550567952e+00 1.0971891575737507e+01 2 0 0
6298 1 8.1564124122007158e+00 1.0881281747503504e+01 1.1805733018441476e+01 0 -1 0
2046 1 1.0406678581745282e+01 9.7846208143291538e+00 1.3371132717100270e+01 1 -3 0
3000 1 3.3744111252426583e+00 3.0832016535531848e+00 1.2438245168361394e+01 0 2 1
3090 1 5.4791042534207008e+00 1.9358370816898203e+00 1.3761609856626643e+01 0 0 0
4781 1 7.5979181975999559e+00 3.5741602298050412e+00 1.3000397135336973e+01 -1 -2 1
1371 1 9.9637804984475782e+00 1.9390801835866935e+00 1.3976156344729663e+01 0 -1 1
4855 1 1.2152003197648812e+01 8.9970950538107299e+00 8.9104373093263991e+00 0 0 1
3419 1 1.9637855105281703e+00 4.0807383820966594e+00 1.4437182763710700e+01 1 -2 0
4517 1 3.7674816339094948e+00 8.0789130848609414e+00 1.4813041458252258e+01 0 1 0
2895 1 5.4300519834660683e+00 7.0614061224458364e+00 1.2554469868115564e+01 0 -1 1
1597 1 7.8094454223924057e+00 6.1229614474406304e+00 1.3610464624640803e+01 1 3 0
2129 1 1.0040912084420253e+01 7.2188961359098620e+00 1.2593226801862398e+01 -1 -1 1
491 1 1.1995576725623705e+01 1.1537441497942760e+01 9.7730104931332846e+00 0 -1 1
1494 1 1.1902647305015730e+01 3.5476399195528079e+00 1.2363211469725883e+01 1 -1 1
6197 1 1.2038392155977368e+01 1.1830380686371109e+00 8.9089560614326029e+00 0 0 1
5383 1 1.2135943044831476e+01 5.9674521014865327e+00 1.3632276432042310e+01 1 -1 0
4598 1 1.1802284235580597e+01 3.8520574520925890e+00 9.6632318519557163e+00 1 1 1
6126 1 4.1257446514214985e-01 7.8349599478903018e+00 1.2380415955947313e+01 2 2 1
192 1 1.2242275781452602e+01 1.1850285481342311e+01 1.2437936193824997e+01 0 0 0
3596 1 6.3968991101098993e-02 1.0189265109727366e+01 8.0091217922629703e+00 -1 -1 0
3079 1 1.2042379894677278e+00 2.1045141849588589e+00 1.6115630736971319e+01 2 0 1
456 1 3.3064244433961294e+00 8.7124441245871320e-01 1.7521843182455573e+01 1 2 1
1562 1 9.9052064767068160e+00 5.1990302386761558e+00 2.0353100183649865e+01 1 3 0
5375 1 5.4146031237207595e+00 2.2031928641976872e+00 1.6527100783751724e+01 -1 0 0
5041 1 8.0556989857440939e+00 9.7477359295228982e-01 1.7030615844458243e+01 2 1 1
3101 1 1.0520650570933080e+01 2.4109071325928966e+00 1.6780861399896764e+01 3 1 1
313 1 1.0088540443553557e+01 1.0319113996756048e+01 2.0706780026063825e+01 2 -3 0
6143 1 3.1879543999159030e+00 5.6365854406967877e+00 1.6108221135404072e+01 1 1 0
5065 1 1.4051795834984544e+00 6.0172346675683013e+00 1.7943879466372749e+01 1 2 0
2064 1 5.7078338771145969e+00 5.0055713870773397e+00 1.6926249312982872e+01 0 -2 0
122 1 8.1348025789265428e+00 6.2454539501618260e+00 1.6205418001673486e+01 0 4 0
5238 1 1.0119721581077995e+01 5.0362405039866953e+00 1.7661280225669152e+01 1 2 0
3285 1 3.4744678464614105e+00 9.3548347996812353e+00 1.9626191900479974e+01 0 0 0
4595 1 9.8160577353231040e-02 3.3374373941191204e+00 1.8223420238845993e+01 1 0 0
1756 1 5.4156349840897313e+00 1.0815533854973589e+01 2.0627912645114044e+01 3 0 0
1791 1 4.6505528853549016e+00 9.4676697064062676e+00 1.6973456138617152e+01 -1 0 0
6276 1 7.4608751503260642e+00 9.0098022781652052e+00 1.7095258772252976e+01 2 0 1
3172 1 9.8504761507132006e+00 1.0410763139393973e+01 1.5910068911403652e+01 -1 -1 0
3524 1 7.7816680687842750e+00 9.0719346153061799e+00 1.9954363143702700e+01 2 1 0
328 1 2.9461967416672610e+00 8.8063855344561048e-01 2.0211090580725049e+01 0 3 0
2990 1 7.7741537657720738e-01 2.5503066468663822e+00 2.0836288037869910e+01 1 1 1
3067 1 5.2736290789824665e+00 2.3077224741647844e+00 2.0622413787751977e+01 1 0 1
4573 1 7.4788652452450268e+00 9.6149380558793884e-01 1.9821406847918027e+01 1 -1 0
35 1 9.4473214514927051e+00 2.5628907037211732e+00 2.1026676415899090e+01 1 -1 1
3786 1 1.3711001609851425e+00 1.0749293073274552e+01 2.0639627074754600e+01 -1 1 1
4588 1 1.4650672560321529e+00 5.2209841770858487e+00 2.1603169474085263e+01 2 0 1
336 1 3.2294160616793044e+00 6.6968320628812164e+00 1.9716130019039102e+01 2 1 0
6127 1 7.7250320939796575e+00 6.5557890338107923e+00 2.0814079076025092e+01 0 0 1
6391 1 5.3471724060907446e+00 4.8714369532150172e+00 1.9489374606548516e+01 2 0 1
6132 1 3.8239452570082801e+00 1.2007776099212286e+01 1.6236437512341531e+01 0 0 1
5134 1 1.2281858389240657e+01 9.0628617027723504e+00 1.9704144546437647e+01 2 -2 0
2925 1 1.2152779046317722e+01 9.1389967719910548e+00 1.6998687883784733e+01 0 0 1
161 1 1.2051553224020834e+01 8.7953410773110363e-01 2.0165869720579522e+01 -1 0 1
4558 1 5.4546758294977937e-01 2.6258446104987616e+00 2.3666460284554571e+01 1 0 1
1525 1 2.7628043706859269e+00 1.2340705851654765e+00 2.4255620036563268e+01 0 -1 0
44 1 5.2051572066824061e+00 2.7508981616071875e+00 2.3472530493154881e+01 3 1 0
1648 1 7.1628086303516296e+00 1.3747526519766862e+00 2.4490184961395222e+01 1 0 0
2986 1 9.4490060084945213e+00 2.6026707853391366e+00 2.3874559644196687e+01 0 -2 1
750 2 9.8440000000000012e+00 8.5251540748539956e+00 2.6720734073546037e+01 0 0 0
2178 1 1.1350709001042862e+00 5.4185840603422841e+00 2.4432737819895458e+01 0 0 1
6102 1 3.3802802788778998e+00 6.8990682062806084e+00 2.3787549308584236e+01 -1 2 0
3477 1 5.4524135592893925e+00 5.2779833029198908e+00 2.4294563667877441e+01 2 1 0
3170 1 7.6320031827970185e+00 6.6244086638391471e+00 2.3784551333247308e+01 0 -1 1
98 1 9.9417342183042532e+00 5.1000160005199744e+00 2.4315241906656258e+01 -2 -1 0
795 2 1.2304999999999998e+01 1.1366872099805333e+01 2.6720734073546037e+01 0 0 0
3710 1 3.3101507023803194e+00 9.6592627216745068e+00 2.4215572845799258e+01 -1 0 1
2209 1 9.5177448605754933e-01 1.0953666402091311e+01 2.3542582536792452e+01 3 3 0
1474 1 5.8254279473853439e+00 1.1313203175968049e+01 2.3273858361849936e+01 1 0 1
4924 1 7.9017452501868091e+00 9.6868728608475969e+00 2.4319689753764436e+01 0 0 1
5267 1 1.0156204135030825e+01 1.0680133921390803e+01 2.3468221897387920e+01 1 2 0
705 2 8.6134999999999984e+00 9.2355835810918343e+00 2.6720734073546037e+01 0 0 0
572 2 0.0000000000000000e+00 2.8417180249513345e+00 2.6720734073546037e+01 0 0 0
574 2 0.0000000000000000e+00 0.0000000000000000e+00 2.6720734073546037e+01 0 0 0
576 2 1.2305000000000001e+00 7.1042950623783474e-01 2.6720734073546037e+01 0 0 0
583 2 1.2305000000000001e+00 2.1312885187134998e+00 2.6720734073546037e+01 0 0 0
585 2 2.4610000000000003e+00 2.8417180249513345e+00 2.6720734073546037e+01 0 0 0
587 2 2.4610000000000003e+00 0.0000000000000000e+00 2.6720734073546037e+01 0 0 0
589 2 3.6915000000000004e+00 7.1042950623783474e-01 2.6720734073546037e+01 0 0 0
604 2 3.6914999999999996e+00 2.1312885187134998e+00 2.6720734073546037e+01 0 0 0
606 2 4.9220000000000006e+00 2.8417180249513332e+00 2.6720734073546037e+01 0 0 0
608 2 4.9220000000000006e+00 0.0000000000000000e+00 2.6720734073546037e+01 0 0 0
610 2 6.1524999999999999e+00 7.1042950623783407e-01 2.6720734073546037e+01 0 0 0
633 2 6.1524999999999999e+00 2.1312885187134989e+00 2.6720734073546037e+01 0 0 0
635 2 7.3829999999999991e+00 2.8417180249513345e+00 2.6720734073546037e+01 0 0 0
637 2 7.3829999999999991e+00 0.0000000000000000e+00 2.6720734073546037e+01 0 0 0
639 2 8.6134999999999984e+00 7.1042950623783407e-01 2.6720734073546037e+01 0 0 0
670 2 8.6134999999999984e+00 2.1312885187135002e+00 2.6720734073546037e+01 0 0 0
672 2 9.8440000000000012e+00 2.8417180249513332e+00 2.6720734073546037e+01 0 0 0
674 2 9.8440000000000012e+00 0.0000000000000000e+00 2.6720734073546037e+01 0 0 0
676 2 1.1074500000000002e+01 7.1042950623783330e-01 2.6720734073546037e+01 0 0 0
715 2 1.1074500000000002e+01 2.1312885187135002e+00 2.6720734073546037e+01 0 0 0
579 2 0.0000000000000000e+00 4.2625770374269996e+00 2.6720734073546037e+01 0 0 0
581 2 1.2305000000000001e+00 4.9730065436648339e+00 2.6720734073546037e+01 0 0 0
596 2 1.2305000000000001e+00 6.3938655561404980e+00 2.6720734073546037e+01 0 0 0
600 2 2.4610000000000003e+00 4.2625770374269996e+00 2.6720734073546037e+01 0 0 0
602 2 3.6914999999999996e+00 4.9730065436648339e+00 2.6720734073546037e+01 0 0 0
625 2 3.6914999999999996e+00 6.3938655561404980e+00 2.6720734073546037e+01 0 0 0
577 2 0.0000000000000000e+00 7.1042950623783341e+00 2.6720734073546037e+01 0 0 0
598 2 2.4610000000000003e+00 7.1042950623783341e+00 2.6720734073546037e+01 0 0 0
629 2 4.9220000000000006e+00 4.2625770374269978e+00 2.6720734073546037e+01 0 0 0
631 2 6.1524999999999999e+00 4.9730065436648339e+00 2.6720734073546037e+01 0 0 0
662 2 6.1524999999999999e+00 6.3938655561404980e+00 2.6720734073546037e+01 0 0 0
666 2 7.3829999999999991e+00 4.2625770374269996e+00 2.6720734073546037e+01 0 0 0
627 2 4.9220000000000006e+00 7.1042950623783341e+00 2.6720734073546037e+01 0 0 0
664 2 7.3830000000000009e+00 7.1042950623783341e+00 2.6720734073546037e+01 0 0 0
668 2 8.6135000000000002e+00 4.9730065436648339e+00 2.6720734073546037e+01 0 0 0
707 2 8.6135000000000002e+00 6.3938655561404980e+00 2.6720734073546037e+01 0 0 0
711 2 9.8440000000000012e+00 4.2625770374270004e+00 2.6720734073546037e+01 0 0 0
713 2 1.1074500000000002e+01 4.9730065436648339e+00 2.6720734073546037e+01 0 0 0
754 2 1.1074500000000002e+01 6.3938655561404980e+00 2.6720734073546037e+01 0 0 0
709 2 9.8440000000000012e+00 7.1042950623783341e+00 2.6720734073546037e+01 0 0 0
592 2 0.0000000000000000e+00 8.5251540748539991e+00 2.6720734073546037e+01 0 0 0
594 2 1.2305000000000001e+00 9.2355835810918343e+00 2.6720734073546037e+01 0 0 0
621 2 2.4610000000000003e+00 8.5251540748539991e+00 2.6720734073546037e+01 0 0 0
623 2 3.6915000000000004e+00 9.2355835810918343e+00 2.6720734073546037e+01 0 0 0
590 2 0.0000000000000000e+00 1.1366872099805333e+01 2.6720734073546037e+01 0 0 0
617 2 1.2305000000000001e+00 1.0656442593567498e+01 2.6720734073546037e+01 0 0 0
619 2 2.4610000000000003e+00 1.1366872099805333e+01 2.6720734073546037e+01 0 0 0
654 2 3.6914999999999996e+00 1.0656442593567499e+01 2.6720734073546037e+01 0 0 0
703 2 7.3830000000000009e+00 8.5251540748539991e+00 2.6720734073546037e+01 0 0 0
656 2 4.9220000000000006e+00 1.1366872099805333e+01 2.6720734073546037e+01 0 0 0
699 2 6.1524999999999999e+00 1.0656442593567499e+01 2.6720734073546037e+01 0 0 0
701 2 7.3829999999999991e+00 1.1366872099805333e+01 2.6720734073546037e+01 0 0 0
658 2 4.9220000000000006e+00 8.5251540748539991e+00 2.6720734073546037e+01 0 0 0
660 2 6.1524999999999999e+00 9.2355835810918343e+00 2.6720734073546037e+01 0 0 0
748 2 9.8440000000000012e+00 1.1366872099805333e+01 2.6720734073546037e+01 0 0 0
746 2 8.6134999999999984e+00 1.0656442593567498e+01 2.6720734073546037e+01 0 0 0
752 2 1.1074500000000002e+01 9.2355835810918343e+00 2.6720734073546037e+01 0 0 0
793 2 1.1074500000000002e+01 1.0656442593567498e+01 2.6720734073546037e+01 0 0 0
1354 1 1.1956551250188559e+01 1.3325698277002129e+00 2.4192952788913587e+01 2 0 1
3555 1 1.2057937122844185e+01 6.5879726027269783e+00 2.3440538968089992e+01 2 0 1
573 2 0.0000000000000000e+00 1.4208590124756650e+00 3.0030999999996439e+01 0 0 0
575 2 0.0000000000000000e+00 0.0000000000000000e+00 3.0030999999996439e+01 0 0 0
584 2 1.2305000000000001e+00 2.1312885187134998e+00 3.0030999999996439e+01 0 0 0
586 2 2.4610000000000003e+00 1.4208590124756650e+00 3.0030999999996439e+01 0 0 0
588 2 2.4610000000000003e+00 0.0000000000000000e+00 3.0030999999996439e+01 0 0 0
605 2 3.6914999999999996e+00 2.1312885187134998e+00 3.0030999999996439e+01 0 0 0
582 2 1.2305000000000001e+00 3.5521475311891644e+00 3.0030999999996439e+01 0 0 0
603 2 3.6914999999999996e+00 3.5521475311891644e+00 3.0030999999996439e+01 0 0 0
901 2 0.0000000000000000e+00 2.8417180249513345e+00 3.3341265926422210e+01 0 0 0
902 2 0.0000000000000000e+00 0.0000000000000000e+00 3.3341265926422210e+01 0 0 0
903 2 1.2305000000000001e+00 7.1042950623783474e-01 3.3341265926422210e+01 0 0 0
907 2 1.2305000000000001e+00 2.1312885187134998e+00 3.3341265926422210e+01 0 0 0
908 2 2.4610000000000003e+00 2.8417180249513345e+00 3.3341265926422210e+01 0 0 0
909 2 2.4610000000000003e+00 0.0000000000000000e+00 3.3341265926422210e+01 0 0 0
910 2 3.6915000000000004e+00 7.1042950623783474e-01 3.3341265926422210e+01 0 0 0
918 2 3.6914999999999996e+00 2.1312885187134998e+00 3.3341265926422210e+01 0 0 0
607 2 4.9220000000000006e+00 1.4208590124756650e+00 3.0030999999996439e+01 0 0 0
609 2 4.9220000000000006e+00 0.0000000000000000e+00 3.0030999999996439e+01 0 0 0
634 2 6.1524999999999999e+00 2.1312885187134989e+00 3.0030999999996439e+01 0 0 0
636 2 7.3829999999999991e+00 1.4208590124756659e+00 3.0030999999996439e+01 0 0 0
638 2 7.3829999999999991e+00 0.0000000000000000e+00 3.0030999999996439e+01 0 0 0
632 2 6.1524999999999999e+00 3.5521475311891644e+00 3.0030999999996439e+01 0 0 0
919 2 4.9220000000000006e+00 2.8417180249513332e+00 3.3341265926422210e+01 0 0 0
920 2 4.9220000000000006e+00 0.0000000000000000e+00 3.3341265926422210e+01 0 0 0
921 2 6.1524999999999999e+00 7.1042950623783407e-01 3.3341265926422210e+01 0 0 0
933 2 6.1524999999999999e+00 2.1312885187134989e+00 3.3341265926422210e+01 0 0 0
934 2 7.3829999999999991e+00 2.8417180249513345e+00 3.3341265926422210e+01 0 0 0
935 2 7.3829999999999991e+00 0.0000000000000000e+00 3.3341265926422210e+01 0 0 0
671 2 8.6134999999999984e+00 2.1312885187135002e+00 3.0030999999996439e+01 0 0 0
673 2 9.8440000000000012e+00 1.4208590124756659e+00 3.0030999999996439e+01 0 0 0
675 2 9.8440000000000012e+00 0.0000000000000000e+00 3.0030999999996439e+01 0 0 0
716 2 1.1074500000000002e+01 2.1312885187135002e+00 3.0030999999996439e+01 0 0 0
669 2 8.6134999999999984e+00 3.5521475311891657e+00 3.0030999999996439e+01 0 0 0
714 2 1.1074500000000002e+01 3.5521475311891644e+00 3.0030999999996439e+01 0 0 0
936 2 8.6134999999999984e+00 7.1042950623783407e-01 3.3341265926422210e+01 0 0 0
952 2 8.6134999999999984e+00 2.1312885187135002e+00 3.3341265926422210e+01 0 0 0
953 2 9.8440000000000012e+00 2.8417180249513332e+00 3.3341265926422210e+01 0 0 0
954 2 9.8440000000000012e+00 0.0000000000000000e+00 3.3341265926422210e+01 0 0 0
955 2 1.1074500000000002e+01 7.1042950623783330e-01 3.3341265926422210e+01 0 0 0
975 2 1.1074500000000002e+01 2.1312885187135002e+00 3.3341265926422210e+01 0 0 0
578 2 0.0000000000000000e+00 5.6834360499026637e+00 3.0030999999996439e+01 0 0 0
580 2 0.0000000000000000e+00 4.2625770374269996e+00 3.0030999999996439e+01 0 0 0
597 2 1.2305000000000001e+00 6.3938655561404980e+00 3.0030999999996439e+01 0 0 0
599 2 2.4610000000000003e+00 5.6834360499026637e+00 3.0030999999996439e+01 0 0 0
601 2 2.4610000000000003e+00 4.2625770374269996e+00 3.0030999999996439e+01 0 0 0
626 2 3.6914999999999996e+00 6.3938655561404980e+00 3.0030999999996439e+01 0 0 0
595 2 1.2305000000000001e+00 7.8147245686161639e+00 3.0030999999996439e+01 0 0 0
624 2 3.6914999999999996e+00 7.8147245686161639e+00 3.0030999999996439e+01 0 0 0
905 2 0.0000000000000000e+00 4.2625770374269996e+00 3.3341265926422210e+01 0 0 0
906 2 1.2305000000000001e+00 4.9730065436648339e+00 3.3341265926422210e+01 0 0 0
914 2 1.2305000000000001e+00 6.3938655561404980e+00 3.3341265926422210e+01 0 0 0
916 2 2.4610000000000003e+00 4.2625770374269996e+00 3.3341265926422210e+01 0 0 0
917 2 3.6914999999999996e+00 4.9730065436648339e+00 3.3341265926422210e+01 0 0 0
929 2 3.6914999999999996e+00 6.3938655561404980e+00 3.3341265926422210e+01 0 0 0
904 2 0.0000000000000000e+00 7.1042950623783341e+00 3.3341265926422210e+01 0 0 0
915 2 2.4610000000000003e+00 7.1042950623783341e+00 3.3341265926422210e+01 0 0 0
628 2 4.9220000000000006e+00 5.6834360499026637e+00 3.0030999999996439e+01 0 0 0
630 2 4.9220000000000006e+00 4.2625770374269978e+00 3.0030999999996439e+01 0 0 0
663 2 6.1524999999999999e+00 6.3938655561404980e+00 3.0030999999996439e+01 0 0 0
665 2 7.3829999999999991e+00 5.6834360499026637e+00 3.0030999999996439e+01 0 0 0
667 2 7.3829999999999991e+00 4.2625770374269996e+00 3.0030999999996439e+01 0 0 0
661 2 6.1524999999999999e+00 7.8147245686161639e+00 3.0030999999996439e+01 0 0 0
931 2 4.9220000000000006e+00 4.2625770374269978e+00 3.3341265926422210e+01 0 0 0
932 2 6.1524999999999999e+00 4.9730065436648339e+00 3.3341265926422210e+01 0 0 0
948 2 6.1524999999999999e+00 6.3938655561404980e+00 3.3341265926422210e+01 0 0 0
950 2 7.3829999999999991e+00 4.2625770374269996e+00 3.3341265926422210e+01 0 0 0
930 2 4.9220000000000006e+00 7.1042950623783341e+00 3.3341265926422210e+01 0 0 0
949 2 7.3830000000000009e+00 7.1042950623783341e+00 3.3341265926422210e+01 0 0 0
708 2 8.6135000000000002e+00 6.3938655561404980e+00 3.0030999999996439e+01 0 0 0
710 2 9.8440000000000012e+00 5.6834360499026637e+00 3.0030999999996439e+01 0 0 0
712 2 9.8440000000000012e+00 4.2625770374270004e+00 3.0030999999996439e+01 0 0 0
755 2 1.1074500000000002e+01 6.3938655561404980e+00 3.0030999999996439e+01 0 0 0
706 2 8.6135000000000002e+00 7.8147245686161639e+00 3.0030999999996439e+01 0 0 0
753 2 1.1074500000000002e+01 7.8147245686161639e+00 3.0030999999996439e+01 0 0 0
951 2 8.6135000000000002e+00 4.9730065436648339e+00 3.3341265926422210e+01 0 0 0
971 2 8.6135000000000002e+00 6.3938655561404980e+00 3.3341265926422210e+01 0 0 0
973 2 9.8440000000000012e+00 4.2625770374270004e+00 3.3341265926422210e+01 0 0 0
974 2 1.1074500000000002e+01 4.9730065436648339e+00 3.3341265926422210e+01 0 0 0
995 2 1.1074500000000002e+01 6.3938655561404980e+00 3.3341265926422210e+01 0 0 0
972 2 9.8440000000000012e+00 7.1042950623783341e+00 3.3341265926422210e+01 0 0 0
591 2 0.0000000000000000e+00 9.9460130873296642e+00 3.0030999999996439e+01 0 0 0
593 2 0.0000000000000000e+00 8.5251540748539991e+00 3.0030999999996439e+01 0 0 0
620 2 2.4610000000000003e+00 9.9460130873296642e+00 3.0030999999996439e+01 0 0 0
622 2 2.4610000000000003e+00 8.5251540748539991e+00 3.0030999999996439e+01 0 0 0
616 2 1.2305000000000001e+00 1.2077301606043163e+01 3.0030999999996439e+01 0 0 0
618 2 1.2305000000000001e+00 1.0656442593567498e+01 3.0030999999996439e+01 0 0 0
653 2 3.6914999999999996e+00 1.2077301606043163e+01 3.0030999999996439e+01 0 0 0
655 2 3.6914999999999996e+00 1.0656442593567499e+01 3.0030999999996439e+01 0 0 0
912 2 0.0000000000000000e+00 8.5251540748539991e+00 3.3341265926422210e+01 0 0 0
913 2 1.2305000000000001e+00 9.2355835810918343e+00 3.3341265926422210e+01 0 0 0
927 2 2.4610000000000003e+00 8.5251540748539991e+00 3.3341265926422210e+01 0 0 0
928 2 3.6915000000000004e+00 9.2355835810918343e+00 3.3341265926422210e+01 0 0 0
911 2 0.0000000000000000e+00 1.1366872099805333e+01 3.3341265926422210e+01 0 0 0
925 2 1.2305000000000001e+00 1.0656442593567498e+01 3.3341265926422210e+01 0 0 0
926 2 2.4610000000000003e+00 1.1366872099805333e+01 3.3341265926422210e+01 0 0 0
944 2 3.6914999999999996e+00 1.0656442593567499e+01 3.3341265926422210e+01 0 0 0
657 2 4.9220000000000006e+00 9.9460130873296642e+00 3.0030999999996439e+01 0 0 0
659 2 4.9220000000000006e+00 8.5251540748539991e+00 3.0030999999996439e+01 0 0 0
702 2 7.3830000000000009e+00 9.9460130873296642e+00 3.0030999999996439e+01 0 0 0
704 2 7.3830000000000009e+00 8.5251540748539991e+00 3.0030999999996439e+01 0 0 0
698 2 6.1524999999999999e+00 1.2077301606043163e+01 3.0030999999996439e+01 0 0 0
700 2 6.1524999999999999e+00 1.0656442593567499e+01 3.0030999999996439e+01 0 0 0
946 2 4.9220000000000006e+00 8.5251540748539991e+00 3.3341265926422210e+01 0 0 0
947 2 6.1524999999999999e+00 9.2355835810918343e+00 3.3341265926422210e+01 0 0 0
969 2 7.3830000000000009e+00 8.5251540748539991e+00 3.3341265926422210e+01 0 0 0
945 2 4.9220000000000006e+00 1.1366872099805333e+01 3.3341265926422210e+01 0 0 0
967 2 6.1524999999999999e+00 1.0656442593567499e+01 3.3341265926422210e+01 0 0 0
968 2 7.3829999999999991e+00 1.1366872099805333e+01 3.3341265926422210e+01 0 0 0
749 2 9.8440000000000012e+00 9.9460130873296642e+00 3.0030999999996439e+01 0 0 0
751 2 9.8440000000000012e+00 8.5251540748539956e+00 3.0030999999996439e+01 0 0 0
745 2 8.6135000000000002e+00 1.2077301606043163e+01 3.0030999999996439e+01 0 0 0
747 2 8.6134999999999984e+00 1.0656442593567498e+01 3.0030999999996439e+01 0 0 0
792 2 1.1074500000000002e+01 1.2077301606043163e+01 3.0030999999996439e+01 0 0 0
794 2 1.1074500000000002e+01 1.0656442593567498e+01 3.0030999999996439e+01 0 0 0
970 2 8.6134999999999984e+00 9.2355835810918343e+00 3.3341265926422210e+01 0 0 0
993 2 9.8440000000000012e+00 8.5251540748539956e+00 3.3341265926422210e+01 0 0 0
994 2 1.1074500000000002e+01 9.2355835810918343e+00 3.3341265926422210e+01 0 0 0
991 2 8.6134999999999984e+00 1.0656442593567498e+01 3.3341265926422210e+01 0 0 0
992 2 9.8440000000000012e+00 1.1366872099805333e+01 3.3341265926422210e+01 0 0 0
1015 2 1.1074500000000002e+01 1.0656442593567498e+01 3.3341265926422210e+01 0 0 0
1016 2 1.2304999999999998e+01 1.1366872099805333e+01 3.3341265926422210e+01 0 0 0
165 1 5.2827423889902754e+00 2.8631401423580098e+00 3.6647727520786660e+01 0 2 -1
1423 1 1.1332719889392067e+01 1.0186835994326888e+01 3.6022489457407801e+01 -1 -1 0
294 1 3.5424538521398170e+00 9.0064997066283770e-01 3.5607573410027697e+01 -1 2 -1
3679 1 9.7875812850203427e+00 2.6405482144023820e+00 3.6068202639215926e+01 -1 1 0
4831 1 1.0897707437480840e+01 5.2897909037732713e+00 3.6239692690146668e+01 -1 1 -1
3769 1 1.3245372439999692e+00 6.0020384459459883e+00 3.6010186318339734e+01 -1 -2 -1
3800 1 4.1885042395960053e+00 5.2743596031536359e+00 3.6592251312318567e+01 2 1 0
4584 1 6.1017107214780015e+00 6.6344782708560857e+00 3.5587945668019685e+01 0 0 0
3044 1 8.3711218313415419e+00 1.0810210640766881e+01 3.5775013237004757e+01 0 0 0
6196 1 5.9338382699957366e+00 9.3720158485857699e+00 3.6065495451030074e+01 0 1 0
1805 1 1.3391829481804747e+00 8.9744539995603123e+00 3.6010137395294990e+01 2 2 0
5424 1 3.5659186739613467e+00 1.0476142970181778e+01 3.6016004177559964e+01 -1 2 0
4579 1 9.3740199434039240e-01 3.1946309001733197e-01 3.6251348684313285e+01 2 0 0
449 1 1.2088763170654349e+01 1.3277213303421926e+00 3.6104836552267940e+01 3 1 -1
4660 1 8.7156438539789995e+00 6.8600337787589041e+00 3.6075541889296503e+01 1 -1 0
2115 1 8.3233237422652562e-01 1.1287330289419191e+00 3.8902209368091192e+01 1 3 0
4877 1 6.6248755480218584e+00 3.2947579179429756e+00 4.0331622370967736e+01 2 1 -1
528 1 7.5624082218489308e+00 1.9963030149556318e+00 3.7773231833320708e+01 1 2 0
3541 1 1.0299717633306534e+01 2.2781158185774624e+00 3.9335927979810975e+01 1 -2 0
6392 1 2.5125501977023168e+00 5.7829812019296103e+00 4.4592929725862916e+01 0 0 0
2953 1 3.2890237173097985e+00 5.0309659228808394e+00 3.9192676315354433e+01 0 1 -1
1835 1 1.1913376847250046e+00 6.5097315047465587e+00 3.8777253433609729e+01 1 0 -1
2870 1 4.5418400617461403e+00 6.9268215419302370e+00 4.0694990571346210e+01 0 0 0
9 1 8.5915380590861847e+00 8.8290015363215719e+00 3.8129280910524457e+01 3 2 0
455 1 9.0196943487738981e+00 7.5037557544450362e+00 4.0649626031160750e+01 0 1 -1
6107 1 5.4801221635479882e+00 1.1569421025260901e+01 4.3349598073129599e+01 -2 0 0
1906 1 1.0448600431679593e+00 9.3338008067568214e+00 3.9294118535489091e+01 1 3 -1
5306 1 3.5445493806650643e+00 1.0622080085408310e+01 3.8756784013013188e+01 0 -1 0
1892 1 5.8292132994435306e+00 9.1665482035773636e+00 3.9262519743025422e+01 1 -1 -1
6204 1 7.0642395921088692e+00 1.1093373589492462e+01 4.1106767176222817e+01 -1 0 -1
3754 1 9.4253776018239570e+00 1.0059271769028959e+01 4.1651383685524422e+01 1 1 0
1315 1 1.0625790208874431e+01 1.0940341983659813e+01 3.9097675310696445e+01 0 1 0
6125 1 2.3364303313034176e+00 2.9235547623886857e+00 4.0642185810765199e+01 3 0 0
3240 1 1.0122776717340560e+00 4.1076178488061865e+00 4.2916124170019657e+01 1 2 0
6442 1 1.1833307428862380e+01 4.3820708233033088e+00 3.9040288582884713e+01 -1 1 -1
1976 1 4.5090198261161714e+00 1.9680810402272424e+00 4.1695015764366801e+01 2 0 0
24 1 5.0105661655706832e+00 1.9857062160876815e+00 4.4446694191878109e+01 -1 0 -1
5317 1 9.0983626609525210e+00 2.3270620404506195e+00 4.1752112805677129e+01 1 2 -1
4724 1 1.0786906205210826e+01 4.0170184536228177e+00 4.3239294324024087e+01 0 1 0
3556 1 3.0909952823923015e+00 7.9424985803528596e+00 4.2861816411611784e+01 0 1 -1
3200 1 9.1991116423090791e+00 9.8824545150465788e+00 4.4598873587824258e+01 2 0 0
4840 1 7.1728546645646185e+00 5.7074807962049414e+00 4.4321569280807950e+01 1 1 0
3799 1 7.0889935228004584e+00 5.9150901363837409e+00 4.1453221517225771e+01 1 0 -1
213 1 1.1435753541899050e+01 6.0917559422463228e+00 4.1336893650600743e+01 -1 -1 -1
1635 1 1.2123401556116422e+00 9.6907571083436270e+00 4.2062622585371685e+01 -1 1 0
185 1 1.2147114127179647e+01 1.2675563158001435e-01 3.8882377631291376e+01 -1 -1 0
5385 1 8.2083490545599371e+00 5.6778199875431312e-02 4.3371269930028745e+01 -2 1 0
4490 1 4.5718123122517378e+00 9.2860381499233693e+00 4.4701857527041298e+01 1 0 0
3084 1 2.3497565533744620e+00 9.3161087677124033e-01 4.5541364958532029e+01 0 2 0
3611 1 7.1137120330357879e+00 8.7286791928825136e-01 4.5638181375465422e+01 2 0 0
1681 1 8.3977590269826621e+00 2.5790415894913910e+00 4.7210974649641031e+01 -1 -1 -1
4609 1 1.0709793521503277e+01 1.0794549538301168e+00 4.7878964928364297e+01 -1 0 0
6413 1 1.0166513867750693e+00 6.8551738086198561e+00 4.6769158322278088e+01 1 1 0
1983 1 1.0822208852872496e+01 9.1013153701651888e+00 5.0571517938413280e+01 0 -1 -1
1388 1 4.6615845864868923e+00 4.5478556653058524e+00 4.5121833014028894e+01 0 1 -1
5174 1 4.6723323373932697e+00 4.5988282173541721e+00 4.7858218246800092e+01 0 0 -1
5066 1 1.0668342568178240e+01 6.4698161158063900e+00 4.6816106646677341e+01 1 1 -1
3706 1 9.3424276277636515e+00 4.5285726480424415e+00 4.5507084482428354e+01 2 2 0
1556 1 3.0259482851346116e+00 1.0390529827329678e+01 4.6668673501485486e+01 -1 0 0
354 1 2.2276803184142513e+00 8.5539853292080803e+00 4.8548197155720700e+01 2 2 -1