LAMMPS data file via write_data, version 16 Mar 2018, timestep = 100000

4078 atoms
2 atom types

0.0000000000000000e+00 4.9219999999999999e+01 xlo xhi
0.0000000000000000e+00 4.9019635930410494e+01 ylo yhi
1.4391163715752207e+00 2.6500883628425598e+01 zlo zhi

Masses

1 18.015
2 12.01

Atoms # atomic

52 2 0.0000000000000000e+00 2.8417180249513345e+00 3.1764110045273419e+00 0 0 0
54 2 0.0000000000000000e+00 0.0000000000000000e+00 3.1764110045273419e+00 0 0 0
56 2 1.2305000000000001e+00 7.1042950623783474e-01 3.1764110045273419e+00 0 0 0
63 2 1.2305000000000001e+00 2.1312885187134998e+00 3.1764110045273419e+00 0 0 0
65 2 2.4610000000000003e+00 2.8417180249513345e+00 3.1764110045273419e+00 0 0 0
67 2 2.4610000000000003e+00 0.0000000000000000e+00 3.1764110045273419e+00 0 0 0
69 2 3.6915000000000004e+00 7.1042950623783474e-01 3.1764110045273419e+00 0 0 0
84 2 3.6914999999999996e+00 2.1312885187134998e+00 3.1764110045273419e+00 0 0 0
86 2 4.9220000000000006e+00 2.8417180249513332e+00 3.1764110045273419e+00 0 0 0
88 2 4.9220000000000006e+00 0.0000000000000000e+00 3.1764110045273419e+00 0 0 0
90 2 6.1524999999999999e+00 7.1042950623783407e-01 3.1764110045273419e+00 0 0 0
113 2 6.1524999999999999e+00 2.1312885187134989e+00 3.1764110045273419e+00 0 0 0
115 2 7.3829999999999991e+00 2.8417180249513345e+00 3.1764110045273419e+00 0 0 0
117 2 7.3829999999999991e+00 0.0000000000000000e+00 3.1764110045273419e+00 0 0 0
119 2 8.6134999999999984e+00 7.1042950623783407e-01 3.1764110045273419e+00 0 0 0
150 2 8.6134999999999984e+00 2.1312885187135002e+00 3.1764110045273419e+00 0 0 0
152 2 9.8440000000000012e+00 2.8417180249513332e+00 3.1764110045273419e+00 0 0 0
154 2 9.8440000000000012e+00 0.0000000000000000e+00 3.1764110045273419e+00 0 0 0
156 2 1.1074500000000002e+01 7.1042950623783330e-01 3.1764110045273419e+00 0 0 0
195 2 1.1074500000000002e+01 2.1312885187135002e+00 3.1764110045273419e+00 0 0 0
59 2 0.0000000000000000e+00 4.2625770374269996e+00 3.1764110045273419e+00 0 0 0
61 2 1.2305000000000001e+00 4.9730065436648339e+00 3.1764110045273419e+00 0 0 0
76 2 1.2305000000000001e+00 6.3938655561404980e+00 3.1764110045273419e+00 0 0 0
80 2 2.4610000000000003e+00 4.2625770374269996e+00 3.1764110045273419e+00 0 0 0
82 2 3.6914999999999996e+00 4.9730065436648339e+00 3.1764110045273419e+00 0 0 0
105 2 3.6914999999999996e+00 6.3938655561404980e+00 3.1764110045273419e+00 0 0 0
57 2 0.0000000000000000e+00 7.1042950623783341e+00 3.1764110045273419e+00 0 0 0
78 2 2.4610000000000003e+00 7.1042950623783341e+00 3.1764110045273419e+00 0 0 0
109 2 4.9220000000000006e+00 4.2625770374269978e+00 3.1764110045273419e+00 0 0 0
111 2 6.1524999999999999e+00 4.9730065436648339e+00 3.1764110045273419e+00 0 0 0
142 2 6.1524999999999999e+00 6.3938655561404980e+00 3.1764110045273419e+00 0 0 0
146 2 7.3829999999999991e+00 4.2625770374269996e+00 3.1764110045273419e+00 0 0 0
107 2 4.9220000000000006e+00 7.1042950623783341e+00 3.1764110045273419e+00 0 0 0
144 2 7.3830000000000009e+00 7.1042950623783341e+00 3.1764110045273419e+00 0 0 0
148 2 8.6135000000000002e+00 4.9730065436648339e+00 3.1764110045273419e+00 0 0 0
187 2 8.6135000000000002e+00 6.3938655561404980e+00 3.1764110045273419e+00 0 0 0
191 2 9.8440000000000012e+00 4.2625770374270004e+00 3.1764110045273419e+00 0 0 0
193 2 1.1074500000000002e+01 4.9730065436648339e+00 3.1764110045273419e+00 0 0 0
234 2 1.1074500000000002e+01 6.3938655561404980e+00 3.1764110045273419e+00 0 0 0
189 2 9.8440000000000012e+00 7.1042950623783341e+00 3.1764110045273419e+00 0 0 0
72 2 0.0000000000000000e+00 8.5251540748539991e+00 3.1764110045273419e+00 0 0 0
74 2 1.2305000000000001e+00 9.2355835810918343e+00 3.1764110045273419e+00 0 0 0
101 2 2.4610000000000003e+00 8.5251540748539991e+00 3.1764110045273419e+00 0 0 0
103 2 3.6915000000000004e+00 9.2355835810918343e+00 3.1764110045273419e+00 0 0 0
70 2 0.0000000000000000e+00 1.1366872099805333e+01 3.1764110045273419e+00 0 0 0
97 2 1.2305000000000001e+00 1.0656442593567498e+01 3.1764110045273419e+00 0 0 0
99 2 2.4610000000000003e+00 1.1366872099805333e+01 3.1764110045273419e+00 0 0 0
134 2 3.6914999999999996e+00 1.0656442593567499e+01 3.1764110045273419e+00 0 0 0
138 2 4.9220000000000006e+00 8.5251540748539991e+00 3.1764110045273419e+00 0 0 0
140 2 6.1524999999999999e+00 9.2355835810918343e+00 3.1764110045273419e+00 0 0 0
183 2 7.3830000000000009e+00 8.5251540748539991e+00 3.1764110045273419e+00 0 0 0
136 2 4.9220000000000006e+00 1.1366872099805333e+01 3.1764110045273419e+00 0 0 0
179 2 6.1524999999999999e+00 1.0656442593567499e+01 3.1764110045273419e+00 0 0 0
181 2 7.3829999999999991e+00 1.1366872099805333e+01 3.1764110045273419e+00 0 0 0
185 2 8.6134999999999984e+00 9.2355835810918343e+00 3.1764110045273419e+00 0 0 0
230 2 9.8440000000000012e+00 8.5251540748539956e+00 3.1764110045273419e+00 0 0 0
232 2 1.1074500000000002e+01 9.2355835810918343e+00 3.1764110045273419e+00 0 0 0
226 2 8.6134999999999984e+00 1.0656442593567498e+01 3.1764110045273419e+00 0 0 0
228 2 9.8440000000000012e+00 1.1366872099805333e+01 3.1764110045273419e+00 0 0 0
273 2 1.1074500000000002e+01 1.0656442593567498e+01 3.1764110045273419e+00 0 0 0
275 2 1.2304999999999998e+01 1.1366872099805333e+01 3.1764110045273419e+00 0 0 0
53 2 0.0000000000000000e+00 1.4208590124756650e+00 6.1213144040899312e+00 0 0 0
55 2 0.0000000000000000e+00 0.0000000000000000e+00 6.1213144040899312e+00 0 0 0
64 2 1.2305000000000001e+00 2.1312885187134998e+00 6.1213144040899312e+00 0 0 0
66 2 2.4610000000000003e+00 1.4208590124756650e+00 6.1213144040899312e+00 0 0 0
68 2 2.4610000000000003e+00 0.0000000000000000e+00 6.1213144040899312e+00 0 0 0
85 2 3.6914999999999996e+00 2.1312885187134998e+00 6.1213144040899312e+00 0 0 0
381 2 0.0000000000000000e+00 2.8417180249513345e+00 9.0662178036523500e+00 0 0 0
382 2 0.0000000000000000e+00 0.0000000000000000e+00 9.0662178036523500e+00 0 0 0
383 2 1.2305000000000001e+00 7.1042950623783474e-01 9.0662178036523500e+00 0 0 0
387 2 1.2305000000000001e+00 2.1312885187134998e+00 9.0662178036523500e+00 0 0 0
388 2 2.4610000000000003e+00 2.8417180249513345e+00 9.0662178036523500e+00 0 0 0
389 2 2.4610000000000003e+00 0.0000000000000000e+00 9.0662178036523500e+00 0 0 0
390 2 3.6915000000000004e+00 7.1042950623783474e-01 9.0662178036523500e+00 0 0 0
398 2 3.6914999999999996e+00 2.1312885187134998e+00 9.0662178036523500e+00 0 0 0
62 2 1.2305000000000001e+00 3.5521475311891644e+00 6.1213144040899312e+00 0 0 0
83 2 3.6914999999999996e+00 3.5521475311891644e+00 6.1213144040899312e+00 0 0 0
87 2 4.9220000000000006e+00 1.4208590124756650e+00 6.1213144040899312e+00 0 0 0
89 2 4.9220000000000006e+00 0.0000000000000000e+00 6.1213144040899312e+00 0 0 0
114 2 6.1524999999999999e+00 2.1312885187134989e+00 6.1213144040899312e+00 0 0 0
116 2 7.3829999999999991e+00 1.4208590124756659e+00 6.1213144040899312e+00 0 0 0
118 2 7.3829999999999991e+00 0.0000000000000000e+00 6.1213144040899312e+00 0 0 0
399 2 4.9220000000000006e+00 2.8417180249513332e+00 9.0662178036523500e+00 0 0 0
400 2 4.9220000000000006e+00 0.0000000000000000e+00 9.0662178036523500e+00 0 0 0
401 2 6.1524999999999999e+00 7.1042950623783407e-01 9.0662178036523500e+00 0 0 0
413 2 6.1524999999999999e+00 2.1312885187134989e+00 9.0662178036523500e+00 0 0 0
414 2 7.3829999999999991e+00 2.8417180249513345e+00 9.0662178036523500e+00 0 0 0
415 2 7.3829999999999991e+00 0.0000000000000000e+00 9.0662178036523500e+00 0 0 0
112 2 6.1524999999999999e+00 3.5521475311891644e+00 6.1213144040899312e+00 0 0 0
151 2 8.6134999999999984e+00 2.1312885187135002e+00 6.1213144040899312e+00 0 0 0
153 2 9.8440000000000012e+00 1.4208590124756659e+00 6.1213144040899312e+00 0 0 0
155 2 9.8440000000000012e+00 0.0000000000000000e+00 6.1213144040899312e+00 0 0 0
196 2 1.1074500000000002e+01 2.1312885187135002e+00 6.1213144040899312e+00 0 0 0
416 2 8.6134999999999984e+00 7.1042950623783407e-01 9.0662178036523500e+00 0 0 0
432 2 8.6134999999999984e+00 2.1312885187135002e+00 9.0662178036523500e+00 0 0 0
433 2 9.8440000000000012e+00 2.8417180249513332e+00 9.0662178036523500e+00 0 0 0
434 2 9.8440000000000012e+00 0.0000000000000000e+00 9.0662178036523500e+00 0 0 0
435 2 1.1074500000000002e+01 7.1042950623783330e-01 9.0662178036523500e+00 0 0 0
455 2 1.1074500000000002e+01 2.1312885187135002e+00 9.0662178036523500e+00 0 0 0
149 2 8.6134999999999984e+00 3.5521475311891657e+00 6.1213144040899312e+00 0 0 0
194 2 1.1074500000000002e+01 3.5521475311891644e+00 6.1213144040899312e+00 0 0 0
58 2 0.0000000000000000e+00 5.6834360499026637e+00 6.1213144040899312e+00 0 0 0
60 2 0.0000000000000000e+00 4.2625770374269996e+00 6.1213144040899312e+00 0 0 0
77 2 1.2305000000000001e+00 6.3938655561404980e+00 6.1213144040899312e+00 0 0 0
79 2 2.4610000000000003e+00 5.6834360499026637e+00 6.1213144040899312e+00 0 0 0
81 2 2.4610000000000003e+00 4.2625770374269996e+00 6.1213144040899312e+00 0 0 0
106 2 3.6914999999999996e+00 6.3938655561404980e+00 6.1213144040899312e+00 0 0 0
385 2 0.0000000000000000e+00 4.2625770374269996e+00 9.0662178036523500e+00 0 0 0
386 2 1.2305000000000001e+00 4.9730065436648339e+00 9.0662178036523500e+00 0 0 0
394 2 1.2305000000000001e+00 6.3938655561404980e+00 9.0662178036523500e+00 0 0 0
396 2 2.4610000000000003e+00 4.2625770374269996e+00 9.0662178036523500e+00 0 0 0
397 2 3.6914999999999996e+00 4.9730065436648339e+00 9.0662178036523500e+00 0 0 0
409 2 3.6914999999999996e+00 6.3938655561404980e+00 9.0662178036523500e+00 0 0 0
75 2 1.2305000000000001e+00 7.8147245686161639e+00 6.1213144040899312e+00 0 0 0
104 2 3.6914999999999996e+00 7.8147245686161639e+00 6.1213144040899312e+00 0 0 0
384 2 0.0000000000000000e+00 7.1042950623783341e+00 9.0662178036523500e+00 0 0 0
395 2 2.4610000000000003e+00 7.1042950623783341e+00 9.0662178036523500e+00 0 0 0
108 2 4.9220000000000006e+00 5.6834360499026637e+00 6.1213144040899312e+00 0 0 0
110 2 4.9220000000000006e+00 4.2625770374269978e+00 6.1213144040899312e+00 0 0 0
143 2 6.1524999999999999e+00 6.3938655561404980e+00 6.1213144040899312e+00 0 0 0
145 2 7.3829999999999991e+00 5.6834360499026637e+00 6.1213144040899312e+00 0 0 0
147 2 7.3829999999999991e+00 4.2625770374269996e+00 6.1213144040899312e+00 0 0 0
411 2 4.9220000000000006e+00 4.2625770374269978e+00 9.0662178036523500e+00 0 0 0
412 2 6.1524999999999999e+00 4.9730065436648339e+00 9.0662178036523500e+00 0 0 0
428 2 6.1524999999999999e+00 6.3938655561404980e+00 9.0662178036523500e+00 0 0 0
430 2 7.3829999999999991e+00 4.2625770374269996e+00 9.0662178036523500e+00 0 0 0
141 2 6.1524999999999999e+00 7.8147245686161639e+00 6.1213144040899312e+00 0 0 0
410 2 4.9220000000000006e+00 7.1042950623783341e+00 9.0662178036523500e+00 0 0 0
429 2 7.3830000000000009e+00 7.1042950623783341e+00 9.0662178036523500e+00 0 0 0
188 2 8.6135000000000002e+00 6.3938655561404980e+00 6.1213144040899312e+00 0 0 0
190 2 9.8440000000000012e+00 5.6834360499026637e+00 6.1213144040899312e+00 0 0 0
192 2 9.8440000000000012e+00 4.2625770374270004e+00 6.1213144040899312e+00 0 0 0
235 2 1.1074500000000002e+01 6.3938655561404980e+00 6.1213144040899312e+00 0 0 0
431 2 8.6135000000000002e+00 4.9730065436648339e+00 9.0662178036523500e+00 0 0 0
451 2 8.6135000000000002e+00 6.3938655561404980e+00 9.0662178036523500e+00 0 0 0
453 2 9.8440000000000012e+00 4.2625770374270004e+00 9.0662178036523500e+00 0 0 0
454 2 1.1074500000000002e+01 4.9730065436648339e+00 9.0662178036523500e+00 0 0 0
475 2 1.1074500000000002e+01 6.3938655561404980e+00 9.0662178036523500e+00 0 0 0
186 2 8.6135000000000002e+00 7.8147245686161639e+00 6.1213144040899312e+00 0 0 0
233 2 1.1074500000000002e+01 7.8147245686161639e+00 6.1213144040899312e+00 0 0 0
452 2 9.8440000000000012e+00 7.1042950623783341e+00 9.0662178036523500e+00 0 0 0
71 2 0.0000000000000000e+00 9.9460130873296642e+00 6.1213144040899312e+00 0 0 0
73 2 0.0000000000000000e+00 8.5251540748539991e+00 6.1213144040899312e+00 0 0 0
100 2 2.4610000000000003e+00 9.9460130873296642e+00 6.1213144040899312e+00 0 0 0
102 2 2.4610000000000003e+00 8.5251540748539991e+00 6.1213144040899312e+00 0 0 0
392 2 0.0000000000000000e+00 8.5251540748539991e+00 9.0662178036523500e+00 0 0 0
393 2 1.2305000000000001e+00 9.2355835810918343e+00 9.0662178036523500e+00 0 0 0
407 2 2.4610000000000003e+00 8.5251540748539991e+00 9.0662178036523500e+00 0 0 0
408 2 3.6915000000000004e+00 9.2355835810918343e+00 9.0662178036523500e+00 0 0 0
96 2 1.2305000000000001e+00 1.2077301606043163e+01 6.1213144040899312e+00 0 0 0
98 2 1.2305000000000001e+00 1.0656442593567498e+01 6.1213144040899312e+00 0 0 0
133 2 3.6914999999999996e+00 1.2077301606043163e+01 6.1213144040899312e+00 0 0 0
135 2 3.6914999999999996e+00 1.0656442593567499e+01 6.1213144040899312e+00 0 0 0
391 2 0.0000000000000000e+00 1.1366872099805333e+01 9.0662178036523500e+00 0 0 0
405 2 1.2305000000000001e+00 1.0656442593567498e+01 9.0662178036523500e+00 0 0 0
406 2 2.4610000000000003e+00 1.1366872099805333e+01 9.0662178036523500e+00 0 0 0
424 2 3.6914999999999996e+00 1.0656442593567499e+01 9.0662178036523500e+00 0 0 0
137 2 4.9220000000000006e+00 9.9460130873296642e+00 6.1213144040899312e+00 0 0 0
139 2 4.9220000000000006e+00 8.5251540748539991e+00 6.1213144040899312e+00 0 0 0
182 2 7.3830000000000009e+00 9.9460130873296642e+00 6.1213144040899312e+00 0 0 0
184 2 7.3830000000000009e+00 8.5251540748539991e+00 6.1213144040899312e+00 0 0 0
426 2 4.9220000000000006e+00 8.5251540748539991e+00 9.0662178036523500e+00 0 0 0
427 2 6.1524999999999999e+00 9.2355835810918343e+00 9.0662178036523500e+00 0 0 0
449 2 7.3830000000000009e+00 8.5251540748539991e+00 9.0662178036523500e+00 0 0 0
178 2 6.1524999999999999e+00 1.2077301606043163e+01 6.1213144040899312e+00 0 0 0
180 2 6.1524999999999999e+00 1.0656442593567499e+01 6.1213144040899312e+00 0 0 0
425 2 4.9220000000000006e+00 1.1366872099805333e+01 9.0662178036523500e+00 0 0 0
447 2 6.1524999999999999e+00 1.0656442593567499e+01 9.0662178036523500e+00 0 0 0
448 2 7.3829999999999991e+00 1.1366872099805333e+01 9.0662178036523500e+00 0 0 0
229 2 9.8440000000000012e+00 9.9460130873296642e+00 6.1213144040899312e+00 0 0 0
231 2 9.8440000000000012e+00 8.5251540748539956e+00 6.1213144040899312e+00 0 0 0
450 2 8.6134999999999984e+00 9.2355835810918343e+00 9.0662178036523500e+00 0 0 0
473 2 9.8440000000000012e+00 8.5251540748539956e+00 9.0662178036523500e+00 0 0 0
474 2 1.1074500000000002e+01 9.2355835810918343e+00 9.0662178036523500e+00 0 0 0
225 2 8.6135000000000002e+00 1.2077301606043163e+01 6.1213144040899312e+00 0 0 0
227 2 8.6134999999999984e+00 1.0656442593567498e+01 6.1213144040899312e+00 0 0 0
272 2 1.1074500000000002e+01 1.2077301606043163e+01 6.1213144040899312e+00 0 0 0
274 2 1.1074500000000002e+01 1.0656442593567498e+01 6.1213144040899312e+00 0 0 0
471 2 8.6134999999999984e+00 1.0656442593567498e+01 9.0662178036523500e+00 0 0 0
472 2 9.8440000000000012e+00 1.1366872099805333e+01 9.0662178036523500e+00 0 0 0
495 2 1.1074500000000002e+01 1.0656442593567498e+01 9.0662178036523500e+00 0 0 0
496 2 1.2304999999999998e+01 1.1366872099805333e+01 9.0662178036523500e+00 0 0 0
546 1 1.0946916283249685e+01 5.7344375669639325e-01 1.1961062521092988e+01 0 0 0
1234 1 1.7264369385515546e+00 1.1922314497871220e+00 1.1748704345993678e+01 0 0 -1
679 1 7.9980386528200063e+00 9.2346551757040078e+00 1.1492503319286190e+01 1 0 -1
615 1 8.3822184740931327e+00 3.8937080330807574e+00 1.1501710792196459e+01 1 0 0
2048 1 4.2770079866580959e+00 2.2181597782653184e+00 1.1855191068690328e+01 1 2 -1
1451 1 8.3341663502588208e+00 1.2762276983745973e+00 1.2010376813803910e+01 0 0 0
3446 1 9.5743665350990170e+00 6.8881650263051561e+00 1.1808873775985953e+01 0 1 0
1380 1 1.3737194666572230e+00 7.5204504646865846e+00 1.1939413497314431e+01 0 -1 -1
2005 1 5.3203432746857526e+00 9.8978812052774323e+00 1.1360017515685344e+01 0 0 -2
2688 1 5.6523941646324962e+00 4.5765620860756950e+00 1.1650952344312264e+01 2 1 0
2659 1 4.1449082220762099e+00 7.3375008662029488e+00 1.1648473096165789e+01 0 -1 0
1332 1 1.2199426433756562e+01 4.6056996790339575e+00 1.1493317021523643e+01 1 0 -1
3351 1 8.8987438751345600e+00 1.1831029144285614e+01 1.1456772766885850e+01 1 1 1
1343 1 1.2138551493910203e+01 8.1748040496024803e+00 1.1677311643730484e+01 0 1 0
2731 1 1.2134435141831312e+00 1.1484638660633658e+01 2.3077895313504420e+01 1 1 0
4039 1 1.1278077484104385e+01 1.0786847494988994e+01 2.0665395768981902e+01 1 0 -1
3263 1 6.9174781786722965e+00 3.1183703380792716e-01 1.4658809040163964e+01 0 0 1
680 1 7.2363507583806230e+00 1.6162057498516691e+00 1.7570989444078656e+01 -1 0 -1
613 1 4.9144709034636564e+00 1.1038428875183008e+01 2.1290226141416017e+01 0 0 0
1460 1 9.1970492842672265e+00 9.2693586130761645e+00 2.4475602007129524e+01 2 0 1
2789 1 1.9818227700151234e+00 3.4830650678316473e+00 1.5617323842571006e+01 2 1 1
3370 1 2.6321061791766533e+00 3.7660793776375936e+00 1.8067609386762843e+01 1 0 1
3977 1 3.1831608447141940e-01 8.1848690336683951e+00 1.4740947279201198e+01 0 0 -1
2076 1 2.6420726792191158e+00 8.4617228620479334e+00 1.6173046171805900e+01 1 0 -2
2593 1 5.7844467911973219e+00 4.6891535476502249e+00 1.4440956251928803e+01 0 0 0
2053 1 4.7620212534039261e+00 7.2675896484694791e+00 1.4346237376773557e+01 0 0 1
4070 1 8.7692999681986024e+00 4.7632650877474410e+00 1.4378316215195685e+01 1 -1 -1
1264 1 8.4317734058527307e+00 4.1502509112268875e+00 1.7210007897764616e+01 1 0 0
2571 1 4.2863307195254474e-01 1.4612469515835844e+00 1.4307474976571850e+01 1 1 -1
4015 1 1.1516310008197065e+01 4.1284191234212537e+00 1.4528901371078835e+01 1 1 0
25 1 1.0279095590384758e+01 6.8028592050072678e+00 2.3324584559073802e+01 0 1 1
701 1 3.3690607825202656e+00 1.1134393561711816e+01 1.6482058108123681e+01 0 0 -1
2741 1 1.1887137985123410e+01 8.2740125700033502e+00 2.1173802687149273e+01 0 0 0
1399 1 2.1388365320053109e+00 6.8879766722677360e-01 2.5584031568283972e+01 0 1 1
670 1 7.3602063632990342e+00 1.4699286037891077e+00 2.5156112457413546e+01 -1 0 0
22 1 9.4719669679343781e+00 7.6455135704857158e+00 1.4520219282084806e+01 0 1 -1
49 1 6.1543468937331447e+00 1.0632595068642386e+01 1.5928463991400633e+01 1 -1 0
3382 1 1.2019215460201309e+01 8.3420489632590256e-01 1.4997647416782339e+01 0 0 0
654 1 7.2065248588203339e+00 4.0148917675190976e-01 2.2188651131949079e+01 1 1 0
1990 1 3.0683179802409479e+00 1.1259466355634700e+00 1.9425549945844843e+01 1 1 0
3417 1 4.2391761172699391e+00 2.9491449373209218e+00 2.1225132739223703e+01 1 1 -1
2595 1 7.0106560865710525e+00 2.5215165335281182e+00 2.0504951159271350e+01 0 1 1
720 1 1.1885908482062453e+01 1.7323920489146629e+00 1.7962935017994738e+01 1 1 1
2587 1 5.9178759419043292e-01 4.5623679608089978e+00 1.9627136729341103e+01 0 -1 0
2761 1 1.1450850441030534e+01 6.9801659864837271e+00 1.8935299063343610e+01 -1 1 1
4062 1 3.9479818228111641e+00 6.4886826754208604e+00 1.7576031472263963e+01 1 -1 -1
562 1 4.6202335458903887e+00 5.7503242079876271e+00 2.1449324631642902e+01 0 0 0
3431 1 6.3904183539744741e+00 7.2300983067250684e+00 1.9255743698260520e+01 1 0 1
2624 1 8.7850219273920462e+00 5.9426530046237485e+00 1.9398679317112400e+01 1 0 0
2107 1 7.1017483020523775e-01 4.6278265803580956e+00 2.5366791461136373e+01 1 -1 -1
1372 1 6.6921251477559354e+00 8.3884974550622555e+00 2.5655341060272502e+01 0 0 0
2760 1 3.4529086137649506e-01 1.0922028503194408e+01 1.7870596302146495e+01 1 1 0
2582 1 6.9909884294080307e+00 9.7894315522984954e+00 2.0507508576253791e+01 0 0 0
2771 1 9.9705622473616238e+00 3.7066720527874955e+00 2.5932269852015992e+01 0 0 0
2647 1 8.0479496223661364e+00 1.0179185545415883e+01 1.8081952003308011e+01 0 0 -1
1324 1 1.0635605790801389e+01 9.1375873665145750e+00 1.7325039824227979e+01 0 0 -1
1328 1 9.7931466802166529e+00 1.1762655177463222e+01 2.5785121875049196e+01 1 1 0
2054 1 9.1642494188770414e+00 1.0637700157329975e+01 2.2192282716414969e+01 0 0 0
1992 1 1.1834687078674103e+01 1.8845033095190122e+00 2.4785776959076710e+01 0 0 -1
1363 1 2.6969654367756108e+00 2.9901293473835184e+00 2.3676081074463085e+01 0 0 0
690 1 1.0847692626325063e+01 2.0655629229223922e+00 2.2047631984053346e+01 -1 0 0
2792 1 7.1752938697119077e+00 8.7369737531371729e+00 1.4109300703497468e+01 -1 0 0
1251 1 3.2079152224694836e+00 9.6056721391239002e+00 2.3005157647265161e+01 0 1 0
2604 1 2.6355409145593689e+00 6.4078578859242867e+00 2.5711673525238687e+01 1 1 1
1976 1 2.3780073817858036e+00 6.8995233812135250e+00 2.2953144751387143e+01 0 0 -1
1962 1 4.4639037201976892e+00 4.2650017127890152e+00 2.5709780156750760e+01 0 0 -1
1413 1 5.7638842377350867e+00 6.0906782274146760e+00 2.4284864185339980e+01 1 0 -1
29 1 9.0719749401514704e+00 4.0079541909557914e+00 2.1662196023371337e+01 1 -1 0
3251 1 7.9198795964799453e+00 4.0822353571132890e+00 2.4208948479878526e+01 1 2 -1
3958 1 1.0397482370990556e+01 1.2022438485488358e+01 1.8192447114668262e+01 0 0 0
2780 1 1.1465508387285857e+01 6.0685890817198969e+00 2.5476767351032539e+01 0 2 1
2085 1 4.6785774039979637e+00 9.8866526000153527e+00 2.5422367943120140e+01 0 0 0
2032 1 9.6681686872155783e+00 2.4196580315991037e-01 1.8475343207340536e+01 1 0 -1
1322 1 6.4245008010667981e-01 4.7883591687495519e+00 2.2233638820742620e+01 0 -1 -1
1353 1 1.1391515151365763e+01 4.2631980349811069e+00 1.7553094579534040e+01 1 1 0
1981 1 4.5299013869853857e+00 2.1440837540197246e+00 1.4594866486422964e+01 1 0 0
3900 1 1.1089532441180170e+01 1.2040276072742831e+01 1.5188590912687800e+01 1 -1 -1
1305 1 1.6803402302984378e+00 9.9606822357225813e+00 2.6040057858706458e+01 1 0 -1
3928 1 1.0781149089820445e+00 1.2169950166099415e+01 2.0106470960422246e+01 0 0 1
3436 1 3.7011631105785123e+00 1.1888014273801828e+01 1.8892939278723368e+01 0 0 -1
4073 1 1.1326484227183187e-03 8.5912332057383569e+00 2.2824626908432485e+01 1 1 0
93 2 0.0000000000000000e+00 1.2787731112280996e+01 3.1764110045273419e+00 0 0 0
95 2 1.2305000000000001e+00 1.3498160618518829e+01 3.1764110045273419e+00 0 0 0
130 2 2.4610000000000003e+00 1.2787731112280996e+01 3.1764110045273419e+00 0 0 0
132 2 3.6915000000000004e+00 1.3498160618518829e+01 3.1764110045273419e+00 0 0 0
91 2 0.0000000000000000e+00 1.5629449137232333e+01 3.1764110045273419e+00 0 0 0
126 2 1.2305000000000001e+00 1.4919019630994494e+01 3.1764110045273419e+00 0 0 0
128 2 2.4610000000000003e+00 1.5629449137232328e+01 3.1764110045273419e+00 0 0 0
171 2 3.6915000000000004e+00 1.4919019630994494e+01 3.1764110045273419e+00 0 0 0
175 2 4.9220000000000006e+00 1.2787731112280996e+01 3.1764110045273419e+00 0 0 0
177 2 6.1524999999999990e+00 1.3498160618518829e+01 3.1764110045273419e+00 0 0 0
222 2 7.3829999999999991e+00 1.2787731112280996e+01 3.1764110045273419e+00 0 0 0
173 2 4.9220000000000006e+00 1.5629449137232333e+01 3.1764110045273419e+00 0 0 0
218 2 6.1524999999999990e+00 1.4919019630994494e+01 3.1764110045273419e+00 0 0 0
220 2 7.3829999999999991e+00 1.5629449137232333e+01 3.1764110045273419e+00 0 0 0
224 2 8.6135000000000002e+00 1.3498160618518835e+01 3.1764110045273419e+00 0 0 0
269 2 9.8440000000000012e+00 1.2787731112280996e+01 3.1764110045273419e+00 0 0 0
271 2 1.1074500000000002e+01 1.3498160618518829e+01 3.1764110045273419e+00 0 0 0
265 2 8.6135000000000002e+00 1.4919019630994494e+01 3.1764110045273419e+00 0 0 0
267 2 9.8440000000000012e+00 1.5629449137232328e+01 3.1764110045273419e+00 0 0 0
307 2 1.1074500000000002e+01 1.4919019630994494e+01 3.1764110045273419e+00 0 0 0
122 2 0.0000000000000000e+00 1.7050308149707998e+01 3.1764110045273419e+00 0 0 0
167 2 2.4610000000000003e+00 1.7050308149707998e+01 3.1764110045273419e+00 0 0 0
120 2 0.0000000000000000e+00 1.9892026174659328e+01 3.1764110045273419e+00 0 0 0
124 2 1.2305000000000001e+00 1.7760737655945832e+01 3.1764110045273419e+00 0 0 0
163 2 1.2305000000000001e+00 1.9181596668421495e+01 3.1764110045273419e+00 0 0 0
165 2 2.4610000000000003e+00 1.9892026174659328e+01 3.1764110045273419e+00 0 0 0
169 2 3.6914999999999996e+00 1.7760737655945832e+01 3.1764110045273419e+00 0 0 0
210 2 3.6914999999999996e+00 1.9181596668421495e+01 3.1764110045273419e+00 0 0 0
214 2 4.9220000000000006e+00 1.7050308149707998e+01 3.1764110045273419e+00 0 0 0
261 2 7.3830000000000009e+00 1.7050308149707998e+01 3.1764110045273419e+00 0 0 0
212 2 4.9220000000000006e+00 1.9892026174659328e+01 3.1764110045273419e+00 0 0 0
216 2 6.1524999999999999e+00 1.7760737655945832e+01 3.1764110045273419e+00 0 0 0
257 2 6.1524999999999999e+00 1.9181596668421495e+01 3.1764110045273419e+00 0 0 0
259 2 7.3829999999999991e+00 1.9892026174659328e+01 3.1764110045273419e+00 0 0 0
303 2 9.8440000000000012e+00 1.7050308149707998e+01 3.1764110045273419e+00 0 0 0
337 2 1.2304999999999998e+01 1.7050308149707998e+01 3.1764110045273419e+00 0 0 0
263 2 8.6134999999999984e+00 1.7760737655945832e+01 3.1764110045273419e+00 0 0 0
299 2 8.6135000000000002e+00 1.9181596668421495e+01 3.1764110045273419e+00 0 0 0
301 2 9.8440000000000012e+00 1.9892026174659335e+01 3.1764110045273419e+00 0 0 0
305 2 1.1074500000000002e+01 1.7760737655945835e+01 3.1764110045273419e+00 0 0 0
333 2 1.1074500000000002e+01 1.9181596668421495e+01 3.1764110045273419e+00 0 0 0
157 2 0.0000000000000000e+00 2.4154603212086325e+01 3.1764110045273419e+00 0 0 0
159 2 0.0000000000000000e+00 2.1312885187134999e+01 3.1764110045273419e+00 0 0 0
161 2 1.2304999999999993e+00 2.2023314693372832e+01 3.1764110045273419e+00 0 0 0
202 2 1.2304999999999993e+00 2.3444173705848499e+01 3.1764110045273419e+00 0 0 0
204 2 2.4610000000000003e+00 2.4154603212086325e+01 3.1764110045273419e+00 0 0 0
206 2 2.4610000000000003e+00 2.1312885187134995e+01 3.1764110045273419e+00 0 0 0
208 2 3.6914999999999996e+00 2.2023314693372832e+01 3.1764110045273419e+00 0 0 0
249 2 3.6915000000000004e+00 2.3444173705848499e+01 3.1764110045273419e+00 0 0 0
251 2 4.9220000000000006e+00 2.4154603212086325e+01 3.1764110045273419e+00 0 0 0
253 2 4.9220000000000006e+00 2.1312885187134995e+01 3.1764110045273419e+00 0 0 0
255 2 6.1524999999999990e+00 2.2023314693372832e+01 3.1764110045273419e+00 0 0 0
291 2 6.1524999999999999e+00 2.3444173705848499e+01 3.1764110045273419e+00 0 0 0
293 2 7.3830000000000009e+00 2.4154603212086336e+01 3.1764110045273419e+00 0 0 0
295 2 7.3829999999999991e+00 2.1312885187134999e+01 3.1764110045273419e+00 0 0 0
297 2 8.6135000000000002e+00 2.2023314693372832e+01 3.1764110045273419e+00 0 0 0
325 2 8.6134999999999984e+00 2.3444173705848499e+01 3.1764110045273419e+00 0 0 0
327 2 9.8440000000000012e+00 2.4154603212086336e+01 3.1764110045273419e+00 0 0 0
329 2 9.8440000000000012e+00 2.1312885187134999e+01 3.1764110045273419e+00 0 0 0
331 2 1.1074500000000002e+01 2.2023314693372832e+01 3.1764110045273419e+00 0 0 0
351 2 1.1074500000000002e+01 2.3444173705848499e+01 3.1764110045273419e+00 0 0 0
94 2 0.0000000000000000e+00 1.2787731112280996e+01 6.1213144040899312e+00 0 0 0
131 2 2.4610000000000003e+00 1.2787731112280996e+01 6.1213144040899312e+00 0 0 0
403 2 0.0000000000000000e+00 1.2787731112280996e+01 9.0662178036523500e+00 0 0 0
404 2 1.2305000000000001e+00 1.3498160618518829e+01 9.0662178036523500e+00 0 0 0
422 2 2.4610000000000003e+00 1.2787731112280996e+01 9.0662178036523500e+00 0 0 0
423 2 3.6915000000000004e+00 1.3498160618518829e+01 9.0662178036523500e+00 0 0 0
92 2 0.0000000000000000e+00 1.4208590124756663e+01 6.1213144040899312e+00 0 0 0
127 2 1.2305000000000001e+00 1.4919019630994494e+01 6.1213144040899312e+00 0 0 0
129 2 2.4610000000000003e+00 1.4208590124756663e+01 6.1213144040899312e+00 0 0 0
172 2 3.6915000000000004e+00 1.4919019630994494e+01 6.1213144040899312e+00 0 0 0
402 2 0.0000000000000000e+00 1.5629449137232333e+01 9.0662178036523500e+00 0 0 0
420 2 1.2305000000000001e+00 1.4919019630994494e+01 9.0662178036523500e+00 0 0 0
421 2 2.4610000000000003e+00 1.5629449137232328e+01 9.0662178036523500e+00 0 0 0
443 2 3.6915000000000004e+00 1.4919019630994494e+01 9.0662178036523500e+00 0 0 0
176 2 4.9220000000000006e+00 1.2787731112280996e+01 6.1213144040899312e+00 0 0 0
223 2 7.3829999999999991e+00 1.2787731112280996e+01 6.1213144040899312e+00 0 0 0
445 2 4.9220000000000006e+00 1.2787731112280996e+01 9.0662178036523500e+00 0 0 0
446 2 6.1524999999999990e+00 1.3498160618518829e+01 9.0662178036523500e+00 0 0 0
469 2 7.3829999999999991e+00 1.2787731112280996e+01 9.0662178036523500e+00 0 0 0
174 2 4.9220000000000006e+00 1.4208590124756663e+01 6.1213144040899312e+00 0 0 0
219 2 6.1524999999999990e+00 1.4919019630994494e+01 6.1213144040899312e+00 0 0 0
221 2 7.3830000000000009e+00 1.4208590124756663e+01 6.1213144040899312e+00 0 0 0
444 2 4.9220000000000006e+00 1.5629449137232333e+01 9.0662178036523500e+00 0 0 0
467 2 6.1524999999999990e+00 1.4919019630994494e+01 9.0662178036523500e+00 0 0 0
468 2 7.3829999999999991e+00 1.5629449137232333e+01 9.0662178036523500e+00 0 0 0
270 2 9.8440000000000012e+00 1.2787731112280996e+01 6.1213144040899312e+00 0 0 0
470 2 8.6135000000000002e+00 1.3498160618518835e+01 9.0662178036523500e+00 0 0 0
493 2 9.8440000000000012e+00 1.2787731112280996e+01 9.0662178036523500e+00 0 0 0
494 2 1.1074500000000002e+01 1.3498160618518829e+01 9.0662178036523500e+00 0 0 0
266 2 8.6135000000000002e+00 1.4919019630994494e+01 6.1213144040899312e+00 0 0 0
268 2 9.8440000000000012e+00 1.4208590124756663e+01 6.1213144040899312e+00 0 0 0
306 2 1.1074500000000002e+01 1.6339878643470161e+01 6.1213144040899312e+00 0 0 0
308 2 1.1074500000000002e+01 1.4919019630994494e+01 6.1213144040899312e+00 0 0 0
310 2 1.2304999999999998e+01 1.4208590124756658e+01 6.1213144040899312e+00 0 0 0
491 2 8.6135000000000002e+00 1.4919019630994494e+01 9.0662178036523500e+00 0 0 0
492 2 9.8440000000000012e+00 1.5629449137232328e+01 9.0662178036523500e+00 0 0 0
512 2 1.1074500000000002e+01 1.4919019630994494e+01 9.0662178036523500e+00 0 0 0
123 2 0.0000000000000000e+00 1.7050308149707998e+01 6.1213144040899312e+00 0 0 0
125 2 1.2305000000000001e+00 1.6339878643470165e+01 6.1213144040899312e+00 0 0 0
168 2 2.4610000000000003e+00 1.7050308149707998e+01 6.1213144040899312e+00 0 0 0
170 2 3.6915000000000004e+00 1.6339878643470165e+01 6.1213144040899312e+00 0 0 0