LAMMPS data file via write_data, version 16 Mar 2018, timestep = 8000000

4078 atoms
2 atom types

0.0000000000000000e+00 4.9219999999999999e+01 xlo xhi
0.0000000000000000e+00 4.9019635930410494e+01 ylo yhi
9.7606757318162707e-01 2.6963932426813777e+01 zlo zhi

Masses

1 18.015
2 12.01

Atoms # atomic

52 2 0.0000000000000000e+00 2.8417180249513345e+00 2.7775597692178078e+00 0 0 0
54 2 0.0000000000000000e+00 0.0000000000000000e+00 2.7775597692178078e+00 0 0 0
56 2 1.2305000000000001e+00 7.1042950623783474e-01 2.7775597692178078e+00 0 0 0
63 2 1.2305000000000001e+00 2.1312885187134998e+00 2.7775597692178078e+00 0 0 0
65 2 2.4610000000000003e+00 2.8417180249513345e+00 2.7775597692178078e+00 0 0 0
67 2 2.4610000000000003e+00 0.0000000000000000e+00 2.7775597692178078e+00 0 0 0
69 2 3.6915000000000004e+00 7.1042950623783474e-01 2.7775597692178078e+00 0 0 0
84 2 3.6914999999999996e+00 2.1312885187134998e+00 2.7775597692178078e+00 0 0 0
86 2 4.9220000000000006e+00 2.8417180249513332e+00 2.7775597692178078e+00 0 0 0
88 2 4.9220000000000006e+00 0.0000000000000000e+00 2.7775597692178078e+00 0 0 0
90 2 6.1524999999999999e+00 7.1042950623783407e-01 2.7775597692178078e+00 0 0 0
113 2 6.1524999999999999e+00 2.1312885187134989e+00 2.7775597692178078e+00 0 0 0
115 2 7.3829999999999991e+00 2.8417180249513345e+00 2.7775597692178078e+00 0 0 0
117 2 7.3829999999999991e+00 0.0000000000000000e+00 2.7775597692178078e+00 0 0 0
119 2 8.6134999999999984e+00 7.1042950623783407e-01 2.7775597692178078e+00 0 0 0
150 2 8.6134999999999984e+00 2.1312885187135002e+00 2.7775597692178078e+00 0 0 0
152 2 9.8440000000000012e+00 2.8417180249513332e+00 2.7775597692178078e+00 0 0 0
154 2 9.8440000000000012e+00 0.0000000000000000e+00 2.7775597692178078e+00 0 0 0
156 2 1.1074500000000002e+01 7.1042950623783330e-01 2.7775597692178078e+00 0 0 0
195 2 1.1074500000000002e+01 2.1312885187135002e+00 2.7775597692178078e+00 0 0 0
59 2 0.0000000000000000e+00 4.2625770374269996e+00 2.7775597692178078e+00 0 0 0
61 2 1.2305000000000001e+00 4.9730065436648339e+00 2.7775597692178078e+00 0 0 0
76 2 1.2305000000000001e+00 6.3938655561404980e+00 2.7775597692178078e+00 0 0 0
80 2 2.4610000000000003e+00 4.2625770374269996e+00 2.7775597692178078e+00 0 0 0
82 2 3.6914999999999996e+00 4.9730065436648339e+00 2.7775597692178078e+00 0 0 0
105 2 3.6914999999999996e+00 6.3938655561404980e+00 2.7775597692178078e+00 0 0 0
57 2 0.0000000000000000e+00 7.1042950623783341e+00 2.7775597692178078e+00 0 0 0
78 2 2.4610000000000003e+00 7.1042950623783341e+00 2.7775597692178078e+00 0 0 0
109 2 4.9220000000000006e+00 4.2625770374269978e+00 2.7775597692178078e+00 0 0 0
111 2 6.1524999999999999e+00 4.9730065436648339e+00 2.7775597692178078e+00 0 0 0
142 2 6.1524999999999999e+00 6.3938655561404980e+00 2.7775597692178078e+00 0 0 0
146 2 7.3829999999999991e+00 4.2625770374269996e+00 2.7775597692178078e+00 0 0 0
107 2 4.9220000000000006e+00 7.1042950623783341e+00 2.7775597692178078e+00 0 0 0
144 2 7.3830000000000009e+00 7.1042950623783341e+00 2.7775597692178078e+00 0 0 0
148 2 8.6135000000000002e+00 4.9730065436648339e+00 2.7775597692178078e+00 0 0 0
187 2 8.6135000000000002e+00 6.3938655561404980e+00 2.7775597692178078e+00 0 0 0
191 2 9.8440000000000012e+00 4.2625770374270004e+00 2.7775597692178078e+00 0 0 0
193 2 1.1074500000000002e+01 4.9730065436648339e+00 2.7775597692178078e+00 0 0 0
234 2 1.1074500000000002e+01 6.3938655561404980e+00 2.7775597692178078e+00 0 0 0
189 2 9.8440000000000012e+00 7.1042950623783341e+00 2.7775597692178078e+00 0 0 0
72 2 0.0000000000000000e+00 8.5251540748539991e+00 2.7775597692178078e+00 0 0 0
74 2 1.2305000000000001e+00 9.2355835810918343e+00 2.7775597692178078e+00 0 0 0
101 2 2.4610000000000003e+00 8.5251540748539991e+00 2.7775597692178078e+00 0 0 0
103 2 3.6915000000000004e+00 9.2355835810918343e+00 2.7775597692178078e+00 0 0 0
70 2 0.0000000000000000e+00 1.1366872099805333e+01 2.7775597692178078e+00 0 0 0
97 2 1.2305000000000001e+00 1.0656442593567498e+01 2.7775597692178078e+00 0 0 0
99 2 2.4610000000000003e+00 1.1366872099805333e+01 2.7775597692178078e+00 0 0 0
134 2 3.6914999999999996e+00 1.0656442593567499e+01 2.7775597692178078e+00 0 0 0
138 2 4.9220000000000006e+00 8.5251540748539991e+00 2.7775597692178078e+00 0 0 0
140 2 6.1524999999999999e+00 9.2355835810918343e+00 2.7775597692178078e+00 0 0 0
183 2 7.3830000000000009e+00 8.5251540748539991e+00 2.7775597692178078e+00 0 0 0
136 2 4.9220000000000006e+00 1.1366872099805333e+01 2.7775597692178078e+00 0 0 0
179 2 6.1524999999999999e+00 1.0656442593567499e+01 2.7775597692178078e+00 0 0 0
181 2 7.3829999999999991e+00 1.1366872099805333e+01 2.7775597692178078e+00 0 0 0
185 2 8.6134999999999984e+00 9.2355835810918343e+00 2.7775597692178078e+00 0 0 0
230 2 9.8440000000000012e+00 8.5251540748539956e+00 2.7775597692178078e+00 0 0 0
232 2 1.1074500000000002e+01 9.2355835810918343e+00 2.7775597692178078e+00 0 0 0
226 2 8.6134999999999984e+00 1.0656442593567498e+01 2.7775597692178078e+00 0 0 0
228 2 9.8440000000000012e+00 1.1366872099805333e+01 2.7775597692178078e+00 0 0 0
273 2 1.1074500000000002e+01 1.0656442593567498e+01 2.7775597692178078e+00 0 0 0
275 2 1.2304999999999998e+01 1.1366872099805333e+01 2.7775597692178078e+00 0 0 0
53 2 0.0000000000000000e+00 1.4208590124756650e+00 5.8312850221273029e+00 0 0 0
55 2 0.0000000000000000e+00 0.0000000000000000e+00 5.8312850221273029e+00 0 0 0
64 2 1.2305000000000001e+00 2.1312885187134998e+00 5.8312850221273029e+00 0 0 0
66 2 2.4610000000000003e+00 1.4208590124756650e+00 5.8312850221273029e+00 0 0 0
68 2 2.4610000000000003e+00 0.0000000000000000e+00 5.8312850221273029e+00 0 0 0
85 2 3.6914999999999996e+00 2.1312885187134998e+00 5.8312850221273029e+00 0 0 0
381 2 0.0000000000000000e+00 2.8417180249513345e+00 8.8850102750373416e+00 0 0 0
382 2 0.0000000000000000e+00 0.0000000000000000e+00 8.8850102750373416e+00 0 0 0
383 2 1.2305000000000001e+00 7.1042950623783474e-01 8.8850102750373416e+00 0 0 0
387 2 1.2305000000000001e+00 2.1312885187134998e+00 8.8850102750373416e+00 0 0 0
388 2 2.4610000000000003e+00 2.8417180249513345e+00 8.8850102750373416e+00 0 0 0
389 2 2.4610000000000003e+00 0.0000000000000000e+00 8.8850102750373416e+00 0 0 0
390 2 3.6915000000000004e+00 7.1042950623783474e-01 8.8850102750373416e+00 0 0 0
398 2 3.6914999999999996e+00 2.1312885187134998e+00 8.8850102750373416e+00 0 0 0
62 2 1.2305000000000001e+00 3.5521475311891644e+00 5.8312850221273029e+00 0 0 0
83 2 3.6914999999999996e+00 3.5521475311891644e+00 5.8312850221273029e+00 0 0 0
87 2 4.9220000000000006e+00 1.4208590124756650e+00 5.8312850221273029e+00 0 0 0
89 2 4.9220000000000006e+00 0.0000000000000000e+00 5.8312850221273029e+00 0 0 0
114 2 6.1524999999999999e+00 2.1312885187134989e+00 5.8312850221273029e+00 0 0 0
116 2 7.3829999999999991e+00 1.4208590124756659e+00 5.8312850221273029e+00 0 0 0
118 2 7.3829999999999991e+00 0.0000000000000000e+00 5.8312850221273029e+00 0 0 0
399 2 4.9220000000000006e+00 2.8417180249513332e+00 8.8850102750373416e+00 0 0 0
400 2 4.9220000000000006e+00 0.0000000000000000e+00 8.8850102750373416e+00 0 0 0
401 2 6.1524999999999999e+00 7.1042950623783407e-01 8.8850102750373416e+00 0 0 0
413 2 6.1524999999999999e+00 2.1312885187134989e+00 8.8850102750373416e+00 0 0 0
414 2 7.3829999999999991e+00 2.8417180249513345e+00 8.8850102750373416e+00 0 0 0
415 2 7.3829999999999991e+00 0.0000000000000000e+00 8.8850102750373416e+00 0 0 0
112 2 6.1524999999999999e+00 3.5521475311891644e+00 5.8312850221273029e+00 0 0 0
151 2 8.6134999999999984e+00 2.1312885187135002e+00 5.8312850221273029e+00 0 0 0
153 2 9.8440000000000012e+00 1.4208590124756659e+00 5.8312850221273029e+00 0 0 0
155 2 9.8440000000000012e+00 0.0000000000000000e+00 5.8312850221273029e+00 0 0 0
196 2 1.1074500000000002e+01 2.1312885187135002e+00 5.8312850221273029e+00 0 0 0
416 2 8.6134999999999984e+00 7.1042950623783407e-01 8.8850102750373416e+00 0 0 0
432 2 8.6134999999999984e+00 2.1312885187135002e+00 8.8850102750373416e+00 0 0 0
433 2 9.8440000000000012e+00 2.8417180249513332e+00 8.8850102750373416e+00 0 0 0
434 2 9.8440000000000012e+00 0.0000000000000000e+00 8.8850102750373416e+00 0 0 0
435 2 1.1074500000000002e+01 7.1042950623783330e-01 8.8850102750373416e+00 0 0 0
455 2 1.1074500000000002e+01 2.1312885187135002e+00 8.8850102750373416e+00 0 0 0
149 2 8.6134999999999984e+00 3.5521475311891657e+00 5.8312850221273029e+00 0 0 0
194 2 1.1074500000000002e+01 3.5521475311891644e+00 5.8312850221273029e+00 0 0 0
58 2 0.0000000000000000e+00 5.6834360499026637e+00 5.8312850221273029e+00 0 0 0
60 2 0.0000000000000000e+00 4.2625770374269996e+00 5.8312850221273029e+00 0 0 0
77 2 1.2305000000000001e+00 6.3938655561404980e+00 5.8312850221273029e+00 0 0 0
79 2 2.4610000000000003e+00 5.6834360499026637e+00 5.8312850221273029e+00 0 0 0
81 2 2.4610000000000003e+00 4.2625770374269996e+00 5.8312850221273029e+00 0 0 0
106 2 3.6914999999999996e+00 6.3938655561404980e+00 5.8312850221273029e+00 0 0 0
385 2 0.0000000000000000e+00 4.2625770374269996e+00 8.8850102750373416e+00 0 0 0
386 2 1.2305000000000001e+00 4.9730065436648339e+00 8.8850102750373416e+00 0 0 0
394 2 1.2305000000000001e+00 6.3938655561404980e+00 8.8850102750373416e+00 0 0 0
396 2 2.4610000000000003e+00 4.2625770374269996e+00 8.8850102750373416e+00 0 0 0
397 2 3.6914999999999996e+00 4.9730065436648339e+00 8.8850102750373416e+00 0 0 0
409 2 3.6914999999999996e+00 6.3938655561404980e+00 8.8850102750373416e+00 0 0 0
75 2 1.2305000000000001e+00 7.8147245686161639e+00 5.8312850221273029e+00 0 0 0
104 2 3.6914999999999996e+00 7.8147245686161639e+00 5.8312850221273029e+00 0 0 0
384 2 0.0000000000000000e+00 7.1042950623783341e+00 8.8850102750373416e+00 0 0 0
395 2 2.4610000000000003e+00 7.1042950623783341e+00 8.8850102750373416e+00 0 0 0
108 2 4.9220000000000006e+00 5.6834360499026637e+00 5.8312850221273029e+00 0 0 0
110 2 4.9220000000000006e+00 4.2625770374269978e+00 5.8312850221273029e+00 0 0 0
143 2 6.1524999999999999e+00 6.3938655561404980e+00 5.8312850221273029e+00 0 0 0
145 2 7.3829999999999991e+00 5.6834360499026637e+00 5.8312850221273029e+00 0 0 0
147 2 7.3829999999999991e+00 4.2625770374269996e+00 5.8312850221273029e+00 0 0 0
411 2 4.9220000000000006e+00 4.2625770374269978e+00 8.8850102750373416e+00 0 0 0
412 2 6.1524999999999999e+00 4.9730065436648339e+00 8.8850102750373416e+00 0 0 0
428 2 6.1524999999999999e+00 6.3938655561404980e+00 8.8850102750373416e+00 0 0 0
430 2 7.3829999999999991e+00 4.2625770374269996e+00 8.8850102750373416e+00 0 0 0
141 2 6.1524999999999999e+00 7.8147245686161639e+00 5.8312850221273029e+00 0 0 0
410 2 4.9220000000000006e+00 7.1042950623783341e+00 8.8850102750373416e+00 0 0 0
429 2 7.3830000000000009e+00 7.1042950623783341e+00 8.8850102750373416e+00 0 0 0
188 2 8.6135000000000002e+00 6.3938655561404980e+00 5.8312850221273029e+00 0 0 0
190 2 9.8440000000000012e+00 5.6834360499026637e+00 5.8312850221273029e+00 0 0 0
192 2 9.8440000000000012e+00 4.2625770374270004e+00 5.8312850221273029e+00 0 0 0
235 2 1.1074500000000002e+01 6.3938655561404980e+00 5.8312850221273029e+00 0 0 0
431 2 8.6135000000000002e+00 4.9730065436648339e+00 8.8850102750373416e+00 0 0 0
451 2 8.6135000000000002e+00 6.3938655561404980e+00 8.8850102750373416e+00 0 0 0
453 2 9.8440000000000012e+00 4.2625770374270004e+00 8.8850102750373416e+00 0 0 0
454 2 1.1074500000000002e+01 4.9730065436648339e+00 8.8850102750373416e+00 0 0 0
475 2 1.1074500000000002e+01 6.3938655561404980e+00 8.8850102750373416e+00 0 0 0
186 2 8.6135000000000002e+00 7.8147245686161639e+00 5.8312850221273029e+00 0 0 0
233 2 1.1074500000000002e+01 7.8147245686161639e+00 5.8312850221273029e+00 0 0 0
452 2 9.8440000000000012e+00 7.1042950623783341e+00 8.8850102750373416e+00 0 0 0
71 2 0.0000000000000000e+00 9.9460130873296642e+00 5.8312850221273029e+00 0 0 0
73 2 0.0000000000000000e+00 8.5251540748539991e+00 5.8312850221273029e+00 0 0 0
100 2 2.4610000000000003e+00 9.9460130873296642e+00 5.8312850221273029e+00 0 0 0
102 2 2.4610000000000003e+00 8.5251540748539991e+00 5.8312850221273029e+00 0 0 0
392 2 0.0000000000000000e+00 8.5251540748539991e+00 8.8850102750373416e+00 0 0 0
393 2 1.2305000000000001e+00 9.2355835810918343e+00 8.8850102750373416e+00 0 0 0
407 2 2.4610000000000003e+00 8.5251540748539991e+00 8.8850102750373416e+00 0 0 0
408 2 3.6915000000000004e+00 9.2355835810918343e+00 8.8850102750373416e+00 0 0 0
96 2 1.2305000000000001e+00 1.2077301606043163e+01 5.8312850221273029e+00 0 0 0
98 2 1.2305000000000001e+00 1.0656442593567498e+01 5.8312850221273029e+00 0 0 0
133 2 3.6914999999999996e+00 1.2077301606043163e+01 5.8312850221273029e+00 0 0 0
135 2 3.6914999999999996e+00 1.0656442593567499e+01 5.8312850221273029e+00 0 0 0
391 2 0.0000000000000000e+00 1.1366872099805333e+01 8.8850102750373416e+00 0 0 0
405 2 1.2305000000000001e+00 1.0656442593567498e+01 8.8850102750373416e+00 0 0 0
406 2 2.4610000000000003e+00 1.1366872099805333e+01 8.8850102750373416e+00 0 0 0
424 2 3.6914999999999996e+00 1.0656442593567499e+01 8.8850102750373416e+00 0 0 0
137 2 4.9220000000000006e+00 9.9460130873296642e+00 5.8312850221273029e+00 0 0 0
139 2 4.9220000000000006e+00 8.5251540748539991e+00 5.8312850221273029e+00 0 0 0
182 2 7.3830000000000009e+00 9.9460130873296642e+00 5.8312850221273029e+00 0 0 0
184 2 7.3830000000000009e+00 8.5251540748539991e+00 5.8312850221273029e+00 0 0 0
426 2 4.9220000000000006e+00 8.5251540748539991e+00 8.8850102750373416e+00 0 0 0
427 2 6.1524999999999999e+00 9.2355835810918343e+00 8.8850102750373416e+00 0 0 0
449 2 7.3830000000000009e+00 8.5251540748539991e+00 8.8850102750373416e+00 0 0 0
178 2 6.1524999999999999e+00 1.2077301606043163e+01 5.8312850221273029e+00 0 0 0
180 2 6.1524999999999999e+00 1.0656442593567499e+01 5.8312850221273029e+00 0 0 0
425 2 4.9220000000000006e+00 1.1366872099805333e+01 8.8850102750373416e+00 0 0 0
447 2 6.1524999999999999e+00 1.0656442593567499e+01 8.8850102750373416e+00 0 0 0
448 2 7.3829999999999991e+00 1.1366872099805333e+01 8.8850102750373416e+00 0 0 0
229 2 9.8440000000000012e+00 9.9460130873296642e+00 5.8312850221273029e+00 0 0 0
231 2 9.8440000000000012e+00 8.5251540748539956e+00 5.8312850221273029e+00 0 0 0
450 2 8.6134999999999984e+00 9.2355835810918343e+00 8.8850102750373416e+00 0 0 0
473 2 9.8440000000000012e+00 8.5251540748539956e+00 8.8850102750373416e+00 0 0 0
474 2 1.1074500000000002e+01 9.2355835810918343e+00 8.8850102750373416e+00 0 0 0
225 2 8.6135000000000002e+00 1.2077301606043163e+01 5.8312850221273029e+00 0 0 0
227 2 8.6134999999999984e+00 1.0656442593567498e+01 5.8312850221273029e+00 0 0 0
272 2 1.1074500000000002e+01 1.2077301606043163e+01 5.8312850221273029e+00 0 0 0
274 2 1.1074500000000002e+01 1.0656442593567498e+01 5.8312850221273029e+00 0 0 0
471 2 8.6134999999999984e+00 1.0656442593567498e+01 8.8850102750373416e+00 0 0 0
472 2 9.8440000000000012e+00 1.1366872099805333e+01 8.8850102750373416e+00 0 0 0
495 2 1.1074500000000002e+01 1.0656442593567498e+01 8.8850102750373416e+00 0 0 0
496 2 1.2304999999999998e+01 1.1366872099805333e+01 8.8850102750373416e+00 0 0 0
3917 1 7.5228680958438208e+00 1.0765465225172127e+01 1.1752422019997393e+01 2 0 0
3355 1 1.2149265800361787e+01 8.4444381559840540e+00 1.2004775083006418e+01 1 -1 0
26 1 5.0302731384045725e+00 7.2356099609809554e-01 1.1364748265737045e+01 1 1 0
1307 1 5.4697662206795963e+00 3.1214635481512731e+00 1.2253143152918591e+01 2 0 -1
2765 1 8.0589285795810017e+00 3.2831226135062708e+00 1.1446392053921144e+01 -1 3 0
1961 1 1.0151491739462687e+01 1.4349984818548529e+00 1.2189002853261078e+01 2 -1 0
2682 1 1.1967466836200176e+00 4.7133553864896216e+00 1.2327551215158836e+01 -1 2 0
1236 1 3.6973487084964494e+00 5.0114012711799178e+00 1.1447648698920712e+01 -1 0 0
3271 1 4.1213713797148195e+00 7.7756883038505968e+00 1.1953028722329389e+01 0 2 0
2079 1 6.7496544932279701e+00 7.9925402733295909e+00 1.1549943069886574e+01 3 1 2
3253 1 1.1291095200387424e+01 6.0303209728527811e+00 1.1288923244178520e+01 2 1 0
1373 1 8.6428551806705300e+00 5.9903196190846772e+00 1.1872814326698919e+01 0 -1 -1
2062 1 2.3924018071579218e+00 9.6730082197777563e+00 1.1155750206807564e+01 -1 0 -1
3426 1 1.0319563209715342e+01 1.0350086735393893e+01 1.1479830359627112e+01 0 -1 1
1417 1 2.2326123885143159e+00 6.7204984315640565e-02 1.1661144966312047e+01 -1 1 0
701 1 2.8700340749927827e-01 2.2846653794118437e+00 1.1307055933511984e+01 -2 0 -1
1418 1 5.1329389139443586e+00 8.1753804540072494e-01 1.8904846568620574e+01 -1 -1 1
3287 1 2.2457823765732372e+00 9.3210506249866292e+00 2.5323379268643524e+01 -1 1 0
2006 1 5.1740344375602554e+00 3.1944008404712241e+00 1.4816439733041404e+01 1 0 0
3451 1 4.7406796717047861e+00 7.2408776382558160e-01 1.5930005394330957e+01 0 1 -1
2043 1 7.5576077396885992e+00 3.4647345384716486e+00 1.5881613918113183e+01 -1 0 -2
2624 1 2.4200354672349164e-01 1.1122357667556466e+01 1.9333953420015739e+01 0 0 0
641 1 9.7964919770213452e+00 1.7671252424261630e+00 1.5009376056252517e+01 0 1 0
683 1 3.3784597560745637e+00 5.0195834567638640e+00 1.5325521249640989e+01 1 0 -1
2575 1 6.2719288212016167e-01 4.8592095051177493e+00 1.4915991897664307e+01 0 1 0
3432 1 4.0343522637059372e+00 7.6951067054858342e+00 1.4663419596561832e+01 0 -2 -1
3339 1 6.8079575857498549e+00 8.2423568208592251e+00 1.5334224488497723e+01 0 1 0
686 1 1.1509956865671901e+01 6.5475209037735063e+00 1.5373433982977433e+01 0 1 -1
3965 1 8.5507632695091864e+00 6.0484790385953087e+00 1.4823618117254767e+01 1 -1 0
2076 1 9.7355402945407121e+00 1.0952727399719747e+01 2.5605056936115457e+01 1 1 -2
627 1 2.1581825609746370e+00 9.6334373204234929e+00 1.5624255465184737e+01 0 0 0
2773 1 7.5743385246926467e+00 1.0609260104494179e+01 1.4698899724650177e+01 -2 -1 1
580 1 9.3106080389670929e+00 8.4346746134543089e+00 2.6341563199520749e+01 -1 1 1
2054 1 1.0156536281334970e+01 1.0992049521191589e+01 1.5574479872394829e+01 0 0 0
2635 1 2.8239938524816321e+00 2.5440740081489985e+00 1.9270840715488173e+01 1 -2 0
1936 1 2.7739088347029144e+00 2.2958079002632465e+00 2.2007258382496882e+01 1 1 -1
734 1 6.6315906013580124e+00 7.9714118374568912e+00 2.5511925111613060e+01 1 2 1
675 1 7.8699525225074343e+00 8.9486005923899858e-01 1.9750456995752153e+01 -1 1 1
1228 1 7.5993679732833179e+00 1.1438259879573645e+00 2.2433528306426759e+01 1 0 -1
1987 1 8.2307691604740398e+00 3.4806908765210638e+00 1.8639330321748364e+01 0 1 0
756 1 1.0870260156130648e+01 4.1938432354529480e+00 1.9318273805320061e+01 0 1 1
2655 1 3.8085885065295066e+00 5.0066693463681933e+00 1.8144333034365648e+01 2 -1 -1
699 1 1.8191702584435978e+00 6.9241104058162817e+00 1.8929693684810363e+01 1 0 0
4007 1 1.5971718695429529e+00 7.0128481201300019e+00 2.1794755388250440e+01 2 1 0
2762 1 6.3947827372976338e+00 5.6352644530683378e+00 1.9007957838078084e+01 0 1 0
3987 1 7.0207383198817022e+00 8.0588092960965128e+00 1.8339400504533003e+01 -2 -1 -1
537 1 6.1127470586664039e+00 5.4847339387458485e+00 2.1767650899746361e+01 1 0 0
2718 1 1.0591685613965717e+01 4.0444973326010025e+00 2.2103509924405941e+01 -1 0 0
3309 1 1.1540418402796357e+01 6.6915535177950680e+00 1.8114494844741554e+01 -1 1 -1
3354 1 2.4606833698042339e+00 9.6114405568657979e+00 1.8500636340898833e+01 0 2 0
713 1 2.2956268398349584e+00 4.0977128143179847e-01 1.4169140717149659e+01 -1 0 1
4003 1 3.2272442762009107e-01 1.1258731676986342e+01 2.2193277549998186e+01 2 1 -1
1255 1 4.9006747980612033e+00 9.9134686425220391e+00 2.2082310794045014e+01 3 -1 0
2577 1 5.2258166072908221e+00 1.0023092798251396e+01 1.9377540169617564e+01 -3 0 -1
3370 1 9.9093261591609991e+00 1.0703175120699893e+01 2.2876344700084815e+01 1 -1 1
2735 1 1.0111311450662395e+01 1.0987565820811160e+01 1.8357336784507698e+01 1 1 -1
2714 1 9.5096298057499151e+00 8.5552150129700930e+00 1.9278378074992915e+01 2 0 -1
3468 1 9.4560012966893883e+00 8.3243271914046044e+00 2.1968929052318998e+01 1 -3 1
559 1 3.1467691408644893e+00 1.2003820517607902e+01 1.4558626450008726e+01 0 1 0
1463 1 2.8226583425396190e+00 2.4837495988393052e+00 2.6090213953855287e+01 -1 -2 1
3445 1 4.8515497491299842e+00 1.0147965241235950e+01 2.6393726131404392e+01 1 0 0
2770 1 4.8704373181774461e+00 5.4279592207312244e-01 2.2856152489035864e+01 1 1 1
1932 1 4.6603632290722601e+00 3.5107963016470622e-01 2.5699439525796571e+01 0 2 1
3268 1 7.2558502340119970e+00 8.3234762238486315e-01 2.6281120415229040e+01 2 0 0
4066 1 7.9707114805512917e+00 3.7622453034412380e+00 2.2873801318703670e+01 2 -1 0
1927 1 8.0811530823459083e+00 3.4686263986123977e+00 2.5554218100107896e+01 -2 1 0
2778 1 1.0774612473737259e+01 3.9737587830754748e+00 2.6516829602559852e+01 -1 1 0
3305 1 3.5635663824335029e+00 5.0463111693218003e+00 2.2984804385852183e+01 -1 0 0
3957 1 1.5230798861596453e+00 6.7075026232621147e+00 2.6409775020102078e+01 2 -1 0
3999 1 3.5312746580486372e+00 4.9990174282910740e+00 2.5676414996380810e+01 -1 0 0
1386 1 6.1454818697130529e+00 5.2422020289088183e+00 2.6042705682047668e+01 -2 0 1
1326 1 6.7555896400209496e+00 7.9518648935631262e+00 2.2867389329722801e+01 -2 0 -1
1354 1 1.1236615697731924e+01 6.5742681252512574e+00 2.2786916907786175e+01 0 1 1
1422 1 1.1147392620389466e+01 6.6046536082441660e+00 2.5504909505568101e+01 3 1 1
3912 1 2.3139774697517255e+00 9.4685538294855789e+00 2.2692983085967391e+01 2 1 -1
3417 1 5.5209462271385301e-01 1.1168975030177398e+01 2.6391788638126751e+01 1 1 -1
2677 1 6.6544409288942941e-03 2.3096289763642157e+00 2.2839807486221737e+01 1 -1 -1
2063 1 3.8375479024781578e-01 2.1017957175289204e+00 1.5555796923049023e+01 2 0 -1
3967 1 4.0699652113108775e-02 2.0477026078048377e+00 1.8396660807012221e+01 0 3 1
1925 1 1.1990237186799716e+01 8.9729398995151897e+00 1.4601574372205826e+01 1 0 -1
629 1 1.4065704077351882e-01 2.1716020961697580e+00 2.5634180305608162e+01 2 0 1
93 2 0.0000000000000000e+00 1.2787731112280996e+01 2.7775597692178078e+00 0 0 0
95 2 1.2305000000000001e+00 1.3498160618518829e+01 2.7775597692178078e+00 0 0 0
130 2 2.4610000000000003e+00 1.2787731112280996e+01 2.7775597692178078e+00 0 0 0
132 2 3.6915000000000004e+00 1.3498160618518829e+01 2.7775597692178078e+00 0 0 0
91 2 0.0000000000000000e+00 1.5629449137232333e+01 2.7775597692178078e+00 0 0 0
126 2 1.2305000000000001e+00 1.4919019630994494e+01 2.7775597692178078e+00 0 0 0
128 2 2.4610000000000003e+00 1.5629449137232328e+01 2.7775597692178078e+00 0 0 0
171 2 3.6915000000000004e+00 1.4919019630994494e+01 2.7775597692178078e+00 0 0 0
175 2 4.9220000000000006e+00 1.2787731112280996e+01 2.7775597692178078e+00 0 0 0
177 2 6.1524999999999990e+00 1.3498160618518829e+01 2.7775597692178078e+00 0 0 0
222 2 7.3829999999999991e+00 1.2787731112280996e+01 2.7775597692178078e+00 0 0 0
173 2 4.9220000000000006e+00 1.5629449137232333e+01 2.7775597692178078e+00 0 0 0
218 2 6.1524999999999990e+00 1.4919019630994494e+01 2.7775597692178078e+00 0 0 0
220 2 7.3829999999999991e+00 1.5629449137232333e+01 2.7775597692178078e+00 0 0 0
224 2 8.6135000000000002e+00 1.3498160618518835e+01 2.7775597692178078e+00 0 0 0
269 2 9.8440000000000012e+00 1.2787731112280996e+01 2.7775597692178078e+00 0 0 0
271 2 1.1074500000000002e+01 1.3498160618518829e+01 2.7775597692178078e+00 0 0 0
265 2 8.6135000000000002e+00 1.4919019630994494e+01 2.7775597692178078e+00 0 0 0
267 2 9.8440000000000012e+00 1.5629449137232328e+01 2.7775597692178078e+00 0 0 0
307 2 1.1074500000000002e+01 1.4919019630994494e+01 2.7775597692178078e+00 0 0 0
122 2 0.0000000000000000e+00 1.7050308149707998e+01 2.7775597692178078e+00 0 0 0
167 2 2.4610000000000003e+00 1.7050308149707998e+01 2.7775597692178078e+00 0 0 0
120 2 0.0000000000000000e+00 1.9892026174659328e+01 2.7775597692178078e+00 0 0 0
124 2 1.2305000000000001e+00 1.7760737655945832e+01 2.7775597692178078e+00 0 0 0
163 2 1.2305000000000001e+00 1.9181596668421495e+01 2.7775597692178078e+00 0 0 0
165 2 2.4610000000000003e+00 1.9892026174659328e+01 2.7775597692178078e+00 0 0 0
169 2 3.6914999999999996e+00 1.7760737655945832e+01 2.7775597692178078e+00 0 0 0
210 2 3.6914999999999996e+00 1.9181596668421495e+01 2.7775597692178078e+00 0 0 0
214 2 4.9220000000000006e+00 1.7050308149707998e+01 2.7775597692178078e+00 0 0 0
261 2 7.3830000000000009e+00 1.7050308149707998e+01 2.7775597692178078e+00 0 0 0
212 2 4.9220000000000006e+00 1.9892026174659328e+01 2.7775597692178078e+00 0 0 0
216 2 6.1524999999999999e+00 1.7760737655945832e+01 2.7775597692178078e+00 0 0 0
257 2 6.1524999999999999e+00 1.9181596668421495e+01 2.7775597692178078e+00 0 0 0
259 2 7.3829999999999991e+00 1.9892026174659328e+01 2.7775597692178078e+00 0 0 0
303 2 9.8440000000000012e+00 1.7050308149707998e+01 2.7775597692178078e+00 0 0 0
337 2 1.2304999999999998e+01 1.7050308149707998e+01 2.7775597692178078e+00 0 0 0
263 2 8.6134999999999984e+00 1.7760737655945832e+01 2.7775597692178078e+00 0 0 0
299 2 8.6135000000000002e+00 1.9181596668421495e+01 2.7775597692178078e+00 0 0 0
301 2 9.8440000000000012e+00 1.9892026174659335e+01 2.7775597692178078e+00 0 0 0
305 2 1.1074500000000002e+01 1.7760737655945835e+01 2.7775597692178078e+00 0 0 0
333 2 1.1074500000000002e+01 1.9181596668421495e+01 2.7775597692178078e+00 0 0 0
157 2 0.0000000000000000e+00 2.4154603212086325e+01 2.7775597692178078e+00 0 0 0
159 2 0.0000000000000000e+00 2.1312885187134999e+01 2.7775597692178078e+00 0 0 0
161 2 1.2304999999999993e+00 2.2023314693372832e+01 2.7775597692178078e+00 0 0 0
202 2 1.2304999999999993e+00 2.3444173705848499e+01 2.7775597692178078e+00 0 0 0
204 2 2.4610000000000003e+00 2.4154603212086325e+01 2.7775597692178078e+00 0 0 0
206 2 2.4610000000000003e+00 2.1312885187134995e+01 2.7775597692178078e+00 0 0 0
208 2 3.6914999999999996e+00 2.2023314693372832e+01 2.7775597692178078e+00 0 0 0
249 2 3.6915000000000004e+00 2.3444173705848499e+01 2.7775597692178078e+00 0 0 0
251 2 4.9220000000000006e+00 2.4154603212086325e+01 2.7775597692178078e+00 0 0 0
253 2 4.9220000000000006e+00 2.1312885187134995e+01 2.7775597692178078e+00 0 0 0
255 2 6.1524999999999990e+00 2.2023314693372832e+01 2.7775597692178078e+00 0 0 0
291 2 6.1524999999999999e+00 2.3444173705848499e+01 2.7775597692178078e+00 0 0 0
293 2 7.3830000000000009e+00 2.4154603212086336e+01 2.7775597692178078e+00 0 0 0
295 2 7.3829999999999991e+00 2.1312885187134999e+01 2.7775597692178078e+00 0 0 0
297 2 8.6135000000000002e+00 2.2023314693372832e+01 2.7775597692178078e+00 0 0 0
325 2 8.6134999999999984e+00 2.3444173705848499e+01 2.7775597692178078e+00 0 0 0
327 2 9.8440000000000012e+00 2.4154603212086336e+01 2.7775597692178078e+00 0 0 0
329 2 9.8440000000000012e+00 2.1312885187134999e+01 2.7775597692178078e+00 0 0 0
331 2 1.1074500000000002e+01 2.2023314693372832e+01 2.7775597692178078e+00 0 0 0
351 2 1.1074500000000002e+01 2.3444173705848499e+01 2.7775597692178078e+00 0 0 0
94 2 0.0000000000000000e+00 1.2787731112280996e+01 5.8312850221273029e+00 0 0 0
131 2 2.4610000000000003e+00 1.2787731112280996e+01 5.8312850221273029e+00 0 0 0
403 2 0.0000000000000000e+00 1.2787731112280996e+01 8.8850102750373416e+00 0 0 0
404 2 1.2305000000000001e+00 1.3498160618518829e+01 8.8850102750373416e+00 0 0 0
422 2 2.4610000000000003e+00 1.2787731112280996e+01 8.8850102750373416e+00 0 0 0
423 2 3.6915000000000004e+00 1.3498160618518829e+01 8.8850102750373416e+00 0 0 0
92 2 0.0000000000000000e+00 1.4208590124756663e+01 5.8312850221273029e+00 0 0 0
127 2 1.2305000000000001e+00 1.4919019630994494e+01 5.8312850221273029e+00 0 0 0
129 2 2.4610000000000003e+00 1.4208590124756663e+01 5.8312850221273029e+00 0 0 0
172 2 3.6915000000000004e+00 1.4919019630994494e+01 5.8312850221273029e+00 0 0 0
402 2 0.0000000000000000e+00 1.5629449137232333e+01 8.8850102750373416e+00 0 0 0
420 2 1.2305000000000001e+00 1.4919019630994494e+01 8.8850102750373416e+00 0 0 0
421 2 2.4610000000000003e+00 1.5629449137232328e+01 8.8850102750373416e+00 0 0 0
443 2 3.6915000000000004e+00 1.4919019630994494e+01 8.8850102750373416e+00 0 0 0
176 2 4.9220000000000006e+00 1.2787731112280996e+01 5.8312850221273029e+00 0 0 0
223 2 7.3829999999999991e+00 1.2787731112280996e+01 5.8312850221273029e+00 0 0 0
445 2 4.9220000000000006e+00 1.2787731112280996e+01 8.8850102750373416e+00 0 0 0
446 2 6.1524999999999990e+00 1.3498160618518829e+01 8.8850102750373416e+00 0 0 0
469 2 7.3829999999999991e+00 1.2787731112280996e+01 8.8850102750373416e+00 0 0 0
174 2 4.9220000000000006e+00 1.4208590124756663e+01 5.8312850221273029e+00 0 0 0
219 2 6.1524999999999990e+00 1.4919019630994494e+01 5.8312850221273029e+00 0 0 0
221 2 7.3830000000000009e+00 1.4208590124756663e+01 5.8312850221273029e+00 0 0 0
444 2 4.9220000000000006e+00 1.5629449137232333e+01 8.8850102750373416e+00 0 0 0
467 2 6.1524999999999990e+00 1.4919019630994494e+01 8.8850102750373416e+00 0 0 0
468 2 7.3829999999999991e+00 1.5629449137232333e+01 8.8850102750373416e+00 0 0 0
270 2 9.8440000000000012e+00 1.2787731112280996e+01 5.8312850221273029e+00 0 0 0
470 2 8.6135000000000002e+00 1.3498160618518835e+01 8.8850102750373416e+00 0 0 0
493 2 9.8440000000000012e+00 1.2787731112280996e+01 8.8850102750373416e+00 0 0 0
494 2 1.1074500000000002e+01 1.3498160618518829e+01 8.8850102750373416e+00 0 0 0
266 2 8.6135000000000002e+00 1.4919019630994494e+01 5.8312850221273029e+00 0 0 0
268 2 9.8440000000000012e+00 1.4208590124756663e+01 5.8312850221273029e+00 0 0 0
306 2 1.1074500000000002e+01 1.6339878643470161e+01 5.8312850221273029e+00 0 0 0
308 2 1.1074500000000002e+01 1.4919019630994494e+01 5.8312850221273029e+00 0 0 0
310 2 1.2304999999999998e+01 1.4208590124756658e+01 5.8312850221273029e+00 0 0 0
491 2 8.6135000000000002e+00 1.4919019630994494e+01 8.8850102750373416e+00 0 0 0
492 2 9.8440000000000012e+00 1.5629449137232328e+01 8.8850102750373416e+00 0 0 0
512 2 1.1074500000000002e+01 1.4919019630994494e+01 8.8850102750373416e+00 0 0 0
123 2 0.0000000000000000e+00 1.7050308149707998e+01 5.8312850221273029e+00 0 0 0
125 2 1.2305000000000001e+00 1.6339878643470165e+01 5.8312850221273029e+00 0 0 0
168 2 2.4610000000000003e+00 1.7050308149707998e+01 5.8312850221273029e+00 0 0 0
170 2 3.6915000000000004e+00 1.6339878643470165e+01 5.8312850221273029e+00 0 0 0