LAMMPS data file via write_data, version 29 Oct 2020, timestep = 100676

4466 atoms
1 atom types

0.0 49.22 xlo xhi
0.0 49.019635930410494 ylo yhi
1.0325972677053024 59.029402732294784 zlo zhi

Masses

1 18.015

Atoms # atomic

2644 1 1.3379647940936745 1.4345768695348793 1.6659724584366242 1 0 0
2141 1 5.431125157005456 0.8217321599060057 4.347992563833845 0 0 1
1519 1 8.241461880108545 24.380048370293157 11.10540287406501 0 0 0
432 1 20.336799644655144 0.698435404168 2.88096178424556 0 0 0
2343 1 2.4498964052770016 3.868369969362366 2.5803235310204498 1 0 0
1185 1 20.02689889973413 22.83639563845725 26.54330473074718 0 0 0
665 1 6.7857293979125135 2.786754718981501 2.9223512370428173 0 0 1
256 1 24.388860621889098 3.2689418309659395 23.236394736514548 0 0 0
141 1 13.195789298746755 4.576504078509036 2.2550822987477748 0 0 0
3303 1 14.682165879723849 8.046696024110389 5.00266672493699 1 0 1
460 1 15.679372090921825 3.3301724669075154 1.9111169639572774 0 0 0
2259 1 20.567433431494276 5.392964627638494 1.9883853994378518 0 0 0
1055 1 18.52006851213444 5.981201442072399 3.813587668804391 0 0 1
1784 1 21.943690990720345 2.8470965259899472 3.1260584210818836 0 1 1
3739 1 22.96724780917206 11.512436586616284 27.962019277341504 0 0 0
940 1 3.198045631188996 7.434439615794203 3.401146493622864 0 0 1
2114 1 6.358643492774443 7.178132589869854 2.5037011217681977 0 1 1
3598 1 10.181868583833603 8.107574142788415 4.430606655429807 0 0 0
1912 1 12.237042887287714 7.055624851510815 1.3030420432297727 0 1 1
2642 1 17.3152514201265 8.251323533691455 4.135459498711969 1 0 0
450 1 17.740520089464987 8.796486422757736 1.4599890904656974 0 0 0
2069 1 4.641522522920787 12.95381709620511 29.705960464509825 0 0 0
341 1 23.11570356977201 6.820001489357995 2.567832676483067 0 0 0
667 1 24.339550828360547 2.787605787385695 2.2587995989650644 0 0 1
197 1 23.923881635937644 4.017705796675773 27.1982874489153 0 0 0
1231 1 5.295008859344059 9.806212928345321 3.620071306084866 0 0 0
1577 1 9.868504012979368 11.000682786325955 3.860581996842975 0 1 0
811 1 12.537352715027312 8.817045246833503 3.176196703991663 0 0 1
991 1 2.535379058980853 6.1479988725785155 29.69169521842006 0 0 0
827 1 22.49541013575782 12.310892488715194 1.860278765594638 0 0 1
864 1 22.690865828377426 9.736823565552807 3.075130539472114 0 0 1
930 1 3.4786078006899785 14.594592597825685 3.9944832284069904 0 0 1
136 1 2.1779624692283512 0.6205554987806021 7.966415143154679 0 0 0
768 1 6.886806157947033 13.665715479805694 2.430246208994628 0 0 1
2664 1 21.967061225816114 18.711726388114933 5.170317063212866 0 0 0
277 1 16.502663907050128 12.317117065726425 2.8137454987191663 0 0 0
383 1 14.16575847111361 0.8574755919148453 15.005761744136233 0 0 0
677 1 8.634080579191533 11.660431737973099 28.846113074257914 0 0 0
404 1 20.321339425626523 23.355487824302053 17.037701612402813 0 0 0
1114 1 10.300612590419766 15.848489994363472 1.4729592478461155 0 0 0
340 1 15.859479372215185 15.369813278341868 3.2350566790135646 0 0 0
35 1 17.48943846192683 16.96416289891195 1.7307774085899412 0 0 0
1359 1 20.773719201919334 15.656581346717928 1.772837095248383 0 0 0
3119 1 23.847184296538163 10.86868421234564 9.18153334825333 0 0 1
133 1 22.380038834113652 23.268260729544124 28.010532384180472 0 0 0
2431 1 4.398961043066309 17.328875647080544 3.279647116256192 1 0 0
3764 1 7.427160034528405 18.16889875964109 1.4042614218450091 1 0 0
320 1 21.094967665030733 24.34307824683317 2.129775272858225 0 0 0
1442 1 1.7576905619387695 24.14275019073639 16.42294945440637 0 0 0
4440 1 21.380651267320467 0.5169904387123696 28.828172917705675 0 1 0
1128 1 0.5426202494836284 14.440189649125099 13.706314216239425 0 1 0
2912 1 20.29415305327493 20.972984140863726 1.1954836811807332 0 0 1
1334 1 24.59185895946047 18.835647728824362 22.79865703680324 0 0 0
185 1 0.9586235039681447 19.395667064561124 4.325756896234237 1 0 0
58 1 17.765856612613028 23.51537578685953 10.287599614330587 0 0 0
382 1 19.090915650921573 23.06868350321426 5.658103805268179 0 0 0
457 1 23.33186093268921 19.646211537880273 28.570006778410306 0 0 0
1002 1 7.269478672132775 23.058590691706925 2.9457626977542484 0 0 1
2486 1 0.9204027194826749 22.06312780915058 2.6014406358609232 1 0 0
1172 1 16.941751144331796 0.18656743090306724 28.081124573017263 0 1 0
1383 1 16.592906132517463 20.81636454662107 2.984157942415165 0 0 0
1528 1 14.976546216839209 22.889679431766737 3.255923445158271 0 0 0
1372 1 14.017975355245689 22.532575822849378 21.349557652764503 0 0 0
846 1 14.626239364161162 19.30038828290069 26.584347725254872 0 0 0
1202 1 11.857323510583136 1.9108724286753425 2.2989936010750522 0 1 0
224 1 10.915794150029695 11.071404220425677 29.71346528132566 0 0 0
2596 1 1.2187189146784834 7.744840780361787 24.408275036502133 1 0 0
73 1 3.9953616467266975 2.1133989501300174 6.145993210553736 0 0 0
271 1 11.548327311245776 2.9308080359640014 4.929993135867752 0 0 0
350 1 11.45866759681226 0.8595358375400096 6.707679609771728 0 0 0
1720 1 17.64094970542365 1.1085563790351076 4.440979484682927 0 1 1
3860 1 23.260566011735087 1.353586962289778 6.380501813335188 0 1 0
2013 1 1.7340059862344297 4.304549845531785 5.496112844311987 0 1 1
1340 1 8.967893309257306 6.124668055388747 3.170630055650397 0 1 0
2825 1 5.899989812432228 6.338395995301824 6.78527703342661 1 0 1
103 1 8.695888786511105 3.7502320853569278 4.759676679351057 0 0 0
904 1 14.400255334165324 5.093686505569196 4.7590141254649785 0 0 1
130 1 17.057599284969957 3.7548598993939204 4.391771025025356 0 0 0
1850 1 20.53751409879749 5.9851618735511 5.76850487825044 0 1 1
617 1 22.33061585529382 3.709863820419965 5.520114690469415 0 0 1
2556 1 0.9593875392676379 11.267544040912417 18.744274428674284 1 0 0
3745 1 1.9875759193614986 7.138022161596189 5.930184709108374 1 1 0
235 1 7.6856239918783285 8.60833990318045 6.374124631970927 0 0 0
625 1 11.574176732219113 7.675265373143305 7.095532022313372 0 0 1
536 1 14.625327701399556 7.872571662384152 7.96615537384222 0 0 0
283 1 21.451502642315347 10.281220391704082 5.332867329400021 0 0 0
4266 1 2.459687811313303 10.83485256313633 8.416657056824004 1 0 1
1664 1 5.360980151248337 10.345133622986046 6.406159776715067 0 0 1
363 1 9.753667786703879 8.42789684907779 8.943656281017098 0 0 0
123 1 8.032347402426497 11.965365884469863 5.773295313685121 0 0 0
2530 1 13.647319366611544 12.059238904125865 6.658570087454894 0 0 0
60 1 15.480640779660774 10.907919839767699 5.148515798897874 0 0 0
4332 1 18.955973550867686 11.465145318698681 3.5629043940625404 0 1 1
180 1 18.64035677135128 9.69979888749165 6.220782424663775 0 0 0
210 1 0.973756160624294 15.239671431603519 4.942892367548367 0 0 0
1169 1 5.219548368348184 13.62598577178788 5.837473131202827 0 0 0
1217 1 7.908418046966118 14.611742794037204 4.864976518856649 0 0 0
164 1 12.209689067492835 12.24332703027821 4.272765362134875 0 0 0
668 1 18.060233454204912 14.374486291151356 4.764085827531035 0 0 1
156 1 20.681507082502414 13.91942888144129 3.7118835613479275 0 0 0
423 1 23.21277666588411 14.084140200196732 5.546441661597473 0 0 0
1212 1 1.2680914540997514 16.905366376140268 7.153841782747992 0 0 0
268 1 5.214118862074132 16.153193507255676 7.670205595162984 0 0 0
2205 1 3.5032317496293026 18.585642599970846 7.2930906337012456 1 0 0
2424 1 7.619196400202809 17.720036095044193 7.1588474307649355 1 0 0
1033 1 9.159290471836629 16.701330777979084 3.9152235136598867 0 0 1
476 1 12.429722554688832 14.7408146756999 3.1825522446318906 0 0 0
950 1 14.146910672716388 17.026060200553502 4.578548458342995 0 0 1
1418 1 18.746007436806817 18.740763336868227 3.2533263784721793 0 0 0
2729 1 21.370570662254895 18.559150530008964 2.2607040904822577 0 0 0
1613 1 6.6862663368500606 24.290883150297645 20.783608159498968 0 0 0
2564 1 3.535986114737724 19.568645014155372 4.8969027773898635 1 0 0
2706 1 6.744819047627527 18.507202395261015 4.219077016069099 1 0 0
2222 1 11.634871725545763 20.176923640119377 2.739750139242739 1 0 0
1012 1 14.311611080757856 19.178334584991255 2.7584690716902083 0 0 1
3386 1 0.6791868597880488 23.393668590273734 5.361357591655039 1 0 0
803 1 3.9132482792220875 22.211046289794968 5.8565466006770865 0 0 1
2268 1 6.595457991783587 20.93544443166957 6.076543748814333 1 0 0
734 1 8.93344753053645 22.608408928644344 5.243825144942571 0 0 1
3864 1 11.314372797195364 21.37954341842287 5.293701537832145 1 0 0
716 1 13.366658533455416 23.229534716116685 5.346463845772456 0 0 1
2210 1 15.07745762445422 21.902950203621415 7.003962680159623 0 0 0
29 1 17.51869628323867 20.9447975936392 5.7836552080453325 0 0 0
956 1 13.720140476119864 10.789572375540898 27.018523011038717 0 0 0
1035 1 20.54154184085898 22.128438200604922 3.626518119302623 0 0 1
480 1 5.77506777278615 2.039312196803798 8.353450544943435 0 0 0
558 1 9.280631049569353 1.525977478471197 8.77215685963137 0 0 1
1672 1 12.907582796648098 2.400009867013083 8.914821395279041 0 1 1
344 1 17.408567829309757 2.1197442685057335 8.983571482794062 0 0 0
1814 1 15.118041572224984 1.2745930402985337 10.128661144829369 0 1 1
2246 1 0.18567756492352055 16.42511703641273 15.7806729107757 1 0 0
94 1 1.6882080410543727 6.893904270826301 9.556376414095793 0 0 0
1715 1 7.444703921255698 4.0022243899840095 7.275993812937286 0 1 1
597 1 10.125290954633467 4.273339901987641 8.68175695959181 0 0 1
461 1 11.398413185494071 5.085216434302695 10.92059478678297 0 0 0
475 1 14.363401420125777 4.90469279271603 8.266105794709972 0 0 0
1491 1 16.945378379800495 4.384980302706628 7.508298958810826 0 1 0
3495 1 19.043874757595116 6.179542899885764 8.144915658226811 0 1 0
1495 1 19.75981118206389 5.333885193713173 10.609873613151922 0 1 0
166 1 5.3016760863372125 7.6241998250634095 10.123187420839905 0 0 0
1215 1 3.608548314574752 8.389560639063045 8.143332568938366 0 1 0
276 1 7.736905260626074 6.274440888045852 9.563888174894318 0 0 0
127 1 12.145313162473427 5.101097560961275 6.577790348393426 0 0 0
162 1 13.717242730491282 9.441677487064922 10.672465951935855 0 0 0
2211 1 13.841137118491158 6.5035798710999275 10.702394914473098 0 0 0
65 1 17.37569723343301 8.297434239452082 8.071903831607042 0 0 0
242 1 13.119041458360337 17.582547413302596 28.247790612305536 0 0 0
2611 1 1.0912039220368424 10.373049061069207 10.736566827076865 1 0 0
1050 1 6.324650338336596 13.286831758693394 9.867122449056719 0 0 1
2295 1 7.135236741203034 10.089746169905565 9.13641204104964 1 0 0
797 1 8.527526484014473 12.601435186159227 8.426016868606913 0 0 1
453 1 10.828769808606296 12.440849280928804 9.875206062211161 0 0 0
3354 1 12.282556222509129 10.384394196681184 8.68853308316989 1 0 1
64 1 16.06329159074084 11.24921299834256 10.734736229871698 0 0 0
3478 1 22.061074965487105 11.955483919864966 7.236416088319516 0 1 0
3646 1 20.684811580922446 20.31525230269458 28.056110835054074 0 0 0
2741 1 1.6690326529033845 14.883779521648716 8.94789742624988 1 0 0
110 1 3.9667975371067743 13.204189001445595 8.253923681158621 0 0 0
2866 1 6.53694781955849 16.266099284985867 10.278864551412005 1 0 1
1625 1 9.402934947235225 15.345116484659545 7.328115078763714 0 1 0
367 1 12.898385970965318 14.918925520818016 7.241532300610717 0 0 0
24 1 15.791461002653291 13.007920719252342 8.570779128615822 0 0 0
131 1 17.668534080511595 12.316408734183911 6.809832440335268 0 0 0
15 1 19.898796644873 12.382322621699437 8.525048769802197 0 0 0
39 1 19.593860445600907 15.246284214285614 9.152209090440117 0 0 0
234 1 5.492231714422298 19.027655310424198 10.771496537712892 0 0 0
987 1 11.5361787524258 16.856083327758544 5.490352153700186 0 0 1
3875 1 9.627929528343463 16.399305207912334 9.967813350577353 1 0 0
1013 1 15.397601572077381 17.06658245681439 6.919888853906903 0 0 1
209 1 18.146331151324382 16.36964067503527 6.7829976939095795 0 0 0
306 1 22.18497712281811 16.302357462597573 9.210879990832737 0 0 0
2603 1 2.4008259503161518 20.179206032700222 9.117840329255861 1 0 0
327 1 7.0897748443068584 20.63996882205086 9.081496424396747 0 0 0
1889 1 9.496004032970093 19.108710631885135 9.010716357228272 0 0 1
578 1 11.510352555331474 19.33938909676565 7.018419411892594 0 0 1
23 1 14.176291944232132 19.498074463153273 8.611555192637555 0 0 0
2544 1 15.984666908339895 18.64009746833078 10.689443863602085 0 0 0
1465 1 19.335004337532364 18.775069849492883 6.125576403387178 0 0 0
179 1 20.401234785623295 20.07080678471607 8.461726598098807 0 0 0
3479 1 22.58791488145961 18.809172534955596 8.11439744341929 0 0 0
337 1 0.4519499270558807 21.677488872503677 7.602204292578639 0 0 0
2752 1 4.311298776910057 23.245439949208347 8.34617799505562 1 0 0
1345 1 7.1739401520885675 23.155383307644477 8.745271980340188 0 0 0
3908 1 6.328882142625781 20.78453428115783 1.4075911370739915 0 0 0
3705 1 24.38453017323888 17.089943739123058 4.964555748895045 0 0 0
3144 1 23.862847938365803 20.11063747162835 15.794882161477164 0 0 1
226 1 24.289068861690293 14.87672947972685 25.773599611590306 0 0 0
1603 1 24.157112077372066 23.61953966405119 10.139430467313531 0 0 0
3664 1 1.4439590305780594 1.6238655344727164 11.532299429859135 1 1 0
21 1 24.107349253211442 14.632314702591978 8.038972018013354 0 0 0
448 1 5.764526839224005 2.097915232480387 11.158608052720284 0 0 0
135 1 4.984393721160847 4.901998461059961 1.9221794030873736 0 0 0
829 1 8.39365784712083 24.436531507015893 1.2041419510956393 0 0 1
3872 1 8.540257704433339 1.3077027772705185 11.368600776381015 1 1 0
2714 1 9.703438788479257 3.7170033993869516 13.625893314523525 1 0 0
3431 1 24.331083609707356 23.26955777495772 18.830179642402534 0 0 0
2358 1 14.737969932986962 2.500918401284137 12.647699091334443 0 0 0
546 1 19.28541055906568 2.504360233405362 11.040437890582343 0 0 0
2503 1 17.722671740257375 1.7283546725495165 12.994480384410446 0 0 0
1753 1 21.56840776544616 0.7039537700265056 11.13934218250423 0 1 1
187 1 24.103030567859154 1.843370238231472 11.441104428020784 0 0 0
2418 1 1.6936874752102657 3.83311135755473 13.127638281496077 1 0 0
2236 1 3.2556542599566316 6.30208957187534 11.986038556415048 1 0 0
2612 1 4.848216363560002 4.187436435196057 12.986656524036258 1 0 0
331 1 7.61265460214758 4.897185989375114 12.393146189398879 0 0 0
30 1 12.045981051864631 2.4702928479064385 11.856575726634238 0 0 0
438 1 14.70689847889414 4.862029974060085 14.381348563196509 0 0 0
263 1 15.555572979302228 6.849672621560342 12.796426196041894 0 0 0
938 1 19.892916221341075 3.615958445685654 14.17522027427082 0 0 0
245 1 22.53336493054297 5.745161226175692 10.687023388351992 0 0 0
2669 1 2.0949581916855218 17.99101730035335 1.5510821088656204 1 0 0
121 1 1.0430555525465104 8.362212786339944 14.477900814347064 0 0 0
3603 1 4.371526356105383 8.67250121363069 13.562045052913952 1 1 0
1115 1 6.789876491940129 9.378172719336145 12.015779731205006 0 1 0
2130 1 17.92491418587201 9.416121753718487 10.440672148080868 0 0 1
2341 1 18.184065361403437 7.250051853419074 12.107671534338225 1 0 0
2569 1 22.548185014238655 7.792104972489681 12.576274589625953 0 0 0
2380 1 2.8014866954163837 10.985110214041029 12.84646518924839 1 0 0
238 1 5.03178783135558 12.789626550090352 12.28562671140725 0 0 0
549 1 7.7065152916520985 11.734844884822307 13.074151303015658 0 0 0
2485 1 12.018720807519522 9.673383850093053 12.8437711427845 1 0 0
351 1 15.893694441946833 11.800752567280277 13.47465099650546 0 0 0
2113 1 20.213239015651787 11.071014800790929 11.020364386305731 0 1 1
2245 1 22.799586636732055 10.531961499689585 11.75640668004724 0 0 0
2743 1 1.6932832349877678 15.736882259923794 11.597063727368761 1 0 0
454 1 14.962389153233687 24.10723490089083 17.453560534542778 0 0 0
2585 1 4.530273648006611 15.408364104104715 12.159044154735106 1 0 0
529 1 9.345655709318892 13.403178850135017 11.949353560829465 0 0 0
2378 1 12.181251174616802 15.12218769420479 9.932111142873199 1 0 0
1306 1 13.707064678589855 13.356130927659695 13.454898786704957 0 0 0
452 1 15.930443540109932 15.551973849572196 9.794564158036156 0 0 0
581 1 1.599531184317971 18.621925033079634 11.326556147988079 0 0 1
1194 1 7.7801120393582694 17.693136259935155 14.177689679366592 0 1 0
206 1 9.742446461235176 16.229070263631794 12.835520422249326 0 0 0
26 1 18.342564188455867 15.529041642206352 11.52361902248284 0 0 0
292 1 24.118634029884884 16.26176361434754 11.502996533791046 0 0 0
114 1 3.4643549966951066 19.732617452706872 12.963557802227019 0 0 0
42 1 6.5171241501692 20.160603103465533 13.486310952337595 0 0 0
37 1 9.304827977704166 22.722178393481855 12.930113198853245 0 0 0
107 1 10.393079053277916 20.524999536850277 11.510178317092203 0 0 0
433 1 12.92871052592255 21.352044227702937 10.530906137953483 0 0 0
547 1 14.092526569101945 17.833402901866165 13.000842659935325 0 0 0
1192 1 14.634130592711173 20.72791411598255 12.619289772961606 0 0 0
207 1 19.414067470004856 19.365592357138098 11.060935207423716 0 0 0
1955 1 9.59574496638597 12.978395862565234 1.5834981427517945 0 0 1
1230 1 21.38786846055574 20.56894245114586 12.52097918947321 0 0 0
514 1 1.819358203451475 23.52461407529882 11.843993221858785 0 0 0
2608 1 4.055303717521509 22.154989095215218 11.119018043712572 1 0 0
1640 1 5.725858524435973 23.934368891819908 12.523703613165598 0 0 0
2770 1 0.23911418939805484 7.789965456529802 11.785047568517111 1 0 0
708 1 5.704167037992961 18.478793749964737 29.357853117193176 0 0 0
1460 1 17.418063032340683 21.26215278625415 11.754794972313174 0 0 0
1631 1 13.075617399725513 22.540546294888784 1.6253212195078333 0 0 0
2814 1 21.03660198423833 22.606504166979654 7.711950215214191 0 0 1
2372 1 22.206145327445093 23.30638679093837 12.237801523586533 0 0 0
1486 1 2.96129072470005 2.4223997539990423 15.173282971508048 0 1 0
1583 1 5.377555982599448 2.786363703851582 16.19652813409846 0 1 0
369 1 7.769235873203059 2.096420150000227 14.837712707467757 0 0 0
397 1 18.08662152596119 1.8823829784477966 16.1218143384651 0 1 0
3504 1 22.475456972355758 2.4380847702904047 14.61053131660384 0 1 0
3024 1 23.054110477831895 3.357155873011329 17.166050076439284 0 1 1
84 1 4.924667482316707 5.788389073322558 15.870977559952443 0 0 0
7 1 11.90516719183893 5.7944109798007855 14.778590471003398 0 0 0
2179 1 16.147265045352306 4.033834872862502 16.469439138023027 0 1 1
377 1 20.13450396875714 5.629653293582543 15.839697973626123 0 0 0
354 1 18.23628625983749 0.15848156413015732 7.080308985715855 0 0 0
218 1 3.043977649805846 7.821255727928696 16.38541552535206 0 0 0
2731 1 7.9480535434706 7.352889935832768 13.30433820545922 1 0 0
2775 1 7.306892245717578 7.252325294028854 16.301633086732195 1 0 0
1255 1 10.703294283062087 7.284652701948254 12.79254021936618 0 1 0
111 1 14.864010267328712 9.133936382123338 14.448533154791061 0 0 0
2673 1 12.09922229358194 8.543577729883358 15.578545992625944 1 0 0
3881 1 17.315617469583273 8.45483638581783 16.03804259776536 0 0 0
349 1 20.04750517191622 7.621652777428606 13.960275410383355 0 0 0
371 1 9.234480773050064 19.470711559012223 27.756990380909166 0 0 0
486 1 1.831717432428232 12.515934412795092 14.956704951538399 0 0 0
3116 1 8.012601427641101 10.767801214045821 15.553405842809573 1 0 0
3869 1 10.60829535213059 11.069375127059251 16.15711513717993 1 1 0
2590 1 18.403254620104498 12.165540427714609 14.854007882003206 0 0 0
146 1 19.564092522440067 9.676750278351752 15.36672324381053 0 0 0
1503 1 12.41105926606155 23.237647719543993 19.152072874175882 0 0 0
2464 1 3.5312576794918993 12.770440567010326 17.03775077495634 1 0 0
2235 1 10.430828156573298 14.49378412502035 15.661636431381618 1 0 0
1354 1 11.218353144163528 12.513438087941388 13.590422072248089 0 0 0
434 1 14.394894354423137 14.649831914412083 15.860568770389118 0 0 0
787 1 19.61221868546176 13.29965798484239 12.653788367934878 0 0 0
2697 1 21.47966909335785 13.919736733683013 14.320501409152518 0 0 0
2460 1 23.737105491276914 12.592680070285692 13.34028211241841 0 0 0
2540 1 1.7001962874669365 18.414611706227035 16.324475167583174 1 0 0
685 1 5.545151304669258 16.23727116222728 14.845433789380722 0 0 1
3517 1 4.270134083668211 18.573425727792294 15.5890152171345 1 0 0
3379 1 8.63980482598312 17.420568264195886 16.741455792374147 1 1 0
2412 1 11.327308655292574 18.387785192508495 13.179337460767323 1 0 0
1480 1 14.083333970389669 15.466881660825756 11.787565621044896 0 0 0
36 1 15.410069967922079 17.055869506585285 15.353935642279673 0 0 0
2046 1 19.77646844357867 17.55185481660845 13.066395267263418 0 1 1
2415 1 18.174569143426584 17.499127023662798 15.640283690733982 1 0 0
2901 1 22.22832626623994 16.208129366743425 13.40339493079319 0 0 1
303 1 23.5527678937031 17.161742156751313 15.413735650122026 0 0 0
2914 1 23.83549558303979 16.94830281129426 28.166305912456334 0 0 0
391 1 3.957579504084312 21.526745583729895 16.078600911194833 0 0 0
849 1 10.807359458923763 19.321233581449448 15.918238104238522 0 0 1
472 1 14.401134838414153 21.22996662913205 15.363376712634462 0 0 0
2392 1 1.8981316237756722 22.20674561223352 14.41184082730931 1 0 0
3670 1 4.789095128558137 23.732575990160427 3.8765054016823397 1 0 0
157 1 5.96740170302067 23.24504894799708 15.160837280475903 0 0 0
2462 1 11.506940643217138 24.154922301921737 13.596361005452431 1 0 0
3776 1 23.95913013783861 22.385564678529157 14.384939514303394 0 0 0
1823 1 11.720812414501092 22.152020995694116 15.785927295947207 0 0 1
515 1 18.391566464453977 22.349348932340465 14.559247964541205 0 0 0
3801 1 21.07022067957232 20.705493498476553 15.46565844859018 0 0 0
1125 1 1.3650563454566014 3.1511075106056756 17.237563713146745 0 1 0
1135 1 22.613624807076675 21.289028603191547 5.2463348788575175 0 0 0
2671 1 9.646718905450678 1.4693543000987037 16.740741082421593 1 0 0
1400 1 14.73726874043502 1.9240505722733012 17.52305412136263 0 1 0
4227 1 16.566691929480992 0.34673784110340916 18.67039340661997 0 1 1
856 1 19.78724518907858 3.129170655185139 17.679054795943582 0 0 0
2751 1 1.7881179031507641 1.6701743381518286 19.3991165288 1 0 0
990 1 5.522387414544639 2.5399132879719293 18.792519191020858 0 0 0
201 1 3.888456747506588 4.865075896790454 18.502917418368703 0 0 0
2512 1 9.035837559022244 5.631735549468962 18.047067343484155 1 0 0
508 1 10.87315076555605 4.058241529047172 17.069619100554597 0 0 0
1443 1 13.065247277224149 3.922453112884098 18.801234868185457 0 1 0
545 1 15.28479137522079 5.685035933097662 18.938904798389316 0 0 0
109 1 17.966931108691995 6.229683637355835 17.48867435318599 0 0 0
858 1 18.762422395722616 4.513434627467153 20.308391790156765 0 0 0
487 1 22.593524910108947 6.083782622616703 17.832658316393292 0 0 0
552 1 15.261333617063336 23.98548731545772 8.771297958850957 0 0 1
361 1 11.319720117697408 6.7090053800253235 19.503413942702228 0 0 0
463 1 13.52975757611414 7.897222537953602 17.813421944630797 0 0 0
2328 1 16.80509106867533 9.696911245412169 20.133124770947532 0 0 0
3369 1 21.180672987325647 8.090484598579245 19.46780414936785 0 1 0
300 1 3.032863838974802 9.930825150107095 20.58627332097794 0 0 0
3442 1 4.054171643879698 10.0271954598445 17.940538521317812 1 1 0
200 1 6.647700597453843 9.530182291030371 17.54349347149695 0 0 0
323 1 8.125671331857117 10.46899928040831 19.87229103272364 0 0 0
50 1 10.614554135279018 9.290005235806325 20.481393487769722 0 0 0
1854 1 12.631602783094857 10.619257714959772 19.01603884105407 0 1 0
63 1 15.604440704615424 10.097417904515417 17.754113989579157 0 0 0
169 1 21.230031166121034 10.043175738088689 17.44830976091141 0 0 0
2395 1 20.666227916756828 12.504325030633986 18.941294703177114 1 0 0
1622 1 24.125087146162137 9.90800307215352 17.508956515394157 0 0 0
2351 1 1.4957157278785123 14.143476494618836 19.004830185409652 1 0 0
2504 1 5.658270167541306 14.609235568468389 16.98707223103802 1 0 0
2852 1 8.264023511591532 13.510658819310137 17.203557846387405 1 0 1
672 1 8.840654587079525 13.276949340914928 19.846108300669822 0 0 0
284 1 12.416387516319107 15.456056898547553 17.481178249576644 0 0 0
471 1 11.796464134020379 13.408737319606578 19.614605901181978 0 0 0
503 1 16.19064375745467 12.726914634494065 16.609859969734607 0 0 0
937 1 17.859987070814434 14.505128159536033 19.672442743177616 0 0 1
714 1 20.26753905447335 14.189245324281082 16.80716636491455 0 0 0
2225 1 5.685670605787065 16.36762965606696 18.96004484662161 1 0 0
3274 1 12.136122105239261 18.357316565007885 18.092100553830623 1 0 0
2417 1 17.882024836665494 15.23563272309444 17.047436332854843 0 0 0
1154 1 19.42888384026977 16.75830407687879 20.467047667329116 0 0 0
1022 1 21.578633314485057 16.318896883850638 17.517759459027918 0 0 0
3777 1 1.636277373308899 19.650312250840255 18.788657384424432 1 0 0
2592 1 6.331908094603604 18.6695100559202 17.75227219478999 1 0 0
91 1 8.319758427443203 20.311457780969523 19.120201571072073 0 0 0
196 1 8.575982909319428 21.86716416634393 15.50595817937099 0 0 0
67 1 14.815852020266346 18.853022040717004 17.382605028300063 0 0 0
182 1 17.42589691963816 19.577415531537216 17.652786208585688 0 0 0
393 1 20.369118953992558 18.89351706585538 17.706978911206015 0 0 0
2354 1 23.458533124387372 20.69870168213017 18.505583664805116 1 0 0
213 1 1.6498777262868245 22.660987519213037 19.143287256392757 0 0 0
2588 1 4.576658835285213 23.029265985893026 18.421347971512667 1 0 0
1868 1 5.679271066252085 21.10308445396367 19.971676535074952 0 0 0
262 1 9.886975029068319 22.587329557118746 18.079473884342686 0 0 0
3373 1 24.354696460412725 5.578216843402082 5.075681872452922 0 1 0
273 1 16.486035203568235 22.184213646011678 16.519388905218886 0 0 0
412 1 18.174135420640873 22.440484689038055 19.134368868266545 0 0 0
4391 1 17.300365474503728 22.039948263442767 25.952433594801864 0 0 0
2631 1 0.11909682687761614 12.1554520516795 4.593667884042862 1 0 0
59 1 16.84522292994274 18.022702399668546 28.31271790051264 0 0 0
2423 1 3.7306439372510583 0.10849048277888143 11.225716196450389 1 0 0
1404 1 4.183815896689817 1.619645369024384 21.02733694612711 0 1 0
3819 1 9.724211713653203 1.6244395666441789 20.805660623040577 0 1 0
314 1 12.026977646102463 3.3207442627975494 21.134485540353825 0 0 0
464 1 14.156784579886326 1.7452359550180514 22.109899310080536 0 0 0
1576 1 17.02611637690694 2.1685658151298424 20.787450186457924 0 1 0
3022 1 18.62425783768375 0.29739799806133016 21.69644587623214 0 0 0
55 1 21.14868428613485 1.9368741839232484 22.294986671418243 0 0 0
2387 1 21.87056640892434 1.675521068573793 19.249669367731435 0 0 0
2830 1 19.666862047649396 17.88998289840406 27.274665946621216 0 0 0
641 1 4.453298292389851 12.190202015746724 2.4072129648327185 0 0 1
293 1 3.5104448401050954 5.755139209952268 21.5371451034731 0 0 0
1545 1 8.144600838282086 3.448717988160492 19.728035758842378 0 1 0
1222 1 7.604217478412391 5.404618050668112 21.7101304971749 0 1 0
2197 1 11.605108891978821 5.850579908335732 21.9401003829859 1 0 0
298 1 16.17965695835017 5.486375447806438 21.74805115099738 0 0 0
1363 1 20.761364145817108 3.727009682850773 24.839396886218033 0 1 0
1320 1 23.48035374683524 5.757119249699964 20.380503213416187 0 1 0
2483 1 1.6024299069429642 7.709534033649992 21.613029845294747 1 0 0
3878 1 5.649763065817204 7.431083533904895 22.499636818369975 1 1 0
530 1 14.305237893206192 9.3085043484498 21.07110126050564 0 0 0
413 1 14.102597680766781 6.766506408569938 22.71797305039821 0 0 0
2397 1 18.470665765854843 7.643526057199977 19.943661039920944 0 0 0
3368 1 18.138093591931245 7.411734110634681 22.85650950700301 0 0 0
532 1 20.98194281722591 5.035422061583984 21.92142189872671 0 0 0
2437 1 1.153601436089398 11.334919769958583 22.443565723134896 1 0 0
651 1 5.2254417682783965 11.561652561750078 22.899916988896237 0 0 0
2554 1 7.077493675147147 9.742469008727165 22.401412919059013 1 0 0
282 1 9.616010642367462 6.69131450769211 23.40654385232343 0 0 0
3043 1 10.019290941269455 9.54013530429387 23.02595321658728 0 0 0
478 1 14.210759986001898 11.288646341614339 22.75935730486404 0 0 0
1895 1 18.390573506476677 11.998834702585956 20.58050499368108 0 0 0
270 1 21.98184074822783 9.419502823004226 21.875909988412353 0 0 0
99 1 21.11215751927676 7.319427853915473 23.528130862905197 0 0 0
219 1 14.039314864038891 15.169446821644776 27.8063094853343 0 0 0
2506 1 1.3685518941359682 13.96658649264924 21.798125691902634 1 0 0
2237 1 6.001119648480365 14.343719259519817 22.94974140975156 1 0 0
501 1 13.34995705845856 13.940629673381824 21.829599374631204 0 0 0
1447 1 18.732590773318464 12.863674024062224 23.311982846547373 0 0 0
2335 1 22.68475908171955 5.236538716189994 29.475704170751776 0 0 0
322 1 22.846091702936352 13.279939873128566 21.20524249426631 0 0 0
2436 1 3.2250661207411278 15.255628119668527 23.163072136077904 1 0 0
319 1 3.9059143174270528 18.814363295307743 19.954323883839884 0 0 0
2366 1 7.644508542582746 15.84084879622785 20.98049510314523 1 0 0
1446 1 9.335759026870898 17.78021341792479 19.841096321969935 0 1 0
2583 1 8.588602723112237 18.175703192431808 22.684953247403243 1 0 0
232 1 15.660899348313263 15.522285885379647 21.263683518153865 0 0 0
1888 1 15.151146921039706 18.043609940463675 20.147837433149743 0 0 0
1005 1 16.610421399617373 16.809295808804638 23.79196939158285 0 0 0
325 1 19.050434862717616 15.539923447273116 22.85222935332085 0 0 0
357 1 22.2143233710399 17.83346792332184 22.002017710135654 0 0 0
443 1 22.489163876680003 15.985755186542631 20.059434727019493 0 0 0
2757 1 22.785471247405336 7.909065707463818 5.940831573980965 0 0 0
2131 1 3.711363271973532 17.91602103917612 22.633749610144076 0 0 0
968 1 9.21425466094526 20.58519830758572 21.905205219347316 0 0 0
1143 1 13.541642613274648 19.806814194383893 21.97318739081008 0 0 0
1588 1 16.619604641908406 19.70143876170483 22.34837894457805 0 0 0
1461 1 18.082618023053683 19.278209990762164 20.25175959491942 0 0 0
1944 1 21.305895318351883 19.95513286024151 20.227772927814026 0 0 0
3644 1 1.2633549107213216 22.88504941330553 21.9054186176674 1 0 0
1826 1 3.5569250580663923 23.678632887930554 23.337574965395618 0 0 0
3149 1 5.6675842340718985 21.650109879325186 22.629339681365092 1 0 0
562 1 8.15407685982316 22.99964299565757 22.91948750900589 0 0 0