LAMMPS data file via write_data, version 16 Mar 2018, timestep = 100000

6328 atoms
2 atom types

0.0000000000000000e+00 4.9219999999999999e+01 xlo xhi
0.0000000000000000e+00 4.9019635930410494e+01 ylo yhi
3.6151135810818040e+00 5.6446886418917089e+01 zlo zhi

Masses

1 18.015
2 12.01

Atoms # atomic

4724 1 4.0219491306160684e+00 8.3703166730782765e+00 4.7051145624413753e+00 1 0 1
147 1 3.2865800397300218e+00 2.6451757617771139e+00 5.4655409313932228e+00 1 0 1
4444 1 1.6600880942449121e+00 9.9788678902078223e-02 5.7397970749336107e+00 1 0 1
4986 1 1.2005187452042719e+01 1.6223611555536451e+01 9.8359138016566234e+00 0 -1 1
2943 1 3.3086344772999583e+00 1.4817867146525101e+01 1.1638867999352120e+01 1 1 1
4550 1 9.3384039409783419e+00 5.4360652211243066e-01 6.1134873992997996e+00 -1 2 1
5126 1 1.7658375101266046e+00 4.8281442432698904e+00 6.1427318173865375e+00 1 0 0
4614 1 1.5025402166488864e+00 7.3760607271127858e+00 4.9461082489841548e+00 1 0 0
1918 1 7.9860042949537515e+00 7.1884695318075753e-01 1.0009319991457984e+01 0 0 1
2005 1 8.0151070633631818e+00 7.7713158645788658e+00 5.8690097611563399e+00 2 0 1
2079 1 1.0860087016947787e+01 2.4786510759943057e+00 4.4212734872568005e+00 1 0 1
1920 1 9.9502091588400852e+00 9.0452592633683615e+00 8.2954256500246863e+00 -1 0 1
3185 1 5.6377049964304318e+00 9.6584023570701376e+00 7.0534903137710394e+00 1 0 1
5257 1 8.8938744948000235e+00 1.4713841080141179e+01 1.1898408650792341e+01 0 0 1
3348 1 5.8328301046027597e+00 1.1997640617989841e+01 5.4325268753559151e+00 0 1 0
1499 1 1.1891044144371334e+01 1.3109325137318260e+01 8.8003831855127217e+00 0 2 0
5137 1 1.0395797037220462e+00 2.6508025395456464e-01 1.0253209595925767e+01 1 0 0
5233 1 1.1161929947308108e+01 1.2051638278150245e+01 5.5903012299154700e+00 0 0 0
1858 1 7.4406854920411192e+00 1.4040315144810915e+01 5.9808251591825421e+00 1 0 0
1542 1 7.4884284595087030e+00 1.4467318908322479e+01 9.6561825979530447e+00 0 0 1
3220 1 5.0480083694681879e+00 1.8274841108301072e+00 7.5258731677750532e+00 0 -1 0
4588 1 5.8649203328655100e+00 1.6140508186737367e+01 6.9913251588034964e+00 0 0 1
3356 1 4.6839770453690175e+00 1.3583378887442214e+01 9.6317358460937861e+00 1 0 0
1242 1 1.0699689162176606e+01 1.2478429706360423e+01 1.2508089451813390e+01 1 -1 1
4984 1 3.5533119881356785e+00 1.1245014286887436e+00 9.7294283163799093e+00 1 0 1
4466 1 9.3752852355809377e+00 1.0105808180335099e+01 1.1986218401685317e+01 0 1 1
4748 1 8.8989859565879836e+00 2.3835411255568451e+00 8.0450758140650542e+00 0 0 1
3427 1 9.6206453597829480e+00 6.6357501748174705e+00 1.3548778226099815e+01 1 0 1
6325 1 6.9068455615304494e+00 3.7636644855481749e+00 6.8534428215388079e+00 0 -1 0
307 1 8.5549492811879908e+00 7.5294118149003850e+00 1.1203712709366856e+01 2 0 0
3467 1 4.0249234154311289e+00 5.2178169419346174e+00 7.9981645617281503e+00 0 -1 0
4421 1 7.8005176505330125e+00 5.2106095984342424e+00 4.0934624533619761e+00 0 0 1
2849 1 1.0066762399506803e+01 4.5070426848798233e+00 6.0814240747698340e+00 0 0 1
1756 1 1.5661658008378772e+00 8.5000335343518056e+00 7.5855253158765894e+00 1 -1 0
1691 1 3.1317330505493333e+00 1.0796110424288186e+01 7.8445577155658706e+00 0 0 0
4565 1 6.1565417093547889e+00 1.0224189915134614e+01 1.1257479688871936e+01 1 0 1
2814 1 7.8579610462956957e+00 1.0555513322034189e+01 8.8366821297476186e+00 0 2 1
328 1 1.0896274402504101e+01 7.4523961914600951e+00 5.9185424286750230e+00 0 0 0
1449 1 1.2033729814673581e+01 1.0290416386030721e+01 9.7092394532417838e+00 1 0 1
6076 1 3.4047455946895173e+00 1.4995878087209668e+01 7.7387488833154938e+00 0 0 1
3584 1 2.8146305188569718e+00 1.2974232583425103e+01 6.2460907273239368e+00 -1 0 1
4922 1 3.6819338829531634e+00 1.1235649246923961e+01 1.0493424582824098e+01 -1 0 0
6320 1 8.9693357627938965e+00 1.2908965864227342e+01 8.0344660790042859e+00 0 1 0
2056 1 1.1501841278004184e+01 1.4705483269977433e+01 5.4037739652903314e+00 0 0 1
6055 1 9.1142452012647759e+00 1.5870168266078123e+01 4.6109552054547365e+00 0 0 0
325 1 2.9983550618913348e+00 3.8465937661206100e+00 1.0184936075514823e+01 0 1 0
6106 1 9.7821964669551296e+00 3.1679139186191394e+00 1.3106335853482953e+01 0 1 1
4423 1 1.2003425901153943e+00 1.3620197688432654e+01 1.2788447375013959e+01 0 0 1
4895 1 4.7051339717630745e+00 2.2837588870576955e+00 1.3935177669819740e+01 0 1 0
429 1 1.0550099549469055e+01 3.5716572651515470e+00 1.0212750221656041e+01 0 0 0
3031 1 9.1435742501478128e+00 5.5333769474620353e-01 1.2573662103193117e+01 0 1 1
4493 1 2.5095795620215577e+00 7.1176258190814750e+00 1.0027522885724562e+01 1 0 1
5048 1 3.9702368846450247e+00 1.2986527265744797e+01 3.7604842196954307e+00 0 0 0
2081 1 2.8946541808506855e-03 6.7833478241050180e+00 1.1715448917501089e+01 0 0 0
3554 1 6.1731995889511841e+00 6.3356489289505395e+00 1.2866941081170664e+01 1 0 0
5180 1 4.3822814155598770e+00 4.2365225070363781e+00 1.2244700897305576e+01 1 -1 1
310 1 6.9504153921535421e+00 6.3420865493504497e+00 7.9100541783882710e+00 0 1 1
1642 1 1.0179427096677388e+01 1.6132066533397950e+01 7.6783669844047440e+00 0 0 1
4498 1 9.7175520579853512e+00 6.0136999455076747e+00 9.0480952945816036e+00 -1 0 1
4638 1 8.7606799075628172e-01 1.1679479152421150e+01 1.0346376931186960e+01 0 0 1
3552 1 2.9158925495978685e+00 8.3768574626120227e+00 1.2538627507276134e+01 1 1 1
4530 1 5.5772637478138387e+00 7.4730436832707312e+00 1.0159371070321029e+01 1 1 1
4797 1 5.2912252832177202e+00 7.1353471442595495e-01 1.1905301782173956e+01 0 0 0
1828 1 2.5566605707810747e-01 4.6112145637456914e+00 1.0009873586909864e+01 0 0 0
1862 1 1.1537413557255778e-02 1.2969609263263838e+01 5.8508476805774592e+00 0 0 0
2887 1 5.9990393637458510e+00 2.6039281003818591e+00 3.8469378686704050e+00 0 1 1
6077 1 7.4434222673669250e+00 1.0179753652650705e+01 3.7158387201108685e+00 -1 1 1
5193 1 4.5784521892212560e+00 1.3885933204454700e+01 1.4088285527866164e+01 1 0 0
5960 1 3.0582449516020485e+00 5.9663064599969973e+00 1.4171820584572895e+01 0 0 1
3386 1 3.5728469385674401e-02 4.2766859787074463e-01 3.6491800444081099e+00 0 0 0
3196 1 7.8754429778456299e+00 1.5486640565867363e+01 1.8435574626097530e+01 1 1 0
3388 1 1.9082136098399467e+00 2.0194981835635240e+00 1.7785860618804982e+01 0 2 1
2985 1 3.9777780708900474e+00 4.6136375286511022e+00 1.6532689253615661e+01 1 0 0
5160 1 7.8400627958078388e+00 2.9421418861411652e+00 2.0337001646334603e+01 0 -1 0
1942 1 4.6991201955720685e+00 1.5952847162819872e+00 1.7888158934786912e+01 0 -1 0
3513 1 1.2129828680455104e+01 1.1587318286175694e+01 1.4866601963374272e+01 0 0 0
3549 1 2.5406372642977026e+00 7.1174208537319279e+00 1.7800118129775381e+01 1 0 0
3093 1 5.6098461764379293e+00 1.5532334486751736e+01 2.4071040103908945e+01 0 0 1
198 1 1.0690070439906275e+01 3.6372003622489153e+00 1.7450509415432226e+01 1 0 0
1705 1 1.0469725453015316e+01 1.6434513479427253e+00 2.3412948275111987e+01 1 0 0
4806 1 1.2633969663410580e+00 1.2941027689377250e+01 2.3673142782633633e+01 0 1 0
2905 1 2.3303403546651329e+00 9.7626144862404356e+00 1.8983724806470143e+01 1 0 1
6145 1 1.0837391224406563e+01 1.5035277913729821e+01 1.7932150968556229e+01 0 0 1
326 1 1.2065365055773681e+01 3.3483968241133839e+00 1.4752815268536493e+01 1 0 1
1983 1 8.2777019733121637e+00 9.7532032877475494e+00 1.4528578658150785e+01 0 -1 1
1801 1 4.1529181887121887e+00 1.0977451390527570e+01 1.5035654318360342e+01 1 0 0
5237 1 9.7814164659905813e+00 8.3732402742672498e+00 1.6132197380489970e+01 1 1 1
1956 1 1.6188102911191060e+00 1.3105287966803273e+01 2.0988473147647088e+01 0 0 0
5042 1 1.4442336631905910e+00 1.2848941378099770e+01 1.5667101766389559e+01 0 1 0
1460 1 3.5938844101591618e+00 1.4327841325615115e+01 1.6814354145286703e+01 1 0 1
5001 1 8.8364372358170389e+00 5.7366928620907736e+00 1.6635146572296421e+01 1 0 1
4906 1 8.2762648336502576e+00 1.2151162168376839e+01 1.5724783174080853e+01 0 -1 0
6239 1 1.0601176816991471e+01 1.2346607212410031e+01 1.7042187739387153e+01 1 0 0
4953 1 8.8994473905407823e+00 1.2243615643850861e+01 2.1409243340382321e+01 1 0 0
1940 1 1.0938826895609807e+01 8.8398785505955662e+00 2.4372426824652482e+01 0 0 0
1952 1 1.9184520457226142e+00 4.3780619635709783e+00 1.9088168280646769e+01 0 0 0
3377 1 6.7154020332606459e+00 2.1861443755947416e+00 1.6136206012050451e+01 1 0 1
173 1 1.7028844822909865e+00 1.5298291767785139e+00 1.5137527483611285e+01 0 1 0
6102 1 5.7776662180447023e+00 1.2590452828722979e+01 2.4149793631454301e+01 -1 0 1
306 1 1.0421652915792718e+01 1.4382152921415287e+01 2.1658493920904473e+01 1 1 0
2998 1 9.4274746331990151e+00 6.0282804339930225e+00 1.9710441419601722e+01 0 1 0
4996 1 3.5997439189056428e+00 4.3827208617672131e+00 2.1446825739512249e+01 1 0 0
5089 1 8.8429229998591552e+00 1.6680149428354376e+00 1.7800651720900369e+01 0 0 0
3024 1 6.2098000881462516e+00 5.7515669487568539e+00 1.7401830206574701e+01 0 1 0
1395 1 5.9371465766348850e+00 5.3794327182807695e+00 2.0354656771283913e+01 0 0 1
4774 1 1.1860314849867573e+01 6.8026082338862102e+00 1.9638603211874258e+01 2 1 1
3116 1 3.0477488917893319e-01 1.5591515134464752e+01 2.0940197060631977e+01 0 0 1
1662 1 1.2087250562899506e+01 5.1834760992668789e+00 2.1786625281586666e+01 0 0 0
2078 1 3.7146182445609011e+00 1.0924170328712751e+01 2.1414992993275181e+01 1 0 0
3534 1 5.0578936905662379e+00 8.0803941681127558e+00 1.7128341151130051e+01 0 0 0
1352 1 8.8626357932556008e+00 8.7904945752194070e+00 1.8828330675945104e+01 0 1 1
4473 1 1.0329148599963476e+01 1.1002869211882008e+01 1.9225371269414818e+01 -1 1 1
10 1 4.1600279862382061e+00 1.1387861478398690e+01 1.7599115591924203e+01 0 0 0
1513 1 7.6535524121074419e+00 1.2390989663122699e+01 1.8396875590902965e+01 1 1 1
202 1 6.1331455640052521e+00 1.2446681798613852e+01 2.1344525335604455e+01 1 0 0
3515 1 2.8524625409816118e-01 6.0241282428132727e+00 1.4377962968905601e+01 -1 1 1
405 1 5.0925923120268655e+00 1.5219900630329499e+00 2.0811615662073052e+01 2 1 0
4918 1 4.7503355596947561e+00 1.9826194199602463e+00 2.3798740427450351e+01 0 0 0
1774 1 1.4460471988406831e+00 9.9793738679931874e+00 1.4406382261003575e+01 -1 0 0
62 1 7.5539872720964532e+00 1.7621935028329634e+00 2.4535791503373627e+01 1 1 0
6017 1 7.8075123200204501e+00 4.4389683754672049e-01 2.1590396939235340e+01 1 0 1
3118 1 1.0820780819226410e+01 3.0124593904723427e+00 2.0581200442742752e+01 0 0 1
3645 1 6.0343319996231379e+00 1.5244739584129702e+01 2.1309764279407837e+01 0 0 1
1587 1 7.1560684929291467e+00 1.4335351309933271e+01 1.4215953339793275e+01 2 0 0
5075 1 4.9279265537554622e+00 7.0050866444215734e+00 2.4298851767271419e+01 0 -1 0
6255 1 3.2981918866106681e+00 4.7137261425587296e+00 2.4134937905290482e+01 1 0 1
1428 1 6.6601066614842432e+00 4.7189263606773668e+00 2.4026351640138689e+01 -1 0 1
5284 1 8.0709123448612576e+00 6.2800272119095171e+00 2.2346171940256042e+01 1 1 1
2085 1 6.3578919069208277e+00 8.3819469142881537e+00 2.1834673955148684e+01 0 0 1
2144 1 1.0532062692064347e+01 6.1947281857177519e+00 2.3884342973323655e+01 1 -1 0
3328 1 3.7570418947465134e-01 4.7325291511411800e+00 2.4274859979378999e+01 1 1 1
413 1 3.2130424918282463e+00 1.1302830772848344e+01 2.4410945067840618e+01 1 0 0
1795 1 1.9722472977360210e+00 8.0659348922433285e+00 2.1508568375258179e+01 2 0 0
6263 1 2.6515131705637773e+00 8.5953871134821735e+00 2.4177822276531323e+01 0 1 1
3473 1 6.2667895673622205e+00 9.7321101850622114e+00 1.9266338316937819e+01 1 -1 0
5008 1 6.3861001541696787e+00 9.8553395408959155e+00 2.4214775660099200e+01 0 1 0
2141 1 9.1208005813740431e+00 1.0993670482299974e+01 2.4095395826624216e+01 1 2 0
6054 1 2.4104157279972496e+00 1.5429888341219455e+01 2.4249091679632279e+01 1 -1 1
1683 1 5.5412138027099145e-01 8.1131536186935662e+00 1.6304509254836816e+01 0 0 0
4668 1 1.0593379304460827e+01 1.5084524346064807e+01 2.4335265848080930e+01 1 0 1
2827 1 1.1754939472642846e+01 1.2477716558393148e+01 2.4370512636029755e+01 1 1 0
5147 1 2.3165749899398923e-02 7.8796660399748237e+00 2.4567628787686211e+01 1 0 0
1628 1 7.6378362273633904e+00 4.4461901946278610e+00 1.4429614799057894e+01 0 1 0
4803 1 5.4072031444636215e+00 8.8136076043554450e+00 1.4298804150245980e+01 2 0 0
552 2 0.0000000000000000e+00 2.8417180249513345e+00 2.6878255827691273e+01 0 0 0
554 2 0.0000000000000000e+00 0.0000000000000000e+00 2.6878255827691273e+01 0 0 0
556 2 1.2305000000000001e+00 7.1042950623783474e-01 2.6878255827691273e+01 0 0 0
563 2 1.2305000000000001e+00 2.1312885187134998e+00 2.6878255827691273e+01 0 0 0
565 2 2.4610000000000003e+00 2.8417180249513345e+00 2.6878255827691273e+01 0 0 0
567 2 2.4610000000000003e+00 0.0000000000000000e+00 2.6878255827691273e+01 0 0 0
569 2 3.6915000000000004e+00 7.1042950623783474e-01 2.6878255827691273e+01 0 0 0
584 2 3.6914999999999996e+00 2.1312885187134998e+00 2.6878255827691273e+01 0 0 0
586 2 4.9220000000000006e+00 2.8417180249513332e+00 2.6878255827691273e+01 0 0 0
588 2 4.9220000000000006e+00 0.0000000000000000e+00 2.6878255827691273e+01 0 0 0
590 2 6.1524999999999999e+00 7.1042950623783407e-01 2.6878255827691273e+01 0 0 0
613 2 6.1524999999999999e+00 2.1312885187134989e+00 2.6878255827691273e+01 0 0 0
615 2 7.3829999999999991e+00 2.8417180249513345e+00 2.6878255827691273e+01 0 0 0
617 2 7.3829999999999991e+00 0.0000000000000000e+00 2.6878255827691273e+01 0 0 0
619 2 8.6134999999999984e+00 7.1042950623783407e-01 2.6878255827691273e+01 0 0 0
650 2 8.6134999999999984e+00 2.1312885187135002e+00 2.6878255827691273e+01 0 0 0
652 2 9.8440000000000012e+00 2.8417180249513332e+00 2.6878255827691273e+01 0 0 0
654 2 9.8440000000000012e+00 0.0000000000000000e+00 2.6878255827691273e+01 0 0 0
656 2 1.1074500000000002e+01 7.1042950623783330e-01 2.6878255827691273e+01 0 0 0
695 2 1.1074500000000002e+01 2.1312885187135002e+00 2.6878255827691273e+01 0 0 0
559 2 0.0000000000000000e+00 4.2625770374269996e+00 2.6878255827691273e+01 0 0 0
561 2 1.2305000000000001e+00 4.9730065436648339e+00 2.6878255827691273e+01 0 0 0
576 2 1.2305000000000001e+00 6.3938655561404980e+00 2.6878255827691273e+01 0 0 0
580 2 2.4610000000000003e+00 4.2625770374269996e+00 2.6878255827691273e+01 0 0 0
582 2 3.6914999999999996e+00 4.9730065436648339e+00 2.6878255827691273e+01 0 0 0
605 2 3.6914999999999996e+00 6.3938655561404980e+00 2.6878255827691273e+01 0 0 0
557 2 0.0000000000000000e+00 7.1042950623783341e+00 2.6878255827691273e+01 0 0 0
578 2 2.4610000000000003e+00 7.1042950623783341e+00 2.6878255827691273e+01 0 0 0
609 2 4.9220000000000006e+00 4.2625770374269978e+00 2.6878255827691273e+01 0 0 0
611 2 6.1524999999999999e+00 4.9730065436648339e+00 2.6878255827691273e+01 0 0 0
642 2 6.1524999999999999e+00 6.3938655561404980e+00 2.6878255827691273e+01 0 0 0
646 2 7.3829999999999991e+00 4.2625770374269996e+00 2.6878255827691273e+01 0 0 0
607 2 4.9220000000000006e+00 7.1042950623783341e+00 2.6878255827691273e+01 0 0 0
644 2 7.3830000000000009e+00 7.1042950623783341e+00 2.6878255827691273e+01 0 0 0
648 2 8.6135000000000002e+00 4.9730065436648339e+00 2.6878255827691273e+01 0 0 0
687 2 8.6135000000000002e+00 6.3938655561404980e+00 2.6878255827691273e+01 0 0 0
691 2 9.8440000000000012e+00 4.2625770374270004e+00 2.6878255827691273e+01 0 0 0
693 2 1.1074500000000002e+01 4.9730065436648339e+00 2.6878255827691273e+01 0 0 0
734 2 1.1074500000000002e+01 6.3938655561404980e+00 2.6878255827691273e+01 0 0 0
689 2 9.8440000000000012e+00 7.1042950623783341e+00 2.6878255827691273e+01 0 0 0
572 2 0.0000000000000000e+00 8.5251540748539991e+00 2.6878255827691273e+01 0 0 0
574 2 1.2305000000000001e+00 9.2355835810918343e+00 2.6878255827691273e+01 0 0 0
601 2 2.4610000000000003e+00 8.5251540748539991e+00 2.6878255827691273e+01 0 0 0
603 2 3.6915000000000004e+00 9.2355835810918343e+00 2.6878255827691273e+01 0 0 0
570 2 0.0000000000000000e+00 1.1366872099805333e+01 2.6878255827691273e+01 0 0 0
597 2 1.2305000000000001e+00 1.0656442593567498e+01 2.6878255827691273e+01 0 0 0
599 2 2.4610000000000003e+00 1.1366872099805333e+01 2.6878255827691273e+01 0 0 0
634 2 3.6914999999999996e+00 1.0656442593567499e+01 2.6878255827691273e+01 0 0 0
638 2 4.9220000000000006e+00 8.5251540748539991e+00 2.6878255827691273e+01 0 0 0
640 2 6.1524999999999999e+00 9.2355835810918343e+00 2.6878255827691273e+01 0 0 0
683 2 7.3830000000000009e+00 8.5251540748539991e+00 2.6878255827691273e+01 0 0 0
636 2 4.9220000000000006e+00 1.1366872099805333e+01 2.6878255827691273e+01 0 0 0
679 2 6.1524999999999999e+00 1.0656442593567499e+01 2.6878255827691273e+01 0 0 0
681 2 7.3829999999999991e+00 1.1366872099805333e+01 2.6878255827691273e+01 0 0 0
685 2 8.6134999999999984e+00 9.2355835810918343e+00 2.6878255827691273e+01 0 0 0
730 2 9.8440000000000012e+00 8.5251540748539956e+00 2.6878255827691273e+01 0 0 0
732 2 1.1074500000000002e+01 9.2355835810918343e+00 2.6878255827691273e+01 0 0 0
726 2 8.6134999999999984e+00 1.0656442593567498e+01 2.6878255827691273e+01 0 0 0
728 2 9.8440000000000012e+00 1.1366872099805333e+01 2.6878255827691273e+01 0 0 0
773 2 1.1074500000000002e+01 1.0656442593567498e+01 2.6878255827691273e+01 0 0 0
775 2 1.2304999999999998e+01 1.1366872099805333e+01 2.6878255827691273e+01 0 0 0
593 2 0.0000000000000000e+00 1.2787731112280996e+01 2.6878255827691273e+01 0 0 0
595 2 1.2305000000000001e+00 1.3498160618518829e+01 2.6878255827691273e+01 0 0 0
630 2 2.4610000000000003e+00 1.2787731112280996e+01 2.6878255827691273e+01 0 0 0
632 2 3.6915000000000004e+00 1.3498160618518829e+01 2.6878255827691273e+01 0 0 0
591 2 0.0000000000000000e+00 1.5629449137232333e+01 2.6878255827691273e+01 0 0 0
626 2 1.2305000000000001e+00 1.4919019630994494e+01 2.6878255827691273e+01 0 0 0
628 2 2.4610000000000003e+00 1.5629449137232328e+01 2.6878255827691273e+01 0 0 0
671 2 3.6915000000000004e+00 1.4919019630994494e+01 2.6878255827691273e+01 0 0 0
675 2 4.9220000000000006e+00 1.2787731112280996e+01 2.6878255827691273e+01 0 0 0
677 2 6.1524999999999990e+00 1.3498160618518829e+01 2.6878255827691273e+01 0 0 0
722 2 7.3829999999999991e+00 1.2787731112280996e+01 2.6878255827691273e+01 0 0 0
673 2 4.9220000000000006e+00 1.5629449137232333e+01 2.6878255827691273e+01 0 0 0
718 2 6.1524999999999990e+00 1.4919019630994494e+01 2.6878255827691273e+01 0 0 0
720 2 7.3829999999999991e+00 1.5629449137232333e+01 2.6878255827691273e+01 0 0 0
724 2 8.6135000000000002e+00 1.3498160618518835e+01 2.6878255827691273e+01 0 0 0
769 2 9.8440000000000012e+00 1.2787731112280996e+01 2.6878255827691273e+01 0 0 0
771 2 1.1074500000000002e+01 1.3498160618518829e+01 2.6878255827691273e+01 0 0 0
765 2 8.6135000000000002e+00 1.4919019630994494e+01 2.6878255827691273e+01 0 0 0
767 2 9.8440000000000012e+00 1.5629449137232328e+01 2.6878255827691273e+01 0 0 0
807 2 1.1074500000000002e+01 1.4919019630994494e+01 2.6878255827691273e+01 0 0 0
553 2 0.0000000000000000e+00 1.4208590124756650e+00 3.0030999999999512e+01 0 0 0
555 2 0.0000000000000000e+00 0.0000000000000000e+00 3.0030999999999512e+01 0 0 0
564 2 1.2305000000000001e+00 2.1312885187134998e+00 3.0030999999999512e+01 0 0 0
566 2 2.4610000000000003e+00 1.4208590124756650e+00 3.0030999999999512e+01 0 0 0
568 2 2.4610000000000003e+00 0.0000000000000000e+00 3.0030999999999512e+01 0 0 0
585 2 3.6914999999999996e+00 2.1312885187134998e+00 3.0030999999999512e+01 0 0 0
562 2 1.2305000000000001e+00 3.5521475311891644e+00 3.0030999999999512e+01 0 0 0
583 2 3.6914999999999996e+00 3.5521475311891644e+00 3.0030999999999512e+01 0 0 0
587 2 4.9220000000000006e+00 1.4208590124756650e+00 3.0030999999999512e+01 0 0 0
589 2 4.9220000000000006e+00 0.0000000000000000e+00 3.0030999999999512e+01 0 0 0
614 2 6.1524999999999999e+00 2.1312885187134989e+00 3.0030999999999512e+01 0 0 0
616 2 7.3829999999999991e+00 1.4208590124756659e+00 3.0030999999999512e+01 0 0 0
618 2 7.3829999999999991e+00 0.0000000000000000e+00 3.0030999999999512e+01 0 0 0
612 2 6.1524999999999999e+00 3.5521475311891644e+00 3.0030999999999512e+01 0 0 0
651 2 8.6134999999999984e+00 2.1312885187135002e+00 3.0030999999999512e+01 0 0 0
653 2 9.8440000000000012e+00 1.4208590124756659e+00 3.0030999999999512e+01 0 0 0
655 2 9.8440000000000012e+00 0.0000000000000000e+00 3.0030999999999512e+01 0 0 0
696 2 1.1074500000000002e+01 2.1312885187135002e+00 3.0030999999999512e+01 0 0 0
649 2 8.6134999999999984e+00 3.5521475311891657e+00 3.0030999999999512e+01 0 0 0
694 2 1.1074500000000002e+01 3.5521475311891644e+00 3.0030999999999512e+01 0 0 0
558 2 0.0000000000000000e+00 5.6834360499026637e+00 3.0030999999999512e+01 0 0 0
560 2 0.0000000000000000e+00 4.2625770374269996e+00 3.0030999999999512e+01 0 0 0
577 2 1.2305000000000001e+00 6.3938655561404980e+00 3.0030999999999512e+01 0 0 0
579 2 2.4610000000000003e+00 5.6834360499026637e+00 3.0030999999999512e+01 0 0 0
581 2 2.4610000000000003e+00 4.2625770374269996e+00 3.0030999999999512e+01 0 0 0
606 2 3.6914999999999996e+00 6.3938655561404980e+00 3.0030999999999512e+01 0 0 0
575 2 1.2305000000000001e+00 7.8147245686161639e+00 3.0030999999999512e+01 0 0 0
604 2 3.6914999999999996e+00 7.8147245686161639e+00 3.0030999999999512e+01 0 0 0
608 2 4.9220000000000006e+00 5.6834360499026637e+00 3.0030999999999512e+01 0 0 0
610 2 4.9220000000000006e+00 4.2625770374269978e+00 3.0030999999999512e+01 0 0 0
643 2 6.1524999999999999e+00 6.3938655561404980e+00 3.0030999999999512e+01 0 0 0
645 2 7.3829999999999991e+00 5.6834360499026637e+00 3.0030999999999512e+01 0 0 0
647 2 7.3829999999999991e+00 4.2625770374269996e+00 3.0030999999999512e+01 0 0 0
641 2 6.1524999999999999e+00 7.8147245686161639e+00 3.0030999999999512e+01 0 0 0
688 2 8.6135000000000002e+00 6.3938655561404980e+00 3.0030999999999512e+01 0 0 0
690 2 9.8440000000000012e+00 5.6834360499026637e+00 3.0030999999999512e+01 0 0 0
692 2 9.8440000000000012e+00 4.2625770374270004e+00 3.0030999999999512e+01 0 0 0
735 2 1.1074500000000002e+01 6.3938655561404980e+00 3.0030999999999512e+01 0 0 0
686 2 8.6135000000000002e+00 7.8147245686161639e+00 3.0030999999999512e+01 0 0 0
733 2 1.1074500000000002e+01 7.8147245686161639e+00 3.0030999999999512e+01 0 0 0
571 2 0.0000000000000000e+00 9.9460130873296642e+00 3.0030999999999512e+01 0 0 0
573 2 0.0000000000000000e+00 8.5251540748539991e+00 3.0030999999999512e+01 0 0 0
600 2 2.4610000000000003e+00 9.9460130873296642e+00 3.0030999999999512e+01 0 0 0
602 2 2.4610000000000003e+00 8.5251540748539991e+00 3.0030999999999512e+01 0 0 0
596 2 1.2305000000000001e+00 1.2077301606043163e+01 3.0030999999999512e+01 0 0 0
598 2 1.2305000000000001e+00 1.0656442593567498e+01 3.0030999999999512e+01 0 0 0
633 2 3.6914999999999996e+00 1.2077301606043163e+01 3.0030999999999512e+01 0 0 0
635 2 3.6914999999999996e+00 1.0656442593567499e+01 3.0030999999999512e+01 0 0 0
637 2 4.9220000000000006e+00 9.9460130873296642e+00 3.0030999999999512e+01 0 0 0
639 2 4.9220000000000006e+00 8.5251540748539991e+00 3.0030999999999512e+01 0 0 0
682 2 7.3830000000000009e+00 9.9460130873296642e+00 3.0030999999999512e+01 0 0 0
684 2 7.3830000000000009e+00 8.5251540748539991e+00 3.0030999999999512e+01 0 0 0
678 2 6.1524999999999999e+00 1.2077301606043163e+01 3.0030999999999512e+01 0 0 0
680 2 6.1524999999999999e+00 1.0656442593567499e+01 3.0030999999999512e+01 0 0 0
729 2 9.8440000000000012e+00 9.9460130873296642e+00 3.0030999999999512e+01 0 0 0
731 2 9.8440000000000012e+00 8.5251540748539956e+00 3.0030999999999512e+01 0 0 0
725 2 8.6135000000000002e+00 1.2077301606043163e+01 3.0030999999999512e+01 0 0 0
727 2 8.6134999999999984e+00 1.0656442593567498e+01 3.0030999999999512e+01 0 0 0
772 2 1.1074500000000002e+01 1.2077301606043163e+01 3.0030999999999512e+01 0 0 0
774 2 1.1074500000000002e+01 1.0656442593567498e+01 3.0030999999999512e+01 0 0 0
594 2 0.0000000000000000e+00 1.2787731112280996e+01 3.0030999999999512e+01 0 0 0
631 2 2.4610000000000003e+00 1.2787731112280996e+01 3.0030999999999512e+01 0 0 0
592 2 0.0000000000000000e+00 1.4208590124756663e+01 3.0030999999999512e+01 0 0 0
627 2 1.2305000000000001e+00 1.4919019630994494e+01 3.0030999999999512e+01 0 0 0
629 2 2.4610000000000003e+00 1.4208590124756663e+01 3.0030999999999512e+01 0 0 0
672 2 3.6915000000000004e+00 1.4919019630994494e+01 3.0030999999999512e+01 0 0 0
676 2 4.9220000000000006e+00 1.2787731112280996e+01 3.0030999999999512e+01 0 0 0
723 2 7.3829999999999991e+00 1.2787731112280996e+01 3.0030999999999512e+01 0 0 0
674 2 4.9220000000000006e+00 1.4208590124756663e+01 3.0030999999999512e+01 0 0 0
719 2 6.1524999999999990e+00 1.4919019630994494e+01 3.0030999999999512e+01 0 0 0
721 2 7.3830000000000009e+00 1.4208590124756663e+01 3.0030999999999512e+01 0 0 0
770 2 9.8440000000000012e+00 1.2787731112280996e+01 3.0030999999999512e+01 0 0 0
766 2 8.6135000000000002e+00 1.4919019630994494e+01 3.0030999999999512e+01 0 0 0
768 2 9.8440000000000012e+00 1.4208590124756663e+01 3.0030999999999512e+01 0 0 0
806 2 1.1074500000000002e+01 1.6339878643470161e+01 3.0030999999999512e+01 0 0 0
808 2 1.1074500000000002e+01 1.4919019630994494e+01 3.0030999999999512e+01 0 0 0
810 2 1.2304999999999998e+01 1.4208590124756658e+01 3.0030999999999512e+01 0 0 0
881 2 0.0000000000000000e+00 2.8417180249513345e+00 3.3183744172307371e+01 0 0 0
882 2 0.0000000000000000e+00 0.0000000000000000e+00 3.3183744172307371e+01 0 0 0
883 2 1.2305000000000001e+00 7.1042950623783474e-01 3.3183744172307371e+01 0 0 0
887 2 1.2305000000000001e+00 2.1312885187134998e+00 3.3183744172307371e+01 0 0 0
888 2 2.4610000000000003e+00 2.8417180249513345e+00 3.3183744172307371e+01 0 0 0
889 2 2.4610000000000003e+00 0.0000000000000000e+00 3.3183744172307371e+01 0 0 0
890 2 3.6915000000000004e+00 7.1042950623783474e-01 3.3183744172307371e+01 0 0 0
898 2 3.6914999999999996e+00 2.1312885187134998e+00 3.3183744172307371e+01 0 0 0
899 2 4.9220000000000006e+00 2.8417180249513332e+00 3.3183744172307371e+01 0 0 0
900 2 4.9220000000000006e+00 0.0000000000000000e+00 3.3183744172307371e+01 0 0 0
901 2 6.1524999999999999e+00 7.1042950623783407e-01 3.3183744172307371e+01 0 0 0
913 2 6.1524999999999999e+00 2.1312885187134989e+00 3.3183744172307371e+01 0 0 0
914 2 7.3829999999999991e+00 2.8417180249513345e+00 3.3183744172307371e+01 0 0 0
915 2 7.3829999999999991e+00 0.0000000000000000e+00 3.3183744172307371e+01 0 0 0
916 2 8.6134999999999984e+00 7.1042950623783407e-01 3.3183744172307371e+01 0 0 0
932 2 8.6134999999999984e+00 2.1312885187135002e+00 3.3183744172307371e+01 0 0 0
933 2 9.8440000000000012e+00 2.8417180249513332e+00 3.3183744172307371e+01 0 0 0
934 2 9.8440000000000012e+00 0.0000000000000000e+00 3.3183744172307371e+01 0 0 0
935 2 1.1074500000000002e+01 7.1042950623783330e-01 3.3183744172307371e+01 0 0 0
955 2 1.1074500000000002e+01 2.1312885187135002e+00 3.3183744172307371e+01 0 0 0
885 2 0.0000000000000000e+00 4.2625770374269996e+00 3.3183744172307371e+01 0 0 0
886 2 1.2305000000000001e+00 4.9730065436648339e+00 3.3183744172307371e+01 0 0 0
894 2 1.2305000000000001e+00 6.3938655561404980e+00 3.3183744172307371e+01 0 0 0
896 2 2.4610000000000003e+00 4.2625770374269996e+00 3.3183744172307371e+01 0 0 0
897 2 3.6914999999999996e+00 4.9730065436648339e+00 3.3183744172307371e+01 0 0 0
909 2 3.6914999999999996e+00 6.3938655561404980e+00 3.3183744172307371e+01 0 0 0
884 2 0.0000000000000000e+00 7.1042950623783341e+00 3.3183744172307371e+01 0 0 0
895 2 2.4610000000000003e+00 7.1042950623783341e+00 3.3183744172307371e+01 0 0 0
911 2 4.9220000000000006e+00 4.2625770374269978e+00 3.3183744172307371e+01 0 0 0
912 2 6.1524999999999999e+00 4.9730065436648339e+00 3.3183744172307371e+01 0 0 0
928 2 6.1524999999999999e+00 6.3938655561404980e+00 3.3183744172307371e+01 0 0 0
930 2 7.3829999999999991e+00 4.2625770374269996e+00 3.3183744172307371e+01 0 0 0
910 2 4.9220000000000006e+00 7.1042950623783341e+00 3.3183744172307371e+01 0 0 0
929 2 7.3830000000000009e+00 7.1042950623783341e+00 3.3183744172307371e+01 0 0 0
931 2 8.6135000000000002e+00 4.9730065436648339e+00 3.3183744172307371e+01 0 0 0
951 2 8.6135000000000002e+00 6.3938655561404980e+00 3.3183744172307371e+01 0 0 0
953 2 9.8440000000000012e+00 4.2625770374270004e+00 3.3183744172307371e+01 0 0 0
954 2 1.1074500000000002e+01 4.9730065436648339e+00 3.3183744172307371e+01 0 0 0
975 2 1.1074500000000002e+01 6.3938655561404980e+00 3.3183744172307371e+01 0 0 0
952 2 9.8440000000000012e+00 7.1042950623783341e+00 3.3183744172307371e+01 0 0 0
892 2 0.0000000000000000e+00 8.5251540748539991e+00 3.3183744172307371e+01 0 0 0
893 2 1.2305000000000001e+00 9.2355835810918343e+00 3.3183744172307371e+01 0 0 0
907 2 2.4610000000000003e+00 8.5251540748539991e+00 3.3183744172307371e+01 0 0 0
908 2 3.6915000000000004e+00 9.2355835810918343e+00 3.3183744172307371e+01 0 0 0
891 2 0.0000000000000000e+00 1.1366872099805333e+01 3.3183744172307371e+01 0 0 0
905 2 1.2305000000000001e+00 1.0656442593567498e+01 3.3183744172307371e+01 0 0 0
906 2 2.4610000000000003e+00 1.1366872099805333e+01 3.3183744172307371e+01 0 0 0
924 2 3.6914999999999996e+00 1.0656442593567499e+01 3.3183744172307371e+01 0 0 0
926 2 4.9220000000000006e+00 8.5251540748539991e+00 3.3183744172307371e+01 0 0 0
927 2 6.1524999999999999e+00 9.2355835810918343e+00 3.3183744172307371e+01 0 0 0
949 2 7.3830000000000009e+00 8.5251540748539991e+00 3.3183744172307371e+01 0 0 0
925 2 4.9220000000000006e+00 1.1366872099805333e+01 3.3183744172307371e+01 0 0 0
947 2 6.1524999999999999e+00 1.0656442593567499e+01 3.3183744172307371e+01 0 0 0
948 2 7.3829999999999991e+00 1.1366872099805333e+01 3.3183744172307371e+01 0 0 0
950 2 8.6134999999999984e+00 9.2355835810918343e+00 3.3183744172307371e+01 0 0 0
973 2 9.8440000000000012e+00 8.5251540748539956e+00 3.3183744172307371e+01 0 0 0
974 2 1.1074500000000002e+01 9.2355835810918343e+00 3.3183744172307371e+01 0 0 0
971 2 8.6134999999999984e+00 1.0656442593567498e+01 3.3183744172307371e+01 0 0 0
972 2 9.8440000000000012e+00 1.1366872099805333e+01 3.3183744172307371e+01 0 0 0
995 2 1.1074500000000002e+01 1.0656442593567498e+01 3.3183744172307371e+01 0 0 0
996 2 1.2304999999999998e+01 1.1366872099805333e+01 3.3183744172307371e+01 0 0 0
903 2 0.0000000000000000e+00 1.2787731112280996e+01 3.3183744172307371e+01 0 0 0