LAMMPS data file via write_data, version 16 Mar 2018, timestep = 8000000

6328 atoms
2 atom types

0.0000000000000000e+00 4.9219999999999999e+01 xlo xhi
0.0000000000000000e+00 4.9019635930410494e+01 ylo yhi
2.0256094236807449e+00 5.8036390576297919e+01 zlo zhi

Masses

1 18.015
2 12.01

Atoms # atomic

6044 1 3.9471795425898253e+00 2.2153639084642105e+00 4.6489868123445799e+00 2 0 1
4542 1 9.1243791551047881e-01 6.0036908410257350e+00 1.3162426839921215e+01 1 2 0
4649 1 8.3416109280387474e+00 2.1288824755185982e+00 4.6747491788236530e+00 2 -1 1
467 1 6.0786881007294022e+00 3.3839473571485308e+00 5.8524637943617241e+00 -3 2 0
1702 1 1.0573186289563111e+01 3.3877952124402504e+00 5.8345063609980183e+00 -4 0 0
3167 1 1.3119950366609181e+00 5.8415133724245196e+00 4.6513960446695997e+00 -4 2 1
5320 1 3.5605014677107665e+00 7.1606837717620024e+00 5.6069017042394549e+00 2 -2 0
4562 1 5.9936626003535727e+00 5.9066660886683442e+00 4.6913545682180562e+00 0 -1 0
3533 1 8.2874691319807781e+00 6.8508998882868797e+00 5.9680434180924218e+00 0 2 0
6294 1 1.0566301852878468e+01 6.0065788634182047e+00 4.9053643868732273e+00 4 -1 1
1866 1 5.2907196641301191e+00 1.3838207780061740e+01 2.1874045874362076e+00 -1 3 0
1810 1 3.4516416300131438e+00 9.7573469654315286e+00 4.7741922190657391e+00 0 -2 0
3608 1 1.2026399845853915e+00 1.6016102974939756e+01 1.1916107347016103e+01 3 -1 0
3051 1 7.8020112701852664e+00 9.4164357688143561e+00 4.8098860646950747e+00 0 2 1
4673 1 5.8657601244627759e+00 1.0873604784312416e+01 5.5909669238823314e+00 -1 -2 1
551 1 9.9940894161702634e+00 1.5661950836954523e+01 1.2579801675078036e+01 -4 -2 0
3025 1 9.2466308020691002e-01 1.3589339261184225e+01 4.8936886605110450e+00 -2 3 1
2815 1 3.2326398128168701e+00 1.4848624435607981e+01 5.7721749515740077e+00 -4 0 0
1816 1 5.4117846633691382e+00 1.3600023426728587e+01 4.8144923250076754e+00 -2 -2 1
6320 1 5.3045910812832213e+00 1.6026238231852656e+01 1.2320347042112148e+01 4 1 0
2079 1 1.0256914224189009e+01 8.4851704724915216e+00 1.1926876111726555e+01 2 -4 1
491 1 9.9114422003761771e+00 1.3615159795337011e+01 4.7309646720830765e+00 -1 1 1
3654 1 1.6382441098789853e+00 3.2780186433045970e+00 5.9071099869976162e+00 3 3 1
3126 1 1.2506012367791302e+00 3.6069384981063264e+00 8.6430377973032577e+00 0 3 0
1746 1 5.9102948018455761e+00 3.2716110343390419e+00 8.5203546893065472e+00 1 0 0
66 1 1.0503291109083108e+01 3.7445141091553769e+00 8.4963348164108705e+00 -2 3 1
39 1 1.0731060323289370e+01 1.0770692204370305e+00 9.3234815948189187e+00 3 3 1
6101 1 3.5076484822163740e+00 7.1247431089417068e+00 8.3434763955885014e+00 0 -3 0
2965 1 3.5892990459210066e+00 4.4570594023959265e+00 9.7203502084760682e+00 2 0 1
3082 1 7.8967267515846657e+00 7.1332679273914659e+00 8.6390722169793008e+00 1 -1 0
2964 1 1.2072013996001922e+00 1.0991672911394851e+01 5.8180595760675908e+00 2 4 1
179 1 1.1984424184187050e+00 1.1099529799516771e+01 8.4381682845107289e+00 2 2 0
1677 1 5.7538376570352021e+00 1.0778680097110813e+01 8.3534536576132332e+00 -5 1 0
2133 1 5.4453141657833033e+00 8.3994418281141296e+00 9.5733422708700537e+00 -5 2 1
1731 1 9.9599158122599878e+00 1.0854647408941336e+01 5.6196349765087934e+00 2 -3 0
4919 1 1.0459200215230783e+01 1.0926451230782938e+01 8.2953193615353680e+00 -1 1 1
1692 1 1.0475760441700118e+01 8.4436030736240983e+00 9.0580179542837591e+00 -2 -2 0
2957 1 5.5841708866007931e+00 1.5806924862507927e+01 9.6173559456106137e+00 0 -2 1
1796 1 3.4461047378702729e+00 1.4700667804304921e+01 8.5593434138130533e+00 2 -1 0
5101 1 3.5556223408237906e+00 1.2110454438618348e+01 9.3830813155430519e+00 -1 2 1
503 1 7.7427841774143040e+00 1.4875975029817969e+01 5.8814381813232073e+00 0 0 0
1658 1 7.7763271832361553e+00 1.4575335745195229e+01 8.5589423184658173e+00 -4 -1 0
1360 1 1.0111498256370561e+01 1.5716153912381822e+01 9.6992672374862678e+00 3 5 1
3071 1 1.6565496961696664e+00 1.1483738793936231e+00 9.7445989293250754e+00 1 1 0
181 1 1.7153569972061444e+00 8.2187069316032912e-01 1.2664612095188161e+01 6 -1 0
342 1 5.5684361424898920e+00 8.7038352256089624e+00 1.2274630420881241e+01 0 4 0
5122 1 6.1751836630538852e+00 9.4451476815288760e-01 9.9747903343594331e+00 1 -1 1
245 1 6.1223211401269930e+00 1.3445221291177505e+00 1.2682046756583869e+01 1 0 0
1608 1 1.0393467901808025e+01 9.4622833109310989e-01 1.2279596158817023e+01 1 -2 0
2896 1 1.0200543284770676e+01 6.0895025654483783e+00 2.3029015314202055e+00 -4 3 1
212 1 3.6310921635752096e+00 5.0885504800731205e+00 1.2583688279924635e+01 3 -5 0
3225 1 8.1638841505328124e+00 1.1920133363851543e+01 9.4610100282122183e+00 1 4 0
2894 1 8.5434201565039924e-01 1.3631999184222817e+01 2.2768829565278614e+00 3 2 1
3334 1 8.1061435158636588e+00 4.6398227668349108e+00 9.3589846897874267e+00 1 -3 1
37 1 8.3265306088722095e+00 4.9694741543533443e+00 1.2119574154375947e+01 -1 0 1
3520 1 1.4888802008762614e+00 8.5441691733719782e+00 9.3048706762260949e+00 -5 6 0
268 1 1.0006255256672827e+00 8.3697877896772557e+00 1.2056832953215240e+01 -2 -4 0
4808 1 3.4858388652395993e+00 1.2190861171040941e+01 1.2199456597876940e+01 4 4 0
1390 1 7.8660971194434604e+00 1.2061927260631547e+01 1.2126435969170773e+01 2 1 1
5286 1 1.2903964252415721e+00 1.6035760870267801e+01 8.9624747899179660e+00 2 0 1
488 1 1.4650483385716810e+00 1.3655742818293865e+01 1.3170647614814850e+01 -1 2 0
2017 1 6.1386804479640613e+00 6.2609357802813843e+00 1.3125447337440461e+01 1 2 0
3039 1 3.2189760995397250e+00 9.5366469272176104e+00 1.3178388361169835e+01 1 4 1
1586 1 1.6634453513888545e+00 8.0152545972493106e-01 1.6992504619278456e+01 2 1 0
1454 1 3.8191474969070547e+00 2.0278355292295829e+00 1.6201036510753795e+01 0 5 1
3189 1 8.6992008325985104e+00 2.1589454845177483e+00 1.6100025367406076e+01 -2 -5 0
356 1 1.3799274412679887e+00 6.2988575424206950e+00 1.5961978078612157e+01 -2 1 1
2031 1 3.5694348227602157e+00 4.6336261068180056e+00 1.6876635893526142e+01 -3 4 0
151 1 1.4615745575816932e+00 8.5981049038052308e+00 1.7108756969793738e+01 3 -2 0
6037 1 5.7636087083950764e+00 5.9441650070379186e+00 1.5866707269791149e+01 1 -3 1
3591 1 5.9235539809046633e+00 8.3636064348870107e+00 1.7066797781978167e+01 4 3 0
5221 1 9.9999317514520083e+00 5.8504804808593489e+00 1.6092561989703142e+01 4 -1 0
1577 1 9.9685247390974077e+00 1.6074820602329648e+01 1.9906204751195794e+01 0 -2 1
4645 1 3.7166890082172883e+00 9.5722731847868427e+00 1.5902686328446260e+01 2 0 0
3341 1 8.0328666871660541e+00 9.6903341064941060e+00 1.6126975991587926e+01 5 0 0
1570 1 1.2303300825673283e+01 1.2025629292113287e+01 1.7549390202501424e+01 -3 1 1
4885 1 1.4268775506533320e+00 1.3420235840918895e+01 1.5788138965166985e+01 -1 -3 1
2002 1 5.6203478996745275e+00 1.3477248064064369e+01 1.5963770883758594e+01 3 1 0
6201 1 1.2156584307243625e+01 1.2051946644309572e+01 2.0228318579789434e+01 1 0 1
2128 1 1.0108235032394516e+01 1.3181149953454966e+01 1.6067542590313899e+01 3 -2 0
3718 1 1.4675247749367730e+00 1.5678257991695116e+01 1.6939736080246153e+01 1 4 0
1588 1 3.7452673398315670e+00 2.3527035269050538e+00 1.3448721451209897e+01 2 6 1
1967 1 2.1065582979766155e+00 8.4162332180806187e-01 1.9736858157430060e+01 -5 0 0
1818 1 6.3387557717747036e+00 1.0076578248698738e+00 1.7241581155272815e+01 -2 5 0
2139 1 6.4633143086881928e+00 1.1053377443269421e+00 1.9823602583602586e+01 0 -4 1
4641 1 8.0386247456870539e+00 4.5019975788144535e+00 2.0038839870444175e+01 0 4 1
1674 1 1.0853766050265206e+01 1.1041838371417780e+00 1.7164653640937310e+01 1 0 0
5962 1 1.0877774602159528e+01 1.2842087516202574e+00 1.9753572835704198e+01 5 -1 1
1909 1 3.6317027664838606e+00 4.6964923130970435e+00 1.9709587063766023e+01 2 -1 1
5047 1 3.4610603560064797e+00 7.3245608623001761e+00 2.0781160104532280e+01 -4 -1 0
2911 1 7.9535503979086268e+00 4.6755649777142727e+00 1.7236588717419956e+01 -1 -1 1
3643 1 7.7609029306873722e+00 7.3203742723670668e+00 2.0737893892261059e+01 -1 1 1
2906 1 3.5799777840801479e+00 1.2137705584382873e+01 1.6727073352582746e+01 0 3 1
1728 1 1.2613798309701507e+00 8.3795086711668905e+00 1.9745331982333582e+01 -1 1 1
1481 1 3.3423831031719446e+00 1.2273477253517571e+01 1.9421835674422407e+01 2 3 1
3093 1 1.0793662903617143e+00 1.1124990829564895e+01 2.0757644234986838e+01 1 0 1
1737 1 5.5125367105584395e+00 8.4244445000507646e+00 1.9730144313783921e+01 4 -4 1
4854 1 7.8957637512790102e+00 1.2161144054070418e+01 1.7172056503922526e+01 1 -1 1
2150 1 7.8805748780348823e+00 1.2369308177744564e+01 1.9725486472533436e+01 0 2 1
3329 1 1.0257067172220415e+01 8.3474129415502549e+00 1.7171567900407773e+01 3 1 0
1812 1 1.0266153169526888e+01 8.2858735783254094e+00 1.9810304033204236e+01 5 1 0
3568 1 9.2439997191777650e+00 3.7547765069264755e-01 2.3812388318475072e+01 2 1 1
4799 1 1.2150736110732527e+01 1.4573225833476997e+01 2.0988134937405729e+01 -1 1 1
4621 1 3.3227808640377572e+00 1.4902937409322130e+01 2.0850332240223707e+01 -1 1 1
2036 1 5.5737181562966391e+00 1.6152905322535680e+01 1.9656446930148881e+01 -3 -2 1
6302 1 5.6800036522529229e+00 1.5954958894579095e+01 1.6866131089747434e+01 -5 -5 0
4415 1 7.7403063853072149e+00 1.5062221737007023e+01 2.0768406267112454e+01 2 -1 1
180 1 9.9355416535263696e+00 5.2774174956716164e+00 2.4028073016333423e+01 1 -6 0
3049 1 1.5759101363099568e+00 3.2476948378954034e+00 2.0777445803238109e+01 -1 4 1
1428 1 1.5255934708337662e+00 3.1448370199662570e+00 2.3389341095640162e+01 1 -1 1
400 1 5.5877798354843016e+00 3.6106595000571065e+00 2.1247436076809578e+01 1 -1 0
1425 1 1.0038129702935979e+01 1.3149978024829602e+01 1.3268659844318858e+01 3 1 0
3164 1 7.3333316077782884e+00 9.5353684928568576e+00 2.4026811137040607e+01 3 4 1
1255 1 3.5321577713803571e+00 1.4765936078725192e+01 2.3491560501194012e+01 0 3 1
5036 1 1.0495452348192606e+01 3.6220340494204457e+00 2.1190622965455272e+01 1 -4 1
4650 1 9.8534203741801463e+00 1.5755029244476034e+01 1.7158002135168282e+01 -3 1 1
3262 1 3.7553148940309193e+00 7.0908156439603651e+00 2.3730982412490103e+01 0 1 0
3297 1 1.2817608860145360e+00 1.6074229889723828e+01 1.9717436746057469e+01 7 5 1
6122 1 1.1148766840786864e+01 2.8074381825164738e+00 2.3882924939696544e+01 -1 0 1
3386 1 7.6018677862525053e+00 6.9600763581872949e+00 2.3440861565762599e+01 -1 1 0
1582 1 9.8612293931230006e+00 1.0826691540557411e+01 2.0759987055227381e+01 3 1 0
2915 1 1.3465591316092043e+00 1.0725673862289677e+01 2.3578528425511017e+01 -3 3 0
3178 1 5.7127382688342436e+00 5.2036885072488728e+00 2.3610964871420713e+01 -2 -1 0
1758 1 5.4476840557235722e+00 1.0937126716228031e+01 2.0647871746835801e+01 -3 3 0
1822 1 8.0025784011075345e+00 1.4971703329998565e+01 2.3509703283425239e+01 1 2 0
3546 1 5.3317303300764154e+00 1.1120410067380258e+01 2.3205298253187845e+01 2 -1 0
2882 1 9.8988924498780104e+00 1.0718765355369854e+01 2.3714521020136274e+01 -4 3 1
5319 1 1.6025536218614203e+00 5.4760722176060428e+00 2.4372527028541754e+01 0 2 1
5956 1 1.0334573233442802e+01 6.1695482750862727e+00 1.3303800776376209e+01 -4 2 1
3302 1 8.1299377003812889e+00 9.6995762172306623e+00 1.3302134505087926e+01 1 3 1
3125 1 8.2526735638273951e+00 2.4436186833805560e+00 1.3235983983419079e+01 0 3 1
2943 1 4.2749198401760351e+00 2.6113390201047202e+00 2.4052793433664039e+01 4 2 1
1380 1 5.8852449170116259e+00 1.3501961915404685e+01 2.4280312679015246e+01 -1 0 0
2056 1 1.5223617669851415e+00 1.3372392861925386e+01 2.4374924020274115e+01 0 4 1
1675 1 5.6436036455612149e+00 1.3494705085693317e+01 1.3328971927836884e+01 1 4 0
2914 1 1.0307960254003239e+01 1.3503702645619370e+01 2.4404652722681732e+01 6 -2 0
552 2 0.0000000000000000e+00 2.8417180249513345e+00 2.6688548017401171e+01 0 0 0
554 2 0.0000000000000000e+00 0.0000000000000000e+00 2.6688548017401171e+01 0 0 0
556 2 1.2305000000000001e+00 7.1042950623783474e-01 2.6688548017401171e+01 0 0 0
563 2 1.2305000000000001e+00 2.1312885187134998e+00 2.6688548017401171e+01 0 0 0
565 2 2.4610000000000003e+00 2.8417180249513345e+00 2.6688548017401171e+01 0 0 0
567 2 2.4610000000000003e+00 0.0000000000000000e+00 2.6688548017401171e+01 0 0 0
569 2 3.6915000000000004e+00 7.1042950623783474e-01 2.6688548017401171e+01 0 0 0
584 2 3.6914999999999996e+00 2.1312885187134998e+00 2.6688548017401171e+01 0 0 0
586 2 4.9220000000000006e+00 2.8417180249513332e+00 2.6688548017401171e+01 0 0 0
588 2 4.9220000000000006e+00 0.0000000000000000e+00 2.6688548017401171e+01 0 0 0
590 2 6.1524999999999999e+00 7.1042950623783407e-01 2.6688548017401171e+01 0 0 0
613 2 6.1524999999999999e+00 2.1312885187134989e+00 2.6688548017401171e+01 0 0 0
615 2 7.3829999999999991e+00 2.8417180249513345e+00 2.6688548017401171e+01 0 0 0
617 2 7.3829999999999991e+00 0.0000000000000000e+00 2.6688548017401171e+01 0 0 0
619 2 8.6134999999999984e+00 7.1042950623783407e-01 2.6688548017401171e+01 0 0 0
650 2 8.6134999999999984e+00 2.1312885187135002e+00 2.6688548017401171e+01 0 0 0
652 2 9.8440000000000012e+00 2.8417180249513332e+00 2.6688548017401171e+01 0 0 0
654 2 9.8440000000000012e+00 0.0000000000000000e+00 2.6688548017401171e+01 0 0 0
656 2 1.1074500000000002e+01 7.1042950623783330e-01 2.6688548017401171e+01 0 0 0
695 2 1.1074500000000002e+01 2.1312885187135002e+00 2.6688548017401171e+01 0 0 0
559 2 0.0000000000000000e+00 4.2625770374269996e+00 2.6688548017401171e+01 0 0 0
561 2 1.2305000000000001e+00 4.9730065436648339e+00 2.6688548017401171e+01 0 0 0
576 2 1.2305000000000001e+00 6.3938655561404980e+00 2.6688548017401171e+01 0 0 0
580 2 2.4610000000000003e+00 4.2625770374269996e+00 2.6688548017401171e+01 0 0 0
582 2 3.6914999999999996e+00 4.9730065436648339e+00 2.6688548017401171e+01 0 0 0
605 2 3.6914999999999996e+00 6.3938655561404980e+00 2.6688548017401171e+01 0 0 0
557 2 0.0000000000000000e+00 7.1042950623783341e+00 2.6688548017401171e+01 0 0 0
578 2 2.4610000000000003e+00 7.1042950623783341e+00 2.6688548017401171e+01 0 0 0
609 2 4.9220000000000006e+00 4.2625770374269978e+00 2.6688548017401171e+01 0 0 0
611 2 6.1524999999999999e+00 4.9730065436648339e+00 2.6688548017401171e+01 0 0 0
642 2 6.1524999999999999e+00 6.3938655561404980e+00 2.6688548017401171e+01 0 0 0
646 2 7.3829999999999991e+00 4.2625770374269996e+00 2.6688548017401171e+01 0 0 0
607 2 4.9220000000000006e+00 7.1042950623783341e+00 2.6688548017401171e+01 0 0 0
644 2 7.3830000000000009e+00 7.1042950623783341e+00 2.6688548017401171e+01 0 0 0
648 2 8.6135000000000002e+00 4.9730065436648339e+00 2.6688548017401171e+01 0 0 0
687 2 8.6135000000000002e+00 6.3938655561404980e+00 2.6688548017401171e+01 0 0 0
691 2 9.8440000000000012e+00 4.2625770374270004e+00 2.6688548017401171e+01 0 0 0
693 2 1.1074500000000002e+01 4.9730065436648339e+00 2.6688548017401171e+01 0 0 0
734 2 1.1074500000000002e+01 6.3938655561404980e+00 2.6688548017401171e+01 0 0 0
689 2 9.8440000000000012e+00 7.1042950623783341e+00 2.6688548017401171e+01 0 0 0
572 2 0.0000000000000000e+00 8.5251540748539991e+00 2.6688548017401171e+01 0 0 0
574 2 1.2305000000000001e+00 9.2355835810918343e+00 2.6688548017401171e+01 0 0 0
601 2 2.4610000000000003e+00 8.5251540748539991e+00 2.6688548017401171e+01 0 0 0
603 2 3.6915000000000004e+00 9.2355835810918343e+00 2.6688548017401171e+01 0 0 0
570 2 0.0000000000000000e+00 1.1366872099805333e+01 2.6688548017401171e+01 0 0 0
597 2 1.2305000000000001e+00 1.0656442593567498e+01 2.6688548017401171e+01 0 0 0
599 2 2.4610000000000003e+00 1.1366872099805333e+01 2.6688548017401171e+01 0 0 0
634 2 3.6914999999999996e+00 1.0656442593567499e+01 2.6688548017401171e+01 0 0 0
638 2 4.9220000000000006e+00 8.5251540748539991e+00 2.6688548017401171e+01 0 0 0
640 2 6.1524999999999999e+00 9.2355835810918343e+00 2.6688548017401171e+01 0 0 0
683 2 7.3830000000000009e+00 8.5251540748539991e+00 2.6688548017401171e+01 0 0 0
636 2 4.9220000000000006e+00 1.1366872099805333e+01 2.6688548017401171e+01 0 0 0
679 2 6.1524999999999999e+00 1.0656442593567499e+01 2.6688548017401171e+01 0 0 0
681 2 7.3829999999999991e+00 1.1366872099805333e+01 2.6688548017401171e+01 0 0 0
685 2 8.6134999999999984e+00 9.2355835810918343e+00 2.6688548017401171e+01 0 0 0
730 2 9.8440000000000012e+00 8.5251540748539956e+00 2.6688548017401171e+01 0 0 0
732 2 1.1074500000000002e+01 9.2355835810918343e+00 2.6688548017401171e+01 0 0 0
726 2 8.6134999999999984e+00 1.0656442593567498e+01 2.6688548017401171e+01 0 0 0
728 2 9.8440000000000012e+00 1.1366872099805333e+01 2.6688548017401171e+01 0 0 0
773 2 1.1074500000000002e+01 1.0656442593567498e+01 2.6688548017401171e+01 0 0 0
775 2 1.2304999999999998e+01 1.1366872099805333e+01 2.6688548017401171e+01 0 0 0
593 2 0.0000000000000000e+00 1.2787731112280996e+01 2.6688548017401171e+01 0 0 0
595 2 1.2305000000000001e+00 1.3498160618518829e+01 2.6688548017401171e+01 0 0 0
630 2 2.4610000000000003e+00 1.2787731112280996e+01 2.6688548017401171e+01 0 0 0
632 2 3.6915000000000004e+00 1.3498160618518829e+01 2.6688548017401171e+01 0 0 0
591 2 0.0000000000000000e+00 1.5629449137232333e+01 2.6688548017401171e+01 0 0 0
626 2 1.2305000000000001e+00 1.4919019630994494e+01 2.6688548017401171e+01 0 0 0
628 2 2.4610000000000003e+00 1.5629449137232328e+01 2.6688548017401171e+01 0 0 0
671 2 3.6915000000000004e+00 1.4919019630994494e+01 2.6688548017401171e+01 0 0 0
675 2 4.9220000000000006e+00 1.2787731112280996e+01 2.6688548017401171e+01 0 0 0
677 2 6.1524999999999990e+00 1.3498160618518829e+01 2.6688548017401171e+01 0 0 0
722 2 7.3829999999999991e+00 1.2787731112280996e+01 2.6688548017401171e+01 0 0 0
673 2 4.9220000000000006e+00 1.5629449137232333e+01 2.6688548017401171e+01 0 0 0
718 2 6.1524999999999990e+00 1.4919019630994494e+01 2.6688548017401171e+01 0 0 0
720 2 7.3829999999999991e+00 1.5629449137232333e+01 2.6688548017401171e+01 0 0 0
724 2 8.6135000000000002e+00 1.3498160618518835e+01 2.6688548017401171e+01 0 0 0
769 2 9.8440000000000012e+00 1.2787731112280996e+01 2.6688548017401171e+01 0 0 0
771 2 1.1074500000000002e+01 1.3498160618518829e+01 2.6688548017401171e+01 0 0 0
765 2 8.6135000000000002e+00 1.4919019630994494e+01 2.6688548017401171e+01 0 0 0
767 2 9.8440000000000012e+00 1.5629449137232328e+01 2.6688548017401171e+01 0 0 0
807 2 1.1074500000000002e+01 1.4919019630994494e+01 2.6688548017401171e+01 0 0 0
553 2 0.0000000000000000e+00 1.4208590124756650e+00 3.0030999999989394e+01 0 0 0
555 2 0.0000000000000000e+00 0.0000000000000000e+00 3.0030999999989394e+01 0 0 0
564 2 1.2305000000000001e+00 2.1312885187134998e+00 3.0030999999989394e+01 0 0 0
566 2 2.4610000000000003e+00 1.4208590124756650e+00 3.0030999999989394e+01 0 0 0
568 2 2.4610000000000003e+00 0.0000000000000000e+00 3.0030999999989394e+01 0 0 0
585 2 3.6914999999999996e+00 2.1312885187134998e+00 3.0030999999989394e+01 0 0 0
562 2 1.2305000000000001e+00 3.5521475311891644e+00 3.0030999999989394e+01 0 0 0
583 2 3.6914999999999996e+00 3.5521475311891644e+00 3.0030999999989394e+01 0 0 0
587 2 4.9220000000000006e+00 1.4208590124756650e+00 3.0030999999989394e+01 0 0 0
589 2 4.9220000000000006e+00 0.0000000000000000e+00 3.0030999999989394e+01 0 0 0
614 2 6.1524999999999999e+00 2.1312885187134989e+00 3.0030999999989394e+01 0 0 0
616 2 7.3829999999999991e+00 1.4208590124756659e+00 3.0030999999989394e+01 0 0 0
618 2 7.3829999999999991e+00 0.0000000000000000e+00 3.0030999999989394e+01 0 0 0
612 2 6.1524999999999999e+00 3.5521475311891644e+00 3.0030999999989394e+01 0 0 0
651 2 8.6134999999999984e+00 2.1312885187135002e+00 3.0030999999989394e+01 0 0 0
653 2 9.8440000000000012e+00 1.4208590124756659e+00 3.0030999999989394e+01 0 0 0
655 2 9.8440000000000012e+00 0.0000000000000000e+00 3.0030999999989394e+01 0 0 0
696 2 1.1074500000000002e+01 2.1312885187135002e+00 3.0030999999989394e+01 0 0 0
649 2 8.6134999999999984e+00 3.5521475311891657e+00 3.0030999999989394e+01 0 0 0
694 2 1.1074500000000002e+01 3.5521475311891644e+00 3.0030999999989394e+01 0 0 0
558 2 0.0000000000000000e+00 5.6834360499026637e+00 3.0030999999989394e+01 0 0 0
560 2 0.0000000000000000e+00 4.2625770374269996e+00 3.0030999999989394e+01 0 0 0
577 2 1.2305000000000001e+00 6.3938655561404980e+00 3.0030999999989394e+01 0 0 0
579 2 2.4610000000000003e+00 5.6834360499026637e+00 3.0030999999989394e+01 0 0 0
581 2 2.4610000000000003e+00 4.2625770374269996e+00 3.0030999999989394e+01 0 0 0
606 2 3.6914999999999996e+00 6.3938655561404980e+00 3.0030999999989394e+01 0 0 0
575 2 1.2305000000000001e+00 7.8147245686161639e+00 3.0030999999989394e+01 0 0 0
604 2 3.6914999999999996e+00 7.8147245686161639e+00 3.0030999999989394e+01 0 0 0
608 2 4.9220000000000006e+00 5.6834360499026637e+00 3.0030999999989394e+01 0 0 0
610 2 4.9220000000000006e+00 4.2625770374269978e+00 3.0030999999989394e+01 0 0 0
643 2 6.1524999999999999e+00 6.3938655561404980e+00 3.0030999999989394e+01 0 0 0
645 2 7.3829999999999991e+00 5.6834360499026637e+00 3.0030999999989394e+01 0 0 0
647 2 7.3829999999999991e+00 4.2625770374269996e+00 3.0030999999989394e+01 0 0 0
641 2 6.1524999999999999e+00 7.8147245686161639e+00 3.0030999999989394e+01 0 0 0
688 2 8.6135000000000002e+00 6.3938655561404980e+00 3.0030999999989394e+01 0 0 0
690 2 9.8440000000000012e+00 5.6834360499026637e+00 3.0030999999989394e+01 0 0 0
692 2 9.8440000000000012e+00 4.2625770374270004e+00 3.0030999999989394e+01 0 0 0
735 2 1.1074500000000002e+01 6.3938655561404980e+00 3.0030999999989394e+01 0 0 0
686 2 8.6135000000000002e+00 7.8147245686161639e+00 3.0030999999989394e+01 0 0 0
733 2 1.1074500000000002e+01 7.8147245686161639e+00 3.0030999999989394e+01 0 0 0
571 2 0.0000000000000000e+00 9.9460130873296642e+00 3.0030999999989394e+01 0 0 0
573 2 0.0000000000000000e+00 8.5251540748539991e+00 3.0030999999989394e+01 0 0 0
600 2 2.4610000000000003e+00 9.9460130873296642e+00 3.0030999999989394e+01 0 0 0
602 2 2.4610000000000003e+00 8.5251540748539991e+00 3.0030999999989394e+01 0 0 0
596 2 1.2305000000000001e+00 1.2077301606043163e+01 3.0030999999989394e+01 0 0 0
598 2 1.2305000000000001e+00 1.0656442593567498e+01 3.0030999999989394e+01 0 0 0
633 2 3.6914999999999996e+00 1.2077301606043163e+01 3.0030999999989394e+01 0 0 0
635 2 3.6914999999999996e+00 1.0656442593567499e+01 3.0030999999989394e+01 0 0 0
637 2 4.9220000000000006e+00 9.9460130873296642e+00 3.0030999999989394e+01 0 0 0
639 2 4.9220000000000006e+00 8.5251540748539991e+00 3.0030999999989394e+01 0 0 0
682 2 7.3830000000000009e+00 9.9460130873296642e+00 3.0030999999989394e+01 0 0 0
684 2 7.3830000000000009e+00 8.5251540748539991e+00 3.0030999999989394e+01 0 0 0
678 2 6.1524999999999999e+00 1.2077301606043163e+01 3.0030999999989394e+01 0 0 0
680 2 6.1524999999999999e+00 1.0656442593567499e+01 3.0030999999989394e+01 0 0 0
729 2 9.8440000000000012e+00 9.9460130873296642e+00 3.0030999999989394e+01 0 0 0
731 2 9.8440000000000012e+00 8.5251540748539956e+00 3.0030999999989394e+01 0 0 0
725 2 8.6135000000000002e+00 1.2077301606043163e+01 3.0030999999989394e+01 0 0 0
727 2 8.6134999999999984e+00 1.0656442593567498e+01 3.0030999999989394e+01 0 0 0
772 2 1.1074500000000002e+01 1.2077301606043163e+01 3.0030999999989394e+01 0 0 0
774 2 1.1074500000000002e+01 1.0656442593567498e+01 3.0030999999989394e+01 0 0 0
594 2 0.0000000000000000e+00 1.2787731112280996e+01 3.0030999999989394e+01 0 0 0
631 2 2.4610000000000003e+00 1.2787731112280996e+01 3.0030999999989394e+01 0 0 0
592 2 0.0000000000000000e+00 1.4208590124756663e+01 3.0030999999989394e+01 0 0 0
627 2 1.2305000000000001e+00 1.4919019630994494e+01 3.0030999999989394e+01 0 0 0
629 2 2.4610000000000003e+00 1.4208590124756663e+01 3.0030999999989394e+01 0 0 0
672 2 3.6915000000000004e+00 1.4919019630994494e+01 3.0030999999989394e+01 0 0 0
676 2 4.9220000000000006e+00 1.2787731112280996e+01 3.0030999999989394e+01 0 0 0
723 2 7.3829999999999991e+00 1.2787731112280996e+01 3.0030999999989394e+01 0 0 0
674 2 4.9220000000000006e+00 1.4208590124756663e+01 3.0030999999989394e+01 0 0 0
719 2 6.1524999999999990e+00 1.4919019630994494e+01 3.0030999999989394e+01 0 0 0
721 2 7.3830000000000009e+00 1.4208590124756663e+01 3.0030999999989394e+01 0 0 0
770 2 9.8440000000000012e+00 1.2787731112280996e+01 3.0030999999989394e+01 0 0 0
766 2 8.6135000000000002e+00 1.4919019630994494e+01 3.0030999999989394e+01 0 0 0
768 2 9.8440000000000012e+00 1.4208590124756663e+01 3.0030999999989394e+01 0 0 0
806 2 1.1074500000000002e+01 1.6339878643470161e+01 3.0030999999989394e+01 0 0 0
808 2 1.1074500000000002e+01 1.4919019630994494e+01 3.0030999999989394e+01 0 0 0
810 2 1.2304999999999998e+01 1.4208590124756658e+01 3.0030999999989394e+01 0 0 0
881 2 0.0000000000000000e+00 2.8417180249513345e+00 3.3373451982571709e+01 0 0 0
882 2 0.0000000000000000e+00 0.0000000000000000e+00 3.3373451982571709e+01 0 0 0
883 2 1.2305000000000001e+00 7.1042950623783474e-01 3.3373451982571709e+01 0 0 0
887 2 1.2305000000000001e+00 2.1312885187134998e+00 3.3373451982571709e+01 0 0 0
888 2 2.4610000000000003e+00 2.8417180249513345e+00 3.3373451982571709e+01 0 0 0
889 2 2.4610000000000003e+00 0.0000000000000000e+00 3.3373451982571709e+01 0 0 0
890 2 3.6915000000000004e+00 7.1042950623783474e-01 3.3373451982571709e+01 0 0 0
898 2 3.6914999999999996e+00 2.1312885187134998e+00 3.3373451982571709e+01 0 0 0
899 2 4.9220000000000006e+00 2.8417180249513332e+00 3.3373451982571709e+01 0 0 0
900 2 4.9220000000000006e+00 0.0000000000000000e+00 3.3373451982571709e+01 0 0 0
901 2 6.1524999999999999e+00 7.1042950623783407e-01 3.3373451982571709e+01 0 0 0
913 2 6.1524999999999999e+00 2.1312885187134989e+00 3.3373451982571709e+01 0 0 0
914 2 7.3829999999999991e+00 2.8417180249513345e+00 3.3373451982571709e+01 0 0 0
915 2 7.3829999999999991e+00 0.0000000000000000e+00 3.3373451982571709e+01 0 0 0
916 2 8.6134999999999984e+00 7.1042950623783407e-01 3.3373451982571709e+01 0 0 0
932 2 8.6134999999999984e+00 2.1312885187135002e+00 3.3373451982571709e+01 0 0 0
933 2 9.8440000000000012e+00 2.8417180249513332e+00 3.3373451982571709e+01 0 0 0
934 2 9.8440000000000012e+00 0.0000000000000000e+00 3.3373451982571709e+01 0 0 0
935 2 1.1074500000000002e+01 7.1042950623783330e-01 3.3373451982571709e+01 0 0 0
955 2 1.1074500000000002e+01 2.1312885187135002e+00 3.3373451982571709e+01 0 0 0
885 2 0.0000000000000000e+00 4.2625770374269996e+00 3.3373451982571709e+01 0 0 0
886 2 1.2305000000000001e+00 4.9730065436648339e+00 3.3373451982571709e+01 0 0 0
894 2 1.2305000000000001e+00 6.3938655561404980e+00 3.3373451982571709e+01 0 0 0
896 2 2.4610000000000003e+00 4.2625770374269996e+00 3.3373451982571709e+01 0 0 0
897 2 3.6914999999999996e+00 4.9730065436648339e+00 3.3373451982571709e+01 0 0 0
909 2 3.6914999999999996e+00 6.3938655561404980e+00 3.3373451982571709e+01 0 0 0
884 2 0.0000000000000000e+00 7.1042950623783341e+00 3.3373451982571709e+01 0 0 0
895 2 2.4610000000000003e+00 7.1042950623783341e+00 3.3373451982571709e+01 0 0 0
911 2 4.9220000000000006e+00 4.2625770374269978e+00 3.3373451982571709e+01 0 0 0
912 2 6.1524999999999999e+00 4.9730065436648339e+00 3.3373451982571709e+01 0 0 0
928 2 6.1524999999999999e+00 6.3938655561404980e+00 3.3373451982571709e+01 0 0 0
930 2 7.3829999999999991e+00 4.2625770374269996e+00 3.3373451982571709e+01 0 0 0
910 2 4.9220000000000006e+00 7.1042950623783341e+00 3.3373451982571709e+01 0 0 0
929 2 7.3830000000000009e+00 7.1042950623783341e+00 3.3373451982571709e+01 0 0 0
931 2 8.6135000000000002e+00 4.9730065436648339e+00 3.3373451982571709e+01 0 0 0
951 2 8.6135000000000002e+00 6.3938655561404980e+00 3.3373451982571709e+01 0 0 0
953 2 9.8440000000000012e+00 4.2625770374270004e+00 3.3373451982571709e+01 0 0 0
954 2 1.1074500000000002e+01 4.9730065436648339e+00 3.3373451982571709e+01 0 0 0
975 2 1.1074500000000002e+01 6.3938655561404980e+00 3.3373451982571709e+01 0 0 0
952 2 9.8440000000000012e+00 7.1042950623783341e+00 3.3373451982571709e+01 0 0 0
892 2 0.0000000000000000e+00 8.5251540748539991e+00 3.3373451982571709e+01 0 0 0
893 2 1.2305000000000001e+00 9.2355835810918343e+00 3.3373451982571709e+01 0 0 0
907 2 2.4610000000000003e+00 8.5251540748539991e+00 3.3373451982571709e+01 0 0 0
908 2 3.6915000000000004e+00 9.2355835810918343e+00 3.3373451982571709e+01 0 0 0
891 2 0.0000000000000000e+00 1.1366872099805333e+01 3.3373451982571709e+01 0 0 0
905 2 1.2305000000000001e+00 1.0656442593567498e+01 3.3373451982571709e+01 0 0 0
906 2 2.4610000000000003e+00 1.1366872099805333e+01 3.3373451982571709e+01 0 0 0
924 2 3.6914999999999996e+00 1.0656442593567499e+01 3.3373451982571709e+01 0 0 0
926 2 4.9220000000000006e+00 8.5251540748539991e+00 3.3373451982571709e+01 0 0 0
927 2 6.1524999999999999e+00 9.2355835810918343e+00 3.3373451982571709e+01 0 0 0
949 2 7.3830000000000009e+00 8.5251540748539991e+00 3.3373451982571709e+01 0 0 0
925 2 4.9220000000000006e+00 1.1366872099805333e+01 3.3373451982571709e+01 0 0 0
947 2 6.1524999999999999e+00 1.0656442593567499e+01 3.3373451982571709e+01 0 0 0
948 2 7.3829999999999991e+00 1.1366872099805333e+01 3.3373451982571709e+01 0 0 0
950 2 8.6134999999999984e+00 9.2355835810918343e+00 3.3373451982571709e+01 0 0 0
973 2 9.8440000000000012e+00 8.5251540748539956e+00 3.3373451982571709e+01 0 0 0
974 2 1.1074500000000002e+01 9.2355835810918343e+00 3.3373451982571709e+01 0 0 0
971 2 8.6134999999999984e+00 1.0656442593567498e+01 3.3373451982571709e+01 0 0 0
972 2 9.8440000000000012e+00 1.1366872099805333e+01 3.3373451982571709e+01 0 0 0
995 2 1.1074500000000002e+01 1.0656442593567498e+01 3.3373451982571709e+01 0 0 0
996 2 1.2304999999999998e+01 1.1366872099805333e+01 3.3373451982571709e+01 0 0 0
903 2 0.0000000000000000e+00 1.2787731112280996e+01 3.3373451982571709e+01 0 0 0
904 2 1.2305000000000001e+00 1.3498160618518829e+01 3.3373451982571709e+01 0 0 0
922 2 2.4610000000000003e+00 1.2787731112280996e+01 3.3373451982571709e+01 0 0 0
923 2 3.6915000000000004e+00 1.3498160618518829e+01 3.3373451982571709e+01 0 0 0
902 2 0.0000000000000000e+00 1.5629449137232333e+01 3.3373451982571709e+01 0 0 0
920 2 1.2305000000000001e+00 1.4919019630994494e+01 3.3373451982571709e+01 0 0 0
921 2 2.4610000000000003e+00 1.5629449137232328e+01 3.3373451982571709e+01 0 0 0
943 2 3.6915000000000004e+00 1.4919019630994494e+01 3.3373451982571709e+01 0 0 0
945 2 4.9220000000000006e+00 1.2787731112280996e+01 3.3373451982571709e+01 0 0 0