LAMMPS data file via write_data, version 16 Mar 2018, timestep = 6000000

5021 atoms
2 atom types

0.0000000000000000e+00 4.9219999999999999e+01 xlo xhi
0.0000000000000000e+00 4.9019635930410494e+01 ylo yhi
2.8680035775379764e-01 3.9713199642244241e+01 zlo zhi

Masses

1 18.015
2 12.01

Atoms # atomic

201 2 0.0000000000000000e+00 2.8417180249513345e+00 2.0782187379760568e+00 0 0 0
203 2 0.0000000000000000e+00 0.0000000000000000e+00 2.0782187379760568e+00 0 0 0
205 2 1.2305000000000001e+00 7.1042950623783474e-01 2.0782187379760568e+00 0 0 0
212 2 1.2305000000000001e+00 2.1312885187134998e+00 2.0782187379760568e+00 0 0 0
214 2 2.4610000000000003e+00 2.8417180249513345e+00 2.0782187379760568e+00 0 0 0
216 2 2.4610000000000003e+00 0.0000000000000000e+00 2.0782187379760568e+00 0 0 0
218 2 3.6915000000000004e+00 7.1042950623783474e-01 2.0782187379760568e+00 0 0 0
233 2 3.6914999999999996e+00 2.1312885187134998e+00 2.0782187379760568e+00 0 0 0
235 2 4.9220000000000006e+00 2.8417180249513332e+00 2.0782187379760568e+00 0 0 0
237 2 4.9220000000000006e+00 0.0000000000000000e+00 2.0782187379760568e+00 0 0 0
239 2 6.1524999999999999e+00 7.1042950623783407e-01 2.0782187379760568e+00 0 0 0
262 2 6.1524999999999999e+00 2.1312885187134989e+00 2.0782187379760568e+00 0 0 0
264 2 7.3829999999999991e+00 2.8417180249513345e+00 2.0782187379760568e+00 0 0 0
266 2 7.3829999999999991e+00 0.0000000000000000e+00 2.0782187379760568e+00 0 0 0
268 2 8.6134999999999984e+00 7.1042950623783407e-01 2.0782187379760568e+00 0 0 0
299 2 8.6134999999999984e+00 2.1312885187135002e+00 2.0782187379760568e+00 0 0 0
208 2 0.0000000000000000e+00 4.2625770374269996e+00 2.0782187379760568e+00 0 0 0
210 2 1.2305000000000001e+00 4.9730065436648339e+00 2.0782187379760568e+00 0 0 0
225 2 1.2305000000000001e+00 6.3938655561404980e+00 2.0782187379760568e+00 0 0 0
229 2 2.4610000000000003e+00 4.2625770374269996e+00 2.0782187379760568e+00 0 0 0
231 2 3.6914999999999996e+00 4.9730065436648339e+00 2.0782187379760568e+00 0 0 0
254 2 3.6914999999999996e+00 6.3938655561404980e+00 2.0782187379760568e+00 0 0 0
206 2 0.0000000000000000e+00 7.1042950623783341e+00 2.0782187379760568e+00 0 0 0
227 2 2.4610000000000003e+00 7.1042950623783341e+00 2.0782187379760568e+00 0 0 0
258 2 4.9220000000000006e+00 4.2625770374269978e+00 2.0782187379760568e+00 0 0 0
260 2 6.1524999999999999e+00 4.9730065436648339e+00 2.0782187379760568e+00 0 0 0
291 2 6.1524999999999999e+00 6.3938655561404980e+00 2.0782187379760568e+00 0 0 0
295 2 7.3829999999999991e+00 4.2625770374269996e+00 2.0782187379760568e+00 0 0 0
297 2 8.6135000000000002e+00 4.9730065436648339e+00 2.0782187379760568e+00 0 0 0
336 2 8.6135000000000002e+00 6.3938655561404980e+00 2.0782187379760568e+00 0 0 0
256 2 4.9220000000000006e+00 7.1042950623783341e+00 2.0782187379760568e+00 0 0 0
293 2 7.3830000000000009e+00 7.1042950623783341e+00 2.0782187379760568e+00 0 0 0
221 2 0.0000000000000000e+00 8.5251540748539991e+00 2.0782187379760568e+00 0 0 0
223 2 1.2305000000000001e+00 9.2355835810918343e+00 2.0782187379760568e+00 0 0 0
250 2 2.4610000000000003e+00 8.5251540748539991e+00 2.0782187379760568e+00 0 0 0
252 2 3.6915000000000004e+00 9.2355835810918343e+00 2.0782187379760568e+00 0 0 0
219 2 0.0000000000000000e+00 1.1366872099805333e+01 2.0782187379760568e+00 0 0 0
246 2 1.2305000000000001e+00 1.0656442593567498e+01 2.0782187379760568e+00 0 0 0
248 2 2.4610000000000003e+00 1.1366872099805333e+01 2.0782187379760568e+00 0 0 0
283 2 3.6914999999999996e+00 1.0656442593567499e+01 2.0782187379760568e+00 0 0 0
287 2 4.9220000000000006e+00 8.5251540748539991e+00 2.0782187379760568e+00 0 0 0
289 2 6.1524999999999999e+00 9.2355835810918343e+00 2.0782187379760568e+00 0 0 0
332 2 7.3830000000000009e+00 8.5251540748539991e+00 2.0782187379760568e+00 0 0 0
334 2 8.6134999999999984e+00 9.2355835810918343e+00 2.0782187379760568e+00 0 0 0
285 2 4.9220000000000006e+00 1.1366872099805333e+01 2.0782187379760568e+00 0 0 0
328 2 6.1524999999999999e+00 1.0656442593567499e+01 2.0782187379760568e+00 0 0 0
330 2 7.3829999999999991e+00 1.1366872099805333e+01 2.0782187379760568e+00 0 0 0
375 2 8.6134999999999984e+00 1.0656442593567498e+01 2.0782187379760568e+00 0 0 0
202 2 0.0000000000000000e+00 1.4208590124756650e+00 5.3587761986986431e+00 0 0 0
204 2 0.0000000000000000e+00 0.0000000000000000e+00 5.3587761986986431e+00 0 0 0
213 2 1.2305000000000001e+00 2.1312885187134998e+00 5.3587761986986431e+00 0 0 0
215 2 2.4610000000000003e+00 1.4208590124756650e+00 5.3587761986986431e+00 0 0 0
217 2 2.4610000000000003e+00 0.0000000000000000e+00 5.3587761986986431e+00 0 0 0
234 2 3.6914999999999996e+00 2.1312885187134998e+00 5.3587761986986431e+00 0 0 0
211 2 1.2305000000000001e+00 3.5521475311891644e+00 5.3587761986986431e+00 0 0 0
232 2 3.6914999999999996e+00 3.5521475311891644e+00 5.3587761986986431e+00 0 0 0
530 2 0.0000000000000000e+00 2.8417180249513345e+00 8.6393336594233858e+00 0 0 0
531 2 0.0000000000000000e+00 0.0000000000000000e+00 8.6393336594233858e+00 0 0 0
532 2 1.2305000000000001e+00 7.1042950623783474e-01 8.6393336594233858e+00 0 0 0
536 2 1.2305000000000001e+00 2.1312885187134998e+00 8.6393336594233858e+00 0 0 0
537 2 2.4610000000000003e+00 2.8417180249513345e+00 8.6393336594233858e+00 0 0 0
538 2 2.4610000000000003e+00 0.0000000000000000e+00 8.6393336594233858e+00 0 0 0
539 2 3.6915000000000004e+00 7.1042950623783474e-01 8.6393336594233858e+00 0 0 0
547 2 3.6914999999999996e+00 2.1312885187134998e+00 8.6393336594233858e+00 0 0 0
236 2 4.9220000000000006e+00 1.4208590124756650e+00 5.3587761986986431e+00 0 0 0
238 2 4.9220000000000006e+00 0.0000000000000000e+00 5.3587761986986431e+00 0 0 0
263 2 6.1524999999999999e+00 2.1312885187134989e+00 5.3587761986986431e+00 0 0 0
265 2 7.3829999999999991e+00 1.4208590124756659e+00 5.3587761986986431e+00 0 0 0
267 2 7.3829999999999991e+00 0.0000000000000000e+00 5.3587761986986431e+00 0 0 0
300 2 8.6134999999999984e+00 2.1312885187135002e+00 5.3587761986986431e+00 0 0 0
261 2 6.1524999999999999e+00 3.5521475311891644e+00 5.3587761986986431e+00 0 0 0
298 2 8.6134999999999984e+00 3.5521475311891657e+00 5.3587761986986431e+00 0 0 0
548 2 4.9220000000000006e+00 2.8417180249513332e+00 8.6393336594233858e+00 0 0 0
549 2 4.9220000000000006e+00 0.0000000000000000e+00 8.6393336594233858e+00 0 0 0
550 2 6.1524999999999999e+00 7.1042950623783407e-01 8.6393336594233858e+00 0 0 0
562 2 6.1524999999999999e+00 2.1312885187134989e+00 8.6393336594233858e+00 0 0 0
563 2 7.3829999999999991e+00 2.8417180249513345e+00 8.6393336594233858e+00 0 0 0
564 2 7.3829999999999991e+00 0.0000000000000000e+00 8.6393336594233858e+00 0 0 0
565 2 8.6134999999999984e+00 7.1042950623783407e-01 8.6393336594233858e+00 0 0 0
581 2 8.6134999999999984e+00 2.1312885187135002e+00 8.6393336594233858e+00 0 0 0
207 2 0.0000000000000000e+00 5.6834360499026637e+00 5.3587761986986431e+00 0 0 0
209 2 0.0000000000000000e+00 4.2625770374269996e+00 5.3587761986986431e+00 0 0 0
226 2 1.2305000000000001e+00 6.3938655561404980e+00 5.3587761986986431e+00 0 0 0
228 2 2.4610000000000003e+00 5.6834360499026637e+00 5.3587761986986431e+00 0 0 0
230 2 2.4610000000000003e+00 4.2625770374269996e+00 5.3587761986986431e+00 0 0 0
255 2 3.6914999999999996e+00 6.3938655561404980e+00 5.3587761986986431e+00 0 0 0
224 2 1.2305000000000001e+00 7.8147245686161639e+00 5.3587761986986431e+00 0 0 0
253 2 3.6914999999999996e+00 7.8147245686161639e+00 5.3587761986986431e+00 0 0 0
534 2 0.0000000000000000e+00 4.2625770374269996e+00 8.6393336594233858e+00 0 0 0
535 2 1.2305000000000001e+00 4.9730065436648339e+00 8.6393336594233858e+00 0 0 0
543 2 1.2305000000000001e+00 6.3938655561404980e+00 8.6393336594233858e+00 0 0 0
545 2 2.4610000000000003e+00 4.2625770374269996e+00 8.6393336594233858e+00 0 0 0
546 2 3.6914999999999996e+00 4.9730065436648339e+00 8.6393336594233858e+00 0 0 0
558 2 3.6914999999999996e+00 6.3938655561404980e+00 8.6393336594233858e+00 0 0 0
533 2 0.0000000000000000e+00 7.1042950623783341e+00 8.6393336594233858e+00 0 0 0
544 2 2.4610000000000003e+00 7.1042950623783341e+00 8.6393336594233858e+00 0 0 0
257 2 4.9220000000000006e+00 5.6834360499026637e+00 5.3587761986986431e+00 0 0 0
259 2 4.9220000000000006e+00 4.2625770374269978e+00 5.3587761986986431e+00 0 0 0
292 2 6.1524999999999999e+00 6.3938655561404980e+00 5.3587761986986431e+00 0 0 0
294 2 7.3829999999999991e+00 5.6834360499026637e+00 5.3587761986986431e+00 0 0 0
296 2 7.3829999999999991e+00 4.2625770374269996e+00 5.3587761986986431e+00 0 0 0
337 2 8.6135000000000002e+00 6.3938655561404980e+00 5.3587761986986431e+00 0 0 0
290 2 6.1524999999999999e+00 7.8147245686161639e+00 5.3587761986986431e+00 0 0 0
335 2 8.6135000000000002e+00 7.8147245686161639e+00 5.3587761986986431e+00 0 0 0
560 2 4.9220000000000006e+00 4.2625770374269978e+00 8.6393336594233858e+00 0 0 0
561 2 6.1524999999999999e+00 4.9730065436648339e+00 8.6393336594233858e+00 0 0 0
577 2 6.1524999999999999e+00 6.3938655561404980e+00 8.6393336594233858e+00 0 0 0
579 2 7.3829999999999991e+00 4.2625770374269996e+00 8.6393336594233858e+00 0 0 0
580 2 8.6135000000000002e+00 4.9730065436648339e+00 8.6393336594233858e+00 0 0 0
600 2 8.6135000000000002e+00 6.3938655561404980e+00 8.6393336594233858e+00 0 0 0
559 2 4.9220000000000006e+00 7.1042950623783341e+00 8.6393336594233858e+00 0 0 0
578 2 7.3830000000000009e+00 7.1042950623783341e+00 8.6393336594233858e+00 0 0 0
220 2 0.0000000000000000e+00 9.9460130873296642e+00 5.3587761986986431e+00 0 0 0
222 2 0.0000000000000000e+00 8.5251540748539991e+00 5.3587761986986431e+00 0 0 0
249 2 2.4610000000000003e+00 9.9460130873296642e+00 5.3587761986986431e+00 0 0 0
251 2 2.4610000000000003e+00 8.5251540748539991e+00 5.3587761986986431e+00 0 0 0
245 2 1.2305000000000001e+00 1.2077301606043163e+01 5.3587761986986431e+00 0 0 0
247 2 1.2305000000000001e+00 1.0656442593567498e+01 5.3587761986986431e+00 0 0 0
282 2 3.6914999999999996e+00 1.2077301606043163e+01 5.3587761986986431e+00 0 0 0
284 2 3.6914999999999996e+00 1.0656442593567499e+01 5.3587761986986431e+00 0 0 0
541 2 0.0000000000000000e+00 8.5251540748539991e+00 8.6393336594233858e+00 0 0 0
542 2 1.2305000000000001e+00 9.2355835810918343e+00 8.6393336594233858e+00 0 0 0
556 2 2.4610000000000003e+00 8.5251540748539991e+00 8.6393336594233858e+00 0 0 0
557 2 3.6915000000000004e+00 9.2355835810918343e+00 8.6393336594233858e+00 0 0 0
540 2 0.0000000000000000e+00 1.1366872099805333e+01 8.6393336594233858e+00 0 0 0
554 2 1.2305000000000001e+00 1.0656442593567498e+01 8.6393336594233858e+00 0 0 0
555 2 2.4610000000000003e+00 1.1366872099805333e+01 8.6393336594233858e+00 0 0 0
573 2 3.6914999999999996e+00 1.0656442593567499e+01 8.6393336594233858e+00 0 0 0
286 2 4.9220000000000006e+00 9.9460130873296642e+00 5.3587761986986431e+00 0 0 0
288 2 4.9220000000000006e+00 8.5251540748539991e+00 5.3587761986986431e+00 0 0 0
331 2 7.3830000000000009e+00 9.9460130873296642e+00 5.3587761986986431e+00 0 0 0
333 2 7.3830000000000009e+00 8.5251540748539991e+00 5.3587761986986431e+00 0 0 0
327 2 6.1524999999999999e+00 1.2077301606043163e+01 5.3587761986986431e+00 0 0 0
329 2 6.1524999999999999e+00 1.0656442593567499e+01 5.3587761986986431e+00 0 0 0
374 2 8.6135000000000002e+00 1.2077301606043163e+01 5.3587761986986431e+00 0 0 0
376 2 8.6134999999999984e+00 1.0656442593567498e+01 5.3587761986986431e+00 0 0 0
575 2 4.9220000000000006e+00 8.5251540748539991e+00 8.6393336594233858e+00 0 0 0
576 2 6.1524999999999999e+00 9.2355835810918343e+00 8.6393336594233858e+00 0 0 0
598 2 7.3830000000000009e+00 8.5251540748539991e+00 8.6393336594233858e+00 0 0 0
599 2 8.6134999999999984e+00 9.2355835810918343e+00 8.6393336594233858e+00 0 0 0
574 2 4.9220000000000006e+00 1.1366872099805333e+01 8.6393336594233858e+00 0 0 0
596 2 6.1524999999999999e+00 1.0656442593567499e+01 8.6393336594233858e+00 0 0 0
597 2 7.3829999999999991e+00 1.1366872099805333e+01 8.6393336594233858e+00 0 0 0
620 2 8.6134999999999984e+00 1.0656442593567498e+01 8.6393336594233858e+00 0 0 0
2506 1 4.7559361852198609e+00 1.2348577287675528e+00 1.1339841554208887e+01 -2 -1 -1
1183 1 3.8643583043215224e+00 3.6104894480106902e+00 1.4388034881469551e+01 1 -3 0
1325 1 4.1987109812613950e+00 3.9775343930176237e+00 1.1850058257142724e+01 1 -1 0
2673 1 4.6819630651743660e+00 9.5367621387291479e-01 1.4960509853901955e+01 0 0 1
2632 1 9.2999202626544104e+00 1.6830289218869543e+00 1.1017089639630615e+01 0 4 1
2510 1 7.1740149226421437e+00 1.0831674548796144e-01 1.1726164257451117e+01 1 -1 0
1268 1 1.8730944065844863e+00 5.1060109709368460e+00 1.1180154829382506e+01 -2 -2 -1
3556 1 1.3945374168421911e+00 7.8276669430744761e+00 1.1815679343661730e+01 -1 -3 0
3918 1 1.2908677400132877e+00 7.7684380985238564e+00 1.4396811701881727e+01 2 -1 0
3500 1 1.6266563159316025e+00 5.0273348127592099e+00 1.5011437256400907e+01 -2 0 -1
2600 1 8.8011762913687352e+00 4.2986104242224910e+00 1.3952730303977782e+01 2 2 0
4871 1 8.8575647814623810e+00 4.5726618809150894e+00 1.1054117218255364e+01 3 -1 0
3845 1 6.4217823241678067e+00 5.8909203314970320e+00 1.1709056673473967e+01 1 1 0
2245 1 6.3228147755269575e+00 5.2772388766370755e+00 1.4999176866403714e+01 0 -2 0
46 1 5.8305362523765512e+00 8.1222721106040670e+00 1.4461797038115973e+01 1 -4 0
4865 1 3.4105284106298139e+00 9.5659303199638739e+00 1.1729696124219689e+01 1 0 0
1448 1 3.3741829362401794e+00 9.6703320980989940e+00 1.4867164542780626e+01 0 -1 0
172 1 5.7084301476468022e+00 8.5891768647436422e+00 1.1919288028753389e+01 2 0 1
72 1 8.1884988940169681e+00 9.9660214804332323e+00 1.1140717105539478e+01 1 -1 0
4878 1 7.8654319800565649e+00 1.2241793258410693e+01 1.4601041681083631e+01 -1 0 -1
963 1 2.0796854840907857e+00 2.3585303802310169e+00 1.8421201214438018e+01 -3 -2 -1
2263 1 4.6873757237781994e+00 1.1472087240031505e+00 1.7613914031302706e+01 0 0 -1
3603 1 9.2279311979525733e+00 1.6210798224250440e+00 1.5078611633533693e+01 -1 2 0
3710 1 8.8788676853687214e+00 1.3837084614834083e+00 1.7871631093603284e+01 0 1 -1
4682 1 6.6708622057823019e+00 3.0525678584841258e+00 1.8632417285595565e+01 0 0 0
4785 1 3.9241948581907691e+00 6.9318611451080008e+00 1.8501523854684024e+01 -2 -1 -1
22 1 1.7549019916502309e+00 5.2229119096072099e+00 1.7812680510670170e+01 2 3 0
3954 1 8.9033779093527059e+00 7.3866285411271866e+00 1.8795477473767946e+01 1 -3 1
2156 1 6.5090722966213921e+00 5.8783529201524392e+00 1.7769946703360414e+01 1 2 0
4981 1 9.2569179928701795e-01 1.0713437441360295e+01 1.8527029041386928e+01 -1 1 -1
3926 1 3.4918493965911015e+00 9.5307275186490266e+00 1.7723642003559188e+01 0 2 0
3585 1 8.1564406003993319e+00 9.5126705831249474e+00 1.5179426209800321e+01 2 -1 0
1049 1 5.8196251670468859e+00 1.1082228309032391e+01 1.8644941226880455e+01 -1 -1 0
4868 1 8.1145927386034327e+00 9.8912814119588273e+00 1.7841857664348172e+01 0 0 0
1094 1 1.9709506435283939e+00 2.3307940953052784e+00 2.1193020121532133e+01 -3 0 -1
152 1 6.6157168322750515e+00 3.1583553061976866e+00 2.1445787758791059e+01 1 -2 0
1270 1 6.5403832073815265e+00 5.2377149636718390e-01 2.2261248293373821e+01 0 1 0
105 1 4.0121958363173791e+00 4.2203003499448499e+00 2.1797372470583600e+01 -1 2 0
1334 1 3.8184654491721219e+00 6.8467566558816095e+00 2.1477496076068427e+01 -2 0 0
1184 1 1.3457258935162468e+00 7.9733689872518649e+00 2.4814826358525540e+01 2 -1 -1
3531 1 4.1064092843662472e+00 4.1891925496502909e+00 2.4597138639295526e+01 -1 0 0
4789 1 8.7840468902482041e+00 4.7472173657694903e+00 2.2329690811783973e+01 0 -2 -1
1215 1 8.6928469322571864e+00 7.2830149678278335e+00 2.1583259852567217e+01 2 2 -1
4758 1 6.1550765085774550e+00 7.9591579936077803e+00 2.4792876525260823e+01 1 -3 0
1212 1 1.6117910925522592e+00 8.1774025555352932e+00 2.2082494401164347e+01 -1 0 0
4631 1 1.0243399930868922e+00 1.0798026816638773e+01 2.1292581149162384e+01 3 0 1
3972 1 3.1847984619092360e+00 1.2044290877242418e+01 2.4748629324190219e+01 1 0 0
4825 1 6.1254187294354923e+00 8.3038492105881136e+00 2.2080753163566548e+01 0 0 0
3482 1 5.7077828811337623e+00 1.1161262845109398e+01 2.1406994319288795e+01 0 2 0
1373 1 2.0004674259951920e+00 2.5325543444010394e+00 2.5563500174012088e+01 -1 0 -1
2372 1 1.7233085022146906e+00 2.6013289488167919e+00 2.8639260373883626e+01 2 2 0
4908 1 4.2414625650906812e+00 4.0611663416244408e+00 2.9241577947249940e+01 1 -1 0
2396 1 7.2176107725640746e+00 7.3741473655355265e-03 2.4996621937238810e+01 1 -1 0
2345 1 6.5037935689095105e+00 3.0087028133506761e+00 2.5446881597299750e+01 2 0 0
143 1 6.6094683696362049e+00 2.8671547072980346e+00 2.8213667497520046e+01 1 -1 0
33 1 6.8519658665483982e+00 3.7239110442432777e-01 2.9107863716159898e+01 3 0 0
1181 1 1.3745390485195368e+00 7.8765648245609405e+00 2.9064935347164557e+01 0 -1 0
2362 1 3.6918564870713992e+00 6.5902478010299745e+00 2.8354857419724585e+01 1 2 0
2519 1 3.6865181007312433e+00 6.6515261594199426e+00 2.5556043263224076e+01 -1 3 0
1077 1 9.0480188606747713e+00 4.4422774916462204e+00 2.5190194521094401e+01 0 0 -1
1431 1 8.7415637615053452e+00 4.5198592824510424e+00 2.8754468176913392e+01 -1 4 0
3626 1 8.4270862482811175e+00 7.0338994410307620e+00 2.5936974581759515e+01 -1 -1 0
1283 1 8.5720772202494793e+00 7.2348122532974335e+00 2.8620617812381482e+01 0 -1 0
71 1 1.1961555447101586e+00 1.0453656606565318e+01 2.5376827697596884e+01 -1 -1 0
4744 1 1.3129548817121279e+00 1.0621487056029377e+01 2.8200975499715135e+01 0 -1 0
2518 1 3.1978374230128974e+00 1.2229785530341033e+01 2.9203502806926139e+01 0 1 0
3690 1 5.7224590563494209e+00 1.0759111578343843e+01 2.5672582424339392e+01 0 1 0
1307 1 5.7478556433082479e+00 1.0697010719242737e+01 2.8395562567799267e+01 -2 2 0
4940 1 5.9246550236232203e+00 8.1864948361896825e+00 2.9094400345582468e+01 0 0 0
4652 1 4.2633386238967184e+00 1.2387501293010739e+00 3.2607328934095257e+01 0 1 -1
151 1 4.0196131717025745e+00 3.9732888262799557e+00 3.1969290189373432e+01 0 0 0
1061 1 8.9757813925800534e+00 1.6535976208059788e+00 3.2757750179531719e+01 -2 -2 0
2351 1 6.7863897271458704e+00 3.3462048181242920e-01 3.2032443763689400e+01 2 0 -1
3480 1 1.7512227046956517e+00 5.2454587184511325e+00 3.2614051233693964e+01 0 2 0
3451 1 1.4150521244448462e+00 7.8379928635017073e+00 3.1888433502807047e+01 -3 0 0
2176 1 8.8685440333775425e+00 4.1552102939479179e+00 3.1619631947259933e+01 1 0 0
1255 1 6.4169745902169568e+00 5.4177359956345832e+00 3.2575689536674396e+01 1 0 -1
2467 1 3.5767496408716948e+00 9.5691308670994211e+00 3.2561286222101927e+01 -3 1 0
4859 1 6.0958260945929350e+00 8.4207233213041235e+00 3.1914062671476525e+01 0 -1 0
2293 1 8.3353341948672952e+00 9.8840520080343968e+00 3.2478770013504487e+01 -1 1 -1
3464 1 4.3628458755575998e+00 9.5455659482825872e-01 3.5379070179022023e+01 -3 0 0
2631 1 4.0434295961880036e+00 5.4771669108313248e-01 3.9198103260185185e+01 1 1 0
1214 1 3.7749638231567491e+00 3.2917604541726644e+00 3.8596950963550675e+01 0 2 -1
5019 1 4.1788230664005015e+00 3.6436884273778638e+00 3.5958967717659647e+01 1 2 0
1066 1 8.9821917034189589e+00 1.7184389264264528e+00 3.8819486412272738e+01 1 1 0
905 1 9.1674121271756768e+00 1.4976972399937485e+00 3.5709392846275691e+01 -1 -3 -1
31 1 6.8371351896663750e+00 8.0371240029037949e-02 3.6266281291480688e+01 0 0 0
1120 1 1.0469034939078230e+00 7.3690650732399021e+00 3.8893281281994035e+01 0 -2 0
4661 1 1.1379478297344043e+00 7.5529208886390791e+00 3.5891411386671734e+01 0 0 0
4861 1 1.8129586033830640e+00 5.0326360037730788e+00 3.5351336504428062e+01 1 2 -1
150 1 1.2331976276872583e+00 4.5230332815433663e+00 3.8557549191104442e+01 1 0 1
2229 1 8.9829877238231592e+00 4.3363678348992991e+00 3.5896132704953153e+01 0 3 0
3486 1 8.4516171098485326e+00 4.2003980335704005e+00 3.8693659399960978e+01 -1 1 0
3819 1 5.7191477988382040e+00 8.0141587410263018e+00 3.8821091048245194e+01 1 -1 0
3571 1 5.8815113631099187e+00 5.0685920581748682e+00 3.8580498503323362e+01 -1 0 0
4965 1 6.3583709292329056e+00 5.2219095661933297e+00 3.5231007330110778e+01 -1 1 0
2472 1 5.6666466802660915e+00 7.9095891199334947e+00 3.6011197643191878e+01 0 0 0
1289 1 2.7883617970783949e+00 1.2016942763387409e+01 3.6154519247800707e+01 2 0 0
100 1 3.0188213843045415e+00 9.3763640126736441e+00 3.9020667284042311e+01 -1 1 0
1425 1 3.2865970274686882e+00 9.1515042275070826e+00 3.5342299973043573e+01 3 1 0
4772 1 2.8901612295350816e+00 1.2097033514777632e+01 3.8934668485807094e+01 1 1 -1
1012 1 7.9381082874610946e+00 9.7566602945881336e+00 3.9036172178972294e+01 3 -1 -1
983 1 7.9787390073240898e+00 9.5183416692207778e+00 3.5332394324805577e+01 -2 1 0
1301 1 8.0117275182999474e+00 1.2232779471281741e+01 3.5768539405106999e+01 -1 2 0
242 2 0.0000000000000000e+00 1.2787731112280996e+01 2.0782187379760568e+00 0 0 0
244 2 1.2305000000000001e+00 1.3498160618518829e+01 2.0782187379760568e+00 0 0 0
279 2 2.4610000000000003e+00 1.2787731112280996e+01 2.0782187379760568e+00 0 0 0
281 2 3.6915000000000004e+00 1.3498160618518829e+01 2.0782187379760568e+00 0 0 0
240 2 0.0000000000000000e+00 1.5629449137232333e+01 2.0782187379760568e+00 0 0 0
275 2 1.2305000000000001e+00 1.4919019630994494e+01 2.0782187379760568e+00 0 0 0
277 2 2.4610000000000003e+00 1.5629449137232328e+01 2.0782187379760568e+00 0 0 0
320 2 3.6915000000000004e+00 1.4919019630994494e+01 2.0782187379760568e+00 0 0 0
324 2 4.9220000000000006e+00 1.2787731112280996e+01 2.0782187379760568e+00 0 0 0
326 2 6.1524999999999990e+00 1.3498160618518829e+01 2.0782187379760568e+00 0 0 0
371 2 7.3829999999999991e+00 1.2787731112280996e+01 2.0782187379760568e+00 0 0 0
373 2 8.6135000000000002e+00 1.3498160618518835e+01 2.0782187379760568e+00 0 0 0
322 2 4.9220000000000006e+00 1.5629449137232333e+01 2.0782187379760568e+00 0 0 0
367 2 6.1524999999999990e+00 1.4919019630994494e+01 2.0782187379760568e+00 0 0 0
369 2 7.3829999999999991e+00 1.5629449137232333e+01 2.0782187379760568e+00 0 0 0
414 2 8.6135000000000002e+00 1.4919019630994494e+01 2.0782187379760568e+00 0 0 0
271 2 0.0000000000000000e+00 1.7050308149707998e+01 2.0782187379760568e+00 0 0 0
316 2 2.4610000000000003e+00 1.7050308149707998e+01 2.0782187379760568e+00 0 0 0
269 2 0.0000000000000000e+00 1.9892026174659328e+01 2.0782187379760568e+00 0 0 0
273 2 1.2305000000000001e+00 1.7760737655945832e+01 2.0782187379760568e+00 0 0 0
312 2 1.2305000000000001e+00 1.9181596668421495e+01 2.0782187379760568e+00 0 0 0
314 2 2.4610000000000003e+00 1.9892026174659328e+01 2.0782187379760568e+00 0 0 0
318 2 3.6914999999999996e+00 1.7760737655945832e+01 2.0782187379760568e+00 0 0 0
359 2 3.6914999999999996e+00 1.9181596668421495e+01 2.0782187379760568e+00 0 0 0
363 2 4.9220000000000006e+00 1.7050308149707998e+01 2.0782187379760568e+00 0 0 0
410 2 7.3830000000000009e+00 1.7050308149707998e+01 2.0782187379760568e+00 0 0 0
361 2 4.9220000000000006e+00 1.9892026174659328e+01 2.0782187379760568e+00 0 0 0
365 2 6.1524999999999999e+00 1.7760737655945832e+01 2.0782187379760568e+00 0 0 0
406 2 6.1524999999999999e+00 1.9181596668421495e+01 2.0782187379760568e+00 0 0 0
408 2 7.3829999999999991e+00 1.9892026174659328e+01 2.0782187379760568e+00 0 0 0
412 2 8.6134999999999984e+00 1.7760737655945832e+01 2.0782187379760568e+00 0 0 0
448 2 8.6135000000000002e+00 1.9181596668421495e+01 2.0782187379760568e+00 0 0 0
306 2 0.0000000000000000e+00 2.4154603212086325e+01 2.0782187379760568e+00 0 0 0
308 2 0.0000000000000000e+00 2.1312885187134999e+01 2.0782187379760568e+00 0 0 0
310 2 1.2304999999999993e+00 2.2023314693372832e+01 2.0782187379760568e+00 0 0 0
351 2 1.2304999999999993e+00 2.3444173705848499e+01 2.0782187379760568e+00 0 0 0
353 2 2.4610000000000003e+00 2.4154603212086325e+01 2.0782187379760568e+00 0 0 0
355 2 2.4610000000000003e+00 2.1312885187134995e+01 2.0782187379760568e+00 0 0 0
357 2 3.6914999999999996e+00 2.2023314693372832e+01 2.0782187379760568e+00 0 0 0
398 2 3.6915000000000004e+00 2.3444173705848499e+01 2.0782187379760568e+00 0 0 0
400 2 4.9220000000000006e+00 2.4154603212086325e+01 2.0782187379760568e+00 0 0 0
402 2 4.9220000000000006e+00 2.1312885187134995e+01 2.0782187379760568e+00 0 0 0
404 2 6.1524999999999990e+00 2.2023314693372832e+01 2.0782187379760568e+00 0 0 0
440 2 6.1524999999999999e+00 2.3444173705848499e+01 2.0782187379760568e+00 0 0 0
442 2 7.3830000000000009e+00 2.4154603212086336e+01 2.0782187379760568e+00 0 0 0
444 2 7.3829999999999991e+00 2.1312885187134999e+01 2.0782187379760568e+00 0 0 0
446 2 8.6135000000000002e+00 2.2023314693372832e+01 2.0782187379760568e+00 0 0 0
474 2 8.6134999999999984e+00 2.3444173705848499e+01 2.0782187379760568e+00 0 0 0
243 2 0.0000000000000000e+00 1.2787731112280996e+01 5.3587761986986431e+00 0 0 0
280 2 2.4610000000000003e+00 1.2787731112280996e+01 5.3587761986986431e+00 0 0 0
241 2 0.0000000000000000e+00 1.4208590124756663e+01 5.3587761986986431e+00 0 0 0
276 2 1.2305000000000001e+00 1.4919019630994494e+01 5.3587761986986431e+00 0 0 0
278 2 2.4610000000000003e+00 1.4208590124756663e+01 5.3587761986986431e+00 0 0 0
321 2 3.6915000000000004e+00 1.4919019630994494e+01 5.3587761986986431e+00 0 0 0
552 2 0.0000000000000000e+00 1.2787731112280996e+01 8.6393336594233858e+00 0 0 0
553 2 1.2305000000000001e+00 1.3498160618518829e+01 8.6393336594233858e+00 0 0 0
571 2 2.4610000000000003e+00 1.2787731112280996e+01 8.6393336594233858e+00 0 0 0
572 2 3.6915000000000004e+00 1.3498160618518829e+01 8.6393336594233858e+00 0 0 0
551 2 0.0000000000000000e+00 1.5629449137232333e+01 8.6393336594233858e+00 0 0 0
569 2 1.2305000000000001e+00 1.4919019630994494e+01 8.6393336594233858e+00 0 0 0
570 2 2.4610000000000003e+00 1.5629449137232328e+01 8.6393336594233858e+00 0 0 0
592 2 3.6915000000000004e+00 1.4919019630994494e+01 8.6393336594233858e+00 0 0 0
325 2 4.9220000000000006e+00 1.2787731112280996e+01 5.3587761986986431e+00 0 0 0
372 2 7.3829999999999991e+00 1.2787731112280996e+01 5.3587761986986431e+00 0 0 0
323 2 4.9220000000000006e+00 1.4208590124756663e+01 5.3587761986986431e+00 0 0 0
368 2 6.1524999999999990e+00 1.4919019630994494e+01 5.3587761986986431e+00 0 0 0
370 2 7.3830000000000009e+00 1.4208590124756663e+01 5.3587761986986431e+00 0 0 0
415 2 8.6135000000000002e+00 1.4919019630994494e+01 5.3587761986986431e+00 0 0 0
594 2 4.9220000000000006e+00 1.2787731112280996e+01 8.6393336594233858e+00 0 0 0
595 2 6.1524999999999990e+00 1.3498160618518829e+01 8.6393336594233858e+00 0 0 0
618 2 7.3829999999999991e+00 1.2787731112280996e+01 8.6393336594233858e+00 0 0 0
619 2 8.6135000000000002e+00 1.3498160618518835e+01 8.6393336594233858e+00 0 0 0
593 2 4.9220000000000006e+00 1.5629449137232333e+01 8.6393336594233858e+00 0 0 0
616 2 6.1524999999999990e+00 1.4919019630994494e+01 8.6393336594233858e+00 0 0 0
617 2 7.3829999999999991e+00 1.5629449137232333e+01 8.6393336594233858e+00 0 0 0
640 2 8.6135000000000002e+00 1.4919019630994494e+01 8.6393336594233858e+00 0 0 0
272 2 0.0000000000000000e+00 1.7050308149707998e+01 5.3587761986986431e+00 0 0 0
274 2 1.2305000000000001e+00 1.6339878643470165e+01 5.3587761986986431e+00 0 0 0
317 2 2.4610000000000003e+00 1.7050308149707998e+01 5.3587761986986431e+00 0 0 0
319 2 3.6915000000000004e+00 1.6339878643470165e+01 5.3587761986986431e+00 0 0 0
270 2 0.0000000000000000e+00 1.8471167162183658e+01 5.3587761986986431e+00 0 0 0
313 2 1.2305000000000001e+00 1.9181596668421495e+01 5.3587761986986431e+00 0 0 0
315 2 2.4610000000000003e+00 1.8471167162183658e+01 5.3587761986986431e+00 0 0 0
360 2 3.6914999999999996e+00 1.9181596668421495e+01 5.3587761986986431e+00 0 0 0
567 2 0.0000000000000000e+00 1.7050308149707998e+01 8.6393336594233858e+00 0 0 0
590 2 2.4610000000000003e+00 1.7050308149707998e+01 8.6393336594233858e+00 0 0 0
566 2 0.0000000000000000e+00 1.9892026174659328e+01 8.6393336594233858e+00 0 0 0
568 2 1.2305000000000001e+00 1.7760737655945832e+01 8.6393336594233858e+00 0 0 0
588 2 1.2305000000000001e+00 1.9181596668421495e+01 8.6393336594233858e+00 0 0 0
589 2 2.4610000000000003e+00 1.9892026174659328e+01 8.6393336594233858e+00 0 0 0
591 2 3.6914999999999996e+00 1.7760737655945832e+01 8.6393336594233858e+00 0 0 0
612 2 3.6914999999999996e+00 1.9181596668421495e+01 8.6393336594233858e+00 0 0 0
364 2 4.9220000000000006e+00 1.7050308149707998e+01 5.3587761986986431e+00 0 0 0
366 2 6.1524999999999999e+00 1.6339878643470165e+01 5.3587761986986431e+00 0 0 0
411 2 7.3830000000000009e+00 1.7050308149707998e+01 5.3587761986986431e+00 0 0 0
413 2 8.6134999999999984e+00 1.6339878643470165e+01 5.3587761986986431e+00 0 0 0
362 2 4.9220000000000006e+00 1.8471167162183658e+01 5.3587761986986431e+00 0 0 0
407 2 6.1524999999999999e+00 1.9181596668421495e+01 5.3587761986986431e+00 0 0 0
409 2 7.3829999999999991e+00 1.8471167162183658e+01 5.3587761986986431e+00 0 0 0
449 2 8.6135000000000002e+00 1.9181596668421495e+01 5.3587761986986431e+00 0 0 0
614 2 4.9220000000000006e+00 1.7050308149707998e+01 8.6393336594233858e+00 0 0 0
638 2 7.3830000000000009e+00 1.7050308149707998e+01 8.6393336594233858e+00 0 0 0
613 2 4.9220000000000006e+00 1.9892026174659328e+01 8.6393336594233858e+00 0 0 0
615 2 6.1524999999999999e+00 1.7760737655945832e+01 8.6393336594233858e+00 0 0 0
636 2 6.1524999999999999e+00 1.9181596668421495e+01 8.6393336594233858e+00 0 0 0
637 2 7.3829999999999991e+00 1.9892026174659328e+01 8.6393336594233858e+00 0 0 0
639 2 8.6134999999999984e+00 1.7760737655945832e+01 8.6393336594233858e+00 0 0 0
657 2 8.6135000000000002e+00 1.9181596668421495e+01 8.6393336594233858e+00 0 0 0
311 2 1.2305000000000001e+00 2.0602455680897162e+01 5.3587761986986431e+00 0 0 0
358 2 3.6915000000000004e+00 2.0602455680897162e+01 5.3587761986986431e+00 0 0 0
307 2 0.0000000000000000e+00 2.2733744199610655e+01 5.3587761986986431e+00 0 0 0
309 2 0.0000000000000000e+00 2.1312885187134999e+01 5.3587761986986431e+00 0 0 0
352 2 1.2304999999999993e+00 2.3444173705848499e+01 5.3587761986986431e+00 0 0 0
354 2 2.4610000000000003e+00 2.2733744199610655e+01 5.3587761986986431e+00 0 0 0
356 2 2.4610000000000003e+00 2.1312885187134995e+01 5.3587761986986431e+00 0 0 0
399 2 3.6915000000000004e+00 2.3444173705848499e+01 5.3587761986986431e+00 0 0 0