LAMMPS data file via write_data, version 16 Mar 2018, timestep = 100000

5021 atoms
2 atom types

0.0000000000000000e+00 4.9219999999999999e+01 xlo xhi
0.0000000000000000e+00 4.9019635930410494e+01 ylo yhi
1.5209198450051638e+00 3.8479080154996701e+01 zlo zhi

Masses

1 18.015
2 12.01

Atoms # atomic

201 2 0.0000000000000000e+00 2.8417180249513345e+00 3.2001887835843972e+00 0 0 0
203 2 0.0000000000000000e+00 0.0000000000000000e+00 3.2001887835843972e+00 0 0 0
205 2 1.2305000000000001e+00 7.1042950623783474e-01 3.2001887835843972e+00 0 0 0
212 2 1.2305000000000001e+00 2.1312885187134998e+00 3.2001887835843972e+00 0 0 0
214 2 2.4610000000000003e+00 2.8417180249513345e+00 3.2001887835843972e+00 0 0 0
216 2 2.4610000000000003e+00 0.0000000000000000e+00 3.2001887835843972e+00 0 0 0
218 2 3.6915000000000004e+00 7.1042950623783474e-01 3.2001887835843972e+00 0 0 0
233 2 3.6914999999999996e+00 2.1312885187134998e+00 3.2001887835843972e+00 0 0 0
235 2 4.9220000000000006e+00 2.8417180249513332e+00 3.2001887835843972e+00 0 0 0
237 2 4.9220000000000006e+00 0.0000000000000000e+00 3.2001887835843972e+00 0 0 0
239 2 6.1524999999999999e+00 7.1042950623783407e-01 3.2001887835843972e+00 0 0 0
262 2 6.1524999999999999e+00 2.1312885187134989e+00 3.2001887835843972e+00 0 0 0
264 2 7.3829999999999991e+00 2.8417180249513345e+00 3.2001887835843972e+00 0 0 0
266 2 7.3829999999999991e+00 0.0000000000000000e+00 3.2001887835843972e+00 0 0 0
268 2 8.6134999999999984e+00 7.1042950623783407e-01 3.2001887835843972e+00 0 0 0
299 2 8.6134999999999984e+00 2.1312885187135002e+00 3.2001887835843972e+00 0 0 0
208 2 0.0000000000000000e+00 4.2625770374269996e+00 3.2001887835843972e+00 0 0 0
210 2 1.2305000000000001e+00 4.9730065436648339e+00 3.2001887835843972e+00 0 0 0
225 2 1.2305000000000001e+00 6.3938655561404980e+00 3.2001887835843972e+00 0 0 0
229 2 2.4610000000000003e+00 4.2625770374269996e+00 3.2001887835843972e+00 0 0 0
231 2 3.6914999999999996e+00 4.9730065436648339e+00 3.2001887835843972e+00 0 0 0
254 2 3.6914999999999996e+00 6.3938655561404980e+00 3.2001887835843972e+00 0 0 0
206 2 0.0000000000000000e+00 7.1042950623783341e+00 3.2001887835843972e+00 0 0 0
227 2 2.4610000000000003e+00 7.1042950623783341e+00 3.2001887835843972e+00 0 0 0
258 2 4.9220000000000006e+00 4.2625770374269978e+00 3.2001887835843972e+00 0 0 0
260 2 6.1524999999999999e+00 4.9730065436648339e+00 3.2001887835843972e+00 0 0 0
291 2 6.1524999999999999e+00 6.3938655561404980e+00 3.2001887835843972e+00 0 0 0
295 2 7.3829999999999991e+00 4.2625770374269996e+00 3.2001887835843972e+00 0 0 0
297 2 8.6135000000000002e+00 4.9730065436648339e+00 3.2001887835843972e+00 0 0 0
336 2 8.6135000000000002e+00 6.3938655561404980e+00 3.2001887835843972e+00 0 0 0
256 2 4.9220000000000006e+00 7.1042950623783341e+00 3.2001887835843972e+00 0 0 0
293 2 7.3830000000000009e+00 7.1042950623783341e+00 3.2001887835843972e+00 0 0 0
221 2 0.0000000000000000e+00 8.5251540748539991e+00 3.2001887835843972e+00 0 0 0
223 2 1.2305000000000001e+00 9.2355835810918343e+00 3.2001887835843972e+00 0 0 0
250 2 2.4610000000000003e+00 8.5251540748539991e+00 3.2001887835843972e+00 0 0 0
252 2 3.6915000000000004e+00 9.2355835810918343e+00 3.2001887835843972e+00 0 0 0
219 2 0.0000000000000000e+00 1.1366872099805333e+01 3.2001887835843972e+00 0 0 0
246 2 1.2305000000000001e+00 1.0656442593567498e+01 3.2001887835843972e+00 0 0 0
248 2 2.4610000000000003e+00 1.1366872099805333e+01 3.2001887835843972e+00 0 0 0
283 2 3.6914999999999996e+00 1.0656442593567499e+01 3.2001887835843972e+00 0 0 0
287 2 4.9220000000000006e+00 8.5251540748539991e+00 3.2001887835843972e+00 0 0 0
289 2 6.1524999999999999e+00 9.2355835810918343e+00 3.2001887835843972e+00 0 0 0
332 2 7.3830000000000009e+00 8.5251540748539991e+00 3.2001887835843972e+00 0 0 0
334 2 8.6134999999999984e+00 9.2355835810918343e+00 3.2001887835843972e+00 0 0 0
285 2 4.9220000000000006e+00 1.1366872099805333e+01 3.2001887835843972e+00 0 0 0
328 2 6.1524999999999999e+00 1.0656442593567499e+01 3.2001887835843972e+00 0 0 0
330 2 7.3829999999999991e+00 1.1366872099805333e+01 3.2001887835843972e+00 0 0 0
375 2 8.6134999999999984e+00 1.0656442593567498e+01 3.2001887835843972e+00 0 0 0
202 2 0.0000000000000000e+00 1.4208590124756650e+00 6.2753711674659352e+00 0 0 0
204 2 0.0000000000000000e+00 0.0000000000000000e+00 6.2753711674659352e+00 0 0 0
213 2 1.2305000000000001e+00 2.1312885187134998e+00 6.2753711674659352e+00 0 0 0
215 2 2.4610000000000003e+00 1.4208590124756650e+00 6.2753711674659352e+00 0 0 0
217 2 2.4610000000000003e+00 0.0000000000000000e+00 6.2753711674659352e+00 0 0 0
234 2 3.6914999999999996e+00 2.1312885187134998e+00 6.2753711674659352e+00 0 0 0
211 2 1.2305000000000001e+00 3.5521475311891644e+00 6.2753711674659352e+00 0 0 0
232 2 3.6914999999999996e+00 3.5521475311891644e+00 6.2753711674659352e+00 0 0 0
530 2 0.0000000000000000e+00 2.8417180249513345e+00 9.3505535513468772e+00 0 0 0
531 2 0.0000000000000000e+00 0.0000000000000000e+00 9.3505535513468772e+00 0 0 0
532 2 1.2305000000000001e+00 7.1042950623783474e-01 9.3505535513468772e+00 0 0 0
536 2 1.2305000000000001e+00 2.1312885187134998e+00 9.3505535513468772e+00 0 0 0
537 2 2.4610000000000003e+00 2.8417180249513345e+00 9.3505535513468772e+00 0 0 0
538 2 2.4610000000000003e+00 0.0000000000000000e+00 9.3505535513468772e+00 0 0 0
539 2 3.6915000000000004e+00 7.1042950623783474e-01 9.3505535513468772e+00 0 0 0
547 2 3.6914999999999996e+00 2.1312885187134998e+00 9.3505535513468772e+00 0 0 0
236 2 4.9220000000000006e+00 1.4208590124756650e+00 6.2753711674659352e+00 0 0 0
238 2 4.9220000000000006e+00 0.0000000000000000e+00 6.2753711674659352e+00 0 0 0
263 2 6.1524999999999999e+00 2.1312885187134989e+00 6.2753711674659352e+00 0 0 0
265 2 7.3829999999999991e+00 1.4208590124756659e+00 6.2753711674659352e+00 0 0 0
267 2 7.3829999999999991e+00 0.0000000000000000e+00 6.2753711674659352e+00 0 0 0
300 2 8.6134999999999984e+00 2.1312885187135002e+00 6.2753711674659352e+00 0 0 0
261 2 6.1524999999999999e+00 3.5521475311891644e+00 6.2753711674659352e+00 0 0 0
298 2 8.6134999999999984e+00 3.5521475311891657e+00 6.2753711674659352e+00 0 0 0
548 2 4.9220000000000006e+00 2.8417180249513332e+00 9.3505535513468772e+00 0 0 0
549 2 4.9220000000000006e+00 0.0000000000000000e+00 9.3505535513468772e+00 0 0 0
550 2 6.1524999999999999e+00 7.1042950623783407e-01 9.3505535513468772e+00 0 0 0
562 2 6.1524999999999999e+00 2.1312885187134989e+00 9.3505535513468772e+00 0 0 0
563 2 7.3829999999999991e+00 2.8417180249513345e+00 9.3505535513468772e+00 0 0 0
564 2 7.3829999999999991e+00 0.0000000000000000e+00 9.3505535513468772e+00 0 0 0
565 2 8.6134999999999984e+00 7.1042950623783407e-01 9.3505535513468772e+00 0 0 0
581 2 8.6134999999999984e+00 2.1312885187135002e+00 9.3505535513468772e+00 0 0 0
207 2 0.0000000000000000e+00 5.6834360499026637e+00 6.2753711674659352e+00 0 0 0
209 2 0.0000000000000000e+00 4.2625770374269996e+00 6.2753711674659352e+00 0 0 0
226 2 1.2305000000000001e+00 6.3938655561404980e+00 6.2753711674659352e+00 0 0 0
228 2 2.4610000000000003e+00 5.6834360499026637e+00 6.2753711674659352e+00 0 0 0
230 2 2.4610000000000003e+00 4.2625770374269996e+00 6.2753711674659352e+00 0 0 0
255 2 3.6914999999999996e+00 6.3938655561404980e+00 6.2753711674659352e+00 0 0 0
224 2 1.2305000000000001e+00 7.8147245686161639e+00 6.2753711674659352e+00 0 0 0
253 2 3.6914999999999996e+00 7.8147245686161639e+00 6.2753711674659352e+00 0 0 0
534 2 0.0000000000000000e+00 4.2625770374269996e+00 9.3505535513468772e+00 0 0 0
535 2 1.2305000000000001e+00 4.9730065436648339e+00 9.3505535513468772e+00 0 0 0
543 2 1.2305000000000001e+00 6.3938655561404980e+00 9.3505535513468772e+00 0 0 0
545 2 2.4610000000000003e+00 4.2625770374269996e+00 9.3505535513468772e+00 0 0 0
546 2 3.6914999999999996e+00 4.9730065436648339e+00 9.3505535513468772e+00 0 0 0
558 2 3.6914999999999996e+00 6.3938655561404980e+00 9.3505535513468772e+00 0 0 0
533 2 0.0000000000000000e+00 7.1042950623783341e+00 9.3505535513468772e+00 0 0 0
544 2 2.4610000000000003e+00 7.1042950623783341e+00 9.3505535513468772e+00 0 0 0
257 2 4.9220000000000006e+00 5.6834360499026637e+00 6.2753711674659352e+00 0 0 0
259 2 4.9220000000000006e+00 4.2625770374269978e+00 6.2753711674659352e+00 0 0 0
292 2 6.1524999999999999e+00 6.3938655561404980e+00 6.2753711674659352e+00 0 0 0
294 2 7.3829999999999991e+00 5.6834360499026637e+00 6.2753711674659352e+00 0 0 0
296 2 7.3829999999999991e+00 4.2625770374269996e+00 6.2753711674659352e+00 0 0 0
337 2 8.6135000000000002e+00 6.3938655561404980e+00 6.2753711674659352e+00 0 0 0
290 2 6.1524999999999999e+00 7.8147245686161639e+00 6.2753711674659352e+00 0 0 0
335 2 8.6135000000000002e+00 7.8147245686161639e+00 6.2753711674659352e+00 0 0 0
560 2 4.9220000000000006e+00 4.2625770374269978e+00 9.3505535513468772e+00 0 0 0
561 2 6.1524999999999999e+00 4.9730065436648339e+00 9.3505535513468772e+00 0 0 0
577 2 6.1524999999999999e+00 6.3938655561404980e+00 9.3505535513468772e+00 0 0 0
579 2 7.3829999999999991e+00 4.2625770374269996e+00 9.3505535513468772e+00 0 0 0
580 2 8.6135000000000002e+00 4.9730065436648339e+00 9.3505535513468772e+00 0 0 0
600 2 8.6135000000000002e+00 6.3938655561404980e+00 9.3505535513468772e+00 0 0 0
559 2 4.9220000000000006e+00 7.1042950623783341e+00 9.3505535513468772e+00 0 0 0
578 2 7.3830000000000009e+00 7.1042950623783341e+00 9.3505535513468772e+00 0 0 0
220 2 0.0000000000000000e+00 9.9460130873296642e+00 6.2753711674659352e+00 0 0 0
222 2 0.0000000000000000e+00 8.5251540748539991e+00 6.2753711674659352e+00 0 0 0
249 2 2.4610000000000003e+00 9.9460130873296642e+00 6.2753711674659352e+00 0 0 0
251 2 2.4610000000000003e+00 8.5251540748539991e+00 6.2753711674659352e+00 0 0 0
245 2 1.2305000000000001e+00 1.2077301606043163e+01 6.2753711674659352e+00 0 0 0
247 2 1.2305000000000001e+00 1.0656442593567498e+01 6.2753711674659352e+00 0 0 0
282 2 3.6914999999999996e+00 1.2077301606043163e+01 6.2753711674659352e+00 0 0 0
284 2 3.6914999999999996e+00 1.0656442593567499e+01 6.2753711674659352e+00 0 0 0
541 2 0.0000000000000000e+00 8.5251540748539991e+00 9.3505535513468772e+00 0 0 0
542 2 1.2305000000000001e+00 9.2355835810918343e+00 9.3505535513468772e+00 0 0 0
556 2 2.4610000000000003e+00 8.5251540748539991e+00 9.3505535513468772e+00 0 0 0
557 2 3.6915000000000004e+00 9.2355835810918343e+00 9.3505535513468772e+00 0 0 0
540 2 0.0000000000000000e+00 1.1366872099805333e+01 9.3505535513468772e+00 0 0 0
554 2 1.2305000000000001e+00 1.0656442593567498e+01 9.3505535513468772e+00 0 0 0
555 2 2.4610000000000003e+00 1.1366872099805333e+01 9.3505535513468772e+00 0 0 0
573 2 3.6914999999999996e+00 1.0656442593567499e+01 9.3505535513468772e+00 0 0 0
286 2 4.9220000000000006e+00 9.9460130873296642e+00 6.2753711674659352e+00 0 0 0
288 2 4.9220000000000006e+00 8.5251540748539991e+00 6.2753711674659352e+00 0 0 0
331 2 7.3830000000000009e+00 9.9460130873296642e+00 6.2753711674659352e+00 0 0 0
333 2 7.3830000000000009e+00 8.5251540748539991e+00 6.2753711674659352e+00 0 0 0
327 2 6.1524999999999999e+00 1.2077301606043163e+01 6.2753711674659352e+00 0 0 0
329 2 6.1524999999999999e+00 1.0656442593567499e+01 6.2753711674659352e+00 0 0 0
374 2 8.6135000000000002e+00 1.2077301606043163e+01 6.2753711674659352e+00 0 0 0
376 2 8.6134999999999984e+00 1.0656442593567498e+01 6.2753711674659352e+00 0 0 0
575 2 4.9220000000000006e+00 8.5251540748539991e+00 9.3505535513468772e+00 0 0 0
576 2 6.1524999999999999e+00 9.2355835810918343e+00 9.3505535513468772e+00 0 0 0
598 2 7.3830000000000009e+00 8.5251540748539991e+00 9.3505535513468772e+00 0 0 0
599 2 8.6134999999999984e+00 9.2355835810918343e+00 9.3505535513468772e+00 0 0 0
574 2 4.9220000000000006e+00 1.1366872099805333e+01 9.3505535513468772e+00 0 0 0
596 2 6.1524999999999999e+00 1.0656442593567499e+01 9.3505535513468772e+00 0 0 0
597 2 7.3829999999999991e+00 1.1366872099805333e+01 9.3505535513468772e+00 0 0 0
620 2 8.6134999999999984e+00 1.0656442593567498e+01 9.3505535513468772e+00 0 0 0
3959 1 2.8285378419133518e+00 2.7256370904564307e+00 1.4834400468428552e+01 1 1 1
1041 1 5.8157338016867055e-01 2.4837753647406222e+00 1.9109494806751858e+01 0 2 -1
2333 1 1.9850769209615975e+00 1.0461788698074926e+01 1.4719440554656538e+01 0 0 1
160 1 7.3414738319718076e+00 4.1578954452864219e+00 1.1799612930520478e+01 1 0 0
3861 1 6.8066486279836029e+00 4.0186312252395888e+00 1.4832757538737935e+01 0 0 0
1312 1 3.3454466408705557e+00 1.3605798621516665e+00 1.2294376025351736e+01 0 1 0
961 1 1.2624372595758477e+00 2.9160840810877637e+00 1.1673063549110113e+01 1 1 0
5005 1 2.4557019019697810e+00 5.4301281593932851e+00 1.2014189347194268e+01 0 0 0
2507 1 2.2507487843434806e+00 5.3313349355840787e+00 1.4972707786793574e+01 0 -1 0
4699 1 7.7162555149728620e+00 7.4664861119747084e+00 1.4337421766805054e+01 0 0 0
4952 1 5.3156455970730718e+00 5.8727843040829937e+00 1.2159793386799990e+01 0 -1 0
3711 1 8.2549900206703324e+00 7.6041535839426047e+00 1.1400889701705959e+01 1 1 -1
4933 1 4.9953783485614780e+00 6.5155794456552378e+00 1.5110621280252102e+01 0 1 0
3918 1 1.9894128370690927e+00 1.0059971484422260e+01 1.1910205626933561e+01 1 0 0
3868 1 9.8394087479781245e+00 2.5239678767396578e-01 1.4726499870183520e+01 1 0 0
3437 1 4.4391790652733123e+00 9.4379856612597823e+00 1.5100523318697098e+01 1 1 0
3465 1 8.5382162475640708e+00 8.7956043143088003e+00 1.6524141657078456e+01 1 0 0
2176 1 6.7883438831405787e+00 1.0779411630302821e+01 1.4250848263565416e+01 1 0 0
2443 1 8.0906282628872344e+00 1.0424995697243739e+01 1.1942206335539527e+01 2 0 0
3790 1 4.5880923512860399e+00 1.1052238484127175e+01 1.2001638543716687e+01 0 1 0
3467 1 6.7453581806561589e+00 7.9146763970195604e+00 1.8349373227793187e+01 1 1 -1
2615 1 8.0280570896984234e+00 9.6322496551588233e-01 1.7747299124142064e+01 0 0 0
2300 1 1.6828333149994827e+00 1.2004686067547841e+00 1.6955921669784978e+01 0 0 0
1467 1 4.5854065880727610e+00 1.2888679256048958e+00 1.9008350436024323e+01 0 1 0
3655 1 4.0146853749850795e+00 1.1912578615988899e+01 1.9126112950513125e+01 0 0 0
1237 1 7.2885300695946338e+00 8.2366013409161765e-01 1.5106061010416731e+01 0 0 -1
2514 1 5.1125561236088100e+00 2.5404718848256511e+00 1.6452220121571457e+01 0 0 -1
4652 1 3.0602552497379470e-01 9.1483778526775765e+00 1.6346707635318786e+01 0 0 -1
3420 1 9.1046139970900652e-01 6.4529050722810428e+00 1.7207979195723937e+01 1 2 0
1067 1 6.1804613532444224e+00 1.8464451634800638e+00 1.2340881324982073e+01 2 0 0
1039 1 8.7353799388449787e+00 4.9962093627219710e+00 1.8583762685191012e+01 1 1 -1
5013 1 5.8851985989252364e+00 5.0237219008296474e+00 1.7893116669220792e+01 0 1 -1
1055 1 4.3694010326051815e+00 9.3712353366082350e+00 1.7906699784597471e+01 0 0 0
3458 1 9.3281942685613988e+00 4.3396519997178951e+00 1.5903095253667496e+01 -1 1 0
1269 1 2.6069545845823230e+00 7.7162821110620445e+00 1.9109215197966172e+01 1 0 -1
3584 1 8.0453367356469006e+00 1.1451990633265542e+01 1.7264077449770220e+01 0 0 0
3581 1 4.4551357430447132e+00 5.9659575225003971e+00 1.9932506453864999e+01 0 2 0
3571 1 4.5126307189416470e-01 7.5009761586746482e+00 1.1859202505181186e+01 0 0 0
3911 1 8.6833874580366732e+00 1.1229059316118017e+01 1.9898156210975646e+01 1 0 0
2439 1 4.9343329685664008e+00 4.5089164383772067e+00 2.8658133190750689e+01 0 1 -1
4919 1 2.4233287443319487e+00 3.3441910843768525e+00 2.2835697141872433e+01 0 0 -1
2531 1 3.0732928129344654e+00 3.5852576478528033e+00 2.0111455760363587e+01 0 1 0
4829 1 7.0928479539416669e+00 3.4344604244959980e+00 2.4878101895471957e+01 1 1 0
3750 1 7.0642750570018054e+00 3.5009024477428734e+00 2.2120448397157180e+01 1 1 -1
3547 1 7.6474275170656973e+00 6.0593048601448016e+00 2.8362237164023369e+01 1 1 0
3541 1 6.2213583745309942e+00 6.0477512690708863e+00 2.1832927002278613e+01 0 1 0
2322 1 8.1410508339194099e+00 4.2129577183029998e-01 2.8076846810267181e+01 0 1 0
2392 1 1.4770925492002536e+00 1.1597528647387694e+01 2.0207476746449483e+01 0 1 -1
122 1 6.1928799446319704e+00 6.9074007926989394e+00 2.4667474274882828e+01 0 0 0
164 1 1.5074641528723398e+00 8.9634555391585167e+00 2.1301050618682368e+01 1 0 0
23 1 3.7267330723259326e+00 9.0270799213285571e+00 2.2839849470262944e+01 1 2 1
1193 1 3.8293063889966814e+00 1.0582290712413194e+01 2.7383627545668112e+01 1 2 0
3476 1 7.6213222184453526e+00 8.3379797861566001e+00 2.1029079891770600e+01 1 1 0
1182 1 6.6741697030368314e+00 1.0064192162926696e+01 2.2806286844774853e+01 0 1 0
3666 1 2.0777086618635670e+00 5.2376600077508766e-02 2.7351690865236048e+01 0 0 -1
3816 1 4.3225946804888897e+00 2.5034273264376612e+00 2.5034805484766693e+01 0 1 0
3925 1 4.1489624575403852e+00 1.7807177914535091e+00 2.7668448936762466e+01 1 1 0
2302 1 6.6612360505457557e-01 1.1938645199664622e+01 2.7143295149366395e+01 1 0 0
3974 1 2.2689368038519877e+00 1.0782254517511930e+01 2.4678862290675404e+01 2 0 -1
39 1 4.2685779411984587e-01 1.5474571267174662e+00 2.3689224502141737e+01 1 0 0
4767 1 1.4375812303273556e+00 8.6432360194467375e+00 2.7116327947337652e+01 0 0 0
1428 1 4.5766510439329455e-01 5.0522411325853538e+00 2.3564978977856466e+01 0 0 0
3856 1 2.2895762053065689e+00 6.9510174627407570e+00 2.4737932342602782e+01 0 0 0
2260 1 4.2168988438911921e+00 5.2956570363916571e+00 2.5822816364320907e+01 1 1 0
148 1 8.4035732851520830e+00 5.9722191565279052e+00 2.5806113627881960e+01 0 1 1
2521 1 8.3146462260976080e+00 1.0978764301833266e+01 2.4883823854201644e+01 0 0 0
3926 1 9.0943142702698889e+00 1.5724736581038532e+00 2.5465535295151092e+01 1 1 0
3885 1 6.8106810767716235e+00 1.1026436486521456e+00 2.0432167568815053e+01 1 1 0
4721 1 9.3526398306081600e+00 3.6118704418711380e+00 2.0903617994117145e+01 0 1 0
2565 1 9.7884918060065633e+00 8.5020796571587560e+00 2.5740233607139128e+01 1 0 0
2396 1 6.1525401754386930e+00 9.3174366122342001e+00 2.5972969932496799e+01 0 0 0
3487 1 6.3216101898098014e+00 8.5546038826312287e+00 2.8708684473370784e+01 0 1 0
57 1 4.9640575629519859e+00 1.6041342846926279e+00 3.1481127972485087e+01 0 0 0
2642 1 2.3069897863406004e+00 6.0840738074735767e-01 3.1494934133116832e+01 1 1 0
3484 1 6.3772519260132885e+00 8.7471703510888901e+00 3.4745901495148217e+01 0 0 0
2462 1 5.4966676238407617e+00 1.1357283969516498e+01 3.6493353105054993e+01 1 0 0
967 1 6.8696931349762682e+00 3.6200887884354178e+00 3.0322423863657587e+01 0 1 0
4660 1 7.8006872957034967e-01 2.9354782842915670e+00 3.0629559195560113e+01 0 0 0
3556 1 2.8301550869450729e+00 1.0201499314076877e+01 3.5107604843779370e+01 0 0 0
1259 1 2.6845718781244199e+00 5.0391375956787918e+00 3.0056600613007376e+01 -1 1 0
3619 1 9.5550105762145741e+00 6.4421137207643415e+00 3.0561922699997254e+01 1 1 0
2677 1 5.8795536529574468e+00 4.4781656964285039e+00 3.3286257556955306e+01 0 0 0
3575 1 8.2075344073317602e+00 4.0720942254645953e+00 3.6868429187809909e+01 1 1 -1
3428 1 4.2684748365469263e+00 8.1124594289412570e+00 3.0827521295934304e+01 1 -1 0
905 1 5.7879032077527137e+00 4.1850894472529365e-01 3.6745781183183169e+01 0 1 -1
3907 1 3.7337943496630137e+00 7.7575464326700487e+00 3.4923815961411137e+01 0 0 0
2441 1 2.1555036538473744e+00 1.0063921922033662e+01 3.0871490841766320e+01 0 1 0
1249 1 8.9783193087487696e+00 7.6458497344016010e+00 3.4612119694593957e+01 1 0 0
2653 1 9.0189926933568128e+00 1.0289080617135834e+01 3.2589958105213299e+01 1 0 0
1349 1 9.2755212654934294e+00 2.0556358134328834e+00 3.0101891408832152e+01 -1 1 0
3589 1 9.0758065313830656e+00 3.2216775862607618e+00 3.4551598118985424e+01 1 0 0
2675 1 1.7517412300194892e+00 2.0585153636453657e+00 3.7296120597606304e+01 1 1 0
2409 1 2.3422262721223865e+00 2.6062639554028171e+00 3.4974357428287647e+01 0 0 -1
3554 1 6.8898760592668671e+00 1.1532455038032277e+01 2.9555372082094880e+01 -1 -1 0
3462 1 6.0694611227215489e+00 1.0138205371757774e+01 3.2142488905269246e+01 1 0 0
2214 1 8.8119460983166693e+00 9.1655148752509525e+00 3.0020365072755141e+01 0 0 -1
4913 1 6.2627918922792309e+00 2.8921725714131066e+00 3.7819857285433130e+01 1 -1 -1
3537 1 3.7792453661800143e+00 3.9728405868436183e+00 3.7863668463202728e+01 1 -1 0
4782 1 9.3684587415809375e+00 9.8914362705146495e+00 3.7984751105447032e+01 0 0 0
4979 1 1.5883199410337399e+00 7.9725259182334511e+00 3.7669073976723737e+01 1 0 0
2360 1 6.6086745420472592e+00 8.4938293878183941e+00 3.7731420731664073e+01 0 0 0
2150 1 8.6223776399185359e-01 6.6721936117404059e+00 3.4726360735110390e+01 0 1 0
3482 1 3.5951528209301862e+00 6.0265018810897999e+00 3.2836826523598724e+01 1 1 0
944 1 4.9739192966174333e+00 1.9534825006455558e+00 3.4253617057431086e+01 0 1 0
1233 1 8.9319615950435374e+00 6.9642224531532060e+00 3.7033352033304823e+01 0 0 -1
3639 1 4.5091909034818096e+00 6.6036380692383432e+00 3.7313042094412808e+01 0 0 0
1452 1 8.8836901350379236e+00 1.1814339411696362e+00 3.2871197441133241e+01 1 2 0
1205 1 1.5429972724777330e+00 1.0811901152580004e+01 3.7570829147861147e+01 0 0 0
2497 1 8.4905990383350769e+00 5.3138111107594712e+00 3.3055227412562175e+01 1 0 0
3774 1 1.0822402511724840e+00 4.3899981339073477e+00 3.3405797569895057e+01 0 0 -1
3713 1 1.4127535268591798e+00 7.4775356416218743e+00 2.9599788156522216e+01 0 0 0
133 1 3.8016297079419656e+00 1.1966231846890652e+01 2.9844648551991426e+01 0 0 0
3443 1 6.0191199315562061e-01 1.0635361151943343e+01 3.3429163837628877e+01 0 0 0
242 2 0.0000000000000000e+00 1.2787731112280996e+01 3.2001887835843972e+00 0 0 0
244 2 1.2305000000000001e+00 1.3498160618518829e+01 3.2001887835843972e+00 0 0 0
279 2 2.4610000000000003e+00 1.2787731112280996e+01 3.2001887835843972e+00 0 0 0
281 2 3.6915000000000004e+00 1.3498160618518829e+01 3.2001887835843972e+00 0 0 0
240 2 0.0000000000000000e+00 1.5629449137232333e+01 3.2001887835843972e+00 0 0 0
275 2 1.2305000000000001e+00 1.4919019630994494e+01 3.2001887835843972e+00 0 0 0
277 2 2.4610000000000003e+00 1.5629449137232328e+01 3.2001887835843972e+00 0 0 0
320 2 3.6915000000000004e+00 1.4919019630994494e+01 3.2001887835843972e+00 0 0 0
324 2 4.9220000000000006e+00 1.2787731112280996e+01 3.2001887835843972e+00 0 0 0
326 2 6.1524999999999990e+00 1.3498160618518829e+01 3.2001887835843972e+00 0 0 0
371 2 7.3829999999999991e+00 1.2787731112280996e+01 3.2001887835843972e+00 0 0 0
373 2 8.6135000000000002e+00 1.3498160618518835e+01 3.2001887835843972e+00 0 0 0
322 2 4.9220000000000006e+00 1.5629449137232333e+01 3.2001887835843972e+00 0 0 0
367 2 6.1524999999999990e+00 1.4919019630994494e+01 3.2001887835843972e+00 0 0 0
369 2 7.3829999999999991e+00 1.5629449137232333e+01 3.2001887835843972e+00 0 0 0
414 2 8.6135000000000002e+00 1.4919019630994494e+01 3.2001887835843972e+00 0 0 0
271 2 0.0000000000000000e+00 1.7050308149707998e+01 3.2001887835843972e+00 0 0 0
316 2 2.4610000000000003e+00 1.7050308149707998e+01 3.2001887835843972e+00 0 0 0
269 2 0.0000000000000000e+00 1.9892026174659328e+01 3.2001887835843972e+00 0 0 0
273 2 1.2305000000000001e+00 1.7760737655945832e+01 3.2001887835843972e+00 0 0 0
312 2 1.2305000000000001e+00 1.9181596668421495e+01 3.2001887835843972e+00 0 0 0
314 2 2.4610000000000003e+00 1.9892026174659328e+01 3.2001887835843972e+00 0 0 0
318 2 3.6914999999999996e+00 1.7760737655945832e+01 3.2001887835843972e+00 0 0 0
359 2 3.6914999999999996e+00 1.9181596668421495e+01 3.2001887835843972e+00 0 0 0
363 2 4.9220000000000006e+00 1.7050308149707998e+01 3.2001887835843972e+00 0 0 0
410 2 7.3830000000000009e+00 1.7050308149707998e+01 3.2001887835843972e+00 0 0 0
361 2 4.9220000000000006e+00 1.9892026174659328e+01 3.2001887835843972e+00 0 0 0
365 2 6.1524999999999999e+00 1.7760737655945832e+01 3.2001887835843972e+00 0 0 0
406 2 6.1524999999999999e+00 1.9181596668421495e+01 3.2001887835843972e+00 0 0 0
408 2 7.3829999999999991e+00 1.9892026174659328e+01 3.2001887835843972e+00 0 0 0
412 2 8.6134999999999984e+00 1.7760737655945832e+01 3.2001887835843972e+00 0 0 0
448 2 8.6135000000000002e+00 1.9181596668421495e+01 3.2001887835843972e+00 0 0 0
306 2 0.0000000000000000e+00 2.4154603212086325e+01 3.2001887835843972e+00 0 0 0
308 2 0.0000000000000000e+00 2.1312885187134999e+01 3.2001887835843972e+00 0 0 0
310 2 1.2304999999999993e+00 2.2023314693372832e+01 3.2001887835843972e+00 0 0 0
351 2 1.2304999999999993e+00 2.3444173705848499e+01 3.2001887835843972e+00 0 0 0
353 2 2.4610000000000003e+00 2.4154603212086325e+01 3.2001887835843972e+00 0 0 0
355 2 2.4610000000000003e+00 2.1312885187134995e+01 3.2001887835843972e+00 0 0 0
357 2 3.6914999999999996e+00 2.2023314693372832e+01 3.2001887835843972e+00 0 0 0
398 2 3.6915000000000004e+00 2.3444173705848499e+01 3.2001887835843972e+00 0 0 0
400 2 4.9220000000000006e+00 2.4154603212086325e+01 3.2001887835843972e+00 0 0 0
402 2 4.9220000000000006e+00 2.1312885187134995e+01 3.2001887835843972e+00 0 0 0
404 2 6.1524999999999990e+00 2.2023314693372832e+01 3.2001887835843972e+00 0 0 0
440 2 6.1524999999999999e+00 2.3444173705848499e+01 3.2001887835843972e+00 0 0 0
442 2 7.3830000000000009e+00 2.4154603212086336e+01 3.2001887835843972e+00 0 0 0
444 2 7.3829999999999991e+00 2.1312885187134999e+01 3.2001887835843972e+00 0 0 0
446 2 8.6135000000000002e+00 2.2023314693372832e+01 3.2001887835843972e+00 0 0 0
474 2 8.6134999999999984e+00 2.3444173705848499e+01 3.2001887835843972e+00 0 0 0
243 2 0.0000000000000000e+00 1.2787731112280996e+01 6.2753711674659352e+00 0 0 0
280 2 2.4610000000000003e+00 1.2787731112280996e+01 6.2753711674659352e+00 0 0 0
241 2 0.0000000000000000e+00 1.4208590124756663e+01 6.2753711674659352e+00 0 0 0
276 2 1.2305000000000001e+00 1.4919019630994494e+01 6.2753711674659352e+00 0 0 0
278 2 2.4610000000000003e+00 1.4208590124756663e+01 6.2753711674659352e+00 0 0 0
321 2 3.6915000000000004e+00 1.4919019630994494e+01 6.2753711674659352e+00 0 0 0
552 2 0.0000000000000000e+00 1.2787731112280996e+01 9.3505535513468772e+00 0 0 0
553 2 1.2305000000000001e+00 1.3498160618518829e+01 9.3505535513468772e+00 0 0 0
571 2 2.4610000000000003e+00 1.2787731112280996e+01 9.3505535513468772e+00 0 0 0
572 2 3.6915000000000004e+00 1.3498160618518829e+01 9.3505535513468772e+00 0 0 0
551 2 0.0000000000000000e+00 1.5629449137232333e+01 9.3505535513468772e+00 0 0 0
569 2 1.2305000000000001e+00 1.4919019630994494e+01 9.3505535513468772e+00 0 0 0
570 2 2.4610000000000003e+00 1.5629449137232328e+01 9.3505535513468772e+00 0 0 0
592 2 3.6915000000000004e+00 1.4919019630994494e+01 9.3505535513468772e+00 0 0 0
325 2 4.9220000000000006e+00 1.2787731112280996e+01 6.2753711674659352e+00 0 0 0
372 2 7.3829999999999991e+00 1.2787731112280996e+01 6.2753711674659352e+00 0 0 0
323 2 4.9220000000000006e+00 1.4208590124756663e+01 6.2753711674659352e+00 0 0 0
368 2 6.1524999999999990e+00 1.4919019630994494e+01 6.2753711674659352e+00 0 0 0
370 2 7.3830000000000009e+00 1.4208590124756663e+01 6.2753711674659352e+00 0 0 0
415 2 8.6135000000000002e+00 1.4919019630994494e+01 6.2753711674659352e+00 0 0 0
594 2 4.9220000000000006e+00 1.2787731112280996e+01 9.3505535513468772e+00 0 0 0
595 2 6.1524999999999990e+00 1.3498160618518829e+01 9.3505535513468772e+00 0 0 0
618 2 7.3829999999999991e+00 1.2787731112280996e+01 9.3505535513468772e+00 0 0 0
619 2 8.6135000000000002e+00 1.3498160618518835e+01 9.3505535513468772e+00 0 0 0
593 2 4.9220000000000006e+00 1.5629449137232333e+01 9.3505535513468772e+00 0 0 0
616 2 6.1524999999999990e+00 1.4919019630994494e+01 9.3505535513468772e+00 0 0 0
617 2 7.3829999999999991e+00 1.5629449137232333e+01 9.3505535513468772e+00 0 0 0
640 2 8.6135000000000002e+00 1.4919019630994494e+01 9.3505535513468772e+00 0 0 0
272 2 0.0000000000000000e+00 1.7050308149707998e+01 6.2753711674659352e+00 0 0 0
274 2 1.2305000000000001e+00 1.6339878643470165e+01 6.2753711674659352e+00 0 0 0
317 2 2.4610000000000003e+00 1.7050308149707998e+01 6.2753711674659352e+00 0 0 0
319 2 3.6915000000000004e+00 1.6339878643470165e+01 6.2753711674659352e+00 0 0 0
270 2 0.0000000000000000e+00 1.8471167162183658e+01 6.2753711674659352e+00 0 0 0
313 2 1.2305000000000001e+00 1.9181596668421495e+01 6.2753711674659352e+00 0 0 0
315 2 2.4610000000000003e+00 1.8471167162183658e+01 6.2753711674659352e+00 0 0 0
360 2 3.6914999999999996e+00 1.9181596668421495e+01 6.2753711674659352e+00 0 0 0
567 2 0.0000000000000000e+00 1.7050308149707998e+01 9.3505535513468772e+00 0 0 0
590 2 2.4610000000000003e+00 1.7050308149707998e+01 9.3505535513468772e+00 0 0 0
566 2 0.0000000000000000e+00 1.9892026174659328e+01 9.3505535513468772e+00 0 0 0
568 2 1.2305000000000001e+00 1.7760737655945832e+01 9.3505535513468772e+00 0 0 0
588 2 1.2305000000000001e+00 1.9181596668421495e+01 9.3505535513468772e+00 0 0 0
589 2 2.4610000000000003e+00 1.9892026174659328e+01 9.3505535513468772e+00 0 0 0
591 2 3.6914999999999996e+00 1.7760737655945832e+01 9.3505535513468772e+00 0 0 0
612 2 3.6914999999999996e+00 1.9181596668421495e+01 9.3505535513468772e+00 0 0 0
364 2 4.9220000000000006e+00 1.7050308149707998e+01 6.2753711674659352e+00 0 0 0
366 2 6.1524999999999999e+00 1.6339878643470165e+01 6.2753711674659352e+00 0 0 0
411 2 7.3830000000000009e+00 1.7050308149707998e+01 6.2753711674659352e+00 0 0 0
413 2 8.6134999999999984e+00 1.6339878643470165e+01 6.2753711674659352e+00 0 0 0
362 2 4.9220000000000006e+00 1.8471167162183658e+01 6.2753711674659352e+00 0 0 0
407 2 6.1524999999999999e+00 1.9181596668421495e+01 6.2753711674659352e+00 0 0 0
409 2 7.3829999999999991e+00 1.8471167162183658e+01 6.2753711674659352e+00 0 0 0
449 2 8.6135000000000002e+00 1.9181596668421495e+01 6.2753711674659352e+00 0 0 0
614 2 4.9220000000000006e+00 1.7050308149707998e+01 9.3505535513468772e+00 0 0 0
638 2 7.3830000000000009e+00 1.7050308149707998e+01 9.3505535513468772e+00 0 0 0
613 2 4.9220000000000006e+00 1.9892026174659328e+01 9.3505535513468772e+00 0 0 0
615 2 6.1524999999999999e+00 1.7760737655945832e+01 9.3505535513468772e+00 0 0 0
636 2 6.1524999999999999e+00 1.9181596668421495e+01 9.3505535513468772e+00 0 0 0
637 2 7.3829999999999991e+00 1.9892026174659328e+01 9.3505535513468772e+00 0 0 0
639 2 8.6134999999999984e+00 1.7760737655945832e+01 9.3505535513468772e+00 0 0 0
657 2 8.6135000000000002e+00 1.9181596668421495e+01 9.3505535513468772e+00 0 0 0