LAMMPS data file via write_data, version 16 Mar 2018, timestep = 8000000

4537 atoms
2 atom types

0.0000000000000000e+00 4.9219999999999999e+01 xlo xhi
0.0000000000000000e+00 4.9019635930410494e+01 ylo yhi
9.4324495350503312e-01 3.2996755046491387e+01 zlo zhi

Masses

1 18.015
2 12.01

Atoms # atomic

96 2 0.0000000000000000e+00 2.8417180249513345e+00 2.6684610183026387e+00 0 0 0
98 2 0.0000000000000000e+00 0.0000000000000000e+00 2.6684610183026387e+00 0 0 0
100 2 1.2305000000000001e+00 7.1042950623783474e-01 2.6684610183026387e+00 0 0 0
107 2 1.2305000000000001e+00 2.1312885187134998e+00 2.6684610183026387e+00 0 0 0
109 2 2.4610000000000003e+00 2.8417180249513345e+00 2.6684610183026387e+00 0 0 0
111 2 2.4610000000000003e+00 0.0000000000000000e+00 2.6684610183026387e+00 0 0 0
113 2 3.6915000000000004e+00 7.1042950623783474e-01 2.6684610183026387e+00 0 0 0
128 2 3.6914999999999996e+00 2.1312885187134998e+00 2.6684610183026387e+00 0 0 0
130 2 4.9220000000000006e+00 2.8417180249513332e+00 2.6684610183026387e+00 0 0 0
132 2 4.9220000000000006e+00 0.0000000000000000e+00 2.6684610183026387e+00 0 0 0
134 2 6.1524999999999999e+00 7.1042950623783407e-01 2.6684610183026387e+00 0 0 0
157 2 6.1524999999999999e+00 2.1312885187134989e+00 2.6684610183026387e+00 0 0 0
159 2 7.3829999999999991e+00 2.8417180249513345e+00 2.6684610183026387e+00 0 0 0
161 2 7.3829999999999991e+00 0.0000000000000000e+00 2.6684610183026387e+00 0 0 0
163 2 8.6134999999999984e+00 7.1042950623783407e-01 2.6684610183026387e+00 0 0 0
194 2 8.6134999999999984e+00 2.1312885187135002e+00 2.6684610183026387e+00 0 0 0
196 2 9.8440000000000012e+00 2.8417180249513332e+00 2.6684610183026387e+00 0 0 0
198 2 9.8440000000000012e+00 0.0000000000000000e+00 2.6684610183026387e+00 0 0 0
200 2 1.1074500000000002e+01 7.1042950623783330e-01 2.6684610183026387e+00 0 0 0
239 2 1.1074500000000002e+01 2.1312885187135002e+00 2.6684610183026387e+00 0 0 0
103 2 0.0000000000000000e+00 4.2625770374269996e+00 2.6684610183026387e+00 0 0 0
105 2 1.2305000000000001e+00 4.9730065436648339e+00 2.6684610183026387e+00 0 0 0
120 2 1.2305000000000001e+00 6.3938655561404980e+00 2.6684610183026387e+00 0 0 0
124 2 2.4610000000000003e+00 4.2625770374269996e+00 2.6684610183026387e+00 0 0 0
126 2 3.6914999999999996e+00 4.9730065436648339e+00 2.6684610183026387e+00 0 0 0
149 2 3.6914999999999996e+00 6.3938655561404980e+00 2.6684610183026387e+00 0 0 0
101 2 0.0000000000000000e+00 7.1042950623783341e+00 2.6684610183026387e+00 0 0 0
122 2 2.4610000000000003e+00 7.1042950623783341e+00 2.6684610183026387e+00 0 0 0
153 2 4.9220000000000006e+00 4.2625770374269978e+00 2.6684610183026387e+00 0 0 0
155 2 6.1524999999999999e+00 4.9730065436648339e+00 2.6684610183026387e+00 0 0 0
186 2 6.1524999999999999e+00 6.3938655561404980e+00 2.6684610183026387e+00 0 0 0
190 2 7.3829999999999991e+00 4.2625770374269996e+00 2.6684610183026387e+00 0 0 0
151 2 4.9220000000000006e+00 7.1042950623783341e+00 2.6684610183026387e+00 0 0 0
188 2 7.3830000000000009e+00 7.1042950623783341e+00 2.6684610183026387e+00 0 0 0
192 2 8.6135000000000002e+00 4.9730065436648339e+00 2.6684610183026387e+00 0 0 0
231 2 8.6135000000000002e+00 6.3938655561404980e+00 2.6684610183026387e+00 0 0 0
235 2 9.8440000000000012e+00 4.2625770374270004e+00 2.6684610183026387e+00 0 0 0
237 2 1.1074500000000002e+01 4.9730065436648339e+00 2.6684610183026387e+00 0 0 0
278 2 1.1074500000000002e+01 6.3938655561404980e+00 2.6684610183026387e+00 0 0 0
233 2 9.8440000000000012e+00 7.1042950623783341e+00 2.6684610183026387e+00 0 0 0
116 2 0.0000000000000000e+00 8.5251540748539991e+00 2.6684610183026387e+00 0 0 0
118 2 1.2305000000000001e+00 9.2355835810918343e+00 2.6684610183026387e+00 0 0 0
145 2 2.4610000000000003e+00 8.5251540748539991e+00 2.6684610183026387e+00 0 0 0
147 2 3.6915000000000004e+00 9.2355835810918343e+00 2.6684610183026387e+00 0 0 0
114 2 0.0000000000000000e+00 1.1366872099805333e+01 2.6684610183026387e+00 0 0 0
141 2 1.2305000000000001e+00 1.0656442593567498e+01 2.6684610183026387e+00 0 0 0
143 2 2.4610000000000003e+00 1.1366872099805333e+01 2.6684610183026387e+00 0 0 0
178 2 3.6914999999999996e+00 1.0656442593567499e+01 2.6684610183026387e+00 0 0 0
182 2 4.9220000000000006e+00 8.5251540748539991e+00 2.6684610183026387e+00 0 0 0
184 2 6.1524999999999999e+00 9.2355835810918343e+00 2.6684610183026387e+00 0 0 0
227 2 7.3830000000000009e+00 8.5251540748539991e+00 2.6684610183026387e+00 0 0 0
180 2 4.9220000000000006e+00 1.1366872099805333e+01 2.6684610183026387e+00 0 0 0
223 2 6.1524999999999999e+00 1.0656442593567499e+01 2.6684610183026387e+00 0 0 0
225 2 7.3829999999999991e+00 1.1366872099805333e+01 2.6684610183026387e+00 0 0 0
229 2 8.6134999999999984e+00 9.2355835810918343e+00 2.6684610183026387e+00 0 0 0
274 2 9.8440000000000012e+00 8.5251540748539956e+00 2.6684610183026387e+00 0 0 0
276 2 1.1074500000000002e+01 9.2355835810918343e+00 2.6684610183026387e+00 0 0 0
270 2 8.6134999999999984e+00 1.0656442593567498e+01 2.6684610183026387e+00 0 0 0
272 2 9.8440000000000012e+00 1.1366872099805333e+01 2.6684610183026387e+00 0 0 0
317 2 1.1074500000000002e+01 1.0656442593567498e+01 2.6684610183026387e+00 0 0 0
319 2 1.2304999999999998e+01 1.1366872099805333e+01 2.6684610183026387e+00 0 0 0
97 2 0.0000000000000000e+00 1.4208590124756650e+00 5.8050177269009007e+00 0 0 0
99 2 0.0000000000000000e+00 0.0000000000000000e+00 5.8050177269009007e+00 0 0 0
108 2 1.2305000000000001e+00 2.1312885187134998e+00 5.8050177269009007e+00 0 0 0
110 2 2.4610000000000003e+00 1.4208590124756650e+00 5.8050177269009007e+00 0 0 0
112 2 2.4610000000000003e+00 0.0000000000000000e+00 5.8050177269009007e+00 0 0 0
129 2 3.6914999999999996e+00 2.1312885187134998e+00 5.8050177269009007e+00 0 0 0
425 2 0.0000000000000000e+00 2.8417180249513345e+00 8.9415744355017264e+00 0 0 0
426 2 0.0000000000000000e+00 0.0000000000000000e+00 8.9415744355017264e+00 0 0 0
427 2 1.2305000000000001e+00 7.1042950623783474e-01 8.9415744355017264e+00 0 0 0
431 2 1.2305000000000001e+00 2.1312885187134998e+00 8.9415744355017264e+00 0 0 0
432 2 2.4610000000000003e+00 2.8417180249513345e+00 8.9415744355017264e+00 0 0 0
433 2 2.4610000000000003e+00 0.0000000000000000e+00 8.9415744355017264e+00 0 0 0
434 2 3.6915000000000004e+00 7.1042950623783474e-01 8.9415744355017264e+00 0 0 0
442 2 3.6914999999999996e+00 2.1312885187134998e+00 8.9415744355017264e+00 0 0 0
106 2 1.2305000000000001e+00 3.5521475311891644e+00 5.8050177269009007e+00 0 0 0
127 2 3.6914999999999996e+00 3.5521475311891644e+00 5.8050177269009007e+00 0 0 0
131 2 4.9220000000000006e+00 1.4208590124756650e+00 5.8050177269009007e+00 0 0 0
133 2 4.9220000000000006e+00 0.0000000000000000e+00 5.8050177269009007e+00 0 0 0
158 2 6.1524999999999999e+00 2.1312885187134989e+00 5.8050177269009007e+00 0 0 0
160 2 7.3829999999999991e+00 1.4208590124756659e+00 5.8050177269009007e+00 0 0 0
162 2 7.3829999999999991e+00 0.0000000000000000e+00 5.8050177269009007e+00 0 0 0
443 2 4.9220000000000006e+00 2.8417180249513332e+00 8.9415744355017264e+00 0 0 0
444 2 4.9220000000000006e+00 0.0000000000000000e+00 8.9415744355017264e+00 0 0 0
445 2 6.1524999999999999e+00 7.1042950623783407e-01 8.9415744355017264e+00 0 0 0
457 2 6.1524999999999999e+00 2.1312885187134989e+00 8.9415744355017264e+00 0 0 0
458 2 7.3829999999999991e+00 2.8417180249513345e+00 8.9415744355017264e+00 0 0 0
459 2 7.3829999999999991e+00 0.0000000000000000e+00 8.9415744355017264e+00 0 0 0
156 2 6.1524999999999999e+00 3.5521475311891644e+00 5.8050177269009007e+00 0 0 0
195 2 8.6134999999999984e+00 2.1312885187135002e+00 5.8050177269009007e+00 0 0 0
197 2 9.8440000000000012e+00 1.4208590124756659e+00 5.8050177269009007e+00 0 0 0
199 2 9.8440000000000012e+00 0.0000000000000000e+00 5.8050177269009007e+00 0 0 0
240 2 1.1074500000000002e+01 2.1312885187135002e+00 5.8050177269009007e+00 0 0 0
460 2 8.6134999999999984e+00 7.1042950623783407e-01 8.9415744355017264e+00 0 0 0
476 2 8.6134999999999984e+00 2.1312885187135002e+00 8.9415744355017264e+00 0 0 0
477 2 9.8440000000000012e+00 2.8417180249513332e+00 8.9415744355017264e+00 0 0 0
478 2 9.8440000000000012e+00 0.0000000000000000e+00 8.9415744355017264e+00 0 0 0
479 2 1.1074500000000002e+01 7.1042950623783330e-01 8.9415744355017264e+00 0 0 0
499 2 1.1074500000000002e+01 2.1312885187135002e+00 8.9415744355017264e+00 0 0 0
193 2 8.6134999999999984e+00 3.5521475311891657e+00 5.8050177269009007e+00 0 0 0
238 2 1.1074500000000002e+01 3.5521475311891644e+00 5.8050177269009007e+00 0 0 0
102 2 0.0000000000000000e+00 5.6834360499026637e+00 5.8050177269009007e+00 0 0 0
104 2 0.0000000000000000e+00 4.2625770374269996e+00 5.8050177269009007e+00 0 0 0
121 2 1.2305000000000001e+00 6.3938655561404980e+00 5.8050177269009007e+00 0 0 0
123 2 2.4610000000000003e+00 5.6834360499026637e+00 5.8050177269009007e+00 0 0 0
125 2 2.4610000000000003e+00 4.2625770374269996e+00 5.8050177269009007e+00 0 0 0
150 2 3.6914999999999996e+00 6.3938655561404980e+00 5.8050177269009007e+00 0 0 0
429 2 0.0000000000000000e+00 4.2625770374269996e+00 8.9415744355017264e+00 0 0 0
430 2 1.2305000000000001e+00 4.9730065436648339e+00 8.9415744355017264e+00 0 0 0
438 2 1.2305000000000001e+00 6.3938655561404980e+00 8.9415744355017264e+00 0 0 0
440 2 2.4610000000000003e+00 4.2625770374269996e+00 8.9415744355017264e+00 0 0 0
441 2 3.6914999999999996e+00 4.9730065436648339e+00 8.9415744355017264e+00 0 0 0
453 2 3.6914999999999996e+00 6.3938655561404980e+00 8.9415744355017264e+00 0 0 0
119 2 1.2305000000000001e+00 7.8147245686161639e+00 5.8050177269009007e+00 0 0 0
148 2 3.6914999999999996e+00 7.8147245686161639e+00 5.8050177269009007e+00 0 0 0
428 2 0.0000000000000000e+00 7.1042950623783341e+00 8.9415744355017264e+00 0 0 0
439 2 2.4610000000000003e+00 7.1042950623783341e+00 8.9415744355017264e+00 0 0 0
152 2 4.9220000000000006e+00 5.6834360499026637e+00 5.8050177269009007e+00 0 0 0
154 2 4.9220000000000006e+00 4.2625770374269978e+00 5.8050177269009007e+00 0 0 0
187 2 6.1524999999999999e+00 6.3938655561404980e+00 5.8050177269009007e+00 0 0 0
189 2 7.3829999999999991e+00 5.6834360499026637e+00 5.8050177269009007e+00 0 0 0
191 2 7.3829999999999991e+00 4.2625770374269996e+00 5.8050177269009007e+00 0 0 0
455 2 4.9220000000000006e+00 4.2625770374269978e+00 8.9415744355017264e+00 0 0 0
456 2 6.1524999999999999e+00 4.9730065436648339e+00 8.9415744355017264e+00 0 0 0
472 2 6.1524999999999999e+00 6.3938655561404980e+00 8.9415744355017264e+00 0 0 0
474 2 7.3829999999999991e+00 4.2625770374269996e+00 8.9415744355017264e+00 0 0 0
185 2 6.1524999999999999e+00 7.8147245686161639e+00 5.8050177269009007e+00 0 0 0
454 2 4.9220000000000006e+00 7.1042950623783341e+00 8.9415744355017264e+00 0 0 0
473 2 7.3830000000000009e+00 7.1042950623783341e+00 8.9415744355017264e+00 0 0 0
232 2 8.6135000000000002e+00 6.3938655561404980e+00 5.8050177269009007e+00 0 0 0
234 2 9.8440000000000012e+00 5.6834360499026637e+00 5.8050177269009007e+00 0 0 0
236 2 9.8440000000000012e+00 4.2625770374270004e+00 5.8050177269009007e+00 0 0 0
279 2 1.1074500000000002e+01 6.3938655561404980e+00 5.8050177269009007e+00 0 0 0
475 2 8.6135000000000002e+00 4.9730065436648339e+00 8.9415744355017264e+00 0 0 0
495 2 8.6135000000000002e+00 6.3938655561404980e+00 8.9415744355017264e+00 0 0 0
497 2 9.8440000000000012e+00 4.2625770374270004e+00 8.9415744355017264e+00 0 0 0
498 2 1.1074500000000002e+01 4.9730065436648339e+00 8.9415744355017264e+00 0 0 0
519 2 1.1074500000000002e+01 6.3938655561404980e+00 8.9415744355017264e+00 0 0 0
230 2 8.6135000000000002e+00 7.8147245686161639e+00 5.8050177269009007e+00 0 0 0
277 2 1.1074500000000002e+01 7.8147245686161639e+00 5.8050177269009007e+00 0 0 0
496 2 9.8440000000000012e+00 7.1042950623783341e+00 8.9415744355017264e+00 0 0 0
115 2 0.0000000000000000e+00 9.9460130873296642e+00 5.8050177269009007e+00 0 0 0
117 2 0.0000000000000000e+00 8.5251540748539991e+00 5.8050177269009007e+00 0 0 0
144 2 2.4610000000000003e+00 9.9460130873296642e+00 5.8050177269009007e+00 0 0 0
146 2 2.4610000000000003e+00 8.5251540748539991e+00 5.8050177269009007e+00 0 0 0
436 2 0.0000000000000000e+00 8.5251540748539991e+00 8.9415744355017264e+00 0 0 0
437 2 1.2305000000000001e+00 9.2355835810918343e+00 8.9415744355017264e+00 0 0 0
451 2 2.4610000000000003e+00 8.5251540748539991e+00 8.9415744355017264e+00 0 0 0
452 2 3.6915000000000004e+00 9.2355835810918343e+00 8.9415744355017264e+00 0 0 0
140 2 1.2305000000000001e+00 1.2077301606043163e+01 5.8050177269009007e+00 0 0 0
142 2 1.2305000000000001e+00 1.0656442593567498e+01 5.8050177269009007e+00 0 0 0
177 2 3.6914999999999996e+00 1.2077301606043163e+01 5.8050177269009007e+00 0 0 0
179 2 3.6914999999999996e+00 1.0656442593567499e+01 5.8050177269009007e+00 0 0 0
435 2 0.0000000000000000e+00 1.1366872099805333e+01 8.9415744355017264e+00 0 0 0
449 2 1.2305000000000001e+00 1.0656442593567498e+01 8.9415744355017264e+00 0 0 0
450 2 2.4610000000000003e+00 1.1366872099805333e+01 8.9415744355017264e+00 0 0 0
468 2 3.6914999999999996e+00 1.0656442593567499e+01 8.9415744355017264e+00 0 0 0
181 2 4.9220000000000006e+00 9.9460130873296642e+00 5.8050177269009007e+00 0 0 0
183 2 4.9220000000000006e+00 8.5251540748539991e+00 5.8050177269009007e+00 0 0 0
226 2 7.3830000000000009e+00 9.9460130873296642e+00 5.8050177269009007e+00 0 0 0
228 2 7.3830000000000009e+00 8.5251540748539991e+00 5.8050177269009007e+00 0 0 0
470 2 4.9220000000000006e+00 8.5251540748539991e+00 8.9415744355017264e+00 0 0 0
471 2 6.1524999999999999e+00 9.2355835810918343e+00 8.9415744355017264e+00 0 0 0
493 2 7.3830000000000009e+00 8.5251540748539991e+00 8.9415744355017264e+00 0 0 0
222 2 6.1524999999999999e+00 1.2077301606043163e+01 5.8050177269009007e+00 0 0 0
224 2 6.1524999999999999e+00 1.0656442593567499e+01 5.8050177269009007e+00 0 0 0
469 2 4.9220000000000006e+00 1.1366872099805333e+01 8.9415744355017264e+00 0 0 0
491 2 6.1524999999999999e+00 1.0656442593567499e+01 8.9415744355017264e+00 0 0 0
492 2 7.3829999999999991e+00 1.1366872099805333e+01 8.9415744355017264e+00 0 0 0
273 2 9.8440000000000012e+00 9.9460130873296642e+00 5.8050177269009007e+00 0 0 0
275 2 9.8440000000000012e+00 8.5251540748539956e+00 5.8050177269009007e+00 0 0 0
494 2 8.6134999999999984e+00 9.2355835810918343e+00 8.9415744355017264e+00 0 0 0
517 2 9.8440000000000012e+00 8.5251540748539956e+00 8.9415744355017264e+00 0 0 0
518 2 1.1074500000000002e+01 9.2355835810918343e+00 8.9415744355017264e+00 0 0 0
269 2 8.6135000000000002e+00 1.2077301606043163e+01 5.8050177269009007e+00 0 0 0
271 2 8.6134999999999984e+00 1.0656442593567498e+01 5.8050177269009007e+00 0 0 0
316 2 1.1074500000000002e+01 1.2077301606043163e+01 5.8050177269009007e+00 0 0 0
318 2 1.1074500000000002e+01 1.0656442593567498e+01 5.8050177269009007e+00 0 0 0
515 2 8.6134999999999984e+00 1.0656442593567498e+01 8.9415744355017264e+00 0 0 0
516 2 9.8440000000000012e+00 1.1366872099805333e+01 8.9415744355017264e+00 0 0 0
539 2 1.1074500000000002e+01 1.0656442593567498e+01 8.9415744355017264e+00 0 0 0
540 2 1.2304999999999998e+01 1.1366872099805333e+01 8.9415744355017264e+00 0 0 0
3737 1 2.9820715823202320e+00 2.7870175166607174e+00 1.1771100298452026e+01 -1 3 -1
2329 1 1.3190196786494859e-01 2.8743231263817908e+00 1.1746811403903674e+01 0 0 0
1590 1 7.6208259940368288e+00 5.9382110862137982e-01 1.1662786799351805e+01 2 2 0
2089 1 4.6327890893312107e+00 5.6719521868048528e-01 1.1532332130504281e+01 0 0 0
3593 1 8.4599216963965667e+00 3.2981184623926771e+00 1.2011661106763002e+01 -1 1 0
4387 1 1.1205361022449273e+01 3.0731540213011370e+00 1.1820597348245272e+01 -2 1 0
2912 1 2.9604911559668299e+00 7.7574372333676616e+00 1.1669896610861285e+01 -2 -2 0
1344 1 1.4759385572119810e-02 8.0047423113321248e+00 1.1571081346015827e+01 -2 0 0
2873 1 4.1278860872063516e+00 5.2100556747246332e+00 1.1522665552990146e+01 1 0 0
3863 1 6.8823059325005618e+00 5.6997568702194785e+00 1.1529924006801723e+01 0 0 0
1625 1 8.1911169078654638e+00 7.9597052099648442e+00 1.1333548561077523e+01 -1 1 0
2399 1 1.0983160042181362e+01 7.8643389425419148e+00 1.1330228242630474e+01 2 3 -1
788 1 4.0253512873430894e+00 1.0362208105174334e+01 1.1831400102265924e+01 -1 -1 0
56 1 6.8101247274247871e+00 1.0398447614540689e+01 1.1535201456086039e+01 -1 1 0
3766 1 1.2293164754872544e+01 1.0452434241583410e+01 1.1462458394499048e+01 0 0 0
4488 1 4.5684137303632150e-01 2.8704052537132978e+00 1.4649040774131647e+01 -1 4 -1
3055 1 3.2164755466298658e+00 2.8127468186788640e+00 1.4736600787736542e+01 0 3 1
710 1 4.6705696518598119e+00 6.3063047063518707e-01 1.4328047077497825e+01 1 2 0
1369 1 7.4828671066255028e+00 7.3210102555925638e-01 1.4863530024879138e+01 1 0 0
2123 1 8.5327235999659568e+00 3.2397050242394654e+00 1.4889848038233209e+01 2 -1 0
2872 1 1.1270815613618211e+01 2.9869176780901534e+00 1.4965408577299213e+01 0 -1 0
646 1 4.0427482855497434e+00 5.4709571467629035e+00 1.4363771007007847e+01 0 -1 0
1503 1 2.5245266171794984e+00 8.0527595110642629e+00 1.4552578406164018e+01 1 0 -1
1507 1 8.1476052771778029e+00 7.8310360354705262e+00 1.4428129915730043e+01 0 -1 0
706 1 6.8583603189103766e+00 5.5817350215795249e+00 1.4532587736138341e+01 2 1 0
797 1 1.0940394742092364e+01 7.8919068513066701e+00 1.4251962621141045e+01 1 -2 0
3663 1 3.9042578318304262e+00 1.0697528999916845e+01 1.4811743727579499e+01 0 0 1
3727 1 6.7507664434154133e+00 1.0322532690542721e+01 1.4631309366993648e+01 0 -2 -1
2374 1 1.2236439350464849e+01 1.0671151308895706e+01 1.4552345542956957e+01 0 3 0
1382 1 3.6118730057883739e+00 2.7127722046637897e+00 1.7582967575272065e+01 -3 0 1
3606 1 2.1588999064997325e+00 2.7143513828248239e-01 1.8190943341528943e+01 0 -2 0
875 1 6.2965764697295796e+00 2.7881244709853221e+00 1.8591608512666266e+01 1 0 0
2833 1 7.5709345252648825e+00 6.3228167313657735e-01 1.7599915639816015e+01 1 0 1
659 1 1.1832695634541851e+01 2.7993303596940575e+00 1.7618088802134377e+01 0 2 0
4354 1 1.0128130441218923e+01 6.7960787107713305e-01 1.8669697417560965e+01 1 -2 -1
2938 1 2.1003985994481327e+00 4.8962233647795248e+00 1.8602255537670057e+01 5 3 0
3834 1 3.1193624740931223e+00 6.9456139009741396e+00 1.7214846237099529e+01 0 0 -1
4366 1 5.9016965086302022e+00 7.2171005161250674e+00 1.8267199782905465e+01 3 2 0
2332 1 7.6395839920448187e+00 4.8467316008578818e+00 1.7317227575132517e+01 -3 2 0
44 1 1.2046754748517987e+01 7.1315308565970179e+00 1.7329036655231594e+01 1 2 0
4350 1 1.0583170817582513e+01 5.1152057728986469e+00 1.8422828808888301e+01 1 3 -1
681 1 1.0431702056996828e+01 4.8236144537678349e+00 2.0965925663809838e+01 1 0 0
2923 1 2.0905304867916743e+00 9.3265739247551362e+00 1.8481349826474780e+01 1 -1 0
1426 1 3.7300815562152998e+00 1.1323931297410153e+01 1.7326992152623774e+01 -2 0 0
4335 1 6.2989859352555673e+00 1.1602424343119429e+01 1.8621804901103111e+01 -1 -3 -1
28 1 7.5352178100653928e+00 9.2309082477630415e+00 1.7358841753175248e+01 1 0 1
3704 1 1.0371867953987525e+01 9.0580549757209230e+00 1.8337645870745593e+01 -1 1 0
1536 1 1.2092596010128020e+01 1.0932606800942516e+01 1.7323519893784052e+01 -4 1 0
1375 1 3.2900057275537327e+00 2.4231100442569948e+00 2.4935728448767126e+01 0 2 0
1420 1 3.4063823594455602e+00 2.5998264430172209e+00 2.2184250454518985e+01 0 -1 0
1347 1 1.9159520327679425e+00 5.1019058465682665e-01 2.1127741212400640e+01 -2 4 0
2373 1 6.0981430986209535e+00 2.7237525908342914e+00 2.1335626391880975e+01 3 0 0
11 1 7.7460852077667584e+00 3.0326471900841417e-01 2.4833395729851070e+01 4 -2 1
3030 1 7.4015767689988134e+00 2.9080259933598485e-01 2.2081332183015601e+01 2 1 -1
3694 1 1.2238727559921664e+01 2.5521932277439991e+00 2.2005885773223575e+01 1 -2 -1
4490 1 1.2045195768690341e+01 2.4153456215876088e+00 2.4717142352810789e+01 0 1 -1
4471 1 1.0456732519493141e+01 4.8183503820247975e-01 2.1344047959561301e+01 2 -2 -1
1508 1 2.1241993144690641e+00 4.9630456264615148e+00 2.1382416129155189e+01 -2 1 -1
2364 1 3.8316385164241153e+00 7.1112136056405442e+00 2.1898465519948680e+01 0 0 0
2109 1 3.7966596572914115e+00 6.6511391272223541e+00 2.4675823532607243e+01 1 1 -1
3701 1 6.4316221176139994e+00 6.9346756452816498e+00 2.1101386655822576e+01 -1 4 0
73 1 7.8020287105415163e+00 4.7551114272690436e+00 2.2079725034105923e+01 0 1 -1
2916 1 7.9113068049922770e+00 5.0034851769087103e+00 2.4742580116121108e+01 3 3 -1
2097 1 1.2176595769180016e+01 7.1628944081489454e+00 2.4786235300758960e+01 2 -1 0
2154 1 2.4669596309476658e+00 9.2689117063786437e+00 2.1348658558802033e+01 2 2 -1
27 1 3.7899290818141078e+00 1.1259586533224539e+01 2.4874429980139269e+01 2 1 -1
2963 1 8.0722370334701754e+00 9.1679409043603961e+00 2.4863591672248521e+01 2 2 0
2167 1 4.1179081466108567e+00 1.1168571407746256e+01 2.2163610855035980e+01 0 -1 0
840 1 7.9938913150170769e+00 8.9996687254478545e+00 2.2093140137724667e+01 0 1 0
843 1 6.5571910207653907e+00 1.1377757086663028e+01 2.1269278287990385e+01 1 -1 0
1 1 1.2170219091608763e+01 1.1414929486745590e+01 2.2091063065509204e+01 0 1 0
2837 1 1.1001317480297132e+01 9.0246592193365274e+00 2.1265406762787730e+01 0 -2 0
2994 1 7.6444679989674791e-01 1.8683958292723537e+00 2.8451370739963359e+01 4 1 0
4334 1 5.8325502892394643e-01 2.2727379782933221e+00 2.5611328603462251e+01 0 -1 0
2991 1 5.1573442898512543e+00 1.9369912500517952e-01 2.8385976265465885e+01 0 -2 -1
1402 1 4.8115756567148047e+00 2.5923610207730219e-01 2.5458884575170082e+01 -2 0 0
626 1 9.3669271530302893e+00 2.4021502026167054e+00 2.8398352637262402e+01 1 0 0
3749 1 9.1380450646908891e+00 2.6079351324954310e+00 2.5768456190090429e+01 2 1 -1
1619 1 1.0015306040824112e+00 6.7488532650948798e+00 2.5164415596540298e+01 3 1 0
3012 1 8.5916096675362752e-01 6.3977234728836549e+00 2.8043978101086772e+01 0 -1 -1
3680 1 4.8652739328084058e+00 4.3782969715397471e+00 2.8099216140133610e+01 1 3 0
2297 1 5.0811059886816299e+00 4.6181491906046483e+00 2.5321833043531303e+01 -2 -3 0
4388 1 8.9517305361531534e+00 6.9766275609732737e+00 2.8023802715038268e+01 2 1 0
2925 1 9.4814535313161787e+00 7.0593062031679104e+00 2.5384511286831376e+01 3 1 0
2241 1 1.2370382691589519e+00 1.1257764825001921e+01 2.8278083413754988e+01 2 0 0
4404 1 1.0471582053851385e+00 1.1352026870994674e+01 2.5407427106187932e+01 1 -1 0
3103 1 2.4344523381680263e+00 8.6744539606306024e+00 2.8668495461152112e+01 1 -1 0
2910 1 5.1958691665978520e+00 8.9798600652102802e+00 2.8251924897906381e+01 0 -3 0
2157 1 5.1985251645329678e+00 8.9069876237680212e+00 2.5422315418124764e+01 -1 -1 0
734 1 1.0658586050087449e+01 8.9392434852786078e+00 2.8847935502638943e+01 -1 -1 0
1341 1 9.4929679763061472e+00 1.1373021225856721e+01 2.5869877710211213e+01 1 -2 0
1354 1 9.1845182181902967e+00 1.1310271976397525e+01 2.8966782778742850e+01 0 2 0
1560 1 2.4326401224536882e+00 3.8315735779979980e+00 3.1750906717588400e+01 2 -1 0
2932 1 1.3925028181611474e+00 1.3517264892822161e+00 3.2364165316458767e+01 -2 0 0
3685 1 2.4604140681805799e+00 5.7034931855810100e-02 2.9352774920319536e+01 0 0 -1
2975 1 6.6447735492764410e+00 2.3292129613470380e+00 2.9304679878582622e+01 2 -1 0
3631 1 6.7737117392260986e+00 2.1123760407049508e+00 3.2159707724239837e+01 3 0 0
4341 1 9.6954144970977794e+00 2.0327868857128126e+00 3.1766478835815427e+01 0 0 0
2377 1 1.0635836255762216e+01 7.1304852265676288e-02 2.9531005766504435e+01 -3 1 0
1519 1 2.1878044326250521e+00 4.1410831193053514e+00 2.9030328553607013e+01 1 -1 0
721 1 1.0878805618270968e+00 6.1662137977742786e+00 3.2313123192000106e+01 0 2 0
1446 1 6.0885418122759347e+00 6.7193100780857042e+00 2.9329641198306415e+01 -1 1 0
3879 1 5.0895176166968916e+00 4.1511016174735209e+00 3.2252253894304786e+01 3 1 0
3707 1 6.5366517761057583e+00 6.5209432769341937e+00 3.1999176720206339e+01 2 -1 0
738 1 1.0527700711176895e+01 4.7084921900438488e+00 2.9127385935643332e+01 2 -1 0
2274 1 1.0750576989011426e+01 4.4682651195897645e+00 3.1610244012137144e+01 0 0 0
2113 1 9.3107598103924065e+00 6.5174276414928789e+00 3.2444229681978904e+01 1 -1 0
2979 1 2.2221905711691945e+00 8.4939789257294862e+00 3.1528598064370122e+01 2 1 -1
1558 1 1.2129615980917507e+00 1.0942559307638810e+01 3.1865533890689370e+01 1 1 -1
2195 1 6.4912183083199029e+00 1.1061757292687039e+01 2.9409945618813936e+01 1 -1 -1
2153 1 5.1443765904819934e+00 8.8319346303442288e+00 3.2649532957584029e+01 3 1 0
814 1 6.5390277459726684e+00 1.1249065105477667e+01 3.2007516089711970e+01 2 -1 0
2118 1 9.4634862665756110e+00 1.1341979802468947e+01 3.1869355085150861e+01 -4 -1 -1
3648 1 1.0470923114200488e+01 8.7454510455564058e+00 3.1515279786013423e+01 1 1 -1
137 2 0.0000000000000000e+00 1.2787731112280996e+01 2.6684610183026387e+00 0 0 0
139 2 1.2305000000000001e+00 1.3498160618518829e+01 2.6684610183026387e+00 0 0 0
174 2 2.4610000000000003e+00 1.2787731112280996e+01 2.6684610183026387e+00 0 0 0
176 2 3.6915000000000004e+00 1.3498160618518829e+01 2.6684610183026387e+00 0 0 0
135 2 0.0000000000000000e+00 1.5629449137232333e+01 2.6684610183026387e+00 0 0 0
170 2 1.2305000000000001e+00 1.4919019630994494e+01 2.6684610183026387e+00 0 0 0
172 2 2.4610000000000003e+00 1.5629449137232328e+01 2.6684610183026387e+00 0 0 0
215 2 3.6915000000000004e+00 1.4919019630994494e+01 2.6684610183026387e+00 0 0 0
219 2 4.9220000000000006e+00 1.2787731112280996e+01 2.6684610183026387e+00 0 0 0
221 2 6.1524999999999990e+00 1.3498160618518829e+01 2.6684610183026387e+00 0 0 0
266 2 7.3829999999999991e+00 1.2787731112280996e+01 2.6684610183026387e+00 0 0 0
217 2 4.9220000000000006e+00 1.5629449137232333e+01 2.6684610183026387e+00 0 0 0
262 2 6.1524999999999990e+00 1.4919019630994494e+01 2.6684610183026387e+00 0 0 0
264 2 7.3829999999999991e+00 1.5629449137232333e+01 2.6684610183026387e+00 0 0 0
268 2 8.6135000000000002e+00 1.3498160618518835e+01 2.6684610183026387e+00 0 0 0
313 2 9.8440000000000012e+00 1.2787731112280996e+01 2.6684610183026387e+00 0 0 0
315 2 1.1074500000000002e+01 1.3498160618518829e+01 2.6684610183026387e+00 0 0 0
309 2 8.6135000000000002e+00 1.4919019630994494e+01 2.6684610183026387e+00 0 0 0
311 2 9.8440000000000012e+00 1.5629449137232328e+01 2.6684610183026387e+00 0 0 0
351 2 1.1074500000000002e+01 1.4919019630994494e+01 2.6684610183026387e+00 0 0 0
166 2 0.0000000000000000e+00 1.7050308149707998e+01 2.6684610183026387e+00 0 0 0
211 2 2.4610000000000003e+00 1.7050308149707998e+01 2.6684610183026387e+00 0 0 0
164 2 0.0000000000000000e+00 1.9892026174659328e+01 2.6684610183026387e+00 0 0 0
168 2 1.2305000000000001e+00 1.7760737655945832e+01 2.6684610183026387e+00 0 0 0
207 2 1.2305000000000001e+00 1.9181596668421495e+01 2.6684610183026387e+00 0 0 0
209 2 2.4610000000000003e+00 1.9892026174659328e+01 2.6684610183026387e+00 0 0 0
213 2 3.6914999999999996e+00 1.7760737655945832e+01 2.6684610183026387e+00 0 0 0
254 2 3.6914999999999996e+00 1.9181596668421495e+01 2.6684610183026387e+00 0 0 0
258 2 4.9220000000000006e+00 1.7050308149707998e+01 2.6684610183026387e+00 0 0 0
305 2 7.3830000000000009e+00 1.7050308149707998e+01 2.6684610183026387e+00 0 0 0
256 2 4.9220000000000006e+00 1.9892026174659328e+01 2.6684610183026387e+00 0 0 0
260 2 6.1524999999999999e+00 1.7760737655945832e+01 2.6684610183026387e+00 0 0 0
301 2 6.1524999999999999e+00 1.9181596668421495e+01 2.6684610183026387e+00 0 0 0
303 2 7.3829999999999991e+00 1.9892026174659328e+01 2.6684610183026387e+00 0 0 0
347 2 9.8440000000000012e+00 1.7050308149707998e+01 2.6684610183026387e+00 0 0 0
381 2 1.2304999999999998e+01 1.7050308149707998e+01 2.6684610183026387e+00 0 0 0
307 2 8.6134999999999984e+00 1.7760737655945832e+01 2.6684610183026387e+00 0 0 0
343 2 8.6135000000000002e+00 1.9181596668421495e+01 2.6684610183026387e+00 0 0 0
345 2 9.8440000000000012e+00 1.9892026174659335e+01 2.6684610183026387e+00 0 0 0
349 2 1.1074500000000002e+01 1.7760737655945835e+01 2.6684610183026387e+00 0 0 0
377 2 1.1074500000000002e+01 1.9181596668421495e+01 2.6684610183026387e+00 0 0 0
201 2 0.0000000000000000e+00 2.4154603212086325e+01 2.6684610183026387e+00 0 0 0
203 2 0.0000000000000000e+00 2.1312885187134999e+01 2.6684610183026387e+00 0 0 0
205 2 1.2304999999999993e+00 2.2023314693372832e+01 2.6684610183026387e+00 0 0 0
246 2 1.2304999999999993e+00 2.3444173705848499e+01 2.6684610183026387e+00 0 0 0
248 2 2.4610000000000003e+00 2.4154603212086325e+01 2.6684610183026387e+00 0 0 0
250 2 2.4610000000000003e+00 2.1312885187134995e+01 2.6684610183026387e+00 0 0 0
252 2 3.6914999999999996e+00 2.2023314693372832e+01 2.6684610183026387e+00 0 0 0
293 2 3.6915000000000004e+00 2.3444173705848499e+01 2.6684610183026387e+00 0 0 0
295 2 4.9220000000000006e+00 2.4154603212086325e+01 2.6684610183026387e+00 0 0 0
297 2 4.9220000000000006e+00 2.1312885187134995e+01 2.6684610183026387e+00 0 0 0
299 2 6.1524999999999990e+00 2.2023314693372832e+01 2.6684610183026387e+00 0 0 0
335 2 6.1524999999999999e+00 2.3444173705848499e+01 2.6684610183026387e+00 0 0 0
337 2 7.3830000000000009e+00 2.4154603212086336e+01 2.6684610183026387e+00 0 0 0
339 2 7.3829999999999991e+00 2.1312885187134999e+01 2.6684610183026387e+00 0 0 0
341 2 8.6135000000000002e+00 2.2023314693372832e+01 2.6684610183026387e+00 0 0 0
369 2 8.6134999999999984e+00 2.3444173705848499e+01 2.6684610183026387e+00 0 0 0
371 2 9.8440000000000012e+00 2.4154603212086336e+01 2.6684610183026387e+00 0 0 0
373 2 9.8440000000000012e+00 2.1312885187134999e+01 2.6684610183026387e+00 0 0 0
375 2 1.1074500000000002e+01 2.2023314693372832e+01 2.6684610183026387e+00 0 0 0
395 2 1.1074500000000002e+01 2.3444173705848499e+01 2.6684610183026387e+00 0 0 0
138 2 0.0000000000000000e+00 1.2787731112280996e+01 5.8050177269009007e+00 0 0 0
175 2 2.4610000000000003e+00 1.2787731112280996e+01 5.8050177269009007e+00 0 0 0
447 2 0.0000000000000000e+00 1.2787731112280996e+01 8.9415744355017264e+00 0 0 0
448 2 1.2305000000000001e+00 1.3498160618518829e+01 8.9415744355017264e+00 0 0 0
466 2 2.4610000000000003e+00 1.2787731112280996e+01 8.9415744355017264e+00 0 0 0
467 2 3.6915000000000004e+00 1.3498160618518829e+01 8.9415744355017264e+00 0 0 0
136 2 0.0000000000000000e+00 1.4208590124756663e+01 5.8050177269009007e+00 0 0 0