
# Create simulation box and atoms

read_data data.ML_graphite_m500atm_240K
  orthogonal box = (0 0 1.70882) to (49.22 49.0196 32.2312)
  4 by 4 by 4 MPI processor grid
  reading atoms ...
  4537 atoms
  reading velocities ...
  4537 velocities
group water type 1
1777 atoms in group water
group graphite type 2
2760 atoms in group graphite

# Define potential

pair_style sw
pair_coeff * * MLC_e.sw mW C


# Fix graphite atoms in place

fix 5 graphite setforce 0.0 0.0 0.0
velocity graphite set 0.0 0.0 0.0


# Equilibration of molecular water

# Add velocity/set timestep

velocity	    water create ${TEMP} ${SEED} rot yes dist gaussian
velocity	    water create 240 ${SEED} rot yes dist gaussian
velocity	    water create 240 29338 rot yes dist gaussian
timestep	    5.0

# Define output

compute			1 water msd
compute			3 water temp
thermo	    	50
thermo_style	custom step temp press vol etotal ke pe c_1[4] c_3

# Neighbor lists

neigh_modify    delay 0 every 1 check yes

# Set fixes

fix             1 water momentum 10 linear 1 1 1 rescale
fix             2 water nve
fix             3 water temp/csvr ${TEMP} ${TEMP} 500.0 ${SEED}
fix             3 water temp/csvr 240 ${TEMP} 500.0 ${SEED}
fix             3 water temp/csvr 240 240 500.0 ${SEED}
fix             3 water temp/csvr 240 240 500.0 29338
fix             4 water press/berendsen z ${PRES} ${PRES} 1000.0 modulus 20000
fix             4 water press/berendsen z -500 ${PRES} 1000.0 modulus 20000
fix             4 water press/berendsen z -500 -500 1000.0 modulus 20000

# Run 0.5 ns equilibration

dump		    1 all atom 2000 ${DIR}/eq.${NAME}-${TEMP}.dump
dump		    1 all atom 2000 run_1/eq.${NAME}-${TEMP}.dump
dump		    1 all atom 2000 run_1/eq.het_freeze_1-${TEMP}.dump
dump		    1 all atom 2000 run_1/eq.het_freeze_1-240.dump

reset_timestep  0

run	            100000
Neighbor list info ...
  update every 1 steps, delay 0 steps, check yes
  max neighbors/atom: 2000, page size: 100000
  master list distance cutoff = 6.67472
  ghost atom cutoff = 6.67472
  binsize = 3.33736, bins = 15 15 10
  1 neighbor lists, perpetual/occasional/extra = 1 0 0
  (1) pair sw, perpetual
      attributes: full, newton on
      pair build: full/bin/atomonly
      stencil: full/bin/3d
      bin: standard
Per MPI rank memory allocation (min/avg/max) = 4.071 | 4.206 | 4.511 Mbytes
Step Temp Press Volume TotEng KinEng PotEng c_1[4] c_3 
       0    93.968254   -654.73592     73642.74   -17158.673    1270.5405   -18429.214            0          240 
      50    96.589848    -225.3801    73637.211   -17136.102    1305.9869   -18442.089   0.51832757    246.69569 
     100    95.805948    -934.7909    73688.507   -17142.021    1295.3878   -18437.409    0.8962602    244.69357 
     150    92.419006   -845.77438    73647.041   -17203.881    1249.5932   -18453.474    1.1739865    236.04314 
     200    93.130365   -709.40381    73643.686    -17217.62    1259.2114   -18476.831    1.3956569    237.85999 
     250     92.30465   -809.09689    73689.977   -17229.161     1248.047   -18477.208    1.5638202    235.75107 
     300    92.364735   -587.84505    73752.831   -17194.931    1248.8594    -18443.79    1.7938317    235.90452 
     350    94.108478   -525.90839    73812.623   -17202.058    1272.4364   -18474.494    1.9743573    240.35814 
     400    93.956887   -465.08657    73895.646   -17215.106    1270.3868   -18485.493    2.1871211    239.97097 
     450    92.831046   -547.80767     73979.63   -17199.126    1255.1643   -18454.291    2.3955636    237.09551 
     500    94.730636   -1055.3539     73959.27   -17163.417    1280.8486   -18444.265    2.5493579    241.94717 
     550    93.930289   -1023.7639    73905.356   -17143.256    1270.0272   -18413.283    2.7248731    239.90304 
     600    96.074905   -1125.5866    73867.893    -17139.13    1299.0244   -18438.155    3.0046624     245.3805 
     650    95.761132   -599.98722    73856.931   -17168.509    1294.7819   -18463.291    3.2107805    244.57911 
     700    95.137291   -753.90957    73891.094   -17160.787     1286.347   -18447.134    3.3912185    242.98578 
     750    95.736976   -907.28349    73867.733   -17207.918    1294.4553   -18502.373    3.5521902    244.51741 
     800    91.973193   -731.91661    73830.849   -17223.702    1243.5654   -18467.267    3.7452221    234.90451 
     850     94.32332   -694.81809    73855.972   -17211.898    1275.3413    -18487.24    3.9149171    240.90686 
     900    94.048926   -748.08435     73889.12   -17212.108    1271.6312   -18483.739    4.0436985    240.20604 
     950    92.533974   -669.38352    73902.779   -17195.836    1251.1476   -18446.983    4.1147914    236.33677 
    1000    93.987391   -801.07243    73915.389   -17168.034    1270.7992   -18438.834    4.1572285    240.04888 
    1050    94.070381   -753.69063    73937.297    -17204.27    1271.9213   -18476.191    4.2505636    240.26084 
    1100    93.563653   -703.39822    74027.879   -17190.577    1265.0699   -18455.647    4.4623037    238.96663 
    1150    94.129605   -855.88312    74046.078   -17192.712    1272.7221   -18465.434    4.6791105     240.4121 
    1200    94.436455   -1070.2711    74009.948   -17210.877     1276.871   -18487.748    4.7351397    241.19581 
    1250    89.828083   -988.78851    73972.772   -17240.888    1214.5614   -18455.449    4.9946439    229.42578 
    1300    90.624955   -762.70086    73930.269   -17284.219    1225.3359   -18509.555    5.2185046    231.46103 
    1350    91.401276   -898.22715    73960.539   -17264.867    1235.8325     -18500.7    5.3180857     233.4438 
    1400    94.902553   -1004.9924    73930.822   -17270.396    1283.1731   -18553.569    5.4772686    242.38625 
    1450    91.956983   -1109.9034    73924.281    -17256.48    1243.3462   -18499.826    5.6736113    234.86311 
    1500    92.015034     -803.366    73897.512   -17261.069    1244.1311     -18505.2    5.8201531    235.01137 
    1550    94.064519   -579.43843    73992.037   -17279.672    1271.8421   -18551.515    5.9131007    240.24587 
    1600    93.371379   -901.23863    74043.691    -17290.63    1262.4702     -18553.1    6.0046658    238.47555 
    1650    93.258952   -833.54004    74045.486   -17254.629      1260.95   -18515.579    6.2130036     238.1884 
    1700    93.125691   -1027.4928    74011.229   -17259.682    1259.1482    -18518.83    6.3963891    237.84805 
    1750    97.863566   -366.05948    74114.514    -17206.52    1323.2088   -18529.729     6.500083    249.94884 
    1800    98.233434   -622.46076    74166.943   -17203.406    1328.2098   -18531.616    6.5518653     250.8935 
    1850    93.259315   -1116.8666    74194.719   -17229.866    1260.9549   -18490.821    6.6810025    238.18933 
    1900    92.617146   -1054.1859    74101.082   -17217.438    1252.2722    -18469.71    6.9334903     236.5492 
    1950    94.956559   -759.74367    74067.567   -17208.481    1283.9033   -18492.384    7.1408217    242.52418 
    2000    94.199776   -665.11691    74008.786   -17218.565    1273.6709   -18492.236    7.2455055    240.59132 
    2050    91.554821   -759.85961    73958.217   -17225.952    1237.9086    -18463.86    7.3905797    233.83596 
    2100    94.379945   -725.92886    73967.387   -17228.729    1276.1069   -18504.836    7.4564092    241.05148 
    2150    93.781387   -1098.5033    73960.648   -17234.459    1268.0139   -18502.472    7.6758923    239.52273 
    2200    94.979346   -560.00952    73962.569   -17264.392    1284.2114   -18548.603    7.8100172    242.58238 
    2250    91.674302   -768.49658    74090.551   -17232.463    1239.5241   -18471.987    8.0145453    234.14112 
    2300    90.221591   -1263.4765    74089.884   -17280.661     1219.882   -18500.543    8.1620403    230.43082 
    2350    92.853184   -797.92478    74101.722   -17263.111    1255.4637   -18518.575    8.3389948    237.15205 
    2400    91.950803   -1177.8939      74047.5   -17256.062    1243.2626   -18499.325    8.6657965    234.84732 
    2450    91.703027   -1432.5151    73988.682   -17235.513    1239.9124   -18475.425    8.8030721    234.21449 
    2500    93.473594   -1049.6996    73922.681   -17229.704    1263.8522   -18493.556    8.9257404    238.73661 
    2550    94.432842   -1220.6448     73890.67   -17228.523    1276.8222   -18505.346    9.1903603    241.18658 
    2600    89.839536   -1242.4951    73897.131   -17273.953    1214.7163    -18488.67    9.4596868    229.45503 
    2650    92.824695   -1168.6194    73900.464   -17245.656    1255.0785   -18500.734    9.6762809    237.07929 
    2700    93.936457   -877.42936    73896.483   -17212.627    1270.1106   -18482.738    9.7708836    239.91879 
    2750    94.235825   -1062.9825    73929.686   -17214.844    1274.1583   -18489.002    9.9960349    240.68339 
    2800    95.308061   -1023.3044    73960.065   -17181.134    1288.6559    -18469.79    10.214737    243.42194 
    2850    95.318566   -789.98667    74001.651    -17181.97     1288.798   -18470.768    10.487347    243.44877 
    2900    93.673891   -502.10827    74007.805   -17227.524    1266.5604   -18494.085    10.445098    239.24818 
    2950    92.963947   -898.46992    74040.507    -17224.29    1256.9613   -18481.252    10.527505    237.43495 
    3000    90.924361   -879.10131    74098.853   -17220.703    1229.3841   -18450.087     10.62843    232.22573 
    3050    95.091335   -1105.9895    74085.608   -17220.315    1285.7256    -18506.04    10.817902    242.86841 
    3100     92.09362   -892.92306    74073.891   -17173.169    1245.1936   -18418.363       10.956    235.21208 
    3150    95.699714   -931.11998    74048.364   -17172.773    1293.9515   -18466.724    10.950221    244.42224 
    3200      93.0824   -740.77241    74031.797   -17174.894    1258.5629   -18433.457    11.037294    237.73748 
    3250    92.175061   -1101.9873    73976.561   -17184.313    1246.2948   -18430.608    11.301115    235.42009 
    3300    95.993779   -990.23186    73965.166   -17148.687    1297.9275   -18446.615    11.566086     245.1733 
    3350    94.133461   -943.10115    74011.377   -17169.588    1272.7742   -18442.362    11.752342    240.42195 
    3400     93.03236   -1185.7476    74028.811   -17234.775    1257.8863   -18492.662    11.834912    237.60967 
    3450    93.263584   -1000.7216    74052.508   -17239.019    1261.0127   -18500.032    12.078318    238.20023 
    3500    92.036446   -1173.1336    74073.205   -17210.657    1244.4206   -18455.077    12.211442    235.06606 
    3550    92.206669   -970.85414    74078.949   -17225.555    1246.7222   -18472.277    12.417188    235.50082 
    3600    94.494686   -787.89193    74099.508   -17206.156    1277.6583   -18483.814     12.70507    241.34454 
    3650    93.470716   -847.54142    74167.732   -17237.848    1263.8133   -18501.661    12.838039    238.72926 
    3700    93.072099   -969.24937    74191.303    -17207.24    1258.4236   -18465.664    12.919057    237.71117 
    3750    92.732378   -1335.7241    74143.183   -17229.866    1253.8303   -18483.696    12.998699    236.84351 
    3800     94.46155   -715.05989    74053.276    -17254.68    1277.2103    -18531.89    13.100847    241.25991 
    3850     92.95687   -1309.8221    74005.325    -17239.86    1256.8656   -18496.725    13.173332    237.41687 
    3900    94.190273   -892.71962    73952.846   -17192.441    1273.5424   -18465.983    13.284204    240.56705 
    3950    94.093346   -762.64358     73937.69   -17183.495    1272.2318   -18455.727    13.381577    240.31949 
    4000     93.72578   -853.62818    73894.396    -17187.37     1267.262   -18454.632     13.58965    239.38071 
    4050    93.389683   -905.52107    73886.387   -17169.625    1262.7176   -18432.343    13.788833     238.5223 
    4100    92.162217   -666.92963    73912.898   -17173.532    1246.1211   -18419.653    14.002419    235.38728 
    4150    92.925218   -1021.1554    73946.467   -17211.314    1256.4376   -18467.751     14.22345    237.33603 
    4200    90.756347   -1191.8536    73938.682   -17219.377    1227.1124    -18446.49    14.351888    231.79661 
    4250    95.824562   -863.68583    73949.575   -17196.604    1295.6395   -18492.243    14.543958    244.74111 
    4300    92.296669   -866.19712    74037.186   -17211.655    1247.9391   -18459.594    14.802203    235.73068 
    4350    93.836292    -1076.021    74029.698   -17197.051    1268.7562   -18465.807    14.899962    239.66296 
    4400    94.586539   -1095.1858    73985.645   -17186.397    1278.9003   -18465.297    15.096416    241.57913 
    4450    94.324707    -754.5289    74005.645   -17207.769    1275.3601   -18483.129    15.290358     240.9104 
    4500    91.612764   -1051.6819    74017.306   -17212.274     1238.692   -18450.966    15.695106    233.98395 
    4550     93.91838   -944.93327    74064.523   -17184.961    1269.8661   -18454.827     16.00437    239.87262 
    4600    95.446098   -1173.7793    74008.526   -17181.449    1290.5223   -18471.971     16.17546    243.77449 
    4650    96.885764   -895.51818    73997.911   -17164.818     1309.988   -18474.806    16.371656    247.45148 
    4700    94.960303   -1023.0919     73944.23   -17188.122    1283.9539   -18472.076    16.552096    242.53375 
    4750    93.772614   -875.83088    73930.651   -17170.858    1267.8952   -18438.754    16.751548    239.50032 
    4800    91.483667   -995.38212    73903.426   -17221.815    1236.9465   -18458.762     16.92533    233.65423 
    4850    93.147463   -912.96496    73848.861   -17216.443    1259.4426   -18475.885    17.210679    237.90366 
    4900     95.65183   -940.18791    73769.207   -17191.785     1293.304   -18485.089    17.569207    244.29994 
    4950    95.649533    -655.9564    73764.642   -17180.944     1293.273   -18474.217    17.698889    244.29408 
    5000    96.535095   -688.85496    73769.687   -17155.509    1305.2466   -18460.755    17.881424    246.55585 
    5050    94.944762   -740.19765    73789.373   -17183.481    1283.7438   -18467.225     17.97234    242.49405 
    5100    95.335797   -1058.6679     73813.84   -17202.598     1289.031   -18491.629    18.154762    243.49278 
    5150    94.949043   -885.08332    73761.957   -17213.376    1283.8017   -18497.178    18.183393    242.50499 
    5200    93.478686   -504.40676     73794.45   -17238.242     1263.921   -18502.163    18.329756    238.74962 
    5250    91.158513   -776.72512    73856.727   -17219.954    1232.5501   -18452.505    18.350591    232.82377 
    5300    96.970379   -621.96793    73863.772   -17191.041    1311.1321   -18502.173    18.376486    247.66759 
    5350    91.967993   -557.34987    73885.828    -17196.62     1243.495   -18440.115    18.503823    234.89122 
    5400    92.696911   -945.84323    73927.832   -17207.484    1253.3507   -18460.834    18.721821    236.75292 
    5450    94.713239   -555.04642    73919.959   -17183.735    1280.6134   -18464.348    18.722885    241.90273 
    5500    93.549299   -838.89058    73948.788    -17184.61    1264.8758   -18449.485    18.748233    238.92997 
    5550    94.403763   -1091.2843     73949.85    -17205.43     1276.429   -18481.859    19.062707    241.11231 
    5600    92.761544   -943.19844    73957.767   -17219.103    1254.2246   -18473.328    19.138675      236.918 
    5650    94.241052   -1037.4429    73920.213    -17223.44     1274.229   -18497.669    19.133134    240.69674 
    5700    94.350719   -978.03695    73924.102   -17210.677    1275.7118   -18486.389    19.361235    240.97684 
    5750    93.604143   -859.97209    73928.174   -17207.415    1265.6174   -18473.032    19.529124    239.07004 
    5800    95.208029   -688.53801    73917.728    -17216.17    1287.3034   -18503.473    19.703659    243.16645 
    5850    98.159639   -782.27044    73961.207   -17179.615     1327.212   -18506.827    20.073513    250.70502 
    5900    95.591243    -1138.195    73918.331   -17143.717    1292.4848   -18436.202     20.33919     244.1452 
    5950    95.983687   -603.20717     73917.47   -17158.381    1297.7911   -18456.172    20.387719    245.14753 
    6000    97.365772   -837.06337    73950.219   -17194.302    1316.4782    -18510.78    20.515333    248.67745 
    6050    94.142241   -934.01426    73916.018   -17194.468     1272.893   -18467.361    20.710941    240.44437 
    6100    95.834442   -1087.8005     73944.69   -17226.659    1295.7731   -18522.432    20.892397    244.76634 
    6150    91.073104   -841.85812    74004.371   -17210.537    1231.3953   -18441.933    21.310632    232.60563 
    6200    93.066678   -849.23921    74069.047   -17232.693    1258.3503   -18491.043    21.533615    237.69733 
    6250    90.814599   -891.03806    74006.242   -17199.148    1227.9001   -18427.048    21.583313     231.9454 
    6300    95.216832   -872.50816    74056.289   -17221.545    1287.4224   -18508.967    21.714508    243.18893 
    6350    96.046328   -344.36778    74124.489   -17208.201     1298.638   -18506.839    21.769468    245.30751 
    6400    92.653438   -1117.9386    74144.285    -17252.39    1252.7629   -18505.153    21.897053    236.64189 
    6450    91.734207   -1092.1924    74091.543   -17265.357     1240.334   -18505.691    21.931397    234.29412 
    6500    93.004371   -794.68942    74085.424    -17198.93    1257.5079   -18456.437    22.002399    237.53819 
    6550    93.773501   -878.60598    74089.601   -17171.614    1267.9072   -18439.521     22.10715    239.50259 
    6600    94.931817    -1110.889     74056.42   -17185.362    1283.5688    -18468.93    22.400941    242.46099 
    6650    93.507836   -1170.3238    74005.996   -17172.999    1264.3152   -18437.315     22.56082    238.82407 
    6700    96.635766   -965.38549    73973.305   -17178.955    1306.6078   -18485.563    22.678827    246.81297 
    6750    96.575005   -705.80878    73970.716    -17161.27    1305.7862   -18467.056    22.702616    246.65778 
    6800    98.957935   -834.63952    73972.744   -17128.932    1338.0057   -18466.938    22.962808    252.74392 
    6850    97.263743   -996.64594    73948.071   -17117.744    1315.0986   -18432.842    23.141219    248.41686 
    6900    97.223387   -870.76123    73909.108   -17100.234     1314.553   -18414.787    23.370361    248.31378 
    6950    96.261402   -719.60291    73945.551   -17158.692     1301.546   -18460.238    23.684913    245.85682 
    7000    97.225017   -867.72256    73919.663   -17134.775     1314.575    -18449.35    23.796598    248.31795 
    7050    98.625773   -645.97998    73918.187   -17127.353    1333.5146   -18460.867    23.881451    251.89555 
    7100    96.922355   -1145.6025    73905.256   -17142.592    1310.4827   -18453.075    24.130269    247.54493 
    7150    96.137333   -813.62174    73886.562   -17145.232    1299.8685     -18445.1    24.192141    245.53995 
    7200    96.510275   -705.08359    73900.998   -17124.863     1304.911   -18429.774    24.218353    246.49246 
    7250    95.126939   -786.90501    73938.395   -17135.653     1286.207    -18421.86    24.477868    242.95934 
    7300    96.026668   -886.60729    73939.351   -17146.943    1298.3722   -18445.315     24.58392     245.2573 
    7350    94.621481   -829.09645    73866.399   -17162.732    1279.3727   -18442.104    24.578594    241.66838 
    7400    93.468231    -976.5491    73880.516   -17165.913    1263.7797   -18429.693    24.660313    238.72291 
    7450    97.380458   -1104.1887    73900.554   -17134.326    1316.6767   -18451.003    24.918417    248.71495 
    7500     94.83961   -1060.8276    73850.867   -17176.395     1282.322   -18458.717    25.029222    242.22549 
    7550     95.84613   -1448.0472    73744.199   -17169.531    1295.9312   -18465.462    25.100242     244.7962 
    7600    94.300524   -1202.3591    73663.898   -17191.978    1275.0331   -18467.011    25.129851    240.84864 
    7650    93.863583   -548.79329    73662.599   -17196.083    1269.1252   -18465.208    25.314006    239.73266 
    7700    97.930965   -870.16925    73703.213   -17181.414    1324.1201   -18505.534    25.474849    250.12098 
    7750    91.525281   -665.80476    73795.087   -17228.851    1237.5092   -18466.361    25.746033    233.76052 
    7800    97.073449   -548.15998    73817.765   -17195.612    1312.5257   -18508.137    25.945699    247.93083 
    7850    95.190012   -697.96864    73864.818   -17200.548    1287.0598   -18487.607     26.10927    243.12044 
    7900    93.234128    -707.0016    73874.049   -17222.758    1260.6144   -18483.372    26.314718      238.125 
    7950     95.37099   -913.39166    73873.568    -17220.78    1289.5068   -18510.287      26.3608    243.58266 
    8000    93.761749   -1127.4014    73836.948   -17203.753    1267.7483   -18471.501    26.539163    239.47258 
    8050    94.302278   -1093.7128    73794.792   -17201.222    1275.0568   -18476.279    26.689655    240.85312 
    8100    94.433331   -550.31366    73769.912   -17206.575    1276.8288   -18483.404    26.938736    241.18783 
    8150    93.118977   -737.40666    73850.353   -17191.814    1259.0574   -18450.871    27.151219     237.8309 
    8200    96.153279   -651.96754    73860.423   -17220.216    1300.0841     -18520.3     27.19681    245.58067 
    8250    95.719575    -776.5802    73832.699   -17195.768      1294.22   -18489.988    27.319619    244.47297 
    8300    97.260613   -785.69594    73856.565   -17166.189    1315.0563   -18481.246    27.249013    248.40886 
    8350    96.892915   -506.59703        73879   -17158.472    1310.0847   -18468.556    27.550522    247.46974 
    8400    95.393354    -829.3297    73916.579    -17181.33    1289.8092   -18471.139    27.647285    243.63978 
    8450    93.045787   -1166.1011    73843.851    -17209.45    1258.0678   -18467.518    27.873979    237.64397 
    8500    95.714957   -888.82656    73814.663   -17213.112    1294.1576    -18507.27    28.079774    244.46117 
    8550    95.626352   -1277.0984    73830.072   -17244.552    1292.9595   -18537.512    28.630756    244.23487 
    8600    95.820257    -902.7254    73822.205   -17195.748    1295.5813   -18491.329    28.819268    244.73012 
    8650    96.458318   -452.01638     73901.26   -17191.029    1304.2085   -18495.237    29.003838    246.35976 
    8700    94.760605   -785.20002    73906.493   -17193.594    1281.2538   -18474.848    28.942585    242.02371 
    8750    94.360454   -548.65049    73935.692   -17229.102    1275.8434   -18504.945    28.904367     241.0017 
    8800    95.091275    -828.2278    73994.739   -17210.408    1285.7248   -18496.133    28.924794    242.86826 
    8850    96.485747   -368.48156    74033.586   -17191.161    1304.5794    -18495.74     29.04718    246.42981 
    8900    93.682825    -551.4645    74072.973   -17244.951    1266.6812   -18511.632    29.160111      239.271 
    8950    93.835062   -664.77469    74066.923   -17254.381    1268.7396   -18523.121    29.609227    239.65982 
    9000    93.218187   -1110.9371    74050.968   -17235.061    1260.3989   -18495.459    29.733439    238.08429 
    9050    94.685912   -1070.4955    74066.854   -17240.849    1280.2439   -18521.093    29.715464    241.83294 
    9100    95.763118   -1029.1091    74059.616   -17250.186    1294.8088   -18544.995    30.044629    244.58418 
    9150    94.606611    -937.9326    74052.481   -17272.534    1279.1717   -18551.706    30.210502     241.6304 
    9200    94.016034   -923.65044    74086.493    -17259.71    1271.1865   -18530.896    30.136205    240.12203 
    9250    92.480015    -1085.084    74083.392   -17241.249    1250.4181   -18491.667      30.1354    236.19896 
    9300    94.952762   -1122.7274    74151.345   -17235.872     1283.852   -18519.724    30.371561    242.51449 
    9350    93.606986   -1102.9522    74139.931   -17218.209    1265.6558   -18483.865    30.592543     239.0773 
    9400    94.059047   -899.61049    74102.958   -17253.584    1271.7681   -18525.352    30.690073    240.23189 
    9450    93.370184   -830.13149    74104.461   -17245.407     1262.454   -18507.861    31.018538     238.4725 
    9500    92.188446   -1090.2461    74057.991   -17274.767    1246.4758   -18521.243    31.051548    235.45428 
    9550    94.025043   -524.82073     74081.37   -17280.214    1271.3083   -18551.523    31.068919    240.14504 
    9600    92.979708   -956.65594    74161.102   -17256.679    1257.1744   -18513.854    31.104135     237.4752 
    9650    93.143182   -852.93178    74108.843   -17255.312    1259.3847   -18514.696    30.852732    237.89272 
    9700    93.401139   -1172.0954    74077.477   -17245.935    1262.8725   -18508.807    30.952575    238.55156 
    9750    92.474818   -750.33103    74092.648   -17266.111    1250.3478   -18516.459     30.97734    236.18568 
    9800    89.983762   -878.05269     74091.99   -17256.217    1216.6663   -18472.883    30.853809    229.82339 
    9850    92.961517    -1393.332     74033.19   -17232.718    1256.9284   -18489.647     31.02259    237.42874 
    9900    96.371625   -832.72897    74007.333   -17255.642    1303.0363   -18558.678    31.315221    246.13834 
    9950    94.033637    -1201.267    74006.608   -17269.049    1271.4245   -18540.473     31.57154    240.16699 
   10000    93.244235    -817.2717    74018.719   -17225.372     1260.751   -18486.123    31.784361    238.15082 
   10050    93.052778   -1367.5281    74007.273   -17241.616    1258.1624   -18499.779    32.130134    237.66182 
   10100     92.76594   -871.70114    73943.605   -17252.116     1254.284   -18506.401    32.314752    236.92923 
   10150    92.917963   -933.61245    73946.347   -17266.663    1256.3395   -18523.002    32.421504     237.3175 
   10200    93.849232   -1009.6696     73894.03   -17281.982    1268.9312   -18550.914    32.626731    239.69601 
   10250    94.063227   -785.87372    73938.994   -17294.391    1271.8246   -18566.216    32.820069    240.24257 
   10300    92.846282   -753.59083    73970.955   -17308.378    1255.3703   -18563.749    32.959109    237.13442 
   10350    91.481599   -967.34661    73978.566   -17329.815    1236.9185   -18566.734    33.349264    233.64895 
   10400    93.050802   -704.00933    73986.965   -17297.193    1258.1357   -18555.329    33.616418    237.65678 
   10450    91.860386   -877.53701    74041.502    -17277.59    1242.0401    -18519.63    33.861008    234.61639 
   10500    92.474523   -680.70273    74055.481   -17277.661    1250.3438   -18528.004    33.957514    236.18493 
   10550    93.798354   -1085.0625    74010.314   -17272.586    1268.2433   -18540.829    34.205015    239.56607 
   10600    93.870591   -723.75469    74046.807       -17256      1269.22    -18525.22    34.451514    239.75056 
   10650    94.594694   -825.30025    74085.768   -17280.952    1279.0105   -18559.963    34.694637    241.59996 
   10700    94.381103   -970.12843    74093.001   -17231.845    1276.1226   -18507.967    35.083014    241.05444 
   10750    94.744139   -896.87773    74050.816    -17214.08    1281.0312   -18495.112    35.061673    241.98165 
   10800     94.01551   -697.38195    74059.132    -17206.77    1271.1794   -18477.949    35.041981    240.12069 
   10850     94.18817   -884.81634    74068.725   -17197.976     1273.514    -18471.49    35.141059    240.56168 
   10900    96.661801   -971.99414    74057.433   -17227.614    1306.9598   -18534.574     35.14494    246.87947 
   10950    95.308109   -914.50001    74026.211   -17204.448    1288.6566   -18493.105    34.948648    243.42206 
   11000     95.30684   -947.27579    74018.793   -17222.129    1288.6394   -18510.769    35.096416    243.41882 
   11050     96.19233   -931.66479    73987.328   -17212.826    1300.6121   -18513.438    35.209944    245.68041 
   11100    94.724372   -974.63959    74022.944   -17234.813    1280.7639   -18515.577    35.571202    241.93117 
   11150    95.895835   -706.53595    74084.651   -17244.724    1296.6032   -18541.327    35.681782    244.92315 
   11200    96.582254   -775.47895    74082.197   -17235.844    1305.8843   -18541.728    35.727214     246.6763 
   11250    93.169621   -726.10474    74123.128   -17241.285    1259.7422   -18501.027    35.899338    237.96025 
   11300    96.281898   -687.67852    74144.313   -17198.387    1301.8231    -18500.21    35.925628    245.90917 
   11350     96.12549   -762.52776    74132.468   -17200.869    1299.7084   -18500.577    36.165416     245.5097 
   11400    98.545501   -404.38912    74168.779   -17214.036    1332.4292   -18546.466    36.261571    251.69054 
   11450    96.868714   -795.25398    74194.161   -17216.527    1309.7575   -18526.285    36.045734    247.40793 
   11500    94.009318   -848.13489    74218.196   -17240.676    1271.0957   -18511.772    36.251229    240.10488 
   11550    92.916746   -1049.9709    74226.915   -17256.865    1256.3231   -18513.188    36.660494    237.31439 
   11600    95.941744   -842.65358    74207.747   -17235.281    1297.2239   -18532.505    37.018337     245.0404 
   11650    94.779404    -724.2701    74216.253   -17250.835     1281.508   -18532.343    36.986074    242.07172 
   11700     95.76726   -629.47717    74234.752   -17244.472    1294.8648   -18539.336    37.082416    244.59476 
   11750    94.685703   -669.03918    74203.693   -17267.563    1280.2411   -18547.804    37.160205     241.8324 
   11800    95.539325   -953.40012    74195.881   -17267.814    1291.7829   -18559.597    37.263419     244.0126 
   11850    92.273505   -1056.6175    74210.599   -17285.412    1247.6259   -18533.038    37.421836    235.67152 
   11900    93.247823   -915.20044    74188.153   -17262.662    1260.7996   -18523.462    37.356954    238.15998 
   11950    93.714093   -907.12167    74176.211    -17309.87     1267.104   -18576.974    37.467493    239.35086 
   12000    94.158717   -919.75375    74155.657   -17301.427    1273.1157   -18574.543    37.841868    240.48645 
   12050    93.009886   -734.59169    74186.765   -17302.422    1257.5824   -18560.005    38.095476    237.55228 
   12100    93.621655   -1034.7355    74153.261    -17289.03    1265.8541   -18554.884    38.087332    239.11477 
   12150    95.854924   -1114.6811    74077.299   -17288.103    1296.0501   -18584.153    37.993473    244.81866 
   12200    94.760926   -664.85856    74084.596   -17293.971    1281.2582   -18575.229    37.797086    242.02453 
   12250    93.682318    -997.1828    74066.064   -17290.565    1266.6743    -18557.24    38.158449     239.2697 
   12300    94.221529   -805.27118    74040.951   -17309.777     1273.965   -18583.742    38.280272    240.64688 
   12350     95.19677     -867.811     74028.38   -17320.597    1287.1512   -18607.748    38.450145     243.1377 
   12400    93.317962   -969.84041     73968.78   -17322.063    1261.7479   -18583.811    38.746713    238.33912 
   12450    89.303738   -840.35535    73940.708   -17331.445    1207.4718   -18538.917    38.700657    228.08657 
   12500    96.505578   -990.45195    73922.989   -17291.898    1304.8475   -18596.745    38.821635    246.48046 
   12550    93.650404    -685.6286    73903.809    -17260.73    1266.2428   -18526.973    38.807979    239.18819 
   12600    97.899077   -581.01114    74003.925   -17236.519     1323.689   -18560.208    39.103822    250.03953 
   12650    92.827377   -837.60415    74094.798   -17287.912    1255.1147   -18543.027    39.082312    237.08614 
   12700    95.796048   -565.06665    74161.797   -17273.255     1295.254   -18568.509     39.14881    244.66829 
   12750    96.795368   -821.70178    74222.154   -17250.766    1308.7658   -18559.532    39.486254     247.2206 
   12800    91.705696    -1116.397    74290.998   -17296.091    1239.9485    -18536.04    39.608713     234.2213 
   12850    93.014909   -788.39532    74312.861    -17325.08    1257.6503   -18582.731    39.687929    237.56511 
   12900    91.955608   -966.79902    74292.724   -17330.245    1243.3276   -18573.573    39.724659    234.85959 
   12950    93.161563   -755.88793    74329.413   -17318.277    1259.6332    -18577.91    39.713769    237.93967 
   13000    92.591489   -1174.0413    74368.139   -17309.341    1251.9253   -18561.267    39.901621    236.48367 
   13050    90.821775    -733.8273     74374.58   -17305.271    1227.9971   -18533.268    40.056204    231.96372 
   13100     90.55516   -1115.6884    74383.566   -17315.896    1224.3922   -18540.288    40.198003    231.28277 
   13150    93.408282   -947.84081     74378.76    -17299.18    1262.9691   -18562.149    40.079082     238.5698 
   13200    93.103988   -1163.1638    74385.792   -17314.635    1258.8548    -18573.49      40.3214    237.79262 
   13250    92.179049   -1056.6652    74344.543    -17314.06    1246.3487   -18560.409    40.467046    235.43027 
   13300    95.175453   -951.88619    74322.279   -17330.183     1286.863   -18617.046     40.54421    243.08325 
   13350    90.725115   -910.37473    74363.523   -17333.403    1226.6901   -18560.093    40.668531    231.71685 
   13400    92.193224   -1125.9284    74355.393   -17309.478    1246.5404   -18556.018    40.812781    235.46648 
   13450    95.342805   -954.32795    74337.953   -17320.733    1289.1257   -18609.859    41.077772    243.51068 
   13500    96.780363   -1155.3615    74276.029   -17327.367    1308.5629    -18635.93    41.168908    247.18228 
   13550    92.264136   -965.36803    74267.267   -17297.038    1247.4992   -18544.537     41.24186    235.64759 
   13600    92.888943   -738.67982    74251.701   -17315.141    1255.9472   -18571.088    41.200278    237.24338 
   13650    93.150178   -772.18141    74289.179   -17325.432    1259.4793   -18584.911    41.177625    237.91059 
   13700    92.665727   -1015.8263    74257.554   -17338.191    1252.9291   -18591.121    41.362382    236.67327 
   13750    95.510012     -855.011    74222.001   -17311.399    1291.3865   -18602.786    41.506256    243.93773 
   13800    95.697538   -1003.5289    74236.954   -17298.002     1293.922   -18591.924    41.943396    244.41669 
   13850    94.112595    -1037.938    74262.472   -17282.247    1272.4921   -18554.739    42.259199    240.36865 
   13900    92.156435   -1148.9366    74257.177   -17294.263     1246.043   -18540.306    42.210634    235.37252 
   13950    92.563246   -800.66293    74180.888   -17317.612    1251.5434   -18569.155    42.262782    236.41153 
   14000    94.701176   -760.31995    74169.242   -17309.323    1280.4503   -18589.773    42.098061    241.87192 
   14050    94.058682   -1092.3674    74182.866   -17292.729    1271.7631   -18564.492    42.076128    240.23096 
   14100    91.307307   -922.61532    74217.625   -17314.605    1234.5619   -18549.167    42.193605     233.2038 
   14150    96.063021   -976.52715    74293.911   -17281.739    1298.8637   -18580.603    42.189387    245.35015 
   14200    94.239857   -906.55808    74309.604   -17278.784    1274.2128   -18552.997    42.549051    240.69369 
   14250    92.702782   -996.91622    74378.543   -17310.641    1253.4301   -18564.071    42.673071    236.76792 
   14300    95.131895   -962.33146    74417.951   -17302.591     1286.274   -18588.865    42.827651      242.972 
   14350    93.928465   -877.39387     74420.63   -17286.576    1270.0025   -18556.578    43.002457    239.89838 
   14400    93.071843   -735.10936    74425.524   -17277.227    1258.4201   -18535.647       43.193    237.71052 
   14450    93.166161   -955.84079    74435.209   -17262.579    1259.6954   -18522.275    43.559795    237.95141 
   14500    96.455465    -779.2268    74459.274   -17274.157    1304.1699   -18578.327    43.648146    246.35247 
   14550    93.827724   -1074.0536    74489.882   -17267.458    1268.6404   -18536.098    43.921327    239.64108 
   14600    92.622328   -1106.4534    74478.411   -17262.314    1252.3423   -18514.657    43.789962    236.56243 
   14650    92.895551   -1096.7744    74466.329   -17230.036    1256.0365   -18486.072    43.822094    237.26026 
   14700    93.005062   -1146.6307    74485.429    -17201.66    1257.5172   -18459.177    44.235832    237.53996 
   14750      93.5386   -755.77332    74546.024   -17243.065    1264.7311   -18507.796    44.308011    238.90264 
   14800    91.614414   -1018.3961    74545.584   -17266.289    1238.7143   -18505.004    44.441136    233.98817 
   14850    91.360823   -1213.6886    74531.504   -17266.183    1235.2855   -18501.469    44.471329    233.34048 
   14900    91.741884   -976.68754    74535.091   -17308.575    1240.4378   -18549.013    44.720402    234.31373 
   14950    90.306396   -1001.2422     74569.02   -17326.718    1221.0287   -18547.747    45.145613    230.64742 
   15000    89.518515   -1127.8232    74574.032   -17344.356    1210.3758   -18554.732    45.438075    228.63513 
   15050    90.316585   -1153.1608    74550.371   -17323.384    1221.1664    -18544.55    45.739419    230.67344 
   15100    89.384791   -1103.8318     74509.83   -17289.581    1208.5677   -18498.149    45.945642    228.29359 
   15150    93.614987   -737.86986    74494.896   -17258.133     1265.764   -18523.897    45.895898    239.09774 
   15200    95.152196   -735.91942    74455.892    -17234.49    1286.5485   -18521.038    45.778863    243.02385 
   15250    94.246185   -878.89947    74485.586    -17229.92    1274.2984   -18504.219    46.044902    240.70985 
   15300    91.037567   -780.24485    74501.496   -17196.812    1230.9148   -18427.727    45.965634    232.51487 
   15350    95.965607   -651.28688    74534.418   -17189.818    1297.5466   -18487.365    46.408449    245.10135 
   15400    92.991334   -697.87938    74550.186   -17232.975    1257.3316   -18490.307     46.35843    237.50489 
   15450    94.565602   -1024.4918    74498.302   -17231.416    1278.6172   -18510.033    46.531002    241.52566 
   15500    93.935298   -1062.0554    74509.707   -17243.663    1270.0949   -18513.758    46.613224    239.91583 
   15550    93.307812   -439.22922    74536.333   -17256.761    1261.6107   -18518.372    46.584098     238.3132 
   15600    92.866063   -685.12632    74578.028   -17247.326    1255.6378   -18502.964    46.892277    237.18495 
   15650    94.410127   -597.86938    74629.768   -17218.747     1276.515   -18495.262    46.984701    241.12857 
   15700    94.555383   -1007.5494     74699.17   -17217.253     1278.479   -18495.732    47.049899    241.49956 
   15750    95.341339   -823.50577    74668.224   -17169.755    1289.1059   -18458.861    47.084005    243.50693 
   15800    94.874372   -455.71725    74711.754   -17141.174    1282.7921   -18423.966    47.214264    242.31428 
   15850     97.08332   -1058.0885    74693.569   -17167.668    1312.6591   -18480.327    47.466524    247.95605 
   15900     94.80376   -741.15458    74696.722   -17190.905    1281.8373   -18472.743    47.507475    242.13393 
   15950    93.929667   -974.38002    74656.715   -17210.871    1270.0187    -18480.89    47.890191    239.90145 
   16000     95.97341   -975.84671    74669.947   -17161.283    1297.6521   -18458.935    48.305784    245.12128 
   16050    95.668293   -1203.9542    74636.474   -17169.337    1293.5266   -18462.864    48.467965    244.34199 
   16100    94.360379   -1070.9657     74683.52   -17185.055    1275.8424   -18460.898     48.94391    241.00151 
   16150    93.209583   -950.70501    74600.763   -17176.347    1260.2825   -18436.629    49.239898    238.06231 
   16200    92.945682   -866.18451    74569.005   -17192.321    1256.7143   -18449.035    49.433824     237.3883 
   16250    95.308231   -939.37777    74476.115   -17209.694    1288.6582   -18498.352    49.247025    243.42237 
   16300    94.070049   -845.72097    74418.647    -17210.51    1271.9168   -18482.427    49.660399    240.25999 
   16350     95.44563   -918.65865    74429.586   -17229.183     1290.516   -18519.699    49.869929     243.7733 
   16400    93.381931   -1167.8007        74376   -17203.275    1262.6128   -18465.888    50.106347     238.5025 
   16450    94.778207   -1200.8854    74320.541   -17208.233    1281.4918   -18489.725     50.46333    242.06866 
   16500    93.313774   -1165.4909    74256.622   -17199.569    1261.6913    -18461.26    50.956746    238.32842 
   16550     94.54192   -856.89337     74276.54   -17211.809     1278.297   -18490.106    51.246793    241.46517 
   16600    94.025297   -1439.2845    74247.492    -17191.75    1271.3117   -18463.062    51.202699    240.14569 
   16650    93.088086   -951.72534    74190.149   -17184.435    1258.6398   -18443.074    51.308426      237.752 
   16700    91.941878   -1165.6021    74135.449   -17206.796    1243.1419   -18449.938    51.619207    234.82453 
   16750    94.305885   -1084.3673    74118.326   -17185.419    1275.1056   -18460.525    51.656006    240.86233 
   16800    93.478675   -1091.0944    74161.422   -17215.756    1263.9209   -18479.677    51.853471    238.74959 
   16850    94.313614   -1038.4689     74131.48   -17243.274    1275.2101   -18518.484    52.017732    240.88207 
   16900    93.670695   -768.53287    74085.452    -17272.36    1266.5172   -18538.878     52.14516    239.24002 
   16950    89.203957    -894.9811    74069.185   -17290.682    1206.1226   -18496.805    52.430437    227.83173 
   17000    93.878369    -1161.444    73953.619   -17250.026    1269.3251   -18519.351    52.641875    239.77043 
   17050    90.432765   -789.84551    73906.512   -17232.184    1222.7373   -18454.921    52.853746    230.97017 
   17100    92.361973   -742.23921    73884.191   -17239.704     1248.822   -18488.526    53.044946    235.89747 
   17150    94.256136   -671.34584    73866.145   -17230.531    1274.4329   -18504.964    53.622786    240.73527 
   17200    89.932238   -869.97582    73878.324   -17211.037    1215.9697   -18427.006    53.736985     229.6918 
   17250    92.174321   -856.97837    73945.092   -17219.544    1246.2848   -18465.828    53.777017     235.4182 
   17300    92.681776   -882.31009    73954.406   -17240.427    1253.1461   -18493.573    53.873781    236.71426 
   17350    92.185482   -1267.0643    73872.077   -17267.437    1246.4357   -18513.873    53.953978     235.4467 
   17400     96.46299   -921.40429    73850.168   -17215.552    1304.2717   -18519.824    53.865308    246.37169 
   17450    93.969996   -1248.2466     73810.44   -17225.232     1270.564   -18495.796    54.137879    240.00445 
   17500     91.99525    -837.8291    73697.385   -17212.003    1243.8636   -18455.866    54.321577    234.96084 
   17550    94.637792   -840.61227    73684.697   -17159.698    1279.5933   -18439.291    54.566953    241.71004 
   17600    96.302889    -969.5073    73683.538   -17167.846     1302.107   -18469.953    55.049422    245.96278 
   17650    92.640921   -976.72483    73706.655    -17211.96    1252.5937   -18464.553    55.214677    236.60992 
   17700    96.219839   -1056.2822    73681.887    -17187.25    1300.9841   -18488.234    55.684948    245.75067 
   17750    93.063983   -770.25767    73624.954   -17198.208    1258.3139   -18456.522    55.977365    237.69044 
   17800    96.412834   -830.70243    73625.206   -17187.817    1303.5935    -18491.41    56.122087    246.24359 
   17850    93.670991   -806.20883    73568.104   -17196.106    1266.5212   -18462.627    56.351144    239.24078 
   17900    95.709171   -757.55456    73579.585   -17193.062    1294.0793   -18487.141    56.206488     244.4464 
   17950     93.41973   -511.78031     73602.34   -17195.135    1263.1239   -18458.259      56.0728    238.59904 
   18000    93.868132   -1051.1137    73622.131   -17203.013    1269.1867   -18472.199    56.050933    239.74428 
   18050     93.61252   -823.63337    73624.647   -17175.119    1265.7306    -18440.85    56.026048    239.09144 
   18100    94.861093   -925.10759    73597.948   -17153.459    1282.6125   -18436.072    55.741682    242.28036 
   18150    93.699887   -821.53441    73551.414   -17145.037    1266.9119   -18411.949    55.829228    239.31458 
   18200    93.488456   -879.70742    73500.716   -17151.261    1264.0532   -18415.314    55.752189    238.77457 
   18250    95.643789   -880.72166    73490.286   -17145.481    1293.1953   -18438.676    55.721097    244.27941 
   18300    94.822124   -1318.7921    73474.231   -17179.071    1282.0856   -18461.156    55.754031    242.18083 
   18350    94.818902   -1032.7482    73413.004   -17178.093     1282.042   -18460.135    56.146863     242.1726 
   18400    94.141313   -1057.0482    73414.573    -17178.44    1272.8804   -18451.321    56.309813      240.442 
   18450    96.483889   -970.87729     73376.14   -17166.628    1304.5543   -18471.182    56.432519    246.42507 
   18500    93.648502   -512.96118    73388.768    -17177.38    1266.2171   -18443.598    56.642778    239.18334 
   18550    94.489787   -1214.8815    73392.167   -17170.781    1277.5921   -18448.374    56.994908    241.33202 
   18600    92.900157   -670.40496    73385.076   -17179.079    1256.0988   -18435.177    57.510211    237.27202 
   18650    93.606583   -568.62751    73443.596   -17226.251    1265.6503   -18491.901    57.731115    239.07627 
   18700    91.086666   -580.35147    73523.142   -17244.622    1231.5787   -18476.201    57.816983    232.64027 
   18750    92.553022    -669.3504    73549.602   -17218.991    1251.4052   -18470.396     57.99858    236.38542 
   18800    92.037939   -1006.6926    73594.416   -17228.022    1244.4408   -18472.463    58.036537    235.06987 
   18850    93.920312   -847.37116     73581.88   -17224.048    1269.8923    -18493.94    58.197989    239.87755 
   18900    93.036193   -605.20657    73545.982   -17225.384    1257.9381   -18483.322    58.186327    237.61947 
   18950    93.308852   -941.81185    73562.708    -17219.13    1261.6247   -18480.755    58.245788    238.31585 
   19000    93.428119   -640.75859     73605.69   -17167.238    1263.2373   -18430.476    58.430965    238.62047 
   19050    93.050518   -1038.6558    73670.977   -17166.248    1258.1318    -18424.38    58.493439    237.65605 
   19100    92.803779   -784.55981    73675.394   -17207.377    1254.7957   -18462.173    58.683009    237.02587 
   19150    95.161345   -925.31521    73746.676   -17181.232    1286.6722   -18467.905    58.888362    243.04722 
   19200    95.264962   -1148.2987    73770.752   -17148.174    1288.0732   -18436.247    58.893067    243.31186 
   19250    95.434907   -779.47403    73708.915    -17111.65     1290.371   -18402.021    59.194638    243.74591 
   19300    96.964229   -836.87993    73705.225   -17079.744    1311.0489   -18390.793    59.254787    247.65188 
   19350    96.741869   -960.61294    73697.996   -17093.829    1308.0424   -18401.871    59.727626    247.08396 
   19400    98.139164   -1284.9328    73673.328   -17087.489    1326.9352   -18414.425    60.451983    250.65273 
   19450     97.19649   -997.18535    73702.649   -17094.015    1314.1893   -18408.204    60.902628    248.24509 
   19500    95.503057   -1193.5172    73718.293   -17125.851    1291.2925   -18417.143    61.099079    243.91997 
   19550    93.934438   -1310.5697    73653.789   -17139.909    1270.0833   -18409.992     61.72164    239.91363 
   19600    95.446354   -1223.2086    73568.439   -17149.555    1290.5258   -18440.081    61.907582    243.77515 
   19650    95.472747   -1456.0667     73467.67   -17182.086    1290.8827   -18472.969    61.829608    243.84256 
   19700    92.170459   -839.82949    73385.135   -17192.571    1246.2326   -18438.804    62.193498    235.40834 
   19750    94.206532   -671.60091    73436.008   -17198.003    1273.7622   -18471.765    62.281562    240.60858 
   19800    96.263783   -885.11555    73453.341   -17217.767    1301.5782   -18519.346     62.42373    245.86291 
   19850    90.080137   -637.23083    73497.478   -17239.125    1217.9694   -18457.095    62.636932    230.06954 
   19900    94.208992   -824.64118    73497.119   -17224.434    1273.7955   -18498.229    62.851412    240.61486 
   19950    92.759589   -953.70309    73517.171   -17259.933    1254.1982   -18514.132    63.025018      236.913 
   20000    93.379423   -971.83845    73481.956   -17277.271    1262.5789    -18539.85    63.437061    238.49609 
   20050    90.650001   -1021.1463    73538.614    -17250.75    1225.6745   -18476.425    63.507631      231.525 
   20100    95.040609    -1179.453     73466.02   -17207.703    1285.0397   -18492.743    63.860969    242.73885 
   20150    95.031669   -955.36731    73504.906   -17217.593    1284.9189   -18502.512    64.365954    242.71602 
   20200    94.310284   -828.74299    73537.525   -17243.617     1275.165   -18518.782    64.557194    240.87356 
   20250    90.536267   -992.53184    73559.529   -17251.947    1224.1367   -18476.083    64.776264    231.23452 
   20300    92.891695   -775.07626    73568.574   -17250.015    1255.9844       -18506    65.135694    237.25041 
   20350     95.18115   -627.59398    73590.423   -17222.898      1286.94   -18509.838    65.229362     243.0978 
   20400    91.876956   -701.65061    73626.097   -17229.664    1242.2641   -18471.928    65.425608    234.65871 
   20450    94.991415   -855.18532    73632.522   -17229.604    1284.3746   -18513.979    65.698746    242.61321 
   20500    91.932899   -1010.8512    73631.487   -17217.672    1243.0205   -18460.693    65.786396    234.80159 
   20550    90.970063   -888.43442    73595.987   -17209.764    1230.0021   -18439.766     66.08608    232.34246 
   20600     95.34643   -699.59872     73565.68   -17185.317    1289.1747   -18474.492     66.56776    243.51994 
   20650    92.739642   -908.29016    73594.385    -17169.93    1253.9285   -18423.858    67.028333    236.86206 
   20700    96.438138   -705.27385    73668.246   -17136.744    1303.9357    -18440.68    67.053773    246.30822 
   20750    94.005419    -1084.952    73655.387   -17150.916     1271.043   -18421.959    67.360711    240.09492 
   20800    93.447908   -777.75514    73616.832   -17154.674    1263.5049   -18418.179    67.154525    238.67101 
   20850     93.96342   -786.27226    73657.497   -17162.034    1270.4751    -18432.51    67.365719    239.98765 
   20900    94.357729   -677.87309    73693.037   -17180.285    1275.8066   -18456.092     67.57395    240.99474 
   20950    92.032061   -915.31431    73651.016   -17189.979    1244.3613    -18434.34    67.625915    235.05486 
   21000    93.015349   -921.07897    73629.992   -17204.971    1257.6563   -18462.628    67.748941    237.56623 
   21050    95.915758   -945.42706     73608.16   -17184.539    1296.8726   -18481.412    67.621672    244.97403 
   21100    93.454736   -896.56313    73569.311   -17197.065    1263.5972   -18460.662    67.393294    238.68845 
   21150    92.589067   -1179.7369    73497.826    -17236.32    1251.8926   -18488.212    67.450047    236.47748 
   21200     93.49589   -1044.0055     73467.41   -17262.775    1264.1537   -18526.928    67.767001    238.79356 
   21250     90.81481   -1401.4429    73429.635   -17231.986    1227.9029   -18459.889    67.747207    231.94593 
   21300    92.709746   -761.63261    73445.299   -17219.458    1253.5242   -18472.982    67.895096     236.7857 
   21350    95.671954   -851.80975    73503.652   -17190.351    1293.5761   -18483.927    67.871796    244.35134 
   21400    93.706493   -862.08755    73540.196   -17180.409    1267.0012   -18447.411    68.472697    239.33145 
   21450    96.006554   -693.92749    73601.417   -17155.622    1298.1002   -18453.723    68.757767    245.20593 
   21500    93.543727   -815.65304    73637.118   -17156.559    1264.8005    -18421.36    69.235724    238.91573 
   21550    93.313536   -876.24879    73687.591   -17142.935    1261.6881   -18404.624    69.403484    238.32781 
   21600    93.074131   -1339.0516    73719.408   -17150.906    1258.4511   -18409.357    69.857056    237.71636 
   21650    95.806448   -819.39273    73741.631   -17138.854    1295.3946   -18434.248    70.012054    244.69485 
   21700     92.47881   -740.02241    73796.809   -17172.748    1250.4018    -18423.15    70.347989    236.19588 
   21750    96.546333    -758.4547     73828.84    -17146.07    1305.3986   -18451.468    70.579694    246.58455 
   21800    97.028703   -1116.2703      73866.2   -17134.226    1311.9207   -18446.146    70.534296    247.81655 
   21850    97.998363   -1012.3701    73837.411   -17149.789    1325.0314   -18474.821    70.940224    250.29312 
   21900    96.206391   -1038.8984     73809.81   -17144.784    1300.8022   -18445.586    71.251392    245.71632 
   21950    94.138697   -526.63019     73808.45   -17183.947     1272.845   -18456.792    71.454063    240.43532 
   22000     94.83308   -1035.4232    73822.991   -17154.989    1282.2338   -18437.223     71.76223    242.20881 
   22050    97.138704   -866.85426    73746.181   -17182.006     1313.408   -18495.414    71.716876     248.0975 
   22100    94.333643   -1049.4499     73694.68   -17209.436    1275.4809   -18484.917    71.871522    240.93322 
   22150    96.662256   -754.63605    73712.672   -17196.924    1306.9659    -18503.89    71.963817    246.88063 
   22200    97.848573   -896.95702    73742.528   -17165.164    1323.0061    -18488.17    72.401071    249.91054 
   22250    91.952845   -710.51836      73776.1   -17218.651    1243.2902   -18461.941    72.231087    234.85254 
   22300    94.043623   -752.78053    73750.414   -17185.683    1271.5595   -18457.242    72.304669     240.1925 
   22350    94.958243   -917.20024    73776.012   -17212.109    1283.9261   -18496.035     72.49774    242.52849 
   22400    92.738761   -945.13163    73732.652   -17197.023    1253.9166    -18450.94    72.364995    236.85981 
   22450    97.113412   -804.37586      73735.6   -17173.731     1313.066   -18486.797    72.138575     248.0329 
   22500    97.078635    -929.2357    73808.028   -17173.914    1312.5958    -18486.51    72.353734    247.94408 
   22550     93.04354   -747.19027    73754.913   -17160.849    1258.0375   -18418.886     72.74969    237.63823 
   22600    92.897554   -900.88475    73749.386   -17155.463    1256.0636   -18411.527     72.95436    237.26537 
   22650     98.54413   -1170.5962    73720.517   -17136.935    1332.4107   -18469.346    73.188011    251.68704 
   22700    96.371337   -940.42527    73679.021   -17109.041    1303.0325   -18412.074    73.490524     246.1376 
   22750    92.667602   -884.20122    73705.251   -17147.114    1252.9544   -18400.068    73.907161    236.67806 
   22800    98.296428   -721.34113     73737.12   -17165.491    1329.0615   -18494.552    74.445662    251.05439 
   22850    95.721701   -818.75304    73738.406    -17165.42    1294.2487   -18459.668    75.108426     244.4784 
   22900    97.623883   -957.24939    73748.856   -17136.976    1319.9681   -18456.944    75.779273    249.33668 
   22950    93.649435   -557.44181     73797.91   -17176.639    1266.2297   -18442.868    76.231334    239.18572 
   23000    94.360642   -685.40207    73837.194   -17173.555    1275.8459   -18449.401    76.750879    241.00218 
   23050    94.659438    -431.0652     73851.23   -17175.714    1279.8859     -18455.6    77.003517    241.76532 
   23100    96.072186   -963.46858    73874.475   -17173.304    1298.9876   -18472.291    76.763381    245.37356 
   23150    95.815867   -803.63669     73920.25   -17198.414     1295.522   -18493.936    76.788557     244.7189 
   23200    92.760797   -1069.7502    73981.245   -17224.682    1254.2145   -18478.897    76.568924    236.91609 
   23250    94.419798   -901.82401     74056.56   -17238.242    1276.6458   -18514.887    76.749978    241.15327 
   23300    96.621026   -497.95388    74085.338   -17215.815    1306.4085   -18522.224    77.149781    246.77532 
   23350    95.113006   -944.74878     74120.64    -17227.43    1286.0186   -18513.449    77.210722    242.92376 
   23400    93.106066   -971.74458    74123.868   -17249.865    1258.8829   -18508.748     77.11695    237.79792 
   23450     94.45625   -829.30096     74109.56   -17243.944    1277.1386   -18521.083    77.351099    241.24637 
   23500    95.371788   -1196.0995    74085.076   -17211.225    1289.5176   -18500.742    77.408188     243.5847 
   23550    96.364188   -1103.0562    74038.807   -17188.474    1302.9358    -18491.41    77.459145    246.11935 
   23600    93.923644   -769.61976    74010.144   -17187.431    1269.9373   -18457.368    78.102053    239.88606 
   23650    94.514818   -990.89449    73999.108   -17190.136    1277.9305   -18468.066     78.37357    241.39595 
   23700    94.371686   -961.94284    74036.115   -17171.636    1275.9953   -18447.631    78.516872    241.03039 
   23750    98.532574   -903.36949    74075.699    -17140.06    1332.2544   -18472.314    78.196146    251.65752 
   23800    96.076733   -814.10833    74035.731   -17158.413    1299.0491   -18457.462    78.158392    245.38517 
   23850    97.513004   -628.37492     74066.99   -17150.219    1318.4689   -18468.688    78.401015    249.05348 
   23900    95.559087   -863.97393    74020.697   -17166.659    1292.0501   -18458.709    78.721909    244.06307 
   23950    94.231804   -518.17996    73965.347   -17173.599    1274.1039   -18447.703    78.830376    240.67312 
   24000    94.860613   -953.74091    73972.921   -17160.267     1282.606   -18442.873     78.94739    242.27913 
   24050    94.726571   -633.66415    74021.228   -17164.338    1280.7936   -18445.131    79.210782    241.93678 
   24100    94.754064   -1064.5327    74025.528   -17185.142    1281.1654   -18466.307    79.496385      242.007 
   24150    92.953091   -816.87243    74047.735   -17226.517    1256.8145   -18483.332    79.675132    237.40722 
   24200    92.181473   -824.19323    74000.925   -17236.869    1246.3815    -18483.25    79.795709    235.43646 
   24250    94.349958    -713.8226    73974.726   -17238.453    1275.7015   -18514.155    79.977544    240.97489 
   24300    92.326018   -1059.3843     74005.77    -17230.51    1248.3359   -18478.846    80.095216    235.80564 
   24350    96.752268   -986.02725    74037.682   -17189.749     1308.183   -18497.932    80.019269    247.11052 
   24400    95.430296   -653.51657     74086.88   -17197.567    1290.3087   -18487.876    80.340727    243.73414 
   24450     99.07242   -903.42453    74138.893   -17146.692    1339.5537   -18486.246    80.330504    253.03632 
   24500    95.959953   -1054.6145    74072.049   -17159.321    1297.4702   -18456.791    80.543168    245.08691 
   24550    97.062882   -558.91832    74036.296   -17163.328    1312.3828   -18475.711    80.612237    247.90385 
   24600    96.663101   -855.85568    74036.262   -17158.161    1306.9774   -18465.138    80.592989    246.88278 
   24650    94.609827   -859.85966    74059.375   -17168.632    1279.2152   -18447.847    80.748547    241.63861 
   24700    96.566478   -1012.7631    74019.102   -17126.888    1305.6709   -18432.559    81.127316      246.636 
   24750    94.362764   -948.75354    74025.383   -17137.535    1275.8746    -18413.41    81.311974     241.0076 
   24800    97.368127   -736.97894    74014.419   -17171.075      1316.51   -18487.585    81.214135    248.68346 
   24850    92.596445     -785.599     73974.67   -17172.455    1251.9923   -18424.447    81.498661    236.49633 
   24900    93.705404   -958.56761    73950.692   -17204.751    1266.9865   -18471.737    81.795092    239.32867 
   24950    95.010077   -1065.4876    73942.917   -17201.077    1284.6269   -18485.704     81.95737    242.66087 
   25000    95.409769   -990.88497    73916.877   -17175.824    1290.0311   -18465.855     82.32874    243.68171 
   25050    94.333021    -969.3025    73865.595   -17160.608    1275.4725    -18436.08    82.348155    240.93163 
   25100    96.747881   -919.92447    73910.687   -17152.495    1308.1237   -18460.619    82.408339    247.09932 
   25150     97.88411   -800.96381     73940.79   -17127.889    1323.4866   -18451.376    82.312006    250.00131 
   25200    96.652403   -1150.8711    73902.493    -17129.95    1306.8327   -18436.783    82.298597    246.85546 
   25250    96.609686   -879.69944    73916.475   -17159.213    1306.2552   -18465.468    82.305333    246.74636 
   25300    91.496024   -1296.5553      73875.8   -17170.736    1237.1136    -18407.85    82.495838    233.68579 
   25350    94.536925   -914.74615    73848.915    -17147.43    1278.2294    -18425.66    82.978994    241.45242 
   25400    96.829612   -788.35599    73799.802   -17135.752    1309.2288   -18444.981    83.122592    247.30806 
   25450    94.972877   -1160.1054    73799.127   -17118.625    1284.1239   -18402.749    83.541742    242.56586 
   25500    97.532286     -746.656    73757.602   -17110.138    1318.7296   -18428.867    84.238019    249.10273 
   25550    95.762807   -884.68807      73783.1   -17149.008    1294.8045   -18443.812    84.837732    244.58339 
   25600     92.80273   -1105.3742    73748.896   -17166.658    1254.7815   -18421.439    84.748072    237.02319 
   25650    94.309029   -1122.0143    73677.215   -17201.207    1275.1481   -18476.355    84.532233    240.87036 
   25700    93.485933   -746.93181    73631.926   -17189.846     1264.019   -18453.866    84.552445    238.76813 
   25750    95.567602   -843.95082    73656.775   -17176.078    1292.1652   -18468.243    84.754342    244.08482 
   25800    95.643102   -1066.2345    73688.304   -17165.264     1293.186    -18458.45    84.829748    244.27765 
   25850    95.577736   -817.25985    73666.752   -17165.876    1292.3022   -18458.178     84.60814     244.1107 
   25900    93.975838   -610.02984    73646.834   -17163.255     1270.643   -18433.898    84.845335    240.01937 
   25950    94.009381    -1205.788     73639.71   -17159.567    1271.0965   -18430.663    85.186731    240.10504 
   26000    95.054555   -1048.5235    73612.597    -17145.92    1285.2283   -18431.149     85.19486    242.77447 
   26050    94.086304   -733.25848    73590.496   -17160.178    1272.1366   -18432.315     85.09231    240.30151 
   26100    95.390975   -704.73774    73553.243   -17166.278     1289.777   -18456.055    84.949154    243.63371 
   26150    93.951828    -499.7576    73620.226   -17189.916    1270.3184   -18460.234    84.922131    239.95805 
   26200    93.838094   -704.87903     73624.99   -17192.488    1268.7806   -18461.269    85.305848    239.66756 
   26250    92.027819   -1073.1434    73576.775   -17193.864    1244.3039   -18438.168    85.292253    235.04402 
   26300    92.420046   -808.77748     73514.88   -17169.613    1249.6072    -18419.22    85.427941    236.04579 
   26350    92.986709    -938.0636    73508.567   -17199.213    1257.2691   -18456.482    85.596491    237.49308 
   26400    92.514798   -1054.2244    73462.791   -17225.381    1250.8884   -18476.269    86.021619    236.28779 
   26450    95.050699   -1009.4046    73423.512   -17224.485    1285.1762   -18509.661    86.204503    242.76462 
   26500     92.13903   -881.65944    73382.172   -17219.866    1245.8076   -18465.673    86.381218    235.32806 
   26550    93.412428   -559.55713    73417.943   -17192.528    1263.0252   -18455.554     86.82918    238.58039 
   26600     95.86278   -880.73182    73447.055   -17182.104    1296.1563    -18478.26    86.781007    244.83872 
   26650    92.986965   -586.99291    73536.082   -17202.512    1257.2725   -18459.784     87.07862    237.49373 
   26700    95.376086   -1074.7602    73587.461   -17187.947    1289.5757   -18477.523    87.426562    243.59568 
   26750    95.117812   -857.97542    73638.221   -17191.485    1286.0836   -18477.568    87.522389    242.93603 
   26800    92.770405   -1197.1239    73667.254   -17220.696    1254.3444   -18475.041    87.491207    236.94063 
   26850    94.195734   -975.62393     73684.08   -17190.601    1273.6162   -18464.217    87.583098      240.581 
   26900    95.987421   -830.05513    73778.901   -17197.794    1297.8415   -18495.635     87.95054    245.15706 
   26950    95.001413   -917.69701    73825.746   -17192.858    1284.5098   -18477.367    88.172245    242.63874 
   27000    96.630292   -878.94103    73856.158   -17141.506    1306.5338    -18448.04    88.113692    246.79899 
   27050    95.987333   -837.91561    73861.188   -17154.795    1297.8404   -18452.636    88.412246    245.15684 
   27100    97.043502   -894.86981    73813.951    -17167.25    1312.1208   -18479.371    88.716007    247.85435 
   27150    92.809126    -1169.636    73801.568   -17167.591     1254.868   -18422.459    88.958284    237.03952 
   27200    92.859332   -1123.6221    73795.687    -17202.79    1255.5468   -18458.337    89.097443    237.16775 
   27250    95.348877   -1284.8028    73745.784    -17181.36    1289.2078   -18470.568    89.304767    243.52619 
   27300    93.207634   -903.66005    73736.133   -17174.031    1260.2562   -18434.287     89.28522    238.05733 
   27350    94.621212    -1241.247    73739.488   -17196.482    1279.3691   -18475.851    89.429945    241.66769 
   27400    93.162461   -868.68931    73755.687   -17221.966    1259.6454   -18481.611    89.612643    237.94196 
   27450    93.424328   -896.16599    73712.006   -17218.729    1263.1861   -18481.915    89.462097    238.61078 
   27500    95.331598   -1150.9312    73649.505   -17219.548    1288.9742   -18508.523    89.657782    243.48205 
   27550    93.662139   -977.43655    73611.431   -17204.617    1266.4015   -18471.019    89.811608    239.21817 
   27600    94.243795   -864.40054    73585.168    -17241.15    1274.2661   -18515.416    90.199063    240.70375 
   27650    90.217857   -1144.5781    73551.854   -17261.859    1219.8315    -18481.69    90.781328    230.42128 
   27700    92.853467   -549.56717    73541.866   -17239.689    1255.4675   -18495.157    90.855178    237.15277 
   27750    90.931944   -977.99941     73509.71   -17249.358    1229.4867   -18478.844    91.122773     232.2451 
   27800    92.198294    -762.0254    73531.995   -17266.688    1246.6089   -18513.297    90.993267    235.47943 
   27850     96.09956   -1073.8532    73501.379   -17237.292    1299.3578   -18536.649    91.284445    245.44347 
   27900    92.771788      -1066.9    73449.777   -17217.567    1254.3631    -18471.93    91.636194    236.94416 
   27950    94.538682   -845.63446    73461.739   -17215.383    1278.2532   -18493.636    92.044042     241.4569 
   28000    95.213505   -1079.4486    73457.151   -17204.717    1287.3775   -18492.095     92.60292    243.18044 
   28050    95.939712   -906.14046    73411.597   -17182.661    1297.1965   -18479.857    93.043854    245.03521 
   28100    92.450831   -759.80147    73392.897   -17202.454    1250.0235   -18452.478    93.224709    236.12442 
   28150    94.356049   -1118.3227    73379.304   -17187.422    1275.7838   -18463.206    93.234434    240.99045 
   28200    96.462613   -854.29102    73350.785   -17181.707    1304.2666   -18485.974    93.211874    246.37073 
   28250    92.672301   -886.64025    73345.105   -17185.025     1253.018   -18438.043    93.330915    236.69007 
   28300    95.331066   -912.34357    73344.616   -17161.348     1288.967   -18450.315    93.924243    243.48069 
   28350    92.742355   -900.34381    73320.873    -17173.51    1253.9652   -18427.475    93.834549    236.86899 
   28400     93.40481   -778.40158    73312.382    -17163.43    1262.9222   -18426.352    94.040033    238.56093 
   28450    91.134911   -807.89735    73282.424   -17166.946     1232.231   -18399.177    94.220177    232.76349 
   28500    95.475747   -713.64549    73275.692   -17170.618    1290.9232   -18461.541    93.895116    243.85022 
   28550    93.774986   -909.65083    73279.837   -17165.102    1267.9273   -18433.029    94.184382    239.50638 
   28600    96.162315   -1008.6251    73251.454   -17166.075    1300.2063   -18466.281    94.161926    245.60375 
   28650    91.834852   -869.72483    73294.375   -17203.084    1241.6948   -18444.779    94.354904    234.55118 
   28700    93.452908   -920.88342    73211.634   -17176.854    1263.5725   -18440.426    94.918043    238.68378 
   28750    94.208762    -690.9645    73196.753   -17154.757    1273.7924   -18428.549    95.730764    240.61427 
   28800    96.234504    -975.1943    73248.065   -17147.195    1301.1823   -18448.378    95.768541    245.78813 
   28850    94.666139   -1019.7752    73302.776   -17154.857    1279.9765   -18434.833    96.010116    241.78244 
   28900    92.745879   -974.28801    73378.749   -17153.749    1254.0128   -18407.761    96.233495    236.87799 
   28950     94.50957   -938.65814    73322.871   -17158.811    1277.8596   -18436.671    96.312505    241.38255 
   29000    91.136457   -878.44374    73282.251   -17159.031    1232.2519   -18391.283    96.566531    232.76744 
   29050    93.852499   -949.67975    73338.333   -17119.285    1268.9754    -18388.26    96.590583    239.70436 
   29100    95.795916   -1131.3076    73328.016   -17137.483    1295.2522   -18432.735    96.304625    244.66795 
   29150     94.69923   -976.79887    73347.268   -17165.493     1280.424   -18445.917     96.06274    241.86695 
   29200    93.379401    -851.2219    73317.069   -17177.226    1262.5786   -18439.804    96.085739    238.49604 
   29250    93.803808   -922.12117    73375.223   -17197.672     1268.317   -18465.989    95.956896       239.58 
   29300    92.633673    -922.6717    73346.989   -17195.505    1252.4957   -18448.001    95.871005    236.59141 
   29350    95.805895   -993.06284    73350.171   -17199.093    1295.3871    -18494.48    96.157893    244.69343 
   29400    93.733785   -494.13468     73376.39   -17179.678    1267.3702   -18447.048    96.399587    239.40115 
   29450    94.389849   -912.36063    73392.397   -17178.071    1276.2408   -18454.312    96.647176    241.07678 
   29500    95.256208   -1002.0355    73412.088   -17160.639    1287.9548   -18448.594    96.974116     243.2895 
   29550    92.587072   -946.53873    73466.239   -17173.222    1251.8656   -18425.088    97.273579    236.47239 
   29600    95.743623   -659.03282    73524.328   -17168.677    1294.5452   -18463.223    97.285499    244.53439 
   29650    94.793713    -656.9656    73598.274   -17151.674    1281.7015   -18433.375    97.507683    242.10827 
   29700    97.158103   -814.65929    73666.269   -17154.782    1313.6703   -18468.452    97.539875    248.14705 
   29750    96.599459    -757.7464    73696.557   -17143.684    1306.1169   -18449.801    97.463154    246.72024 
   29800    96.163645    -842.5939    73654.099   -17131.776    1300.2243       -18432    97.607563    245.60715 
   29850    94.290827   -1060.5221    73629.262   -17169.877     1274.902   -18444.779    98.148518    240.82387 
   29900    97.965592   -789.62349    73584.216   -17199.001    1324.5883   -18523.589    98.555675    250.20942 
   29950    94.336543   -866.89153    73505.957   -17185.164    1275.5201   -18460.684    99.169537    240.94063 
   30000    93.717344   -801.64366     73508.28   -17209.028    1267.1479   -18476.175    99.289219    239.35916 
   30050    94.177946   -1002.0545    73498.613   -17195.874    1273.3757   -18469.249    99.660916    240.53556 
   30100    95.946297    -1123.295    73503.429   -17189.279    1297.2855   -18486.565    99.664272    245.05203 
   30150    95.388439    -814.1774    73539.284   -17149.108    1289.7427   -18438.851    99.686294    243.62723 
   30200    94.389314   -1009.3832     73502.22   -17188.274    1276.2336   -18464.508     99.73836    241.07541 
   30250     96.67511   -721.65022    73471.634   -17189.416    1307.1397   -18496.555    99.893193    246.91346 
   30300    96.940245   -1107.8143    73441.661   -17190.277    1310.7246   -18501.002    100.48965    247.59063 
   30350    93.418567   -803.80088     73444.82   -17218.768    1263.1082   -18481.876    100.67952    238.59607 
   30400    92.846225   -788.40762    73460.799   -17225.492    1255.3696   -18480.861    100.80589    237.13428 
   30450    93.976445   -741.90731    73464.117   -17210.904    1270.6512   -18481.555    100.91436    240.02092 
   30500    94.765091   -1031.5872    73453.662   -17250.175    1281.3145   -18531.489     101.3364    242.03517 
   30550    95.943781   -675.95345    73425.577   -17229.329    1297.2515   -18526.581    101.54896     245.0456 
   30600    94.135681   -792.85372    73520.033   -17247.231    1272.8042   -18520.036    101.66152    240.42762 
   30650    94.479269   -787.35812    73555.169   -17247.815    1277.4499   -18525.265    101.78273    241.30516 
   30700    92.225313   -1179.9362    73506.869   -17257.454    1246.9743   -18504.429    101.81062    235.54844 
   30750    95.126125   -889.71102    73468.295   -17229.356     1286.196   -18515.552    101.52868    242.95726 
   30800    89.502915   -1008.1752    73448.621   -17222.442    1210.1648   -18432.607     101.7778    228.59528 
   30850    94.751215   -924.87318    73487.855   -17207.983    1281.1269    -18489.11    101.83786    241.99973 
   30900    91.626279   -839.66948    73454.752   -17194.326    1238.8747   -18433.201    102.11574    234.01847 
   30950    96.754299   -578.61054    73443.123   -17169.272    1308.2105   -18477.483    102.44203    247.11571 
   31000    92.303831   -679.02966    73412.416   -17180.682    1248.0359   -18428.717    102.56508    235.74897 
   31050    92.732265   -860.71147    73386.489   -17193.094    1253.8287   -18446.923    102.71324    236.84322 
   31100    94.022887   -682.16459    73393.012    -17160.78    1271.2792   -18432.059    103.10317    240.13954 
   31150    94.636027   -1103.6937    73364.818   -17156.797    1279.5694   -18436.366    103.92487    241.70553 
   31200    95.229865   -675.79496    73387.507   -17147.544    1287.5987   -18435.143    103.96048    243.22222 
   31250    94.135211   -1201.8658    73439.447   -17131.262    1272.7979    -18404.06    104.13559    240.42642 
   31300    95.227706   -675.40799    73479.189   -17137.936    1287.5695   -18425.505    104.22546    243.21671 
   31350    92.015128   -754.36046    73482.694    -17161.83    1244.1323   -18405.962     104.4165    235.01161 
   31400    95.023592   -762.68345     73493.44   -17160.306    1284.8097   -18445.116    104.92714    242.69539 
   31450     94.83038   -833.78536    73495.863   -17177.299    1282.1972   -18459.497    105.46298    242.20192 
   31500    91.766585   -976.63767    73546.764   -17225.071    1240.7718   -18465.842    105.66038    234.37682 
   31550    92.104985   -835.95767    73505.109   -17219.506    1245.3473   -18464.853    106.01553    235.24111 
   31600    91.895727    -400.1034    73563.844   -17225.728    1242.5179   -18468.246     106.1443    234.70665 
   31650    92.011816   -707.71155    73607.837   -17203.243    1244.0876    -18447.33    106.03717    235.00315 
   31700    93.199743   -835.36623    73641.832   -17199.692    1260.1495   -18459.841    106.08417    238.03718 
   31750    94.186769   -1016.7158    73631.649   -17194.024     1273.495   -18467.519    106.36905     240.5581 
   31800    93.570513    -993.7389    73621.466   -17217.334    1265.1626   -18482.496    106.57383    238.98415 
   31850     90.73302   -1007.9983    73602.085   -17223.579     1226.797   -18450.376    106.82936    231.73704 
   31900    95.654935   -898.51396    73535.454   -17215.848     1293.346   -18509.194    106.52485    244.30787 
   31950    94.047855   -807.89931    73509.298   -17176.177    1271.6168   -18447.794    106.85793    240.20331 
   32000    95.247826   -822.80716    73581.285   -17189.645    1287.8415   -18477.487    107.35824     243.2681 
   32050    89.849698   -780.60644    73653.535   -17237.023    1214.8537   -18451.877    107.50497    229.48098 
   32100    93.335947   -881.46226    73663.965   -17225.121    1261.9911   -18487.113    107.43307    238.38505 
   32150    92.205726   -654.92237    73694.648   -17230.174    1246.7094   -18476.883    107.80696    235.49841 
   32200    93.129639    -1045.581    73717.991   -17236.091    1259.2016   -18495.292    107.94357    237.85813 
   32250    92.529962      -926.26    73744.434   -17208.198    1251.0934   -18459.291     108.2194    236.32653 
   32300     92.83251    -858.5473    73758.139   -17228.873    1255.1841   -18484.057    108.09838    237.09925 
   32350    93.819292   -838.83936    73811.344   -17207.717    1268.5264   -18476.244    108.31308    239.61954 
   32400    93.965749   -521.26861    73870.541   -17235.019    1270.5066   -18505.526    108.37802     239.9936 
   32450    92.642547   -900.42843    73864.086   -17224.047    1252.6157   -18476.662    108.62588    236.61407 
   32500     94.79829   -521.66302    73923.992   -17180.385    1281.7634   -18462.148    108.52922    242.11996 
   32550    94.106198   -983.42435    73918.893   -17203.076    1272.4056   -18475.481    109.24184    240.35232 
   32600    97.056066   -635.74633    73955.139   -17155.819    1312.2906    -18468.11    109.79911    247.88644 
   32650    93.288203    -918.7821    74004.313   -17159.465    1261.3455   -18420.811    110.12873    238.26311 
   32700    94.569823   -1018.1768    74055.922   -17185.085    1278.6743   -18463.759    110.17243    241.53644 
   32750      92.2313   -857.58107    74021.603   -17194.063    1247.0552   -18441.118    110.20729    235.56373 
   32800    91.966377   -726.71819    73988.253   -17216.273    1243.4732   -18459.746    110.51217     234.8871 
   32850    95.665332   -763.85256    73971.784   -17188.028    1293.4866   -18481.515    110.75966    244.33443 
   32900    96.605744   -871.82334     73890.88   -17201.152    1306.2019   -18507.354    110.98013    246.73629 
   32950    96.560568   -554.24936     73836.08   -17201.293     1305.591   -18506.884    110.99032    246.62091 
   33000    95.619508   -629.69987    73913.559   -17214.869     1292.867   -18507.736    111.20078    244.21739 
   33050    95.344392   -679.30779    73969.221   -17236.916    1289.1472   -18526.063    111.48356    243.51473 
   33100     95.07539   -780.77892    73989.501   -17219.924      1285.51   -18505.434    111.71138    242.82769 
   33150    94.848584     -781.094    74003.884   -17231.347    1282.4434   -18513.791    112.00469    242.24841 
   33200    93.976581   -769.91922    73962.441   -17212.466    1270.6531   -18483.119    112.58885    240.02127 
   33250    92.387575   -641.25644    74026.363   -17213.865    1249.1682   -18463.033    113.05978    235.96286 
   33300    92.377324   -756.52288    74055.192   -17211.861    1249.0296   -18460.891    113.21071    235.93668 
   33350    94.850518   -909.01536    74040.707   -17186.745    1282.4695   -18469.215    113.30073    242.25335 
   33400    94.590834   -703.58845    74023.264   -17156.566    1278.9583   -18435.525    113.88324     241.5901 
   33450    93.918453   -771.24778    74054.679   -17138.296    1269.8671   -18408.163    114.41993     239.8728 
   33500    98.582647   -652.96783    74085.128   -17172.799    1332.9315    -18505.73    114.28758    251.78541 
   33550    95.697863   -803.71757    74203.864    -17191.96    1293.9264   -18485.886     114.5666    244.41752 
   33600    96.336419   -491.74302    74303.424   -17205.496    1302.5603   -18508.056    114.78103    246.04842 
   33650     96.24639   -823.95149     74423.39    -17250.65     1301.343   -18551.993    114.99219    245.81848 
   33700    95.756088   -874.71763    74473.263   -17228.866    1294.7137    -18523.58    115.02139    244.56623 
   33750     93.69245    -1130.689    74487.912   -17229.503    1266.8113   -18496.315    115.29915    239.29558 
   33800    95.127882   -893.41695    74502.269   -17249.367    1286.2198   -18535.587    115.59329    242.96175 
   33850     94.92235   -1126.1182     74485.17   -17266.216    1283.4408   -18549.656    115.81661    242.43681 
   33900    92.851334   -813.66938     74506.31    -17267.31    1255.4386   -18522.749    115.78734    237.14733 
   33950    93.081445   -1097.6183    74463.273   -17265.247      1258.55   -18523.797       115.75    237.73504 
[...]
   92000    94.068086   -727.52654    74137.659   -17210.842    1271.8903   -18482.732    290.13443    240.25498 
   92050      96.1659   -1000.8283    74104.356   -17206.997    1300.2547   -18507.252    290.62121    245.61291 
   92100    91.823115   -817.74728      74073.2   -17220.121    1241.5362   -18461.657    290.96617     234.5212 
   92150    91.106714   -960.73068    74115.697    -17220.57    1231.8497    -18452.42    290.73977    232.69147 
   92200    93.594706   -1396.3804    74097.843   -17201.276    1265.4898   -18466.766     291.0423    239.04594 
   92250    93.592208   -611.60119     74074.51   -17219.111     1265.456   -18484.567    291.22116    239.03956 
   92300    93.164502   -1036.9967    74087.013   -17233.858     1259.673   -18493.531    291.28307    237.94717 
   92350    95.194874   -1028.5473    74121.428   -17216.025    1287.1256   -18503.151    291.11839    243.13285 
   92400    93.633921    -974.6325    74175.236    -17236.33      1266.02    -18502.35     291.1278     239.1461 
   92450    93.229763   -1202.0585    74140.883   -17219.547    1260.5554   -18480.102    291.38464    238.11386 
   92500     92.65844   -900.25834     74085.87   -17216.449    1252.8305    -18469.28      291.114    236.65467 
   92550    94.861842   -872.22321    74065.715   -17199.801    1282.6226   -18482.424    290.50062    242.28227 
   92600    95.385839   -897.99806    74116.165   -17193.679    1289.7076   -18483.387    290.68878    243.62059 
   92650    94.669907   -1112.3223    74113.937   -17223.421    1280.0275   -18503.448    291.44975    241.79206 
   92700    95.622506   -954.66455     74128.33    -17193.83    1292.9075   -18486.737    290.98842    244.22505 
   92750    94.046877   -1053.8958    74142.756   -17214.899    1271.6035   -18486.502    290.58793    240.20081 
   92800    94.508239   -874.26492    74152.533   -17196.965    1277.8416   -18474.807    290.97538    241.37915 
   92850    96.045386    -701.8911    74207.516   -17207.335    1298.6253   -18505.961    290.93903    245.30511 
   92900     95.60538   -864.61191    74189.487   -17179.416     1292.676   -18472.092    290.98317    244.18131 
   92950    96.993399   -679.07364     74279.71   -17172.673    1311.4433   -18484.117    290.73161    247.72639 
   93000    95.981894   -641.83887    74320.252   -17172.473    1297.7668   -18470.239    290.79626    245.14295 
   93050    92.482949   -806.08222    74394.731   -17206.541    1250.4577   -18456.999    291.43469    236.20645 
   93100    94.694814   -688.31368    74441.348   -17176.844    1280.3643   -18457.208    292.01114    241.85567 
   93150    98.420808   -805.88352    74473.224   -17162.304    1330.7433   -18493.047    291.63824    251.37206 
   93200    97.299921   -847.10583    74473.288   -17161.466    1315.5878   -18477.054    292.04646    248.50926 
   93250    92.954061   -1133.1645    74473.833   -17186.648    1256.8276   -18443.476    292.98675     237.4097 
   93300    94.675486    -808.4513     74446.85   -17198.689    1280.1029   -18478.792    292.85344    241.80631 
   93350    92.159956   -1089.0115    74479.116   -17219.663    1246.0906   -18465.754    293.63032    235.38151 
   93400    91.977027   -728.71635    74510.047   -17226.796    1243.6172   -18470.413    294.28059     234.9143 
   93450    94.844993   -589.03816    74554.544   -17202.153    1282.3948   -18484.547    294.43631    242.23924 
   93500    95.250762   -1089.2264    74600.335   -17228.473    1287.8812   -18516.354    294.00444     243.2756 
   93550    92.270293   -1157.5546    74569.173   -17220.227    1247.5824   -18467.809    293.29625    235.66332 
   93600    94.456805   -632.74186    74497.738   -17222.776    1277.1462   -18499.922    293.50967    241.24779 
   93650    93.272638   -1182.0554    74451.737    -17234.21    1261.1351   -18495.345    293.13381    238.22336 
   93700     94.19942    -895.1559    74355.654   -17234.908    1273.6661   -18508.574    292.79419    240.59041 
   93750    93.928849     -985.564    74323.741   -17236.389    1270.0077   -18506.396    292.95718    239.89936 
   93800    91.995049   -868.71531    74311.516   -17251.693    1243.8609   -18495.554     292.9392    234.96033 
   93850    94.230094   -914.72861    74285.196   -17242.896    1274.0808   -18516.977    293.48831    240.66875 
   93900    96.407744   -631.49388    74310.219   -17224.716    1303.5247    -18528.24    293.67118    246.23059 
   93950    92.104924   -1169.2091     74320.79   -17221.034    1245.3465    -18466.38    294.49614    235.24096 
   94000      93.9474   -1384.0955    74246.347   -17254.062    1270.2585    -18524.32    294.66366    239.94674 
   94050    94.291713   -844.31796    74255.129   -17227.008    1274.9139   -18501.922    295.19283    240.82613 
   94100     93.05049   -690.98302    74289.511   -17241.272    1258.1314   -18499.403    295.19459    237.65598 
   94150    92.505962   -913.56841    74323.247   -17233.497    1250.7689   -18484.265    295.23764    236.26523 
   94200    94.320138   -659.02912    74348.763    -17214.42    1275.2983   -18489.718    295.35182    240.89873 
   94250    92.661875   -892.90605    74420.566   -17225.822     1252.877   -18478.699    295.43028    236.66344 
   94300    93.908256   -900.35918     74447.83   -17217.546    1269.7292   -18487.275     295.5154    239.84676 
   94350    96.818419   -1041.3411    74468.213    -17177.11    1309.0774   -18486.187    296.18125    247.27948 
   94400    95.013953   -694.20756    74454.195   -17174.075    1284.6793   -18458.754    295.69615    242.67077 
   94450    95.911278   -987.98714    74496.496   -17171.264     1296.812   -18468.076    296.12177    244.96259 
   94500    95.649187   -946.46911    74504.379   -17178.322    1293.2683    -18471.59    296.45914    244.29319 
   94550    94.781644    -1336.892    74493.505   -17206.531    1281.5383   -18488.069    296.52039    242.07744 
   94600    95.443429   -1264.1754    74404.846   -17223.615    1290.4863   -18514.102    296.57485    243.76768 
   94650    93.238499   -894.28281     74375.26    -17205.22    1260.6735   -18465.894    296.79548    238.13617 
   94700    96.784505   -1084.3526    74399.024   -17154.439    1308.6189   -18463.058    297.20812    247.19286 
   94750    94.987639   -1110.5896    74399.044    -17144.77    1284.3235   -18429.093    297.30865    242.60356 
   94800    96.407543   -849.14495    74376.381    -17150.94     1303.522   -18454.462    297.71169    246.23008 
   94850    95.677019   -1046.2764    74339.417    -17183.56    1293.6446   -18477.204    298.26965    244.36428 
   94900    92.658355   -945.59769    74390.346   -17208.869    1252.8294   -18461.698     299.2674    236.65445 
   94950    97.088429   -859.12407    74386.636   -17235.329    1312.7282   -18548.057    298.37904     247.9691 
   95000    92.256957   -1127.5757     74330.34   -17248.962    1247.4021   -18496.365    297.99901    235.62925 
   95050    92.614087    -1261.705    74244.487   -17263.154    1252.2308   -18515.385    297.98363    236.54138 
   95100    89.469085   -777.95926    74154.015    -17260.37    1209.7074   -18470.077    297.11222    228.50888 
   95150    91.446947   -819.46325    74180.205   -17259.792      1236.45   -18496.242    297.83055    233.56045 
   95200    95.237507   -688.62748    74194.414    -17229.69     1287.702   -18517.392    297.86708    243.24174 
   95250    95.712283   -916.86863    74219.687   -17238.966    1294.1214   -18533.087    298.22491    244.45434 
   95300    93.035547   -890.98366    74216.067   -17267.327    1257.9294   -18525.257    298.91205    237.61782 
   95350    93.478229   -1113.5418    74178.037   -17237.488    1263.9149   -18501.403    299.17589    238.74845 
   95400    91.848294   -1045.3738    74202.075   -17223.238    1241.8766   -18465.114    299.41665    234.58551 
   95450    92.570597    -1087.383    74202.889   -17258.948    1251.6428   -18510.591    299.74943    236.43031 
   95500    91.796353   -758.82176    74108.337   -17262.547    1241.1743   -18503.722    300.38631    234.45285 
   95550      90.5222   -923.88869    74115.965   -17296.831    1223.9465   -18520.777     300.9211    231.19859 
   95600    94.448827   -795.63378     74101.96   -17237.072    1277.0383   -18514.111    301.49594    241.22741 
   95650    95.812124   -682.24025    74121.843   -17218.661    1295.4714   -18514.132    301.67352    244.70934 
   95700    94.867736   -770.71583    74162.917   -17223.601    1282.7023   -18506.304    301.76962    242.29733 
   95750    93.466561   -683.28481     74182.97   -17220.049    1263.7571   -18483.806    301.91111    238.71865 
   95800    96.598508   -963.32972    74201.958   -17221.572     1306.104   -18527.676    301.15268    246.71781 
   95850    95.475733    -890.3666    74197.788    -17237.43     1290.923   -18528.353    301.33417    243.85018 
   95900    94.621159   -1084.1147    74188.113   -17219.096    1279.3684   -18498.464    301.66581    241.66755 
   95950    97.014282   -1056.2981    74194.962   -17215.432    1311.7257   -18527.157    300.91548    247.77972 
   96000    96.097425   -875.01796    74149.927   -17188.696    1299.3289   -18488.025     300.3911    245.43802 
   96050    91.637785   -885.59219     74125.13   -17202.134    1239.0303   -18441.164    300.01552    234.04786 
   96100    100.00263   -866.22171    74131.259   -17147.285     1352.131   -18499.416    300.14457    255.41213 
   96150    95.626057   -599.62666    74074.061   -17189.357    1292.9555   -18482.312    300.19821    244.23412 
   96200    95.448307   -997.54315    74123.904   -17197.135    1290.5522   -18487.688    301.24144    243.78014 
   96250    94.558086   -1181.6649    74103.005   -17215.563    1278.5156   -18494.079    301.60194    241.50646 
   96300    96.454905   -880.93469    74103.284   -17210.437    1304.1624   -18514.599    301.62941    246.35104 
   96350    95.424143    -992.1887     74091.52   -17218.979    1290.2255   -18509.205    302.56524    243.71842 
   96400    94.154274   -824.12882    74079.342   -17243.772    1273.0556   -18516.828    302.85485    240.47511 
   96450    92.359963   -1099.4251    74112.289   -17258.857    1248.7948   -18507.651    302.90688    235.89234 
   96500    91.858311   -1046.8156    74045.923   -17261.087     1242.012   -18503.099    302.63201    234.61109 
   96550    91.932336   -921.36076    74011.774   -17280.661    1243.0129   -18523.674     302.7541    234.80015 
   96600    90.845336   -1035.6123    73967.812   -17282.658    1228.3156   -18510.974     302.9509     232.0239 
   96650    90.414343   -1243.5862    73967.255   -17284.704    1222.4882   -18507.192    303.10849    230.92312 
   96700    94.205014   -935.42706    73956.089   -17242.905    1273.7417   -18516.646    303.17836     240.6047 
   96750     94.35588   -829.17827    73969.925   -17217.454    1275.7816   -18493.236    303.19957    240.99002 
   96800    91.270374   -1184.3025    73914.762   -17281.231    1234.0626   -18515.293    303.69848    233.10947 
   96850    92.829303   -1135.2678    73858.527   -17244.198    1255.1408   -18499.339    303.38156    237.09106 
   96900    93.914992   -975.08968    73847.405   -17261.494    1269.8203   -18531.314    303.36587    239.86397 
   96950    93.484841   -1108.3351    73815.277   -17281.464    1264.0043   -18545.468    303.35467    238.76534 
   97000    91.487549   -1018.2352    73793.828   -17278.764     1236.999   -18515.763    303.76561    233.66415 
   97050    92.805195    -1092.506    73764.622   -17300.427    1254.8148   -18555.242    302.87693    237.02948 
   97100    93.420895   -566.62304     73776.83   -17277.912    1263.1397   -18541.052    303.15735    238.60202 
   97150    95.970229   -642.50343    73795.155   -17266.647    1297.6091   -18564.256    303.81195    245.11315 
   97200    95.227287   -484.25511    73836.106   -17254.675    1287.5638   -18542.238    303.14867    243.21564 
   97250    94.300442   -739.49515     73929.45   -17260.296     1275.032   -18535.328    303.96123    240.84843 
   97300    94.701219   -596.46234    73962.837   -17245.605    1280.4509   -18526.055    304.43134    241.87203 
   97350     95.85738   -840.85886    73986.087   -17244.962    1296.0833   -18541.045    304.56654    244.82493 
   97400    95.856619   -561.42848    74002.378   -17243.126     1296.073   -18539.199    304.37147    244.82299 
   97450    93.654716     -902.137    74034.841   -17294.849    1266.3011    -18561.15    304.70367    239.19921 
   97500    95.462962   -566.37489    74039.294   -17284.626    1290.7504   -18575.376    304.60442    243.81756 
   97550    93.174128   -898.36863    74101.175   -17280.677    1259.8031    -18540.48    305.13534    237.97176 
   97600    93.304707   -710.53644    74076.566   -17264.536    1261.5687   -18526.105    305.02601    238.30527 
   97650    92.315435   -554.11498    74099.145   -17272.313    1248.1928   -18520.506    305.17039    235.77861 
   97700    90.754769   -722.68941    74127.662   -17287.618    1227.0911   -18514.709     305.2727    231.79259 
   97750    92.067433   -1180.7627    74109.316   -17297.127    1244.8396   -18541.966    304.78229     235.1452 
   97800    95.086925   -536.52818    74077.588   -17298.654     1285.666    -18584.32    304.81676    242.85715 
   97850    94.324973   -734.03608    74101.491   -17352.243    1275.3637   -18627.607    305.47569    240.91108 
   97900    92.454827   -768.97323    74060.042    -17323.89    1250.0775   -18573.967    305.48452    236.13463 
   97950     92.28193   -856.69169    74038.921   -17308.426    1247.7398   -18556.166    305.32645    235.69304 
   98000    88.992288   -695.79163    74033.865   -17331.718    1203.2607   -18534.979    305.76584    227.29111 
   98050    93.138719   -814.96037    74034.066   -17330.583    1259.3244   -18589.907    305.74898    237.88132 
   98100    94.566905   -624.84594    74055.116   -17332.009    1278.6348   -18610.643    305.53937    241.52899 
   98150    92.250592     -793.104    74085.658   -17300.772     1247.316   -18548.089    305.20881      235.613 
   98200    93.053294   -844.27555    73990.318   -17302.858    1258.1693   -18561.027    304.45244    237.66314 
   98250    92.570719   -794.89715    73926.097   -17285.791    1251.6445   -18537.435    304.95716    236.43062 
   98300    93.243776   -963.68683    73920.835   -17266.788    1260.7448   -18527.532    304.35598    238.14964 
   98350    92.778878   -1066.1179    73916.415   -17254.928     1254.459   -18509.387    303.33247    236.96227 
   98400     94.04833    -707.5749    73866.076   -17260.143    1271.6232   -18531.766    303.27753    240.20452 
   98450    92.896205    -1114.393    73909.041   -17276.457    1256.0453   -18532.503    303.46374    237.26193 
   98500    93.185811   -776.09227    73882.466   -17259.835    1259.9611   -18519.796     303.7276     238.0016 
   98550    90.702569   -762.89526    73872.343   -17311.534    1226.3853   -18537.919    303.87823    231.65926 
   98600    91.528943   -1079.4732    73895.301   -17319.532    1237.5587   -18557.091    304.03554    233.76987 
   98650    93.998367   -781.27541    73855.407       -17281    1270.9476   -18551.948    304.14794    240.07691 
   98700    94.680107   -1030.4911    73807.058    -17301.14    1280.1654   -18581.306    303.93879    241.81811 
   98750    93.036453   -898.88704    73831.248   -17305.847    1257.9416   -18563.789    304.29803    237.62013 
   98800    91.684601   -983.68071    73871.156   -17324.516    1239.6633   -18564.179    304.94686    234.16743 
   98850    93.422093   -938.43254    73881.462   -17319.535    1263.1559   -18582.691    305.82943    238.60508 
   98900    91.272632   -778.79875    73875.049   -17314.735    1234.0931   -18548.828    305.58487    233.11524 
   98950    93.922802   -1099.6004    73826.765   -17287.088    1269.9259   -18557.014    305.46231    239.88391 
   99000    93.315164   -830.44085    73818.285   -17302.499    1261.7101   -18564.209    305.56528    238.33197 
   99050    94.128144   -836.97424    73849.453   -17288.664    1272.7023   -18561.366    305.25091    240.40837 
   99100    91.655227   -798.63793    73887.629   -17309.649    1239.2661   -18548.915    304.96116     234.0924 
   99150    95.626651   -893.03992    73912.665   -17308.152    1292.9636   -18601.115    305.10996    244.23563 
   99200    93.788851   -792.59754     73906.04    -17330.22    1268.1148   -18598.335    305.09429    239.54179 
   99250    94.693062   -744.27778    73960.415   -17322.117    1280.3406   -18602.458    305.13565     241.8512 
   99300    93.585986   -962.25085    73963.315   -17316.507    1265.3719   -18581.879    305.21602    239.02367 
   99350    93.045143   -882.52197    73950.475   -17333.326    1258.0591   -18591.385    305.14067    237.64232 
   99400    91.317771   -654.82985    73852.028   -17334.172    1234.7034   -18568.876    305.23246    233.23052 
   99450    91.093697   -684.67106    73906.297   -17347.889    1231.6737   -18579.563    305.92601    232.65823 
   99500     92.11664   -893.94501    73964.628   -17371.171    1245.5049   -18616.676     306.4117    235.27088 
   99550    88.880092   -779.90666    74023.195    -17391.16    1201.7437   -18592.904    306.45806    227.00456 
   99600    92.648216   -753.87852    74001.419   -17337.935    1252.6923   -18590.628    306.41983    236.62855 
   99650    91.165547   -826.36567    73985.725   -17339.274    1232.6452   -18571.919     306.6468    232.84174 
   99700    93.409363   -875.10152    73980.937   -17352.404    1262.9837   -18615.387    307.00202    238.57256 
   99750    93.728456   -660.75748    73978.035   -17308.046    1267.2982   -18575.344     307.1377    239.38754 
   99800    92.308568   -422.09582    73988.755   -17294.419    1248.0999   -18542.519     307.0391    235.76107 
   99850    94.015111   -554.99164    74015.025   -17319.449     1271.174   -18590.623    307.18131    240.11967 
   99900    92.580768   -776.93671    74013.048   -17321.113    1251.7803   -18572.893    306.33372    236.45629 
   99950    93.662192   -901.06139      73980.4   -17317.526    1266.4022   -18583.929    306.53444     239.2183 
  100000    94.030241   -849.78359    73937.397   -17305.173    1271.3786   -18576.551    306.78352    240.15832 
Loop time of 67.2574 on 64 procs for 100000 steps with 4537 atoms

Performance: 642.308 ns/day, 0.037 hours/ns, 1486.825 timesteps/s
99.9% CPU use with 64 MPI tasks x no OpenMP threads

MPI task timing breakdown:
Section |  min time  |  avg time  |  max time  |%varavg| %total
---------------------------------------------------------------
Pair    | 9.3386     | 30.254     | 44.514     | 249.9 | 44.98
Neigh   | 0.49565    | 1.4283     | 3.9502     | 112.3 |  2.12
Comm    | 14.622     | 27.889     | 48.701     | 257.0 | 41.47
Output  | 0.1233     | 0.12608    | 0.1374     |   0.5 |  0.19
Modify  | 4.4506     | 6.7461     | 8.4933     |  49.5 | 10.03
Other   |            | 0.814      |            |       |  1.21

Nlocal:    70.8906 ave 183 max 31 min
Histogram: 48 0 0 0 0 0 0 0 4 12
Nghost:    765.375 ave 1011 max 405 min
Histogram: 16 0 0 0 0 0 16 16 0 16
Neighs:    0 ave 0 max 0 min
Histogram: 64 0 0 0 0 0 0 0 0 0
FullNghs:  7250.53 ave 24233 max 1238 min
Histogram: 48 0 0 0 0 0 0 0 2 14

Total # of neighbors = 464034
Ave neighs/atom = 102.278
Neighbor list builds = 5645
Dangerous builds = 0

write_data		${DIR}/data.eq-${NAME}-${TEMP}
write_data		run_1/data.eq-${NAME}-${TEMP}
write_data		run_1/data.eq-het_freeze_1-${TEMP}
write_data		run_1/data.eq-het_freeze_1-240
undump          1

reset_timestep  0

unfix           2
unfix           3
unfix           4


################################################
#######         Run Simulation         #########
################################################

log				${DIR}/log.run_${NAME}
log				run_1/log.run_${NAME}
log				run_1/log.run_het_freeze_1
