LAMMPS data file via write_data, version 16 Mar 2018, timestep = 6000000

5021 atoms
2 atom types

0.0000000000000000e+00 4.9219999999999999e+01 xlo xhi
0.0000000000000000e+00 4.9019635930410494e+01 ylo yhi
1.0096874661809032e+00 3.8990312533823740e+01 zlo zhi

Masses

1 18.015
2 12.01

Atoms # atomic

201 2 0.0000000000000000e+00 2.8417180249513345e+00 2.7354141638556895e+00 0 0 0
203 2 0.0000000000000000e+00 0.0000000000000000e+00 2.7354141638556895e+00 0 0 0
205 2 1.2305000000000001e+00 7.1042950623783474e-01 2.7354141638556895e+00 0 0 0
212 2 1.2305000000000001e+00 2.1312885187134998e+00 2.7354141638556895e+00 0 0 0
214 2 2.4610000000000003e+00 2.8417180249513345e+00 2.7354141638556895e+00 0 0 0
216 2 2.4610000000000003e+00 0.0000000000000000e+00 2.7354141638556895e+00 0 0 0
218 2 3.6915000000000004e+00 7.1042950623783474e-01 2.7354141638556895e+00 0 0 0
233 2 3.6914999999999996e+00 2.1312885187134998e+00 2.7354141638556895e+00 0 0 0
235 2 4.9220000000000006e+00 2.8417180249513332e+00 2.7354141638556895e+00 0 0 0
237 2 4.9220000000000006e+00 0.0000000000000000e+00 2.7354141638556895e+00 0 0 0
239 2 6.1524999999999999e+00 7.1042950623783407e-01 2.7354141638556895e+00 0 0 0
262 2 6.1524999999999999e+00 2.1312885187134989e+00 2.7354141638556895e+00 0 0 0
264 2 7.3829999999999991e+00 2.8417180249513345e+00 2.7354141638556895e+00 0 0 0
266 2 7.3829999999999991e+00 0.0000000000000000e+00 2.7354141638556895e+00 0 0 0
268 2 8.6134999999999984e+00 7.1042950623783407e-01 2.7354141638556895e+00 0 0 0
299 2 8.6134999999999984e+00 2.1312885187135002e+00 2.7354141638556895e+00 0 0 0
208 2 0.0000000000000000e+00 4.2625770374269996e+00 2.7354141638556895e+00 0 0 0
210 2 1.2305000000000001e+00 4.9730065436648339e+00 2.7354141638556895e+00 0 0 0
225 2 1.2305000000000001e+00 6.3938655561404980e+00 2.7354141638556895e+00 0 0 0
229 2 2.4610000000000003e+00 4.2625770374269996e+00 2.7354141638556895e+00 0 0 0
231 2 3.6914999999999996e+00 4.9730065436648339e+00 2.7354141638556895e+00 0 0 0
254 2 3.6914999999999996e+00 6.3938655561404980e+00 2.7354141638556895e+00 0 0 0
206 2 0.0000000000000000e+00 7.1042950623783341e+00 2.7354141638556895e+00 0 0 0
227 2 2.4610000000000003e+00 7.1042950623783341e+00 2.7354141638556895e+00 0 0 0
258 2 4.9220000000000006e+00 4.2625770374269978e+00 2.7354141638556895e+00 0 0 0
260 2 6.1524999999999999e+00 4.9730065436648339e+00 2.7354141638556895e+00 0 0 0
291 2 6.1524999999999999e+00 6.3938655561404980e+00 2.7354141638556895e+00 0 0 0
295 2 7.3829999999999991e+00 4.2625770374269996e+00 2.7354141638556895e+00 0 0 0
297 2 8.6135000000000002e+00 4.9730065436648339e+00 2.7354141638556895e+00 0 0 0
336 2 8.6135000000000002e+00 6.3938655561404980e+00 2.7354141638556895e+00 0 0 0
256 2 4.9220000000000006e+00 7.1042950623783341e+00 2.7354141638556895e+00 0 0 0
293 2 7.3830000000000009e+00 7.1042950623783341e+00 2.7354141638556895e+00 0 0 0
221 2 0.0000000000000000e+00 8.5251540748539991e+00 2.7354141638556895e+00 0 0 0
223 2 1.2305000000000001e+00 9.2355835810918343e+00 2.7354141638556895e+00 0 0 0
250 2 2.4610000000000003e+00 8.5251540748539991e+00 2.7354141638556895e+00 0 0 0
252 2 3.6915000000000004e+00 9.2355835810918343e+00 2.7354141638556895e+00 0 0 0
219 2 0.0000000000000000e+00 1.1366872099805333e+01 2.7354141638556895e+00 0 0 0
246 2 1.2305000000000001e+00 1.0656442593567498e+01 2.7354141638556895e+00 0 0 0
248 2 2.4610000000000003e+00 1.1366872099805333e+01 2.7354141638556895e+00 0 0 0
283 2 3.6914999999999996e+00 1.0656442593567499e+01 2.7354141638556895e+00 0 0 0
287 2 4.9220000000000006e+00 8.5251540748539991e+00 2.7354141638556895e+00 0 0 0
289 2 6.1524999999999999e+00 9.2355835810918343e+00 2.7354141638556895e+00 0 0 0
332 2 7.3830000000000009e+00 8.5251540748539991e+00 2.7354141638556895e+00 0 0 0
334 2 8.6134999999999984e+00 9.2355835810918343e+00 2.7354141638556895e+00 0 0 0
285 2 4.9220000000000006e+00 1.1366872099805333e+01 2.7354141638556895e+00 0 0 0
328 2 6.1524999999999999e+00 1.0656442593567499e+01 2.7354141638556895e+00 0 0 0
330 2 7.3829999999999991e+00 1.1366872099805333e+01 2.7354141638556895e+00 0 0 0
375 2 8.6134999999999984e+00 1.0656442593567498e+01 2.7354141638556895e+00 0 0 0
202 2 0.0000000000000000e+00 1.4208590124756650e+00 5.8956729039314881e+00 0 0 0
204 2 0.0000000000000000e+00 0.0000000000000000e+00 5.8956729039314881e+00 0 0 0
213 2 1.2305000000000001e+00 2.1312885187134998e+00 5.8956729039314881e+00 0 0 0
215 2 2.4610000000000003e+00 1.4208590124756650e+00 5.8956729039314881e+00 0 0 0
217 2 2.4610000000000003e+00 0.0000000000000000e+00 5.8956729039314881e+00 0 0 0
234 2 3.6914999999999996e+00 2.1312885187134998e+00 5.8956729039314881e+00 0 0 0
211 2 1.2305000000000001e+00 3.5521475311891644e+00 5.8956729039314881e+00 0 0 0
232 2 3.6914999999999996e+00 3.5521475311891644e+00 5.8956729039314881e+00 0 0 0
530 2 0.0000000000000000e+00 2.8417180249513345e+00 9.0559316440060336e+00 0 0 0
531 2 0.0000000000000000e+00 0.0000000000000000e+00 9.0559316440060336e+00 0 0 0
532 2 1.2305000000000001e+00 7.1042950623783474e-01 9.0559316440060336e+00 0 0 0
536 2 1.2305000000000001e+00 2.1312885187134998e+00 9.0559316440060336e+00 0 0 0
537 2 2.4610000000000003e+00 2.8417180249513345e+00 9.0559316440060336e+00 0 0 0
538 2 2.4610000000000003e+00 0.0000000000000000e+00 9.0559316440060336e+00 0 0 0
539 2 3.6915000000000004e+00 7.1042950623783474e-01 9.0559316440060336e+00 0 0 0
547 2 3.6914999999999996e+00 2.1312885187134998e+00 9.0559316440060336e+00 0 0 0
236 2 4.9220000000000006e+00 1.4208590124756650e+00 5.8956729039314881e+00 0 0 0
238 2 4.9220000000000006e+00 0.0000000000000000e+00 5.8956729039314881e+00 0 0 0
263 2 6.1524999999999999e+00 2.1312885187134989e+00 5.8956729039314881e+00 0 0 0
265 2 7.3829999999999991e+00 1.4208590124756659e+00 5.8956729039314881e+00 0 0 0
267 2 7.3829999999999991e+00 0.0000000000000000e+00 5.8956729039314881e+00 0 0 0
300 2 8.6134999999999984e+00 2.1312885187135002e+00 5.8956729039314881e+00 0 0 0
261 2 6.1524999999999999e+00 3.5521475311891644e+00 5.8956729039314881e+00 0 0 0
298 2 8.6134999999999984e+00 3.5521475311891657e+00 5.8956729039314881e+00 0 0 0
548 2 4.9220000000000006e+00 2.8417180249513332e+00 9.0559316440060336e+00 0 0 0
549 2 4.9220000000000006e+00 0.0000000000000000e+00 9.0559316440060336e+00 0 0 0
550 2 6.1524999999999999e+00 7.1042950623783407e-01 9.0559316440060336e+00 0 0 0
562 2 6.1524999999999999e+00 2.1312885187134989e+00 9.0559316440060336e+00 0 0 0
563 2 7.3829999999999991e+00 2.8417180249513345e+00 9.0559316440060336e+00 0 0 0
564 2 7.3829999999999991e+00 0.0000000000000000e+00 9.0559316440060336e+00 0 0 0
565 2 8.6134999999999984e+00 7.1042950623783407e-01 9.0559316440060336e+00 0 0 0
581 2 8.6134999999999984e+00 2.1312885187135002e+00 9.0559316440060336e+00 0 0 0
207 2 0.0000000000000000e+00 5.6834360499026637e+00 5.8956729039314881e+00 0 0 0
209 2 0.0000000000000000e+00 4.2625770374269996e+00 5.8956729039314881e+00 0 0 0
226 2 1.2305000000000001e+00 6.3938655561404980e+00 5.8956729039314881e+00 0 0 0
228 2 2.4610000000000003e+00 5.6834360499026637e+00 5.8956729039314881e+00 0 0 0
230 2 2.4610000000000003e+00 4.2625770374269996e+00 5.8956729039314881e+00 0 0 0
255 2 3.6914999999999996e+00 6.3938655561404980e+00 5.8956729039314881e+00 0 0 0
224 2 1.2305000000000001e+00 7.8147245686161639e+00 5.8956729039314881e+00 0 0 0
253 2 3.6914999999999996e+00 7.8147245686161639e+00 5.8956729039314881e+00 0 0 0
534 2 0.0000000000000000e+00 4.2625770374269996e+00 9.0559316440060336e+00 0 0 0
535 2 1.2305000000000001e+00 4.9730065436648339e+00 9.0559316440060336e+00 0 0 0
543 2 1.2305000000000001e+00 6.3938655561404980e+00 9.0559316440060336e+00 0 0 0
545 2 2.4610000000000003e+00 4.2625770374269996e+00 9.0559316440060336e+00 0 0 0
546 2 3.6914999999999996e+00 4.9730065436648339e+00 9.0559316440060336e+00 0 0 0
558 2 3.6914999999999996e+00 6.3938655561404980e+00 9.0559316440060336e+00 0 0 0
533 2 0.0000000000000000e+00 7.1042950623783341e+00 9.0559316440060336e+00 0 0 0
544 2 2.4610000000000003e+00 7.1042950623783341e+00 9.0559316440060336e+00 0 0 0
257 2 4.9220000000000006e+00 5.6834360499026637e+00 5.8956729039314881e+00 0 0 0
259 2 4.9220000000000006e+00 4.2625770374269978e+00 5.8956729039314881e+00 0 0 0
292 2 6.1524999999999999e+00 6.3938655561404980e+00 5.8956729039314881e+00 0 0 0
294 2 7.3829999999999991e+00 5.6834360499026637e+00 5.8956729039314881e+00 0 0 0
296 2 7.3829999999999991e+00 4.2625770374269996e+00 5.8956729039314881e+00 0 0 0
337 2 8.6135000000000002e+00 6.3938655561404980e+00 5.8956729039314881e+00 0 0 0
290 2 6.1524999999999999e+00 7.8147245686161639e+00 5.8956729039314881e+00 0 0 0
335 2 8.6135000000000002e+00 7.8147245686161639e+00 5.8956729039314881e+00 0 0 0
560 2 4.9220000000000006e+00 4.2625770374269978e+00 9.0559316440060336e+00 0 0 0
561 2 6.1524999999999999e+00 4.9730065436648339e+00 9.0559316440060336e+00 0 0 0
577 2 6.1524999999999999e+00 6.3938655561404980e+00 9.0559316440060336e+00 0 0 0
579 2 7.3829999999999991e+00 4.2625770374269996e+00 9.0559316440060336e+00 0 0 0
580 2 8.6135000000000002e+00 4.9730065436648339e+00 9.0559316440060336e+00 0 0 0
600 2 8.6135000000000002e+00 6.3938655561404980e+00 9.0559316440060336e+00 0 0 0
559 2 4.9220000000000006e+00 7.1042950623783341e+00 9.0559316440060336e+00 0 0 0
578 2 7.3830000000000009e+00 7.1042950623783341e+00 9.0559316440060336e+00 0 0 0
220 2 0.0000000000000000e+00 9.9460130873296642e+00 5.8956729039314881e+00 0 0 0
222 2 0.0000000000000000e+00 8.5251540748539991e+00 5.8956729039314881e+00 0 0 0
249 2 2.4610000000000003e+00 9.9460130873296642e+00 5.8956729039314881e+00 0 0 0
251 2 2.4610000000000003e+00 8.5251540748539991e+00 5.8956729039314881e+00 0 0 0
245 2 1.2305000000000001e+00 1.2077301606043163e+01 5.8956729039314881e+00 0 0 0
247 2 1.2305000000000001e+00 1.0656442593567498e+01 5.8956729039314881e+00 0 0 0
282 2 3.6914999999999996e+00 1.2077301606043163e+01 5.8956729039314881e+00 0 0 0
284 2 3.6914999999999996e+00 1.0656442593567499e+01 5.8956729039314881e+00 0 0 0
541 2 0.0000000000000000e+00 8.5251540748539991e+00 9.0559316440060336e+00 0 0 0
542 2 1.2305000000000001e+00 9.2355835810918343e+00 9.0559316440060336e+00 0 0 0
556 2 2.4610000000000003e+00 8.5251540748539991e+00 9.0559316440060336e+00 0 0 0
557 2 3.6915000000000004e+00 9.2355835810918343e+00 9.0559316440060336e+00 0 0 0
540 2 0.0000000000000000e+00 1.1366872099805333e+01 9.0559316440060336e+00 0 0 0
554 2 1.2305000000000001e+00 1.0656442593567498e+01 9.0559316440060336e+00 0 0 0
555 2 2.4610000000000003e+00 1.1366872099805333e+01 9.0559316440060336e+00 0 0 0
573 2 3.6914999999999996e+00 1.0656442593567499e+01 9.0559316440060336e+00 0 0 0
286 2 4.9220000000000006e+00 9.9460130873296642e+00 5.8956729039314881e+00 0 0 0
288 2 4.9220000000000006e+00 8.5251540748539991e+00 5.8956729039314881e+00 0 0 0
331 2 7.3830000000000009e+00 9.9460130873296642e+00 5.8956729039314881e+00 0 0 0
333 2 7.3830000000000009e+00 8.5251540748539991e+00 5.8956729039314881e+00 0 0 0
327 2 6.1524999999999999e+00 1.2077301606043163e+01 5.8956729039314881e+00 0 0 0
329 2 6.1524999999999999e+00 1.0656442593567499e+01 5.8956729039314881e+00 0 0 0
374 2 8.6135000000000002e+00 1.2077301606043163e+01 5.8956729039314881e+00 0 0 0
376 2 8.6134999999999984e+00 1.0656442593567498e+01 5.8956729039314881e+00 0 0 0
575 2 4.9220000000000006e+00 8.5251540748539991e+00 9.0559316440060336e+00 0 0 0
576 2 6.1524999999999999e+00 9.2355835810918343e+00 9.0559316440060336e+00 0 0 0
598 2 7.3830000000000009e+00 8.5251540748539991e+00 9.0559316440060336e+00 0 0 0
599 2 8.6134999999999984e+00 9.2355835810918343e+00 9.0559316440060336e+00 0 0 0
574 2 4.9220000000000006e+00 1.1366872099805333e+01 9.0559316440060336e+00 0 0 0
596 2 6.1524999999999999e+00 1.0656442593567499e+01 9.0559316440060336e+00 0 0 0
597 2 7.3829999999999991e+00 1.1366872099805333e+01 9.0559316440060336e+00 0 0 0
620 2 8.6134999999999984e+00 1.0656442593567498e+01 9.0559316440060336e+00 0 0 0
3610 1 1.9604762211431594e+00 2.1629695269727400e+00 1.1834888274085559e+01 -2 1 -1
989 1 1.9433511308509068e+00 1.4123671601909646e+00 1.4704726242054514e+01 0 2 -1
1407 1 4.2708419110115470e+00 3.5488073968951270e+00 1.2157395475605304e+01 -2 0 0
2288 1 6.5891293691444570e+00 1.9218396844066454e+00 1.2003743159960328e+01 1 -2 0
3532 1 6.4431445881509939e+00 1.5966858093018672e+00 1.4775842855126147e+01 1 1 0
1438 1 4.2740260428285568e+00 5.3961368133689138e+00 1.4761749186312008e+01 3 2 0
3606 1 4.6775876978657465e+00 6.5579659296311608e+00 1.1933207314585845e+01 1 0 0
3582 1 8.5492065972949316e+00 3.7411997331667526e+00 1.1469592430761205e+01 -1 0 1
3915 1 8.9403850374674469e+00 6.6585350898989448e+00 1.1969477228424941e+01 1 -1 0
1116 1 8.9594641781759510e+00 5.1775586137273244e+00 1.4388383894826195e+01 -1 0 0
2530 1 2.6469603090420373e+00 8.5083158240791921e+00 1.2157231231626017e+01 1 3 0
2336 1 2.7284985187440354e+00 1.1162784782159736e+01 1.1360114995047233e+01 0 -1 -1
4978 1 2.3357514989197434e+00 8.9436666420919178e+00 1.4913170812300883e+01 -2 0 0
2171 1 7.0096960553500463e+00 1.1444447861504147e+01 1.8314173532686475e+01 1 2 0
2557 1 2.8730049901338395e-01 7.0750501851600180e+00 1.1785893401600044e+01 1 -2 1
109 1 6.8280094051000377e+00 8.3324611340640669e+00 1.2384508290300460e+01 -1 0 0
2518 1 6.9561342786909499e+00 1.0936077862514759e+01 1.1307161478422953e+01 1 -1 0
3965 1 6.6047036691200640e+00 8.6543947184580876e+00 1.4961614459375829e+01 -1 1 0
2229 1 1.8816310551009359e+00 4.0667273710196499e+00 1.5927379150238648e+01 0 0 0
4799 1 2.1719425217532984e+00 1.4508287676992271e+00 1.9511337653335282e+01 -1 -2 0
1468 1 8.8674927975366931e+00 2.1259014721047956e-01 1.8317786410688893e+01 0 2 0
4767 1 2.4672961833480458e+00 1.1361317819784936e+01 1.8954133559864804e+01 -1 -1 0
187 1 6.6795165562551082e+00 1.1129945499895701e+01 1.5705929225004326e+01 0 -2 -1
920 1 6.6523123818401464e+00 3.9624075474913161e+00 1.8591125572588023e+01 1 0 0
1302 1 6.5896375852545690e+00 4.1359465975213361e+00 1.5608397159463836e+01 -1 1 0
1343 1 2.4128161615916066e+00 1.1508871543787643e+01 1.6248374798458805e+01 2 -1 0
171 1 2.3355575095111569e+00 3.9479687345410222e+00 1.8637356851425182e+01 1 0 0
4910 1 4.4263912734624240e+00 4.9938166045931442e+00 1.9917493695603618e+01 1 -2 0
3917 1 4.2864394002897184e+00 7.6330997014321635e+00 1.8902957806371436e+01 2 0 0
2368 1 4.2793319174965543e+00 7.6416606472700304e+00 1.6072247225731619e+01 3 3 0
2637 1 8.7383247938465800e+00 3.3817635679226776e-01 1.5600548033804490e+01 -3 2 0
3669 1 4.3001426401073388e+00 4.7378349112398094e-01 1.6100825086554053e+01 1 0 -1
3862 1 8.8576173746192772e+00 7.5360526315509002e+00 1.6213944755871573e+01 1 -1 0
4770 1 9.0513144815228657e+00 7.7909826987265394e+00 1.8779302445361139e+01 2 2 -1
3537 1 1.6492047922068326e-01 7.8534860544718041e+00 1.8620971301947943e+01 1 -2 0
2177 1 6.8343353760284637e+00 1.6885972058274863e+00 1.9637756234189258e+01 2 2 0
4916 1 9.1011019054293705e+00 5.0886386241768671e+00 1.9567567033011748e+01 1 0 -1
4723 1 1.3446415784608209e-01 7.7414585094884405e+00 1.5917185909042928e+01 1 2 0
4812 1 2.2254027002372077e+00 8.7725281106688620e+00 1.9951228432908170e+01 -1 1 0
3574 1 2.6516019535853358e-01 5.2394840387333854e+00 1.9578392667750077e+01 1 0 0
3814 1 4.6004002344315529e+00 1.1502463840910114e-01 1.8704853575377303e+01 1 -1 0
2609 1 3.7873484115507844e-01 1.2171400039359609e+01 1.2201709865067960e+01 3 -2 0
3639 1 6.6813678389618048e+00 9.0790896239229824e+00 1.9679989653412289e+01 0 2 0
3742 1 2.5393581285821494e+00 1.1525056364493487e+00 2.2322199584399712e+01 1 3 -1
36 1 4.6632651379744825e+00 2.4601610370910110e+00 2.3602436296219210e+01 -2 0 0
2292 1 6.6274391606218863e+00 1.4309577617260187e+00 2.2035122599712746e+01 -1 0 0
2381 1 8.9428806317075793e+00 2.2853412885640618e+00 2.3419733046149673e+01 1 1 0
2564 1 2.4129445215435892e+00 6.1317027987998145e+00 2.3593336926126288e+01 1 0 0
3562 1 4.7272909683243851e+00 4.8697589461075736e+00 2.2570888485718324e+01 3 2 0
5015 1 7.1332787896350860e+00 6.0193731643125075e+00 2.3789257560416321e+01 2 0 0
3729 1 9.3130309635766828e+00 4.6937117534409598e+00 2.2569160327104449e+01 2 1 0
1262 1 2.4778643690372375e+00 8.6179048709547743e+00 2.2432063664069645e+01 3 0 -1
59 1 4.6788681857898746e+00 9.8622668744112936e+00 2.3571241840099677e+01 2 1 0
51 1 7.1500363782422998e+00 1.1410908104218239e+01 2.7127568635430396e+01 2 -1 0
3534 1 6.9177915021117000e+00 8.6637691960460295e+00 2.2615718624382712e+01 1 1 -1
3718 1 9.1399086108117853e+00 1.0103446405058179e+01 2.3644642449996223e+01 -1 0 0
1071 1 4.2911291405531635e+00 2.3776021735715047e+00 2.6213055558196881e+01 -1 1 0
2453 1 2.1850945675817779e+00 3.4553033596030822e+00 2.7237110232619166e+01 3 1 0
83 1 4.7767002057909504e+00 1.0017379668046482e+01 2.6319695988299717e+01 1 -1 0
2334 1 8.8417408974538603e+00 2.5801346580110729e+00 2.6196689557716855e+01 1 0 0
4695 1 6.4795790283485335e+00 3.5412857005412972e+00 2.7242056561251282e+01 -1 -1 0
1102 1 2.7154422347608977e+00 1.1422720061655207e+01 2.7037591778343227e+01 1 1 0
2289 1 2.4646876839532914e+00 6.1843905481438037e+00 2.6221566141339924e+01 0 0 0
2682 1 4.7113026455652482e+00 7.5313046835337936e+00 2.7224093576351606e+01 0 0 1
1416 1 9.2431739073204895e+00 1.0444514819068409e+01 2.6172650757414896e+01 -1 -1 0
3468 1 9.0540143395434978e+00 7.8758432010109827e+00 2.7387454888790494e+01 0 1 0
949 1 7.0082087685676582e+00 6.2380406838288032e+00 2.6651171556696251e+01 0 2 0
1187 1 3.2795706455880752e-01 7.3306418406928158e+00 2.7225231029063156e+01 3 1 0
3731 1 3.2250898622999813e-01 1.0181957011549246e+01 2.3558307595011058e+01 1 0 0
115 1 2.8896820839161658e-01 5.2154302556786503e+00 2.2245388698884412e+01 -1 0 1
3630 1 3.4621878719402083e-01 2.5183139841036031e+00 2.3288677826839802e+01 1 -1 0
3513 1 4.3102355716997565e-01 9.9319731562727771e+00 2.6428476600878753e+01 1 0 0
2287 1 4.3280571408722812e+00 2.3078181109305005e+00 3.0897972645743568e+01 3 2 0
3487 1 4.0307195221410739e+00 2.8140716880844980e+00 3.3444130445017365e+01 0 3 0
4804 1 8.4909661946981085e+00 1.1741944172471200e-01 3.4249953875476209e+01 3 0 -1
4867 1 2.3284246846925623e+00 1.1302866780935940e+01 2.9925249160415863e+01 1 2 0
2398 1 7.1396920302732392e+00 1.1166586969399514e+01 3.4405712223756154e+01 1 2 0
2401 1 8.8931353036534730e+00 2.7530358573740950e+00 3.0924584881461133e+01 0 3 0
99 1 8.5292369157739802e+00 2.8103388316506428e+00 3.3819814612633223e+01 -1 3 0
4961 1 2.1926825367485701e+00 9.3640685381197883e+00 3.8236081251880051e+01 0 2 -1
2468 1 2.5007009293721412e+00 1.1562355041212911e+01 3.6985074498290416e+01 1 -2 -1
4898 1 2.1903814484601285e+00 6.3056809131117921e+00 3.1042161261537263e+01 0 -1 -1
1394 1 2.1763116258946416e+00 6.7907078976565245e+00 3.3684058252479062e+01 3 1 1
2490 1 1.9874069373014949e+00 3.5694862369938192e+00 3.0091460938743108e+01 0 2 0
4948 1 6.6582094718336373e+00 6.3450642647183280e+00 3.0958045731914087e+01 -1 2 0
2560 1 6.7692125114126762e+00 6.5117458971475912e+00 3.3687793679191216e+01 -3 5 1
1358 1 9.0184030839323714e+00 7.3670325829133461e+00 2.9970256460995564e+01 0 0 0
984 1 4.7346698040877895e+00 1.0153573225023266e+01 3.0738507878032326e+01 -1 -1 0
1189 1 4.7076417546169811e+00 1.0510868354714752e+01 3.3502136108766678e+01 2 -1 0
2389 1 4.5029971119187486e+00 7.6117199589208235e+00 2.9789119466354123e+01 0 -1 -1
3551 1 8.9075045183977615e+00 1.0108948286068983e+01 3.0777144366837078e+01 1 0 0
4981 1 9.4211006780341489e+00 1.0121837036035963e+01 3.3457632573939293e+01 1 -1 -1
2657 1 4.1935496026618369e+00 2.1411275535173638e-01 3.7109231972475570e+01 -1 1 0
2569 1 2.0837665498953979e+00 1.5712079103925320e+00 3.8427867567412676e+01 2 0 0
2243 1 2.5143663493549391e+00 3.9411366922925923e+00 3.7330232878300620e+01 2 0 0
67 1 6.5217729320699203e+00 3.5745947784236303e+00 2.9826774170230223e+01 1 0 0
1329 1 2.4038628259176704e+00 1.1638735902309316e+01 3.4290356531889003e+01 -1 2 0
125 1 6.8570052522464726e+00 9.4896547383666459e+00 3.8331611256818618e+01 1 0 0
4999 1 6.5930609323697595e+00 1.2811002926797947e+00 3.8035744633444878e+01 1 0 0
3765 1 6.2080648670827090e+00 3.9785986361746639e+00 3.4853374807959511e+01 1 2 0
4751 1 6.6955886003407805e+00 3.8575437940253541e+00 3.7422526277068101e+01 2 0 0
1362 1 2.0289680738678406e+00 4.2361440471680352e+00 3.4607125414264871e+01 2 3 0
1054 1 4.4180108068848147e+00 8.0086243386457312e+00 3.4772995639992288e+01 1 1 0
4911 1 4.4888120732843992e+00 5.3053718174788020e+00 3.8326801151123732e+01 0 0 -1
1482 1 4.4664897993752088e+00 8.0293518576100542e+00 3.7663486520495340e+01 3 1 -1
1247 1 6.8701131175694039e+00 1.1702901376293918e+01 3.6892835887580858e+01 1 0 0
1290 1 9.0679138403983632e+00 7.5410648934003923e+00 3.4500286997832873e+01 -1 2 0
2459 1 9.0673544557866279e+00 8.1205783407118339e+00 3.7261928140064498e+01 -1 -2 -1
2178 1 8.9722036434082941e+00 5.4445943111828141e+00 3.8320597740088587e+01 1 0 0
2641 1 6.7692832866122172e+00 1.1293655652324635e+01 2.9683185601572749e+01 1 -1 1
5006 1 5.8152459956385141e-02 1.0178371447298909e+01 3.3918952431325181e+01 3 0 0
185 1 8.9595743258745877e+00 1.7201750140153657e-01 3.6903314661704854e+01 2 1 0
4645 1 1.7827669414117508e-02 7.7085238066669355e+00 3.7782397590931183e+01 1 1 -1
2328 1 8.8916424364845472e+00 2.5011021293190803e-02 3.0243711658266797e+01 -1 -2 0
1052 1 3.7725991234083267e-02 4.8957845441595538e+00 3.8215503335138635e+01 1 0 -1
1048 1 3.8908393896613567e+00 1.3327500638413170e-01 3.4624470325574904e+01 1 1 0
242 2 0.0000000000000000e+00 1.2787731112280996e+01 2.7354141638556895e+00 0 0 0
244 2 1.2305000000000001e+00 1.3498160618518829e+01 2.7354141638556895e+00 0 0 0
279 2 2.4610000000000003e+00 1.2787731112280996e+01 2.7354141638556895e+00 0 0 0
281 2 3.6915000000000004e+00 1.3498160618518829e+01 2.7354141638556895e+00 0 0 0
240 2 0.0000000000000000e+00 1.5629449137232333e+01 2.7354141638556895e+00 0 0 0
275 2 1.2305000000000001e+00 1.4919019630994494e+01 2.7354141638556895e+00 0 0 0
277 2 2.4610000000000003e+00 1.5629449137232328e+01 2.7354141638556895e+00 0 0 0
320 2 3.6915000000000004e+00 1.4919019630994494e+01 2.7354141638556895e+00 0 0 0
324 2 4.9220000000000006e+00 1.2787731112280996e+01 2.7354141638556895e+00 0 0 0
326 2 6.1524999999999990e+00 1.3498160618518829e+01 2.7354141638556895e+00 0 0 0
371 2 7.3829999999999991e+00 1.2787731112280996e+01 2.7354141638556895e+00 0 0 0
373 2 8.6135000000000002e+00 1.3498160618518835e+01 2.7354141638556895e+00 0 0 0
322 2 4.9220000000000006e+00 1.5629449137232333e+01 2.7354141638556895e+00 0 0 0
367 2 6.1524999999999990e+00 1.4919019630994494e+01 2.7354141638556895e+00 0 0 0
369 2 7.3829999999999991e+00 1.5629449137232333e+01 2.7354141638556895e+00 0 0 0
414 2 8.6135000000000002e+00 1.4919019630994494e+01 2.7354141638556895e+00 0 0 0
271 2 0.0000000000000000e+00 1.7050308149707998e+01 2.7354141638556895e+00 0 0 0
316 2 2.4610000000000003e+00 1.7050308149707998e+01 2.7354141638556895e+00 0 0 0
269 2 0.0000000000000000e+00 1.9892026174659328e+01 2.7354141638556895e+00 0 0 0
273 2 1.2305000000000001e+00 1.7760737655945832e+01 2.7354141638556895e+00 0 0 0
312 2 1.2305000000000001e+00 1.9181596668421495e+01 2.7354141638556895e+00 0 0 0
314 2 2.4610000000000003e+00 1.9892026174659328e+01 2.7354141638556895e+00 0 0 0
318 2 3.6914999999999996e+00 1.7760737655945832e+01 2.7354141638556895e+00 0 0 0
359 2 3.6914999999999996e+00 1.9181596668421495e+01 2.7354141638556895e+00 0 0 0
363 2 4.9220000000000006e+00 1.7050308149707998e+01 2.7354141638556895e+00 0 0 0
410 2 7.3830000000000009e+00 1.7050308149707998e+01 2.7354141638556895e+00 0 0 0
361 2 4.9220000000000006e+00 1.9892026174659328e+01 2.7354141638556895e+00 0 0 0
365 2 6.1524999999999999e+00 1.7760737655945832e+01 2.7354141638556895e+00 0 0 0
406 2 6.1524999999999999e+00 1.9181596668421495e+01 2.7354141638556895e+00 0 0 0
408 2 7.3829999999999991e+00 1.9892026174659328e+01 2.7354141638556895e+00 0 0 0
412 2 8.6134999999999984e+00 1.7760737655945832e+01 2.7354141638556895e+00 0 0 0
448 2 8.6135000000000002e+00 1.9181596668421495e+01 2.7354141638556895e+00 0 0 0
306 2 0.0000000000000000e+00 2.4154603212086325e+01 2.7354141638556895e+00 0 0 0
308 2 0.0000000000000000e+00 2.1312885187134999e+01 2.7354141638556895e+00 0 0 0
310 2 1.2304999999999993e+00 2.2023314693372832e+01 2.7354141638556895e+00 0 0 0
351 2 1.2304999999999993e+00 2.3444173705848499e+01 2.7354141638556895e+00 0 0 0
353 2 2.4610000000000003e+00 2.4154603212086325e+01 2.7354141638556895e+00 0 0 0
355 2 2.4610000000000003e+00 2.1312885187134995e+01 2.7354141638556895e+00 0 0 0
357 2 3.6914999999999996e+00 2.2023314693372832e+01 2.7354141638556895e+00 0 0 0
398 2 3.6915000000000004e+00 2.3444173705848499e+01 2.7354141638556895e+00 0 0 0
400 2 4.9220000000000006e+00 2.4154603212086325e+01 2.7354141638556895e+00 0 0 0
402 2 4.9220000000000006e+00 2.1312885187134995e+01 2.7354141638556895e+00 0 0 0
404 2 6.1524999999999990e+00 2.2023314693372832e+01 2.7354141638556895e+00 0 0 0
440 2 6.1524999999999999e+00 2.3444173705848499e+01 2.7354141638556895e+00 0 0 0
442 2 7.3830000000000009e+00 2.4154603212086336e+01 2.7354141638556895e+00 0 0 0
444 2 7.3829999999999991e+00 2.1312885187134999e+01 2.7354141638556895e+00 0 0 0
446 2 8.6135000000000002e+00 2.2023314693372832e+01 2.7354141638556895e+00 0 0 0
474 2 8.6134999999999984e+00 2.3444173705848499e+01 2.7354141638556895e+00 0 0 0
243 2 0.0000000000000000e+00 1.2787731112280996e+01 5.8956729039314881e+00 0 0 0
280 2 2.4610000000000003e+00 1.2787731112280996e+01 5.8956729039314881e+00 0 0 0
241 2 0.0000000000000000e+00 1.4208590124756663e+01 5.8956729039314881e+00 0 0 0
276 2 1.2305000000000001e+00 1.4919019630994494e+01 5.8956729039314881e+00 0 0 0
278 2 2.4610000000000003e+00 1.4208590124756663e+01 5.8956729039314881e+00 0 0 0
321 2 3.6915000000000004e+00 1.4919019630994494e+01 5.8956729039314881e+00 0 0 0
552 2 0.0000000000000000e+00 1.2787731112280996e+01 9.0559316440060336e+00 0 0 0
553 2 1.2305000000000001e+00 1.3498160618518829e+01 9.0559316440060336e+00 0 0 0
571 2 2.4610000000000003e+00 1.2787731112280996e+01 9.0559316440060336e+00 0 0 0
572 2 3.6915000000000004e+00 1.3498160618518829e+01 9.0559316440060336e+00 0 0 0
551 2 0.0000000000000000e+00 1.5629449137232333e+01 9.0559316440060336e+00 0 0 0
569 2 1.2305000000000001e+00 1.4919019630994494e+01 9.0559316440060336e+00 0 0 0
570 2 2.4610000000000003e+00 1.5629449137232328e+01 9.0559316440060336e+00 0 0 0
592 2 3.6915000000000004e+00 1.4919019630994494e+01 9.0559316440060336e+00 0 0 0
325 2 4.9220000000000006e+00 1.2787731112280996e+01 5.8956729039314881e+00 0 0 0
372 2 7.3829999999999991e+00 1.2787731112280996e+01 5.8956729039314881e+00 0 0 0
323 2 4.9220000000000006e+00 1.4208590124756663e+01 5.8956729039314881e+00 0 0 0
368 2 6.1524999999999990e+00 1.4919019630994494e+01 5.8956729039314881e+00 0 0 0
370 2 7.3830000000000009e+00 1.4208590124756663e+01 5.8956729039314881e+00 0 0 0
415 2 8.6135000000000002e+00 1.4919019630994494e+01 5.8956729039314881e+00 0 0 0
594 2 4.9220000000000006e+00 1.2787731112280996e+01 9.0559316440060336e+00 0 0 0
595 2 6.1524999999999990e+00 1.3498160618518829e+01 9.0559316440060336e+00 0 0 0
618 2 7.3829999999999991e+00 1.2787731112280996e+01 9.0559316440060336e+00 0 0 0
619 2 8.6135000000000002e+00 1.3498160618518835e+01 9.0559316440060336e+00 0 0 0
593 2 4.9220000000000006e+00 1.5629449137232333e+01 9.0559316440060336e+00 0 0 0
616 2 6.1524999999999990e+00 1.4919019630994494e+01 9.0559316440060336e+00 0 0 0
617 2 7.3829999999999991e+00 1.5629449137232333e+01 9.0559316440060336e+00 0 0 0
640 2 8.6135000000000002e+00 1.4919019630994494e+01 9.0559316440060336e+00 0 0 0
272 2 0.0000000000000000e+00 1.7050308149707998e+01 5.8956729039314881e+00 0 0 0
274 2 1.2305000000000001e+00 1.6339878643470165e+01 5.8956729039314881e+00 0 0 0
317 2 2.4610000000000003e+00 1.7050308149707998e+01 5.8956729039314881e+00 0 0 0
319 2 3.6915000000000004e+00 1.6339878643470165e+01 5.8956729039314881e+00 0 0 0
270 2 0.0000000000000000e+00 1.8471167162183658e+01 5.8956729039314881e+00 0 0 0
313 2 1.2305000000000001e+00 1.9181596668421495e+01 5.8956729039314881e+00 0 0 0
315 2 2.4610000000000003e+00 1.8471167162183658e+01 5.8956729039314881e+00 0 0 0
360 2 3.6914999999999996e+00 1.9181596668421495e+01 5.8956729039314881e+00 0 0 0
567 2 0.0000000000000000e+00 1.7050308149707998e+01 9.0559316440060336e+00 0 0 0
590 2 2.4610000000000003e+00 1.7050308149707998e+01 9.0559316440060336e+00 0 0 0
566 2 0.0000000000000000e+00 1.9892026174659328e+01 9.0559316440060336e+00 0 0 0
568 2 1.2305000000000001e+00 1.7760737655945832e+01 9.0559316440060336e+00 0 0 0
588 2 1.2305000000000001e+00 1.9181596668421495e+01 9.0559316440060336e+00 0 0 0
589 2 2.4610000000000003e+00 1.9892026174659328e+01 9.0559316440060336e+00 0 0 0
591 2 3.6914999999999996e+00 1.7760737655945832e+01 9.0559316440060336e+00 0 0 0
612 2 3.6914999999999996e+00 1.9181596668421495e+01 9.0559316440060336e+00 0 0 0
364 2 4.9220000000000006e+00 1.7050308149707998e+01 5.8956729039314881e+00 0 0 0
366 2 6.1524999999999999e+00 1.6339878643470165e+01 5.8956729039314881e+00 0 0 0
411 2 7.3830000000000009e+00 1.7050308149707998e+01 5.8956729039314881e+00 0 0 0
413 2 8.6134999999999984e+00 1.6339878643470165e+01 5.8956729039314881e+00 0 0 0
362 2 4.9220000000000006e+00 1.8471167162183658e+01 5.8956729039314881e+00 0 0 0
407 2 6.1524999999999999e+00 1.9181596668421495e+01 5.8956729039314881e+00 0 0 0
409 2 7.3829999999999991e+00 1.8471167162183658e+01 5.8956729039314881e+00 0 0 0
449 2 8.6135000000000002e+00 1.9181596668421495e+01 5.8956729039314881e+00 0 0 0
614 2 4.9220000000000006e+00 1.7050308149707998e+01 9.0559316440060336e+00 0 0 0
638 2 7.3830000000000009e+00 1.7050308149707998e+01 9.0559316440060336e+00 0 0 0
613 2 4.9220000000000006e+00 1.9892026174659328e+01 9.0559316440060336e+00 0 0 0
615 2 6.1524999999999999e+00 1.7760737655945832e+01 9.0559316440060336e+00 0 0 0