LAMMPS data file via write_data, version 29 Oct 2020, timestep = 300681

4466 atoms
1 atom types

0.0 49.22 xlo xhi
0.0 49.019635930410494 ylo yhi
0.9097992619910293 59.15220073800883 zlo zhi

Masses

1 18.015

Atoms # atomic

1192 1 1.4883535601133333 0.1323383522255512 2.3005473915644563 0 1 0
2878 1 24.156670315809453 18.77217354498762 13.420351600460421 0 0 0
1792 1 5.970473407021161 1.410610174654539 1.5600192713264185 0 1 0
1557 1 16.52797557329279 1.9667846311700083 1.7222852565060698 0 1 1
805 1 4.268499965514272 3.737529549522114 1.4542090507822316 0 0 1
3323 1 17.8990180416605 24.426599127367968 1.4025496576322902 1 0 1
3892 1 9.219534603477419 24.48888439733102 18.45743526775919 0 0 0
2153 1 14.564049411461662 1.2147736914537322 4.244821308438717 0 1 1
3646 1 18.90524845990152 23.779804203341897 10.432820386659039 0 0 0
3390 1 16.574790646825438 0.1083476830001434 5.897353805073029 1 1 0
1438 1 9.665475818694107 3.3835037054884007 3.476978705308327 0 1 0
974 1 12.019378907257988 4.4220135368712175 3.5879730382420774 0 0 1
2038 1 20.041349284153135 4.629577537010089 2.308273702948923 0 1 1
2177 1 21.252650170117157 4.806258412053373 4.778856961307145 0 1 1
3164 1 24.215338395914273 5.052422689098229 3.0507191490848387 0 0 1
1983 1 0.40318085336101295 7.258420492200091 3.047418545301757 0 0 1
1236 1 5.100385169164334 6.299379402402859 2.2213350964327967 0 1 0
1659 1 3.326999637086221 8.156940118219138 3.9851228035623643 0 1 0
1401 1 7.68990861241977 6.671877256804042 2.654568883486134 0 1 0
926 1 24.01298212592703 8.205826307918217 4.834802205514416 0 0 1
3914 1 10.407006021444786 10.692208251817325 1.7622385907953884 1 0 1
3102 1 22.086115562033086 7.507259430878675 2.808643618773045 0 -1 1
759 1 1.3482656941979012 11.666863157828427 2.982034874189674 0 0 1
2013 1 3.925531516534454 10.621656871979813 3.022575360160556 0 1 1
1068 1 7.7855587678601905 9.407438837269353 2.090975022588417 0 0 1
1891 1 24.540749751873193 12.123423742173665 4.226356157000352 -1 0 1
336 1 10.11943459947834 0.40877508545894414 8.798189236535693 0 0 0
3902 1 17.25577584952399 11.483622895331495 2.853587319735068 0 1 0
249 1 22.437626648110363 10.46266754549064 2.642205735237512 0 0 0
367 1 10.168048192704159 8.53223604422688 19.661915941960753 0 0 0
874 1 1.6403721315999846 14.7723010444702 4.340945752064893 0 0 1
830 1 5.39007576863612 12.469974333622117 4.16657200771787 0 0 1
178 1 6.841744693766489 13.766396992913101 2.0812185282568145 0 0 0
3502 1 9.269416613089954 14.858816736113615 2.642222545510426 0 0 0
792 1 12.930114208120813 13.998149164082566 2.3151655237484667 0 0 1
4213 1 14.718146768978645 12.368020451563138 3.688909612465833 0 1 1
4398 1 22.08710882248897 13.329764464564475 2.410055140271008 0 1 1
648 1 19.441591902912073 13.389108684716193 2.2303967733997703 0 0 1
3188 1 23.025727402518022 14.782095936897434 4.520053178455968 0 0 1
1313 1 1.377730212670348 15.581989078215475 1.6620186761204794 0 1 0
3325 1 5.474755067900787 15.828494968315749 2.8127051891152584 1 0 1
2844 1 9.917881298580488 17.543706738594153 3.3786917591848264 1 0 1
3752 1 19.64741642337879 2.1171378710051387 1.2743408807499093 0 1 0
1989 1 14.776361436540148 17.737577164101587 4.380582858858139 0 1 1
815 1 11.269478111412447 19.37358904409825 1.6065385644271308 0 0 1
1249 1 12.001512145097001 8.435235582791107 1.4538045059257332 0 1 0
2470 1 23.272885948957406 23.294810727844485 15.821397793618992 0 0 0
3732 1 3.5247794558006547 19.14692815418134 4.907896189361269 0 1 0
968 1 4.725765959243398 20.418228691597935 2.82022815314827 0 0 1
1622 1 7.393315456442116 20.43587982523371 2.9280470301867902 0 0 1
583 1 20.90312964004349 24.151495440549596 8.50267930411682 0 -1 0
816 1 22.038019965335362 18.826979580106848 2.90411419771823 0 0 1
2558 1 2.278804897506663 23.335282430266282 4.594703358009243 0 0 0
1397 1 3.939133658175111 23.04024234705288 2.4880650599621754 0 0 0
2270 1 9.245026785617238 22.44787172008032 16.707274709322974 1 0 0
471 1 9.96129454862123 22.777299415557742 4.079387579388941 0 0 1
2543 1 14.060286225744779 21.99732296840943 3.5919313747501045 0 0 0
2460 1 16.187393721096093 23.24170467394165 3.3547848566527176 1 0 0
1270 1 3.723646457842733e-07 3.7451830692806225 18.018164192312582 1 1 0
196 1 20.084504639001143 22.786616753715123 1.3062898934346685 0 0 0
2032 1 2.4669388975496522 2.562516413625933 5.678207317424153 0 1 1
3664 1 6.634773286356012 1.1335638440974047 7.022227809926031 1 1 0
3056 1 9.586005977632118 1.6359692603672806 5.693800818717922 1 0 1
1630 1 14.90798128678464 1.552102837641285 19.378899956756978 0 1 0
1152 1 12.507791791518358 1.3009305110673064 6.5400309966223515 0 1 0
2258 1 20.217093198325607 0.9114999912142413 3.795750420242033 0 0 0
2436 1 2.050031620716425 2.902718405965887 2.932052739949583 1 0 0
1882 1 4.039672194316469 4.557802314076533 7.260966945355121 0 0 1
137 1 7.197878179259256 4.034884055724898 7.066623126191865 0 0 0
2096 1 14.651299184008714 4.007541795416845 4.63918000276352 0 1 1
967 1 17.086268960585407 2.992899003042694 6.297481375876949 0 0 1
2292 1 19.829126190911136 2.30018515810985 6.215306299950104 0 0 0
2281 1 1.1275336355198438 0.422477322648775 11.114074441750997 1 0 0
108 1 13.324274762974259 20.791333050660782 13.31124566253234 0 0 0
2466 1 3.023852136279882 6.815384268163561 6.576979726733755 1 0 0
278 1 8.620983379095895 5.588570150800709 4.991828225588599 0 0 0
2758 1 11.475108413861035 6.3248968190878285 5.900434846720777 0 0 1
1988 1 15.394118290454783 6.605315711306993 3.676405247691161 1 0 1
3042 1 12.925589069948261 8.086049781816621 4.162130428351311 1 0 1
2228 1 17.154370725736385 7.451464932657025 5.714500904598902 1 0 0
286 1 19.941119580110072 7.843606921588301 4.919233085404295 0 0 0
632 1 24.356024996359427 17.269912061014512 3.192105926312088 -1 0 1
111 1 0.4275664377702533 12.419419086152589 5.471362403742937 0 0 0
726 1 8.880125702400505 12.163433643469382 6.767297839130639 0 0 1
3001 1 7.999588210682496 8.286279960809365 6.475815241460341 1 0 1
2547 1 10.46612601398505 8.600032589409851 7.424260901728842 1 0 0
2166 1 13.44911789289432 10.361574951715006 5.079629129034681 0 0 1
1263 1 11.667567377073723 11.201551265706026 7.38002703153705 0 0 0
3051 1 19.822569733875543 10.665402167658264 4.016827155812125 0 0 1
414 1 20.80330192200785 12.005674199864336 6.101210381287698 0 0 0
262 1 4.896890230757929 13.595514156152237 8.186170421959721 0 0 0
882 1 3.9939348807241704 14.419757256358322 5.576062629958597 0 0 1
98 1 7.652916737392069 10.402386140129385 4.6123939046563835 0 0 0
4300 1 8.57889722614742 14.845638712899428 5.802272981880594 1 0 1
1 1 11.378079479081325 14.331450400190745 6.87002567826376 0 0 0
1348 1 16.15643973613163 13.847676700125191 5.459905220771427 0 1 0
2452 1 20.45331574957027 14.94972307645365 5.804438489345684 0 0 0
3760 1 18.15049195883245 15.13537371629699 4.191626965113419 0 1 0
4175 1 0.7486545650331937 16.245704898358586 6.487999118421067 1 0 1
289 1 4.959518528512421 16.949131709429263 5.455667071770772 0 0 0
1415 1 7.670603470923268 17.28034689638091 6.531239136731923 0 0 0
94 1 12.271854351799217 16.22308946312054 4.270554414116141 0 0 0
2919 1 17.31088991531379 17.30214127014048 2.909794363411917 0 0 1
4272 1 0.9717767429983366 18.89725273453037 5.697292436532208 1 0 1
3730 1 4.525510604190594 20.940776880150967 6.986757199260485 1 0 0
1087 1 9.187231065874995 21.57027721756021 6.4801109390778855 0 0 0
426 1 8.61274164831867 19.330208206832005 5.072893052376165 0 0 0
1209 1 13.824175583779937 17.976747819861036 7.612759764356044 0 0 0
2716 1 18.302105865868445 21.503411803632773 3.9479572436379278 0 0 1
3665 1 17.111707050406206 20.231755724117214 6.319710705042881 1 0 0
1383 1 19.238482058294814 19.175972381343414 2.8810879781443344 0 1 0
1992 1 21.67340955425435 19.844246719663786 7.300896446689383 0 0 1
2107 1 8.645950209906998 22.863331844967878 1.732226757870777 0 0 1
4062 1 1.7082073701981544 24.334367646045205 16.13515530645112 1 0 0
3023 1 3.0590571604359704 23.382501102872638 7.403030372524655 1 0 1
3196 1 6.718921718644967 22.72742370956992 6.723414729212084 1 0 1
1827 1 9.912694742917804 21.769079958601917 9.487833703079401 0 0 1
2560 1 14.368428718415036 20.25257224604061 5.6130694877352 0 0 0
3133 1 14.700041230192154 22.115831534387745 7.914635968410535 0 0 1
870 1 22.2904908184571 21.199813229789942 4.809321806842706 0 0 1
4370 1 14.92235099201622 18.16125307659295 1.2762134247143593 0 0 1
412 1 3.5021892701862707 1.8102460626030734 10.771456411360994 0 0 1
1026 1 5.643819500077128 0.503788849007047 9.799669902453218 0 0 1
1715 1 12.165797467327668 0.7376207180757088 20.25960543299793 0 1 0
1451 1 12.903043850770032 1.6541520985745624 9.804202781721237 0 0 0
365 1 15.551360663522306 2.318161512882232 8.408776841675943 0 0 0
149 1 20.534586245463483 0.5288435430463991 8.140253475563437 0 0 0
3677 1 22.575384724285563 3.0174319227568858 9.394546128258336 0 1 0
4224 1 3.313823173628416 4.49632730022929 9.942509260490802 1 1 1
314 1 8.789018174441868 2.6684990160498177 8.919336214527423 0 0 0
347 1 10.919863895618317 4.318341675812182 9.142013504430079 0 0 0
888 1 13.130007573106392 4.442303694163404 6.9810515887187865 0 0 1
3444 1 17.459017749477162 5.412283420746658 7.629636563669011 0 1 0
2713 1 22.54423705521676 5.235888868181551 7.436440619056954 0 0 0
1226 1 10.604608223518031 0.32403897378982743 11.791079471004279 0 1 0
1301 1 1.2858486860974068 8.306556088320761 8.359687831537522 0 1 0
2402 1 0.9884439469510703 5.68667445600731 9.4820707999558 1 0 0
1746 1 7.006995227069035 6.006038585436808 8.841426292774367 0 1 0
1357 1 9.48698340948367 6.914402487509043 9.777662948358838 0 1 0
2456 1 14.821227222012265 5.935601579630513 8.449127076809097 0 1 0
205 1 14.906813531249773 8.505025469407462 9.607806227425733 0 0 0
1344 1 21.379743736397614 7.870558434095661 7.495131663012355 0 1 0
345 1 19.206336955117386 6.824500126423305 9.39631825984854 0 0 0
2113 1 20.968975412334213 8.768889004768175 10.761580015722371 0 1 1
3284 1 23.774497995117095 9.026182378263302 7.506720711924094 0 0 1
2312 1 6.218612495909168 10.880196493988112 20.289556361438777 0 0 0
184 1 3.375532537047136 9.925658519586499 8.98962023257036 0 0 0
3506 1 5.475823499667761 8.077655502181583 7.710353842646524 0 1 0
2442 1 7.468178049803275 10.773815384399798 11.213728138938075 1 0 0
735 1 13.421927715463758 10.979472960096498 9.452717497112504 0 0 1
1752 1 15.496518893489538 9.665067884834528 6.767177119080139 0 1 0
1242 1 18.854836440839623 12.04860034747024 8.4248562574703 0 1 0
4454 1 23.213053314613944 11.579865770451107 6.419477172356336 0 0 1
4054 1 2.1934440128319173 12.573178567504998 7.971602304861305 1 0 0
3071 1 0.963972144924576 14.930495746651353 9.494264091685531 1 0 1
356 1 3.710657713426475 15.139902120857244 10.33082145589691 0 0 0
1293 1 7.250983081803917 12.672165415895272 8.878607507325901 0 1 0
96 1 8.311244073148483 15.15795091882646 9.8990724849561 0 0 0
1010 1 16.477168056250825 12.107334206446177 7.439800192478231 0 0 1
2316 1 13.962915846848253 15.354206834408954 6.670022431561449 1 0 0
2532 1 18.454006277009064 12.554638635856787 12.987089078296764 0 0 0
270 1 19.78465738810932 14.677234536319256 8.597636876870727 0 0 0
945 1 24.01962249853975 13.134421781931831 8.493409161492657 0 0 1
86 1 22.098641806865224 14.125133934260603 9.996134013876333 0 0 0
2531 1 2.020062421551367 2.9681068651179943 19.59140843409045 1 0 0
522 1 4.8880337092965815 17.550332952381787 10.501584637476249 0 0 0
2335 1 7.333786619711919 17.492192189425896 9.152961860841895 0 0 0
3141 1 10.86534072945318 14.587046769999873 9.557314230881264 1 0 1
4052 1 17.809701370723655 17.624401735953292 6.864605699911093 1 0 0
256 1 18.187006982668734 16.98790253483552 9.361075563380142 0 0 0
2525 1 20.362971090111753 17.891752275355984 5.399306713792229 0 0 0
4189 1 22.890852829635964 16.913066662418704 7.403219506353398 0 0 1
2286 1 1.0122072768626413 19.21551686080029 8.624808593209728 0 0 0
852 1 3.6036023659347483 19.775649107051148 9.56033562337468 0 0 1
1948 1 9.591157275952297 18.88365071388509 10.819439603746456 0 1 1
25 1 11.786186261272166 17.401402306091175 9.75198055362957 0 0 0
1361 1 15.517274113415334 17.998766912368716 9.84905814046406 0 0 0
4457 1 19.6487870327433 18.994473232428128 9.960244304735582 0 1 1
397 1 23.250421722689925 22.489062306964616 7.67407680522594 0 0 0
3534 1 16.129190468634015 24.463272062936667 13.970569724424267 0 1 0
1174 1 1.3642235783953787 22.886433180129735 11.036325058987487 0 1 0
2161 1 5.276013425459404 23.408505084805427 10.865656020645282 0 0 1
572 1 7.755925505650236 23.129657501892606 9.330328285565015 0 0 0
1173 1 10.153767020653296 21.035646050488133 12.674173564681684 0 0 0
3632 1 14.522656866101363 22.737005601278504 11.714473008433865 0 0 0
19 1 15.735549652734262 20.982719778596294 10.068684553135963 0 0 0
1629 1 16.758263869325738 23.281542603039256 6.963422250645874 0 1 0
1725 1 0.7282899460273627 22.303498798677506 8.509567018196162 0 0 0
2241 1 4.833537276414547 2.386012839107412 13.166337299114867 1 0 0
3095 1 8.800525909639761 1.7802223035377023 15.021489518999209 1 0 1
3645 1 13.021781580811563 1.5835464123502183 13.078250683833065 0 1 0
2799 1 12.994926101339 4.206283584817462 11.53150507486734 0 0 0
3627 1 17.68358355827004 23.22130136897859 19.963283532902988 1 0 0
288 1 17.37982647026327 2.346341970558606 10.639942828630863 0 0 0
1640 1 24.34090845340048 20.568222849510157 15.587546907461883 0 1 0
2422 1 20.970519098105743 3.402299496341217 11.467786374496741 0 0 0
352 1 6.360946341347226 3.442346312736416 19.91859255806397 0 0 0
809 1 17.676588830732896 6.296338315266734 1.8059452792545567 0 0 1
1352 1 3.7975177300378085 5.105495626777617 14.030673249159369 0 1 0
1377 1 6.8366978765962205 3.183451152637215 10.996414809995327 0 1 0
1412 1 9.354730640126744 2.794170511894417 12.438717165140202 0 1 0
1150 1 15.407693938566952 4.9766852724574795 11.080918856997801 0 1 0
3862 1 15.806413447695512 1.6649809636653874 12.910848764851826 1 1 0
3932 1 18.893105557687825 4.883273764171528 11.467567351321536 0 1 0
138 1 22.738336802075143 4.302375232626388 13.31718612105989 -1 0 0
3908 1 19.130165724456837 0.09422741012493945 10.62227730099339 0 1 0
4290 1 5.326524800067056 5.775079874638605 11.322498015763804 1 1 1
1307 1 5.542749236396898 8.937771600404686 12.322862415440296 0 1 0
846 1 11.980052139966478 7.1601266236878445 11.248052532809576 0 1 1
1266 1 11.862573332833806 9.977065347348232 11.833639418224424 0 0 0
2428 1 17.274231611033503 8.641568933496767 10.46823223782263 0 0 0
2626 1 24.011150215136052 6.686838927969326 12.115850117783559 0 0 0
508 1 21.599293371385418 8.130681116274063 13.380484937993673 0 0 0
2663 1 3.0841602290418644 9.94896653488535 11.666979896293805 1 -1 0
306 1 9.262098972482594 9.417868203394391 12.904551310153005 0 0 0
2515 1 10.153514975253671 11.794696228221028 10.161745002703306 1 0 0
3332 1 19.23686047359654 10.784275892385569 10.682675542636433 0 0 1
1364 1 22.416495003450475 10.683113973071272 14.407603977139086 0 1 0
3729 1 23.13656498772182 0.03141348769349513 9.56397903178985 0 1 0
1974 1 2.182189596948942 12.103053115732939 13.054754985107335 0 0 1
40 1 4.396186910200214 14.044857208989747 12.838432724473437 0 0 0
192 1 6.8434323371042085 12.830436915289395 12.818488240104752 0 0 0
2842 1 8.698984367526283 14.64117067958653 12.64602925713985 1 0 0
3596 1 14.794174675246133 13.571660798995024 9.07333946805572 0 1 0
3177 1 21.532985612093924 12.063096215250711 11.882595662135698 1 1 1
2616 1 6.012461269193365 17.870861804487408 13.067560873455397 0 0 0
73 1 11.378793517183098 14.667095406627459 14.219665243777877 0 0 0
193 1 12.884773287261218 14.407549840216689 11.568899842968 0 0 0
2528 1 16.75573930515214 15.89503640911079 12.93924864287495 0 0 0
2090 1 17.575974003738363 14.254389420679745 10.777919869133367 0 0 1
905 1 23.131234004603805 16.71880029840597 9.992372856579813 -1 0 1
1363 1 0.4179215970282585 18.288193462871508 13.288250739988076 0 0 0
910 1 20.64638214395266 0.8519914382975071 12.710329640178536 0 0 0
466 1 3.402251959918374 21.342964156289 11.740975798976198 0 0 0
1830 1 2.941260092205952 19.729623092018524 14.063279117452344 0 1 0
2899 1 8.56035933129458 17.402808244022502 13.052447466795192 0 0 0
416 1 13.687841323830456 17.078502183587414 11.94111624922425 0 0 0
2564 1 18.019379194854306 18.312275748225108 12.652024734354478 0 0 0
1071 1 20.43072787869309 18.9934863394404 14.044170421390817 0 0 0
4011 1 22.032040414214666 19.37180018631144 11.516145644925695 0 0 0
285 1 0.07652452858033501 13.498627366914794 11.858158283936007 0 0 0
599 1 8.028703452246065 21.878625298435583 14.074103657120077 0 0 0
120 1 11.685826263177608 22.867882531233054 11.026697726971433 0 0 0
2186 1 12.881161318989147 17.454714514660786 14.5792407963798 0 0 1
2092 1 18.23562853536921 21.135873331607694 9.043046757103324 0 0 1
335 1 1.2009483567743724 7.7452922842921685 11.449611261128977 0 0 0
4439 1 12.445074639982531 24.11855370721724 3.880285870483284 1 0 1
2573 1 22.728344143387044 21.92143520641858 10.559838905137903 0 0 0
4421 1 2.0977546227199775 1.5841716502641907 14.867549681590035 1 1 1
3413 1 12.208543333543064 5.4539531409988 14.998936342941226 0 1 0
2999 1 22.581145775225206 22.985208552251635 18.325541232012924 0 0 0
904 1 10.052646231272519 2.4135251668575717 18.889633578546466 0 0 1
3007 1 19.058088412301135 1.2419686188651973 15.846330049613787 0 0 0
2673 1 21.596629597509718 0.650504045324308 15.220771410735301 0 0 0
3849 1 2.568715410807213 4.071890729754717 16.001904114947873 0 1 0
363 1 1.0343010617885333 6.708972631428381 13.952287923665649 0 0 0
1189 1 10.294075407281749 5.2997993628232765 12.989451142278186 0 1 0
676 1 12.38045900424183 2.5887629318652152 15.665827744157552 0 0 0
758 1 18.396102425457467 5.1640131127013875 14.311866395091966 0 0 1
2489 1 17.003108133103453 3.0429571346852535 14.97485095480621 0 0 0
1186 1 22.922023660845685 3.0829823109827976 15.752337176225971 0 1 0
2519 1 20.918797454984997 5.878481698943308 14.697738201567212 0 0 0
60 1 11.321050224713268 23.635393346416492 20.196778852671237 0 0 0
4010 1 0.4163369024353787 9.163915489349797 15.328166904677236 1 1 0
2361 1 7.678427613090654 6.926206464713578 12.283337409600104 1 0 0
223 1 16.31804232583732 6.460269969215253 15.510180823637528 0 0 0
2803 1 13.850615066087492 8.07707986711705 13.901685629626453 0 0 0
3065 1 16.004325193512884 7.184061878523392 12.58531863101957 1 0 1
2183 1 4.220298988571997 0.5136231541807013 5.6763629443885515 0 1 1
769 1 2.766053453596481 9.804707343254137 16.468752379689562 0 0 1
1421 1 4.92686322019669 9.282031361625064 15.168917736327256 0 1 0
2461 1 6.6581310889504 11.484997534148356 15.48337650643379 0 0 0
2720 1 9.434004805749668 10.739805354961895 15.250022241845272 0 0 0
470 1 13.274365672319016 11.07693944429281 13.90180542588348 0 0 0
2530 1 16.369827917387585 11.846979251698388 15.105785384332357 0 0 0
344 1 22.64863592458769 9.449142514078627 17.40625405889857 0 0 0
2249 1 0.5402363126017061 14.420631570967204 16.39584682371717 0 0 0
4021 1 5.051348749896321 13.608955568888849 16.67561905658646 0 1 0
3574 1 2.526864325967727 12.685948827103159 16.030500765367403 1 0 0
3309 1 11.856809830979444 12.382644502728965 15.764380012238483 0 0 1
913 1 15.194632910227282 12.851098118868649 12.619904969693758 0 0 1
282 1 18.380454065695194 15.67783294701486 15.299561744420219 0 0 0
1233 1 20.356983893823365 13.6747589941321 14.585837783620358 0 1 0
729 1 20.78447978122528 11.774754546838635 16.472518582293898 0 0 1
673 1 2.0261322335096925 15.972913465845595 14.399233394144636 0 0 0
860 1 4.961636522715736 15.87890996491028 14.654237739392709 0 0 1
1289 1 7.596413203811224 15.987985801105221 16.485544631947445 0 0 0
318 1 14.782307485237093 15.188298520024372 14.651454319186065 0 0 0
174 1 19.90384909463412 17.4942909903629 16.957358158843405 0 0 0
3315 1 17.890703505306412 19.157224480058552 18.534042956617892 0 0 1
253 1 22.641716941990236 15.035480908985532 16.334610588417867 0 0 0
83 1 18.75889338459935 0.7821195398833286 18.396411275633294 0 1 0
317 1 4.089730503972467 21.35559381656873 16.534113902609032 0 0 0
1532 1 7.384186450703018 18.70892470595465 16.66376306130691 0 1 0
404 1 10.365835337671754 17.630314481965314 15.303282730799344 0 0 0
488 1 10.881071223215184 15.494917053852875 17.476494603716713 0 0 1
566 1 13.19460563580659 18.306693175751224 17.191673462209142 0 0 0
3048 1 15.930660667748219 17.73377069480589 16.340614018948457 0 0 1
18 1 22.32119256129894 17.64192515346568 15.62835406706547 0 0 0
3687 1 1.050876597486555 21.704067277549782 15.319620826739788 0 0 0
4466 1 4.354486114663013 24.006387789878953 16.465451923032077 1 0 1
1332 1 6.036183607267619 20.20660694168068 14.76105692108761 0 0 0
3980 1 20.911537535453455 20.73657920915879 18.21462273366216 0 1 0
1245 1 11.806202444336549 23.236351228373668 16.0088879939219 0 0 0
1394 1 15.733343309003596 19.5444147589252 14.058067631239432 0 0 0
611 1 17.008087463401967 21.79046802830733 14.927416496759685 0 0 0
4242 1 19.660606613376032 20.947503771768897 15.561700460469329 0 0 1
3708 1 20.70038850096847 23.247491368239928 14.827754752276174 0 0 0
1336 1 10.881303579874036 0.34974986135694386 17.001657414528353 0 1 0
1201 1 4.2491994075837844 1.4780140978744196 19.47633105982111 0 1 0
661 1 9.007430146823705 15.780475563053637 19.670106137613868 0 0 0
1369 1 20.846572854785776 23.221142036947786 4.039423273361694 0 0 0
1392 1 18.28076655302159 14.69349809521905 20.005970817350267 0 1 0
3726 1 13.978888081056104 21.231238066498182 16.295050342855582 1 0 0
3702 1 4.792842508320681 4.334029439134606 17.663529025722806 0 1 0
2561 1 6.756836377821283 3.990046067762157 15.324611625018731 1 0 0
4264 1 23.242772200272395 19.294021967425497 17.904081372784 0 0 1
4 1 14.86369957629462 3.0530249173391164 16.90412160940838 0 0 0
2308 1 11.563442920510965 4.561293717152209 18.36982166316548 0 0 0
1358 1 15.374268571376978 5.532907180869707 18.01717079013254 0 1 0
663 1 18.040423394144728 4.618990496501411 18.61211337260197 0 0 0
3871 1 21.77512865221832 4.074738849591596 18.363648925724497 0 1 0
681 1 2.4799767583324948 7.928996698188224 18.566997052599383 1 0 0
649 1 5.150265476371511 7.025474432949202 18.8416516373551 0 0 0
2702 1 6.767745714192017 8.175007518671618 16.867718563909474 1 0 0
972 1 8.414262880018999 6.35148727597592 15.06070724811061 0 0 1
881 1 13.446339697587893 7.388536169410479 16.834096720217413 0 0 0
145 1 17.26689432218766 8.75439207760851 16.957966365755876 0 0 0
478 1 19.21288349778642 7.317074082302695 18.870667864837568 0 0 0
2925 1 21.899781830832662 6.69053696339852 17.02466595666135 0 0 0
2287 1 21.33479909947888 9.10674889932383 19.922113533449245 0 0 0
3285 1 13.806791883672231 20.626677373511832 1.2837204121134775 1 0 1
1158 1 8.302437699096428 10.296519673167301 18.336603390628166 0 0 0
1488 1 10.342173342111769 8.248427082622872 16.48712641679575 0 0 0
28 1 13.877050764600012 11.813897562579635 19.293031627593315 0 0 0
1526 1 14.411245088626249 10.556216621590627 16.80264815077876 0 1 0
1290 1 17.932824419416665 11.470702844974706 17.31525487093768 0 0 0
827 1 10.23659138610539 12.062772104005703 18.260357867923517 0 0 0
2869 1 21.400573367766448 12.916628007991811 18.971995756824366 0 0 0
3704 1 1.1832296435159873 14.969315192788349 19.12743332042996 0 1 0
308 1 5.9884262565494755 15.106408624767187 19.070782936700986 0 0 0
1742 1 13.415668599986255 14.355774958204089 17.979485828229937 0 1 0
1258 1 16.23317748062372 14.371358705505774 16.795727219274497 0 1 0
4144 1 23.493647149748192 0.7981530051725667 3.5756681622205226 0 1 1
1448 1 20.97203783328128 15.712449965428158 19.003043720388696 0 1 0
3587 1 1.039362357005928 9.376271831990465 5.589044508960056 1 0 0
2504 1 23.50013870122324 10.766632759688854 10.029927386305426 0 0 0
3710 1 4.506767545121991 17.338798866903634 18.27995100306493 0 1 0
1386 1 21.19078589205632 23.598319563860915 12.142657033583355 0 0 0
2131 1 12.214138680822355 16.98018535236206 19.367231107470726 0 0 0
3334 1 16.564228575576642 16.6868134678818 19.029930665379634 0 0 1
1997 1 2.519996299035839 18.03905643347736 16.493441630997403 0 0 1
2269 1 2.073267945138088 19.938114346135052 19.28391400561902 0 0 0
459 1 12.280975941925696 21.65083978225716 18.74330828202565 0 0 0
1149 1 6.647173596333131 19.21089229237298 19.276472205680065 0 0 0
613 1 10.190149612112398 19.819240749668708 17.41926593575547 0 0 0
1505 1 16.567758747770633 21.477731178662278 17.652486997284807 0 0 0
2892 1 16.661983435393633 12.115422315951232 20.01289221070109 0 0 0
2865 1 4.42589142104663 23.90267744053042 19.33040944259634 1 0 0
4015 1 4.590198358462965 21.067164333360207 19.625345095703224 1 1 0
343 1 12.932905237944789 9.175736412751032 19.23154316542162 0 0 0
125 1 24.279681382107032 11.713880628399751 19.02409435454273 0 0 0
2681 1 24.59148870656423 6.539321825078396 9.115048021569075 0 0 0
2419 1 24.339584919461704 2.16707564483962 12.548035740591681 0 0 0
516 1 7.326891975308735 24.375295510038946 12.670342682695626 0 0 0
541 1 17.395823153054273 24.451232795138143 16.915647447916374 0 0 0
213 1 3.0814961064101167 0.13109413123827096 16.945256022268175 0 0 0
63 1 7.712276721964532 1.132284972848734 20.157724175303844 0 0 0
3762 1 2.4358187387643446 17.12223151669115 20.2068566033056 1 0 0
3125 1 4.984635656608261 3.815415582518421 22.587425751186792 1 0 1
598 1 18.907394306914497 24.415536523686043 23.40045441950569 0 0 0
4277 1 0.451631053072001 20.669228528666096 21.431910854809914 1 1 1
309 1 15.621527738100347 2.292915972737231 21.752671656362956 0 0 0
491 1 20.71449393376124 2.085622389961159 22.060736305476777 0 0 0
1080 1 24.456753312046878 2.640447638531184 28.579863264292232 0 1 0
57 1 8.038791401702898 5.186823783142653 21.690345800707004 0 0 0
2911 1 7.472124228272115 7.0773207735776085 39.50138868896498 0 1 0
1810 1 1.19562522636285 14.24724947259913 27.42175096930912 0 0 0
1194 1 17.225955098577273 6.465250467795735 21.237246758853214 0 0 0
2285 1 24.08632920995115 5.499717459317605 22.622938026856577 0 0 0
358 1 7.712216104000239 0.6004827735002989 33.82585071993679 0 0 0
411 1 5.213115838340971 8.576202125254861 21.20365703314785 0 0 0
1506 1 7.066434664841788 7.402612192082305 23.1998780320345 0 0 0
4362 1 10.271665539225362 6.112486429874345 20.6983459862979 1 1 1
3852 1 2.7687002939176786 2.271105090426766 23.314281323086895 1 1 0
548 1 18.396928090383156 8.799138440704418 21.742265642711253 -1 0 0
2730 1 20.675325553281247 8.05219676068487 23.390422252554725 0 0 0
2594 1 22.80827481116252 7.83271265094957 21.769550017454097 0 0 0
3050 1 1.3005244701842764 11.058717755595403 23.930616216711773 1 0 0
2751 1 7.977873595519672 12.028961950837926 22.387798627686013 0 0 0
1720 1 0.14964719157191314 19.908035901144043 27.154019114684857 0 0 0
2715 1 0.08182171575493413 7.0063476267520794 37.97039750166482 1 0 0
4412 1 23.619487039970576 1.6755460341091128 39.648660116664466 0 1 0
2397 1 15.060166875895709 12.006351629893572 22.548160196055406 0 0 0
2801 1 19.713002146628416 11.4139736564495 20.71678581599696 0 0 0
212 1 24.465972756961822 9.840658958065772 21.714793721998614 -1 0 0
2712 1 0.8084572404496444 8.745434077037762 29.577438416687862 1 0 0
3878 1 9.938394047041866 13.418708420331532 20.739663080584293 0 0 0
268 1 10.6042375621233 17.2428833601689 21.832658968552543 0 0 0
2437 1 16.342690564155305 14.286574806559676 23.50134343419719 0 0 0
737 1 15.213605605444709 22.981148059507703 27.923881698122955 0 0 0
2634 1 19.004139498548255 14.344824753807673 22.73507461655648 0 0 0
2679 1 23.431045435262583 12.842968814266781 21.715808012639833 0 0 0
355 1 4.015902807967854 17.387183084860904 22.43528503739944 0 0 0
2688 1 5.560141663758993 13.959693231904954 22.714717816873872 1 0 0
1427 1 6.720856786792049 16.36610897078627 21.67425878244948 0 0 0
2333 1 10.478464160501904 20.16401046806048 22.04414435931545 0 0 0
1874 1 14.35113877636078 16.253636576167196 23.23012551855764 0 0 0
1796 1 7.477815299886875 0.3885175888073935 38.45683426683322 0 1 0
1121 1 20.38644610663482 16.798078610229876 21.718516110079072 0 1 0
713 1 23.259889050457886 15.384334795238523 20.758160451140284 -1 0 0
643 1 3.898016785569793 20.00131825110156 22.308042393965778 0 0 0
264 1 7.60877107260854 19.17482358048507 21.856704751541862 0 0 0
987 1 13.301045698184106 20.53167855934613 21.12439152914193 0 0 1
394 1 22.505003705469687 20.45644069370154 22.361363724436767 0 0 0
2870 1 19.602594450451193 20.84238488119292 24.028518343937776 0 0 0
421 1 0.6193531984893372 6.357313676425497 21.713437111328158 0 0 0
2926 1 3.0809414226547136 5.1955202123247 20.921166222225793 1 0 0
1572 1 7.3248621608762985 23.725177088382527 22.736600078364173 0 0 0
59 1 9.90931724038039 22.9183855601985 22.548555367087005 0 0 0
3795 1 9.149732670100272 2.534081127216182 38.5760361962694 0 1 0
618 1 20.493283803621857 23.152084460144756 36.718267065929 0 0 0
1319 1 17.0264266568647 22.026719328432012 22.574198337575538 0 0 0
2267 1 21.52800626015343 23.07383346340327 23.586109637590557 0 0 0
133 1 12.339671038583292 23.609520040357882 28.665904248086637 0 0 0
3893 1 5.606262543787096 1.6705639119315387 24.868471572881912 1 1 0
4281 1 14.299644871081195 24.225148545503025 33.80027604534028 0 0 0
232 1 10.963763243626541 2.64912923720657 23.795682257032883 0 0 0
2480 1 11.782260533766799 1.0716866468119377 25.840912195220167 1 0 0
2742 1 19.997233973069342 3.7215670813530886 24.27666473260627 0 1 0
1305 1 20.9639121042507 1.3854953177796556 25.783385056496158 0 0 0
2725 1 3.2119810930160937 6.896648625779849 25.969845338038713 0 0 0
925 1 5.264356634260189 5.626107727704354 24.586643541201806 0 0 0
3965 1 7.137655785457203 3.848978263417322 25.83807000421116 1 1 0
2871 1 9.063895457521237 4.696898629653628 24.040341016575976 0 0 0
499 1 10.412334799528189 6.6381074534199405 25.389860401906997 0 0 0
3761 1 13.65380296263457 3.8658554340170252 23.352016120027695 0 0 0