
# read in water data
read_data data.liquidML_1000_245K group water extra/atom/types 1
Reading data file ...
  orthogonal box = (0.0000000 0.0000000 0.90979926) to (49.220000 49.019636 59.152201)
  2 by 2 by 3 MPI processor grid
  reading atoms ...
  4466 atoms
  reading velocities ...
  4466 velocities
  read_data CPU = 0.009 seconds

# remove area for graphite
region substrate block 0 ${XDIM} 0 ${YDIM} ${Z_LO} ${Z_HI}
region substrate block 0 49.22 0 ${YDIM} ${Z_LO} ${Z_HI}
region substrate block 0 49.22 0 49.019635930410494 ${Z_LO} ${Z_HI}
region substrate block 0 49.22 0 49.019635930410494 25 ${Z_HI}
region substrate block 0 49.22 0 49.019635930410494 25 35.062
delete_atoms region substrate
Deleted 769 atoms, new total = 3697

# Insert substrate
read_data data.graphite add append shift 0.0 0.0 ${Z_LO} group graphite offset 1 0 0 0 0
read_data data.graphite add append shift 0.0 0.0 25 group graphite offset 1 0 0 0 0
Reading data file ...
  orthogonal box = (0.0000000 0.0000000 0.90979926) to (49.220000 49.019636 59.152201)
  2 by 2 by 3 MPI processor grid
  reading atoms ...
  2760 atoms
  reading velocities ...
  2760 velocities
  read_data CPU = 0.005 seconds


# Define potential
# CHECK ON THIS %%%%%%%%%%%%
#
pair_style sw
pair_coeff * * MLC_e.sw mW C


# Delete water and ice atoms that are overlapping
#
delete_atoms overlap 2.5 water graphite
System init for delete_atoms ...
Neighbor list info ...
  update every 1 steps, delay 10 steps, check yes
  max neighbors/atom: 2000, page size: 100000
  master list distance cutoff = 6.6747184
  ghost atom cutoff = 6.6747184
  binsize = 3.3373592, bins = 15 15 18
  2 neighbor lists, perpetual/occasional/extra = 1 1 0
  (1) command delete_atoms, occasional, copy from (2)
      attributes: full, newton on
      pair build: copy
      stencil: none
      bin: none
  (2) pair sw, perpetual
      attributes: full, newton on
      pair build: full/bin/atomonly
      stencil: full/bin/3d
      bin: standard
Deleted 120 atoms, new total = 6337

# set timestep
#
timestep 10.0

# Define output
#
compute 1 all msd
compute 2 water temp
thermo 50
thermo_style custom step c_2 press vol etotal ke pe c_1[4]

# Neighbor lists
#
neigh_modify delay 0 every 1 check yes


# Fix graphite atoms in place
# CHECK ON THIS %%%%%%%%%%%%%%%%%%%%
#
fix 1 graphite setforce 0.0 0.0 0.0
velocity graphite set 0.0 0.0 0.0


### NEW FOR TESTING

# Set fixes

#fix             2 water momentum 10 linear 1 1 1 rescale
#fix             3 all nve
#fix             4 water temp/csvr ${TEMP} ${TEMP} 500.0 837493
#fix             5 water press/berendsen z ${PRES} ${PRES} 1000.0 modulus 20000

# Run 0.5 ns equilibration

#timestep 5.0

#dump		    1 all atom 2000 testnve.${NAME}.dump

#reset_timestep  0

#run	            50000

#write_data		testdata.eq-${NAME}-${TEMP}
#undump          1

#reset_timestep  0

#unfix           3
#unfix           4
#unfix           5

### END NEW FOR TESTING



# Set fixes
#
fix 2 water momentum 10 linear 1 1 1 rescale
fix 3 water nph z ${PRES} ${PRES} ${PCOUPL}
fix 3 water nph z -1000 ${PRES} ${PCOUPL}
fix 3 water nph z -1000 -1000 ${PCOUPL}
fix 3 water nph z -1000 -1000 10000.0
fix 4 water temp/csvr ${TEMP} ${TEMP} ${TCOUPL} 837492
fix 4 water temp/csvr 245 ${TEMP} ${TCOUPL} 837492
fix 4 water temp/csvr 245 245 ${TCOUPL} 837492
fix 4 water temp/csvr 245 245 5000.0 837492


# Run 0.25 ns equilibration of water
#
dump 	1 all atom 2000 testnph.${NAME}.dump
dump 	1 all atom 2000 testnph.ML_graphite_m1000atm_245K.dump
run 	25000
Neighbor list info ...
  update every 1 steps, delay 0 steps, check yes
  max neighbors/atom: 2000, page size: 100000
  master list distance cutoff = 6.6747184
  ghost atom cutoff = 6.6747184
  binsize = 3.3373592, bins = 15 15 18
  1 neighbor lists, perpetual/occasional/extra = 1 0 0
  (1) pair sw, perpetual
      attributes: full, newton on
      pair build: full/bin/atomonly
      stencil: full/bin/3d
      bin: standard
Per MPI rank memory allocation (min/avg/max) = 4.543 | 4.547 | 4.557 Mbytes
Step c_2 Press Volume TotEng KinEng PotEng c_1[4] 
       0      242.948   -1314.8746    140524.15   -33205.573    2589.6742   -35795.247            0 
      50    253.37903   -2427.6418    140295.48   -33233.347    2700.8626    -35934.21   0.56484615 
     100    252.98658   -2577.8365    139470.13   -33255.388    2696.6792   -35952.067   0.95852653 
     150    251.32357   -1937.4587    138352.02   -33272.076    2678.9526   -35951.029    1.3053801 
     200    256.86809   -1762.7969    137434.63     -33369.5    2738.0537   -36107.554    1.6297059 
     250    257.94475   -1606.4861    136749.22   -33398.803    2749.5303   -36148.333     2.013659 
     300    264.07162   -1435.2821    136166.76   -33390.354    2814.8389   -36205.193    2.2821277 
     350    256.14942   -1436.6489    135664.63   -33450.809    2730.3931   -36181.203    2.6484478 
     400     257.7876   -1345.9179    135275.64   -33480.624    2747.8551   -36228.479     2.951615 
     450    258.40134   -1374.7903    134938.48   -33477.055    2754.3973   -36231.452    3.2119687 
     500    256.72618   -1524.4561    134590.03   -33523.851    2736.5411   -36260.392    3.5267185 
     550    255.21489   -1571.2144    134207.56   -33559.109    2720.4316    -36279.54    3.8626824 
     600    255.62817   -1217.1547    133848.74   -33583.648    2724.8369   -36308.485     4.256953 
     650    255.64061   -969.98748    133626.16   -33601.367    2724.9695   -36326.336    4.4901818 
     700    253.61643   -1225.8208    133526.06   -33623.036    2703.3931   -36326.429    4.7803021 
     750    247.96318   -1188.1744    133504.97   -33646.999     2643.133   -36290.132    5.0038574 
     800    253.80488    -1404.505    133513.49    -33650.84    2705.4018   -36356.241    5.2529192 
     850    252.46182   -1341.6699    133491.84   -33646.623    2691.0856   -36337.709    5.5325533 
     900    250.45582   -1330.5134    133444.01   -33652.148     2669.703   -36321.851    5.7042276 
     950    248.63672   -1607.8452    133407.35   -33659.002    2650.3125   -36309.315    5.9475244 
    1000    251.04954   -1146.4029    133328.41   -33670.074    2676.0317   -36346.106    6.2125176 
    1050    250.32314   -1226.1256    133301.54   -33690.118    2668.2886   -36358.407    6.5173113 
    1100    252.96985   -1739.5011    133325.75   -33714.531     2696.501   -36411.032    6.7258874 
    1150    248.44778    -1513.954    133258.08    -33725.94    2648.2985   -36374.238    6.9762116 
    1200    250.90598   -1137.5854    133121.56   -33750.351    2674.5013   -36424.853    7.3036677 
    1250    252.19968   -1465.4681    132992.65   -33762.281    2688.2915   -36450.573    7.5950892 
    1300    248.45885   -1218.6516    132867.24   -33787.253    2648.4165    -36435.67    7.8331691 
    1350    245.63887   -1078.9171    132747.12   -33805.536    2618.3572   -36423.894    8.0899021 
    1400    252.90199   -1122.9581     132634.6   -33807.365    2695.7776   -36503.143    8.4173846 
    1450    247.38406   -1257.7379    132556.82   -33808.102    2636.9598   -36445.062    8.5975801 
    1500    250.99041   -1209.6989    132519.42   -33828.469    2675.4013   -36503.871    8.8075512 
    1550    252.80133   -1217.9923    132495.49   -33841.938    2694.7047   -36536.643    9.0148389 
    1600    250.25397   -953.13037    132453.96   -33851.337    2667.5513   -36518.888    9.2471544 
    1650    251.08034   -1237.1428    132458.22   -33869.284    2676.3599   -36545.644    9.4058147 
    1700    251.63273   -1123.2217    132512.31   -33863.536     2682.248   -36545.784    9.5204941 
    1750    250.20642   -1106.4565    132617.02   -33884.053    2667.0445   -36551.098    9.7460289 
    1800    246.93817   -1127.5296    132747.28    -33871.79     2632.207   -36503.997    9.9502016 
    1850    249.46521     -1437.09    132863.89   -33869.968    2659.1436   -36529.112    10.129565 
    1900    254.85681   -1466.2278    132919.08   -33854.585    2716.6148     -36571.2    10.292658 
    1950    250.47493   -1678.2984     132873.1   -33854.147    2669.9066   -36524.054    10.526694 
    2000     252.7736   -1309.2083    132711.59   -33843.387    2694.4091   -36537.796    10.694014 
    2050    250.89457     -1323.86    132519.33   -33872.485    2674.3797   -36546.865    10.835711 
    2100    248.33582   -828.05915    132367.89   -33886.131    2647.1051   -36533.236    11.067792 
    2150    248.73293   -1138.0902     132280.8   -33893.989     2651.338   -36545.327     11.26088 
    2200    248.94962   -1031.2236    132207.42   -33885.465    2653.6478   -36539.113    11.485154 
    2250    250.81883   -1324.3912    132141.49   -33893.343    2673.5724   -36566.915    11.730464 
    2300    245.19599   -1093.7863    132105.34   -33869.567    2613.6364   -36483.203    11.962795 
    2350    249.56459   -968.22888    132169.53   -33847.866     2660.203   -36508.069    12.120876 
    2400     248.5287   -1155.4814    132304.82   -33857.204     2649.161   -36506.365    12.236289 
    2450    246.59462   -1339.7269    132440.05   -33845.919    2628.5449   -36474.464    12.364509 
    2500    244.81836   -1151.3914    132529.64   -33820.474    2609.6111   -36430.085    12.625617 
    2550    247.77038   -1038.6395    132625.46   -33814.353    2641.0779   -36455.431    12.927435 
    2600    255.68398   -1179.1743    132709.28    -33823.63    2725.4319   -36549.062    13.026216 
    2650    253.35684   -1109.1391    132822.14   -33798.654     2700.626    -36499.28    13.281385 
    2700    252.21151   -1242.2568    132996.17   -33799.048    2688.4175   -36487.466    13.330568 
    2750    253.47704   -1385.9127    133159.51   -33826.267    2701.9072   -36528.174    13.451602 
    2800    251.94198   -1491.9006    133231.34   -33826.663    2685.5445   -36512.208    13.543292 
    2850    255.27979   -1294.1133    133212.49   -33852.242    2721.1235   -36573.365    13.663403 
    2900    254.63312   -961.42202    133151.42   -33878.038    2714.2304   -36592.268    13.916113 
    2950    250.44045   -1115.4233    133074.86   -33891.679    2669.5391   -36561.218    14.246126 
    3000    246.19464   -1431.1132    132988.17   -33881.112    2624.2814   -36505.394     14.52927 
    3050    246.28507   -1179.3586    132835.05   -33899.181    2625.2454   -36524.426    14.706522 
    3100    248.95604   -975.66711    132661.13   -33899.786    2653.7162   -36553.502      14.8808 
    3150    247.60201   -1022.9309    132572.41   -33915.455    2639.2832   -36554.738     15.07689 
    3200    248.25263   -1437.4685       132521   -33904.856    2646.2183   -36551.075    15.315583 
    3250    241.94916   -1099.6735    132439.92   -33899.151    2579.0272   -36478.178    15.497347 
    3300    248.72284   -1076.1173    132348.65   -33883.315    2651.2305   -36534.546     15.68283 
    3350    244.71872   -1458.0878    132268.59   -33836.214     2608.549   -36444.763    15.969851 
    3400     246.1852    -1177.691    132125.46   -33871.997    2624.1808   -36496.177    16.134722 
    3450     245.9726   -1212.4009    132005.47   -33895.038    2621.9146   -36516.953    16.298517 
    3500    247.26943   -1282.9775    131928.63   -33897.012     2635.738    -36532.75    16.480578 
    3550    248.85926   -1147.3072    131870.43   -33881.057    2652.6846   -36533.741    16.732131 
    3600    247.88666   -1271.3412    131826.32   -33897.218    2642.3173   -36539.536     16.94506 
    3650     250.1774   -1245.2916    131843.42   -33910.997    2666.7351   -36577.732    17.078941 
    3700    249.68595   -1480.1961    131899.68   -33913.416    2661.4967   -36574.913     17.33318 
    3750    244.22247   -1159.1841       131952   -33928.191    2603.2594    -36531.45    17.510152 
    3800    244.30555   -942.44238    132042.52   -33932.702    2604.1449   -36536.847    17.881907 
    3850    251.55884   -1099.1441    132178.11   -33938.888    2681.4605   -36620.349    18.118134 
    3900    248.63525   -1151.1486    132327.77   -33941.347    2650.2968   -36591.644    18.237624 
    3950     246.5283   -1098.0798    132462.32   -33925.703     2627.838   -36553.541    18.331487 
    4000    249.60182   -1299.9357    132560.08   -33934.813    2660.5998   -36595.412      18.5828 
    4050    247.37732   -1064.2812    132635.66   -33930.957    2636.8881   -36567.845    18.702313 
    4100     246.9863   -949.70374    132708.15   -33928.116      2632.72   -36560.836    18.902165 
    4150     246.6664    -1321.129    132698.21   -33919.153    2629.3101   -36548.463    19.063241 
    4200    243.04941    -1027.577    132578.65   -33921.545    2590.7553     -36512.3    19.380356 
    4250    239.75003   -936.60415    132440.45   -33911.133    2555.5859   -36466.718    19.487486 
    4300    250.52354   -1115.4894    132322.19   -33923.487    2670.4248   -36593.912    19.821462 
    4350    249.22023   -1258.6105    132206.73   -33937.083    2656.5324   -36593.615    19.958303 
    4400    250.17706    -934.2894    132085.65   -33939.281    2666.7315   -36606.012    20.254322 
    4450     252.1126   -745.35361    132009.14   -33904.509    2687.3632   -36591.872     20.37434 
    4500    252.89763   -818.78911    132014.09   -33885.446    2695.7311   -36581.177    20.600295 
    4550    253.44817   -1196.0136    132109.04   -33858.905    2701.5995   -36560.504    20.803768 
    4600    244.76078   -1239.9811    132191.74   -33866.897    2608.9974   -36475.894    20.883847 
    4650    247.75876   -1232.7463       132233   -33836.182    2640.9539   -36477.136    21.070627 
    4700     250.4062   -1028.8702    132286.03    -33827.35     2669.174   -36496.524    21.277567 
    4750    249.84223   -1249.4012     132392.5   -33840.647    2663.1625    -36503.81     21.55139 
    4800     247.2328   -1557.4416    132490.64   -33839.493    2635.3476   -36474.841    21.788603 
    4850    248.76422   -1368.7548    132520.91   -33843.243    2651.6715   -36494.914    22.069454 
    4900       252.75   -1423.3065    132490.69    -33850.25    2694.1574   -36544.407    22.412854 
    4950    254.73968   -1214.6651    132447.83   -33847.576    2715.3662   -36562.942    22.657149 
    5000    253.03284   -1214.8862    132434.82   -33865.276    2697.1723   -36562.448    22.907158 
    5050    253.28077   -1114.2293    132364.13   -33888.317    2699.8151   -36588.132    23.137868 
    5100    252.03255   -1207.7521    132284.14   -33891.905    2686.5099   -36578.415    23.303151 
    5150    249.68059   -1230.2963    132190.18    -33908.29    2661.4395    -36569.73    23.513386 
    5200    247.95508   -1179.8113    132132.86   -33918.674    2643.0466   -36561.721    23.767748 
    5250     249.2971   -1227.2542    132144.47   -33908.695    2657.3517   -36566.046    24.166078 
    5300    249.46251   -1077.7684    132207.53   -33897.007    2659.1149   -36556.122    24.268063 
    5350    253.61352     -1280.13    132283.39   -33887.331     2703.362   -36590.694     24.47466 
    5400    248.01695   -1294.6037    132329.67   -33912.219    2643.7061   -36555.926    24.719841 
    5450    242.66221   -1082.8529    132388.45   -33900.936    2586.6279   -36487.564    24.939505 
    5500    244.15218   -1053.3629    132433.89   -33898.139      2602.51   -36500.649    25.108774 
    5550    247.19962   -825.86115    132489.06    -33926.54    2634.9938   -36561.534     25.19171 
    5600     248.1932   -1123.7946    132588.82   -33957.157    2645.5848   -36602.742    25.326007 
    5650     244.2808   -1402.8629    132700.83   -34014.251    2603.8811   -36618.132    25.570602 
    5700     246.2152   -1297.6672    132792.04   -34007.003    2624.5006   -36631.503    25.703848 
    5750    244.24971   -1313.7545    132814.39   -33992.502    2603.5496   -36596.052    25.865258 
    5800    241.91459   -816.01669    132813.82   -33989.566    2578.6587   -36568.225    26.102171 
    5850     244.8826   -1146.0108    132839.47   -33961.123    2610.2959   -36571.419    26.368081 
    5900    241.45964   -1247.4095    132858.81    -33977.38    2573.8092   -36551.189    26.428144 
    5950    244.44579   -1257.0093    132823.65   -33990.118    2605.6397   -36595.758    26.478867 
    6000    243.56355   -1163.6652    132746.19   -33993.364    2596.2356     -36589.6    26.645706 
    6050    252.35047   -1310.6385    132690.42   -33963.495    2689.8987   -36653.393    26.716231 
    6100    245.29042   -1152.8784    132637.48   -33971.291     2614.643   -36585.934    26.899706 
    6150    249.37233   -1314.4367    132582.21   -33962.285    2658.1537   -36620.439    27.238133 
    6200    248.36698   -1164.2067    132553.74   -33974.878    2647.4372   -36622.315    27.783666 
    6250    247.86742   -1189.3982    132529.97   -33968.134    2642.1122   -36610.246    27.763604 
    6300    245.07783   -1257.4909    132477.48   -33948.816    2612.3769   -36561.193    27.871285 
    6350    245.27746   -1433.1336    132353.55   -33930.003    2614.5049   -36544.508    28.071469 
    6400    238.26855   -1537.7036    132156.09   -33964.198    2539.7942   -36503.992    28.193442 
    6450     248.9195   -1392.3491    131866.01   -33971.606    2653.3267   -36624.932    28.542437 
    6500    248.55135   -1180.0707    131579.12   -33946.229    2649.4024   -36595.631    28.853539 
    6550    251.79473   -863.42143    131421.46   -33939.197    2683.9749   -36623.171    29.216595 
    6600    248.76101   -1000.9784    131443.92   -33950.951    2651.6373   -36602.588    29.461872 
    6650    246.74449   -952.15667    131594.51    -33970.37    2630.1424   -36600.512    29.661598 
    6700    242.92566   -876.79838    131818.12   -33977.551    2589.4362   -36566.987     29.75793 
    6750    241.28712    -1232.194    132080.38   -33988.466    2571.9703   -36560.437    29.836754 
    6800     243.7539   -1113.9598    132266.38    -33969.78    2598.2647   -36568.045    30.008302 
    6850    244.27542   -1274.4247    132382.01   -33960.094    2603.8237   -36563.918     30.10477 
    6900    246.35814   -936.03305    132464.04   -33944.839    2626.0243   -36570.863    30.034729 
    6950    243.34528   -1070.1171    132514.23   -33943.707     2593.909   -36537.616    30.217787 
    7000    242.30275   -1411.2816    132500.18   -33924.357    2582.7963   -36507.153    30.430631 
    7050    247.69856   -1239.9646    132435.28   -33922.744    2640.3123   -36563.056    30.826167 
    7100    245.39058   -991.57457    132363.37   -33930.406    2615.7106   -36546.117    30.891833 
    7150    243.99824   -927.34446    132308.81   -33961.932    2600.8692   -36562.801     31.10447 
    7200    244.76809   -1392.4496    132275.93   -33987.775    2609.0752    -36596.85    31.388034 
    7250    246.77335   -1181.2347    132217.85   -33966.844    2630.4501   -36597.294    31.373174 
    7300     247.1088   -1108.3904    132178.38   -33956.403    2634.0258   -36590.429     31.52176 
    7350    247.04408   -1108.7081    132192.63   -33945.234     2633.336    -36578.57    31.721959 
    7400    249.03239   -1206.1901    132222.65   -33927.444      2654.53   -36581.975    31.762261 
    7450    248.95836   -1236.5939    132247.46   -33918.752     2653.741   -36572.493    31.863275 
    7500    248.46948   -1210.8003    132312.73   -33951.896    2648.5298   -36600.426    32.117287 
    7550    242.64387   -1250.4221    132366.76   -33970.972    2586.4324   -36557.404    32.364279 
    7600    247.05571   -1208.3292    132428.39   -33938.968    2633.4599   -36572.427    32.447387 
    7650     243.2864   -1058.8225    132493.31   -33941.723    2593.2814   -36535.005    32.571988 
    7700    243.42735   -1269.0251    132525.09   -33935.947    2594.7838   -36530.731    32.673595 
    7750    247.55959   -1424.0504       132554   -33925.507    2638.8309   -36564.338    32.901466 
    7800    247.66673   -1347.6302    132567.58   -33950.392    2639.9729   -36590.365    33.058712 
    7850     245.0938   -1341.2305    132524.68   -33935.615    2612.5472   -36548.162    33.079548 
    7900    247.12645   -1170.0686       132445   -33968.363    2634.2139   -36602.577    33.150061 
    7950    244.12102    -1158.107    132370.66   -33990.814    2602.1779   -36592.992    33.192791 
    8000    248.87647   -1135.6218    132271.66   -33989.615    2652.8681   -36642.483    33.470652 
    8050    246.46503   -1002.2092    132225.27   -33972.632    2627.1636   -36599.796    33.747271 
    8100    251.32586   -1090.8055     132220.5    -34000.54     2678.977   -36679.517    33.906571 
    8150    250.96968   -1300.2404    132301.91   -33974.795    2675.1804   -36649.975    34.038264 
    8200    248.86497   -1071.1529    132410.26   -33988.067    2652.7454   -36640.813    34.145782 
    8250    241.92426   -1362.5301     132533.7   -33987.238    2578.7618       -36566     34.10345 
    8300    250.23146   -941.21324    132622.24   -33978.439    2667.3114    -36645.75    34.201974 
    8350    245.62747   -1027.1742    132722.91   -34009.628    2618.2357   -36627.864    34.534371 
    8400    243.80582   -1129.3314    132901.52   -34006.548    2598.8181   -36605.366    34.519442 
    8450    248.08838    -1253.324    133087.95   -34002.565    2644.4676   -36647.032    34.533499 
    8500     246.5778   -1373.9625    133245.56   -33998.932    2628.3657   -36627.297    34.956274 
    8550    243.74301   -1429.7484    133303.15   -34016.383    2598.1486   -36614.531    35.211544 
    8600    247.48294   -1326.0291    133191.32   -34019.229    2638.0139   -36657.243    35.239269 
    8650    241.32433   -1335.9497    132944.16   -34018.425    2572.3669   -36590.792    35.332153 
    8700    246.33172   -900.42078    132661.96   -34029.633    2625.7426   -36655.376    35.538672 
    8750    246.24928   -1285.4569    132446.74    -34012.35    2624.8639   -36637.214     35.50725 
    8800    241.19183   -1210.1931    132287.26   -34009.871    2570.9546   -36580.826    35.893727 
    8850     248.5624   -982.29577    132173.57   -34037.231    2649.5202   -36686.751    36.085572 
    8900    243.31798   -1079.4732    132151.68   -34054.643     2593.618   -36648.261    36.462407 
    8950    244.27131   -1293.7272     132207.1   -34042.006    2603.7799   -36645.786    36.607041 
    9000    241.34769   -1417.8466    132295.15   -34033.052     2572.616   -36605.668    36.791275 
    9050      242.437   -1238.3191    132329.43   -34026.344    2584.2273   -36610.571    37.086373 
    9100    244.00903   -905.19179    132324.45   -34059.427    2600.9842   -36660.411    37.359693 
    9150    243.60918   -977.73804    132400.62   -34033.507     2596.722   -36630.229     37.64863 
    9200    245.84958   -1434.5643    132538.63   -34035.487    2620.6033    -36656.09    37.877846 
    9250    242.10063   -1479.5299    132642.38   -34050.927    2580.6418   -36631.569    37.915758 
    9300    239.52397   -1451.6577    132671.93   -34077.511    2553.1763   -36630.687    38.041715 
    9350    242.74322   -1219.5249    132651.21   -34067.847    2587.4915   -36655.338    38.405373 
    9400    237.68882   -1544.2544    132598.95   -34063.971    2533.6147   -36597.585    38.638782 
    9450    247.97457   -1124.5134    132537.27   -34045.018    2643.2544   -36688.273    38.683219 
    9500     241.0584   -1268.9803    132545.88   -34054.963    2569.5323   -36624.495    38.924339 
    9550    240.44333   -1336.8278    132601.59   -34046.916    2562.9761   -36609.892    39.189292 
    9600    245.84027   -1514.4164    132658.93   -34035.635    2620.5041   -36656.139     39.29722 
    9650    242.59631   -1341.7333    132698.37   -34052.277    2585.9254   -36638.203    39.376828 
    9700    245.41263   -982.64205    132744.13   -34054.594    2615.9456    -36670.54     39.34709 
    9750     249.4899   -1251.5721    132851.01   -34058.804    2659.4068   -36718.211    39.410074 
    9800    245.54087   -1310.0737    132958.92    -34062.84    2617.3127   -36680.153    39.359943 
    9850    248.84886    -1267.619    133015.04   -34062.784    2652.5737   -36715.358    39.479497 
    9900    240.21388   -1286.2001    133030.68   -34062.302    2560.5302   -36622.832    39.566655 
    9950    246.47599   -1455.8371    133004.18   -34053.607    2627.2804   -36680.888    39.771637 
   10000    243.28445   -1312.6284    132954.11   -34051.405    2593.2606   -36644.666    39.822082 
   10050    248.24658   -1331.0358    132900.55   -34053.603    2646.1539   -36699.756    39.973344 
   10100    242.79106   -1234.5529    132871.51   -34033.456    2588.0014   -36621.458    40.226362 
   10150    250.82196   -1033.9088    132886.72   -34025.953    2673.6058   -36699.559    40.347804 
   10200    247.82865   -1359.6594    132969.31   -34018.862    2641.6989   -36660.561    40.537965 
   10250    243.73857   -1528.7217     133086.6    -34019.74    2598.1013   -36617.841    41.065998 
   10300    246.77358   -1463.8292    133182.63   -33998.686    2630.4525   -36629.138    40.961863 
   10350    244.64206   -1344.4253    133228.15   -34000.755    2607.7319   -36608.487    41.139471 
   10400    245.28124   -1516.5985    133227.32   -34044.849    2614.5452   -36659.394    41.368474 
   10450    243.91404   -1420.0474     133158.6   -34027.554    2599.9716   -36627.526    41.532698 
   10500     245.1661   -1306.1055    133101.41   -34027.804    2613.3178   -36641.122    41.416718 
   10550    247.89868   -1257.9196    133019.33   -34022.644    2642.4454   -36665.089    41.527489 
   10600    239.68884   -1392.1106    132940.37    -34027.19    2554.9337   -36582.124    41.625502 
   10650    245.84007    -1168.865    132920.45   -34013.087    2620.5019   -36633.589    41.813717 
   10700    248.88407   -1322.1544    132970.94   -34028.961    2652.9491    -36681.91    41.738447 
   10750    245.82162   -1088.9454    133046.13   -34016.996    2620.3052   -36637.301    41.828371 
   10800    243.93343   -1222.8165    133149.66    -34025.22    2600.1784   -36625.398    42.148751 
   10850     248.4998   -1433.7847    133274.88   -33994.597     2648.853    -36643.45    42.406718 
   10900    244.12874   -1093.9052    133433.43   -33992.051    2602.2602   -36594.312    42.466888 
   10950    245.71666   -1293.5416     133573.4    -33996.24    2619.1865   -36615.426    42.631604 
   11000    246.45241   -1046.3316    133705.64   -34024.408     2627.029   -36651.437    42.762328 
   11050    242.43449   -1433.6506       133834   -34032.938    2584.2006   -36617.139    42.954699 
   11100    244.49115   -1451.3921    133846.54   -34021.461    2606.1232   -36627.584    43.262485 
   11150    239.49395   -1629.2146    133761.23   -34024.263    2552.8563   -36577.119    43.411278 
   11200    243.75544   -1689.8034    133571.05   -34022.635     2598.281   -36620.916    43.873205 
   11250    238.75722   -1096.2035    133290.52    -34043.37    2545.0031   -36588.373    44.159931 
   11300    246.00693   -836.96921    133029.05     -34039.9    2622.2806   -36662.181    44.179903 
   11350     244.3257   -1304.0895    132907.99   -34060.229    2604.3597   -36664.588    44.199268 
   11400    244.18281   -883.39137    132844.26   -34064.618    2602.8366   -36667.454    44.133054 
   11450    242.31278   -1054.4261    132877.62   -34093.766    2582.9032   -36676.669    44.405338 
   11500    243.73319   -1116.0878    132933.62   -34091.575    2598.0439   -36689.618    44.706728 
   11550    241.41239   -1437.4868    132929.17   -34105.092    2573.3056   -36678.397    44.853526 
   11600    245.80513   -1205.8145    132828.61   -34098.276    2620.1295   -36718.406    45.071408 
   11650    247.33038    -1423.406    132674.87   -34095.082    2636.3877    -36731.47    45.254228 
   11700    248.28643   -1254.7467    132542.55   -34072.038    2646.5786   -36718.617     45.38118 
   11750    247.65341   -1035.3893    132424.62   -34083.195     2639.831   -36723.026    45.588997 
   11800    248.69183   -1023.3542    132381.99   -34113.484    2650.8999   -36764.384    45.719368 
   11850    245.35511   -1151.1185    132371.14   -34075.587    2615.3325    -36690.92    46.011666 
   11900    241.84386   -774.44765    132392.91   -34115.464    2577.9049   -36693.369    45.957892 
   11950    241.97696     -964.627    132502.37   -34115.929    2579.3236   -36695.252     46.27578 
   12000    241.31378   -1192.6377    132672.57   -34111.321    2572.2545   -36683.576     46.41349 
   12050     240.3033   -1510.2353    132768.25   -34104.708    2561.4835   -36666.192    46.864547 
   12100    247.18932   -1223.7793    132742.56   -34091.304    2634.8841   -36726.188    47.001139 
   12150    240.27761   -1267.6197    132675.62   -34083.505    2561.2096   -36644.714    47.289844 
   12200    240.33653   -1163.7517    132617.82   -34079.351    2561.8377   -36641.189    47.394061 
   12250    242.78788   -1291.6702    132532.35   -34049.867    2587.9675   -36637.835    47.764072 
   12300    235.33341   -1040.1709    132459.77     -34049.5    2508.5075   -36558.008    47.978918 
   12350    239.14395   -956.99504    132452.06   -34068.565    2549.1255    -36617.69    48.071135 
   12400    237.71609   -1223.8065    132503.33    -34085.25    2533.9054   -36619.156    48.256344 
   12450    244.63925   -1321.3063    132506.58   -34073.233     2607.702   -36680.935    48.378397 
   12500    246.64474   -945.18613    132571.01    -34053.28    2629.0792    -36682.36     48.62734 
   12550    242.50488   -1044.6964    132725.33   -34079.624    2584.9508   -36664.575    48.682068 
   12600    245.97716   -1161.3555    132895.34   -34049.899    2621.9632   -36671.862     48.96394 
   12650     245.3949   -1424.1781    133034.64   -34051.541    2615.7567   -36667.297    49.353814 
   12700     242.0831   -1579.6806    133110.55   -34028.295     2580.455    -36608.75     49.38392 
   12750    242.99844   -1361.6312    133124.37   -34057.711     2590.212   -36647.923    49.297291 
   12800    245.61472   -1308.7197    133105.86   -34072.723    2618.0999   -36690.822    49.435124 
   12850    241.07498   -1037.5598    133117.38     -34066.8     2569.709   -36636.509    49.640609 
   12900    243.29319   -1398.8005     133142.8   -34070.805    2593.3538   -36664.158    49.747291 
   12950     242.3609   -1384.2218    133078.16   -34063.355    2583.4161   -36646.771    49.894242 
   13000    244.55605    -1271.155    132875.29   -34061.498    2606.8151   -36668.313    50.056595 
   13050    243.44102   -1031.9431    132637.38   -34044.915    2594.9295   -36639.844    50.226003 
   13100    246.51748   -1049.4527    132504.45   -34030.793    2627.7227   -36658.516    50.296463 
   13150    243.51437   -989.32779    132452.38   -34051.027    2595.7114   -36646.738    50.753103 
   13200     247.1141   -984.73536    132470.85    -34056.73    2634.0822   -36690.812    50.986627 
   13250    240.85392   -1090.3786    132504.42   -34083.142    2567.3527   -36650.494    51.189285 
   13300    240.62375   -1103.2207     132514.4   -34086.258    2564.8992   -36651.157     51.31943 
   13350     244.2445   -1231.3308    132468.02   -34072.416    2603.4941    -36675.91    51.439232 
   13400    244.02327   -998.29328    132373.77   -34083.257    2601.1359   -36684.393    51.726962 
   13450    243.96883   -881.83247    132326.02   -34098.808    2600.5557   -36699.364    51.924306 
   13500    240.28658   -1146.7438     132323.3    -34100.89    2561.3052   -36662.196     52.26543 
   13550    238.38396   -1135.1787    132318.27   -34125.882    2541.0244   -36666.906    52.523103 
   13600    237.38182   -1112.7189    132289.36   -34138.838    2530.3422    -36669.18    52.675671 
   13650    243.89089    -1019.903    132297.13   -34123.241    2599.7249   -36722.966    52.723989 
   13700    242.95579   -1390.9759    132345.81   -34126.371    2589.7573   -36716.128    52.845786 
   13750    240.98368   -1026.3679    132351.49   -34127.319    2568.7359   -36696.055    52.969667 
   13800    241.93992   -1040.0293    132296.79   -34117.787    2578.9288   -36696.716    53.026686 
   13850    243.80793    -1255.403    132249.21   -34142.946    2598.8406   -36741.786    53.361956 
   13900    241.17308   -1338.7769    132219.99   -34125.497    2570.7547   -36696.251    53.710521 
   13950    243.73866   -990.37344    132194.83   -34130.902    2598.1022   -36729.005    53.926324 
   14000     242.6953   -967.64325    132212.75   -34115.687    2586.9806   -36702.668    53.823895 
   14050     238.1345   -919.99581    132292.08   -34108.389    2538.3654   -36646.754    54.107222 
   14100    244.28298   -1427.4214    132427.71   -34112.389    2603.9043   -36716.293    54.231638 
   14150    244.51334   -1218.0356    132549.12   -34074.572    2606.3598   -36680.932    54.530083 
   14200    240.16645   -930.20816    132662.31   -34081.689    2560.0247   -36641.714    54.699683 
   14250    250.35928   -1118.3083    132816.44   -34058.939    2668.6739   -36727.613    55.039634 
   14300    246.56035   -1241.8503    132980.37   -34053.371    2628.1796   -36681.551    55.212864 
   14350    246.08691   -1568.4081    133108.51   -34060.109     2623.133   -36683.242    55.739854 
   14400    248.56387   -1191.1458    133147.76   -34029.398     2649.536   -36678.934    55.886709 
   14450    241.52087    -1338.934    133103.43   -34061.322    2574.4619   -36635.784    56.215268 
   14500    242.59243   -1492.6045    133035.86    -34057.15    2585.8841   -36643.035     56.37438 
   14550    244.04672    -1307.306    132944.66   -34084.337     2601.386   -36685.723    56.554858 
   14600    244.19933   -1298.6105     132812.1   -34096.469    2603.0126   -36699.481    56.636581 
   14650    244.16315   -1296.2506     132676.2   -34088.711     2602.627   -36691.338    56.855562 
   14700    243.57522   -1098.8579    132552.16   -34094.739    2596.3601   -36691.099     57.14369 
   14750    245.44463    -1156.458    132457.41   -34086.186    2616.2867   -36702.472     57.27102 
   14800    240.75388   -1277.1889    132337.39   -34122.106    2566.2863   -36688.392    57.315045 
   14850    247.95652   -1248.4488    132210.02   -34133.343     2643.062   -36776.405    57.584133 
   14900    240.60813   -1160.5627    132112.96   -34149.108    2564.7327   -36713.841    57.497039 
   14950    238.21022   -1423.5423    132017.56   -34165.872    2539.1724   -36705.044    57.583308 
   15000    244.80627    -996.8723    131916.59   -34184.274    2609.4823   -36793.756    57.875765 
   15050    241.58981    -1039.197    131811.99   -34188.932    2575.1968   -36764.129      57.8884 
   15100    237.17699   -868.35903    131725.37   -34166.664    2528.1589   -36694.823    58.083578 
   15150    238.29717   -1065.7557     131712.4   -34177.722    2540.0993   -36717.821    58.457226 
   15200    239.49154    -987.7424    131762.53   -34172.725    2552.8306   -36725.555     58.50164 
   15250    243.29264   -879.94472     131866.5   -34181.438    2593.3479   -36774.786     58.67646 
   15300    243.63352   -1278.9794    131990.48   -34152.475    2596.9815   -36749.457    58.890768 
   15350    240.73977   -1317.7073    132116.89   -34130.783     2566.136   -36696.919    59.197983 
   15400    240.03371   -1405.2788    132261.68   -34117.229    2558.6098   -36675.839    59.487551 
   15450    249.30849   -1421.8573    132350.46   -34130.091    2657.4731   -36787.564    59.635005 
   15500    240.05994   -1461.9027       132362   -34112.554    2558.8894   -36671.443    59.859211 
   15550    241.98729   -1546.5365    132333.15   -34124.762    2579.4337   -36704.196    59.878963 
   15600    235.65181   -1267.5085    132268.39   -34114.514    2511.9015   -36626.415    59.851346 
   15650     243.2965    -1029.571    132175.68    -34133.94    2593.3891   -36727.329     60.04385 
   15700       242.82   -1150.3672    132094.67   -34119.824    2588.3099   -36708.134    60.110144 
   15750    245.23104    -1347.696    132005.51   -34105.341    2614.0101   -36719.352     60.35522 
   15800    241.99445   -1115.6386    131944.23   -34102.205      2579.51   -36681.715    60.492639 
   15850    239.06021   -1257.4826    131895.98   -34097.495    2548.2328   -36645.728    60.667933 
   15900    237.84867   -1024.6605    131869.23   -34105.797    2535.3186   -36641.115    60.667187 
   15950    238.12203   -1212.2642    131899.12   -34090.616    2538.2324   -36628.849    60.676656 
   16000    246.63979    -1081.398    131984.83   -34068.994    2629.0265    -36698.02    61.280574 
   16050       249.13   -1417.9221    132108.85   -34049.224    2655.5706   -36704.794    61.491778 
   16100    242.83834   -1240.9193    132203.36   -34025.695    2588.5053   -36614.201    61.429858 
   16150    241.16101   -1306.4041    132290.08    -34029.49    2570.6261   -36600.116     61.74631 
   16200    245.36818   -1378.2479    132391.25   -34003.418    2615.4718    -36618.89    61.849461 
   16250    249.16779   -1334.7649    132468.98   -33996.171    2655.9734   -36652.145    61.797241 
   16300    247.08426    -1324.511    132550.92   -34005.943    2633.7642   -36639.707     62.24433 
   16350    245.28751   -1249.1239    132666.57   -34008.237    2614.6119   -36622.849    62.321139 
   16400    244.12667    -1241.346    132803.27   -34003.927    2602.2382   -36606.165    62.416735 
   16450    242.69256   -1158.2405    132957.32   -34024.045    2586.9515   -36610.996    62.786024 
   16500    246.37537    -1459.134    133145.35   -34009.393    2626.2079   -36635.601    62.987941 
   16550    244.15172   -1212.4561    133292.89   -33984.662    2602.5052   -36587.167    63.157267 
   16600    246.23626   -1541.4373    133331.62   -33974.964    2624.7251   -36599.689    63.150173 
   16650     243.4631   -1474.2692    133253.38   -33961.026    2595.1649   -36556.191    63.326513 
   16700    246.17156   -1176.3796    133125.33   -33998.348    2624.0354   -36622.384    63.445765 
   16750    242.37759    -1022.566    133054.23   -34002.027     2583.594   -36585.621    63.910724 
   16800    243.65047   -1108.9984    133083.51   -34014.544    2597.1621   -36611.706    64.010427 
   16850     245.8399   -1396.8242    133129.91   -34035.714    2620.5001   -36656.214    64.296353 
   16900    243.58536   -1215.9825    133154.42   -34023.304    2596.4681   -36619.772    64.580918 
   16950    243.77989   -1247.9009     133159.5   -34011.158    2598.5417     -36609.7    64.705557 
   17000    239.50137   -1389.7132    133133.92   -34023.882    2552.9353   -36576.817    64.956292 
   17050    249.03865   -1170.8323    133022.07   -34006.352    2654.5968   -36660.949    65.068838 
   17100    251.00697   -1093.4058    132897.38   -34022.052    2675.5779    -36697.63     65.31529 
   17150    248.39634   -1061.4037     132804.5   -33998.219    2647.7502   -36645.969    65.336509 
   17200    251.25164   -1090.4365    132722.33   -33953.907    2678.1858   -36632.092    65.628171 
   17250    243.44937   -945.11503    132661.53   -33960.731    2595.0186   -36555.749     65.61417 
   17300    247.59686    -1298.376    132662.55   -33945.865    2639.2282   -36585.094    65.761147 
   17350    251.61522   -1234.6841    132694.63   -33947.178    2682.0615   -36629.239    65.913215 
   17400    251.49177   -1213.1398    132738.01   -33965.859    2680.7456   -36646.605    66.189468 
   17450    253.94472   -1236.3958    132782.31    -33951.56    2706.8925   -36658.452    65.936054 
   17500    251.45955   -1342.7371    132883.62   -33960.409     2680.402   -36640.812    66.159109 
   17550    252.03985   -1085.4544    133003.98   -34002.778    2686.5877   -36689.366     66.24711 
   17600    251.17111   -1425.1246    133094.28   -34007.164    2677.3274   -36684.492    66.643353 
   17650    249.90426   -1339.7283    133090.02   -33990.043    2663.8236   -36653.866    66.819529 
   17700    252.89742   -1122.6418    133021.72   -33967.658    2695.7288   -36663.387    66.945536 
   17750     246.1586   -1388.2293    132919.98   -33958.345    2623.8973   -36582.242    67.136835 
   17800    249.29419   -1474.8153    132773.52   -33961.433    2657.3207   -36618.754    67.255516 
   17850    249.04533   -1224.3613    132596.79   -33977.234     2654.668   -36631.902    67.599972 
   17900     241.0035   -1142.4818    132399.79   -33991.782    2568.9471   -36560.729    67.855217 
   17950    247.26847   -836.78949    132258.03   -33990.098    2635.7277   -36625.825    67.946218 
   18000    250.90663   -1211.0465     132213.4   -34030.889    2674.5083   -36705.397    68.231796 
   18050    242.82573   -1091.3418    132219.62   -34043.806     2588.371   -36632.177    68.305731 
   18100    242.83918   -905.89269    132272.64   -34068.308    2588.5143   -36656.823    68.527311 
   18150    242.92079   -992.29639    132396.64   -34083.315    2589.3843   -36672.699    68.506287 
   18200    240.52259   -1035.9437    132542.69   -34069.718    2563.8209   -36633.539    68.511246 
   18250    241.85628   -1161.1921     132730.7   -34031.411    2578.0372   -36609.448     68.50985 
   18300    242.54884    -1249.228    132870.51   -34036.193    2585.4195   -36621.613    68.470491 
   18350    245.58204    -1639.458    132971.85   -34012.121    2617.7515   -36629.872    68.983288 
   18400    246.70282   -1594.1118    132996.49   -34011.108    2629.6983   -36640.806    68.956344 
   18450     243.5678   -1406.8112    132877.16   -34025.817     2596.281   -36622.098    69.315189 
   18500    245.74422   -1208.3163    132666.91   -34005.126    2619.4802   -36624.607    69.365578 
   18550    242.74495   -1306.8987    132432.19   -33981.034    2587.5098   -36568.544    69.350633 
   18600    248.75559   -1412.3465    132187.52   -33976.509    2651.5795   -36628.089    69.470391 
   18650    249.67594   -1532.9056    131907.05   -33992.032    2661.3899   -36653.422    69.382286 
   18700    249.51781   -860.35742     131610.9   -34009.116    2659.7043    -36668.82    69.487237 
   18750    245.94156    -906.9163    131438.26    -33995.85    2621.5837   -36617.433    69.540056 
   18800      243.443   -1088.6135    131398.49   -33973.664    2594.9506   -36568.614     69.91512 
   18850    243.37786   -1296.3838    131411.75   -33991.147    2594.2563   -36585.403    70.152299 
   18900    245.95928   -1144.0644    131467.96   -33988.371    2621.7726   -36610.144    70.263709 
   18950    242.19727   -833.25071    131568.06   -33999.246    2581.6719   -36580.918    70.437292 
   19000    241.62499    -1121.818    131740.15   -33988.171    2575.5718   -36563.743    70.454972 
   19050     244.6357   -1309.3581    131947.35   -33974.254    2607.6641   -36581.918    70.760575 
   19100    243.82681   -1132.8694    132090.27   -33969.483    2599.0419   -36568.525    70.953754 
   19150    241.93156   -1256.3685    132169.12   -33974.542    2578.8396   -36553.382    71.229246 
   19200    247.57909   -1080.8244    132238.33   -33965.796    2639.0387   -36604.835    71.497392 
   19250    245.49491   -1237.5221    132317.66   -33956.987    2616.8228    -36573.81    71.631212 
   19300    246.85178   -1343.5429     132367.4   -33979.579    2631.2861   -36610.865    71.475714 
   19350    246.12879   -1276.5626    132360.49   -33977.083    2623.5795   -36600.663    71.437295 
   19400    240.37227     -1235.25    132329.69   -33989.984    2562.2186   -36552.202     71.62801 
   19450    244.76428   -1215.5801     132292.4   -33993.964    2609.0346   -36602.999    71.897375 
   19500    247.20964   -1215.7478    132287.33   -34030.687    2635.1007   -36665.787    72.027137 
   19550     244.4786    -1243.373    132311.06   -33988.733    2605.9895   -36594.723    72.205412 
   19600    247.63307   -1060.4536    132324.94   -33993.624    2639.6141   -36633.238    72.729724 
   19650    246.30861   -1078.7926     132343.5   -33967.425    2625.4963   -36592.921    72.821677 
   19700    245.48531   -1162.8784     132407.8    -33943.03    2616.7205   -36559.751    73.467779 
   19750    248.79453    -951.0313    132515.27   -33953.337    2651.9946   -36605.332    73.739862 
   19800    249.73588   -1830.1149    132606.26   -33962.276    2662.0289   -36624.305     74.00198 
   19850    252.37899   -1375.6793    132609.47    -33941.59    2690.2027   -36631.793    74.186047 
   19900    246.64768   -1368.0357    132591.82   -33920.573    2629.1106   -36549.684    74.439299 
   19950    247.51011   -1130.8982     132572.4    -33905.11    2638.3035   -36543.414    74.882732 
   20000    246.51509   -1178.6622    132610.52    -33902.39    2627.6973   -36530.088     75.27989 
   20050    245.46432   -1302.7674    132726.38   -33901.343    2616.4967    -36517.84    75.921696 
   20100    246.14522   -1333.7829    132884.81   -33915.891    2623.7546   -36539.646    75.868555 
   20150      246.397   -1347.7426    133045.09   -33929.133    2626.4384   -36555.571    76.204118 
   20200    249.10454   -1603.7277    133154.37   -33931.078    2655.2991   -36586.377    76.570819 
   20250    248.59878   -1602.7474    133156.08   -33937.182    2649.9081    -36587.09    76.977106 
   20300    249.21428   -1500.2605    133052.52   -33929.196    2656.4689   -36585.664    77.224756 
   20350    248.88513   -1305.6537    132886.74   -33937.337    2652.9604   -36590.297    77.458498 
   20400    246.31369   -1347.7025    132707.77   -33909.844    2625.5504   -36535.394    77.692624 
   20450    248.17686   -1230.9555    132560.17   -33909.082    2645.4107   -36554.493    77.767227 
   20500    252.57505   -964.44612    132466.23   -33893.912    2692.2926   -36586.205    78.086747 
   20550    249.80869   -1193.3016    132465.02   -33873.351     2662.805   -36536.156     78.31782 
   20600    249.47348   -1316.8951    132513.71   -33890.078    2659.2318    -36549.31    78.354448 
   20650    253.98611   -1260.8566    132601.21   -33858.854    2707.3336   -36566.188    78.396877 
   20700    248.62733   -1480.7408    132660.22   -33869.747    2650.2124   -36519.959    78.442192 
   20750    243.00395    -1075.541     132633.9     -33885.6    2590.2706    -36475.87    78.776927 
   20800    250.94011   -1308.9732    132580.25   -33889.481    2674.8652   -36564.346    78.812777 
   20850    244.12158   -1163.5887    132524.31   -33875.347    2602.1839   -36477.531    78.901362 
   20900    249.49499   -1485.8158    132439.55   -33846.588    2659.4611   -36506.049    79.240577 
   20950      246.188   -1223.3553     132291.5   -33848.688    2624.2107   -36472.899    79.455524 
   21000    249.95725   -1255.6592    132165.94   -33865.875    2664.3885   -36530.264    79.554646 
   21050    244.90005   -1176.0314    132143.48   -33865.097    2610.4819   -36475.579    79.704929 
   21100    246.39054   -1323.4918    132201.55   -33858.107    2626.3696   -36484.476    79.847912 
   21150    246.99004   -1228.9857    132232.52   -33860.723    2632.7599   -36493.483    79.797913 
   21200    242.42725   -1249.2991     132206.6   -33882.589    2584.1233   -36466.712    79.923287 
   21250    249.43882   -1258.9618    132131.78   -33888.429    2658.8624   -36547.291    79.844282 
   21300    247.59465   -1192.1217    132056.46    -33885.33    2639.2047   -36524.535    79.889323 
   21350    241.52565   -1445.3526    131988.85   -33916.517    2574.5129    -36491.03    79.993592 
   21400    244.56506   -1351.0665    131897.59   -33926.444    2606.9111   -36533.355    80.153826 
   21450    242.76793   -1132.1569    131794.08   -33906.947    2587.7549   -36494.701    80.175696 
   21500    245.68592   -1020.0537    131714.99   -33912.592    2618.8588   -36531.451    80.468219 
   21550    243.63103   -1005.3235    131690.87   -33924.731    2596.9549   -36521.686     80.70576 
   21600    246.13487   -1247.9441    131744.24   -33937.662    2623.6443   -36561.307    80.785472 
   21650      243.307   -1120.8681    131791.05   -33934.108    2593.5009   -36527.609    80.716957 
   21700    243.24434   -1273.5004    131853.71   -33939.963    2592.8331   -36532.796    81.000434 
   21750    243.57498   -1160.2375    131923.03   -33933.099    2596.3575   -36529.456      81.0427 
   21800    238.43184   -1412.8667    131941.25   -33930.595    2541.5348    -36472.13    81.272619 
   21850    247.04043   -1491.4361    131916.04   -33929.479     2633.297   -36562.776    81.436873 
   21900    245.48438   -1308.3611    131840.15   -33930.166    2616.7105   -36546.876    81.670799 
   21950    246.54991   -974.88206     131737.8   -33907.438    2628.0684   -36535.506    81.801918 
   22000    246.75438   -877.50157    131663.89   -33907.995    2630.2479   -36538.243    82.190345 
   22050    247.06377   -980.54167    131709.56    -33911.89    2633.5458   -36545.436    82.383093 
   22100    243.43452   -1172.4404    131861.18   -33875.758    2594.8602   -36470.618    82.558063 
   22150    247.61901   -1574.8509    131984.97   -33874.419    2639.4644   -36513.883     82.98893 
   22200    245.93742   -946.89257    132013.22   -33859.069    2621.5396   -36480.609    83.296947 
   22250    246.88009   -1342.8056    131995.36   -33866.233    2631.5878    -36497.82    83.422561 
   22300      243.687   -1409.8401    131957.77   -33862.072    2597.5515   -36459.624    83.369654 
   22350    244.98973   -1274.1156    131845.06   -33889.607    2611.4378   -36501.044    83.464359 
   22400    250.71033   -1185.9814    131714.14   -33893.273    2672.4158   -36565.689    83.449072 
   22450    246.81196   -1048.9663     131593.8   -33892.586    2630.8617   -36523.448    83.568842 
   22500    243.15752   -1157.3371    131510.13   -33858.153    2591.9076   -36450.061    83.525602 
   22550    253.63785   -1181.1618    131465.49   -33867.293    2703.6215   -36570.915    83.584307 
   22600    246.70171   -1261.9725    131435.96   -33880.856    2629.6865   -36510.543    84.018956 
   22650    248.75779   -1557.6199    131409.11   -33871.078     2651.603   -36522.681    84.241873 
   22700     246.7091   -987.19247    131398.72   -33864.613    2629.7652   -36494.379    84.660053 
   22750    246.34165   -1141.7908    131477.35   -33864.662    2625.8485    -36490.51    84.881704 
   22800    248.60459   -1392.7147    131579.32   -33864.587      2649.97   -36514.557    84.955876 
   22850    247.25936   -1403.8843    131668.86   -33870.311    2635.6307   -36505.942    85.035379 
   22900    243.36367   -1458.6567     131717.3   -33841.981     2594.105   -36436.086    85.325648 
   22950    249.88247   -1194.2291    131701.28   -33833.977    2663.5914   -36497.569    85.820822 
   23000    247.11248   -1112.4358    131716.74   -33879.324     2634.065   -36513.389    85.898041 
   23050    242.60842   -1278.0285    131745.28   -33849.374    2586.0546   -36435.428    86.372417 
   23100    246.16973   -1343.1594    131759.73   -33879.642    2624.0159   -36503.658     86.71567 
   23150    246.87682   -1149.4801    131739.19   -33882.127    2631.5531    -36513.68    87.008779 
   23200    246.38233   -1272.4984    131707.34   -33872.007     2626.282   -36498.289    87.406982 
   23250    249.03659   -1003.7787    131686.33   -33855.914    2654.5748   -36510.488     87.69148 
   23300     244.5181   -1300.6674    131675.53   -33869.678    2606.4105   -36476.089    87.726275 
   23350     247.8242   -1504.9592    131635.77   -33869.297    2641.6515   -36510.948    88.267554 
   23400     246.5737   -1145.1019    131569.81   -33868.287     2628.322   -36496.609    88.593515 
   23450    244.50212   -1072.0525    131564.67   -33879.953    2606.2403   -36486.193    88.705263 
   23500    246.49961   -737.08948    131630.71   -33882.095    2627.5322   -36509.628    88.845649 
   23550    245.20115   -1161.3417    131777.23   -33889.372    2613.6915   -36503.063    89.182765 
   23600    253.04638   -963.84673    131906.26     -33890.4    2697.3167   -36587.716    89.329025 
   23650    248.51527   -941.67574    132032.59   -33914.069    2649.0179   -36563.087    89.531696 
   23700    243.66176    -1108.503    132176.34   -33912.406    2597.2825   -36509.688    89.618767 
   23750    247.00818   -1487.3517     132266.9   -33901.285    2632.9533   -36534.238    90.211533 
   23800    247.85143   -1427.4126    132220.42    -33898.22    2641.9418   -36540.162    90.575397 
   23850    248.11833   -1264.1905    132123.86   -33890.915    2644.7867   -36535.702    90.584852 
   23900     245.1186   -1117.2516    131998.99   -33884.311    2612.8115   -36497.122    90.770596 
   23950    242.42754   -1088.7573    131885.97     -33910.4    2584.1265   -36494.526    90.835338 
   24000    244.80702   -902.96755    131849.49   -33910.712    2609.4902   -36520.202    90.961156 
   24050    246.87621   -1190.7907    131927.67   -33890.295    2631.5466   -36521.842    91.113071 
   24100    246.10668   -1155.8377    132021.06   -33905.459    2623.3439   -36528.803    91.700981 
   24150     248.8754   -1654.4993    132037.74   -33884.715    2652.8566   -36537.572    92.019558 
   24200     250.4309   -715.49308    131984.03   -33898.727    2669.4374   -36568.165    91.991477 
   24250    247.84712   -1377.9457    131984.56   -33866.577    2641.8958   -36508.472    92.141001 
   24300    246.21819   -1237.4398    131963.02   -33880.411    2624.5325   -36504.944    92.479014 
   24350    242.61455    -1071.236    131891.84   -33905.717    2586.1199   -36491.837    93.012081 
   24400    238.93577   -1160.9367    131844.87   -33912.326    2546.9064   -36459.232    93.261401 
   24450    242.64078   -1183.6514    131838.95   -33917.549    2586.3995   -36503.948    93.061638 
   24500    244.12642   -1481.7539    131836.58   -33902.508    2602.2354   -36504.743    93.255813 
   24550    242.88917    -1193.439    131799.75   -33921.612    2589.0471   -36510.659    93.339966 
   24600    246.96983   -1311.4745     131717.7   -33917.334    2632.5445   -36549.878    93.514636 
   24650    241.42413   -1187.2993    131586.54   -33943.017    2573.4307   -36516.448    93.525205 
   24700    244.94431   -989.17941    131423.31   -33935.441    2610.9537   -36546.395    93.490631 
   24750    246.62347    -794.3797    131336.55    -33947.17    2628.8524   -36576.023    93.579826 
   24800    240.36253   -1119.9383    131316.83    -33945.87    2562.1148   -36507.985    93.607723 
   24850    248.84599   -830.98164    131348.38   -33937.417    2652.5432    -36589.96    93.901525 
   24900     243.7095   -1091.5516    131467.85   -33966.657    2597.7914   -36564.449    94.113892 
   24950    243.17461   -1097.9404     131620.7   -33972.604    2592.0898   -36564.694    94.220628 
   25000     242.7201   -941.10642    131748.04   -33951.717     2587.245   -36538.962    94.513906 
Loop time of 97.5337 on 12 procs for 25000 steps with 6337 atoms

Performance: 221.462 ns/day, 0.108 hours/ns, 256.322 timesteps/s
96.7% CPU use with 12 MPI tasks x no OpenMP threads

MPI task timing breakdown:
Section |  min time  |  avg time  |  max time  |%varavg| %total
---------------------------------------------------------------
Pair    | 13.886     | 31.144     | 64.53      | 395.5 | 31.93
Neigh   | 2.2013     | 4.5411     | 9.1716     | 141.7 |  4.66
Comm    | 15.306     | 53.055     | 72.544     | 342.0 | 54.40
Output  | 0.046573   | 0.051938   | 0.063177   |   3.1 |  0.05
Modify  | 7.539      | 7.6947     | 7.9846     |   4.8 |  7.89
Other   |            | 1.047      |            |       |  1.07

Nlocal:        528.083 ave         920 max         335 min
Histogram: 8 0 0 0 0 0 0 0 1 3
Nghost:        1667.00 ave        1862 max        1567 min
Histogram: 7 1 0 0 0 0 0 0 1 3
Neighs:        0.00000 ave           0 max           0 min
Histogram: 12 0 0 0 0 0 0 0 0 0
FullNghs:      42686.3 ave      104342 max       12786 min
Histogram: 8 0 0 0 0 0 0 0 0 4

Total # of neighbors = 512236
Ave neighs/atom = 80.832571
Neighbor list builds = 2994
Dangerous builds = 0

unfix           3
unfix           4
undump          1

fix             3 water nve

# Run 0.25 ns equilibration

dump		    1 all atom 2000 testnve.${NAME}.dump
dump		    1 all atom 2000 testnve.ML_graphite_m1000atm_245K.dump
run	            25000
Per MPI rank memory allocation (min/avg/max) = 3.511 | 3.643 | 3.907 Mbytes
Step c_2 Press Volume TotEng KinEng PotEng c_1[4] 
   25000     242.7201   -941.10642    131748.04   -33951.717     2587.245   -36538.962    94.513906 
   25050    241.88716   -1356.4952    131748.04   -33951.401    2578.3664   -36529.767    94.482977 
   25100    244.32314   -961.92373    131748.04   -33951.552    2604.3324   -36555.885    94.788023 
   25150    245.44725   -1351.7743    131748.04   -33951.028    2616.3147   -36567.343    95.015546 
   25200     244.0347    -766.1204    131748.04   -33950.607    2601.2578   -36551.865    95.307423 
   25250    243.54063   -870.10059    131748.04   -33950.616    2595.9913   -36546.608    95.723993 
   25300    243.76417   -1357.1559    131748.04    -33951.11    2598.3742   -36549.484    95.657429 
   25350    249.96587   -1242.8825    131748.04   -33952.457    2664.4803   -36616.937     96.30083 
   25400    246.63576   -1292.5428    131748.04   -33951.672    2628.9835   -36580.656    96.304001 
   25450    244.71292   -1121.9611    131748.04   -33951.782    2608.4873   -36560.269    96.408496 
   25500    241.65741   -899.65292    131748.04   -33951.754    2575.9173   -36527.671    96.770372 
   25550     239.6103   -901.37054    131748.04   -33950.294    2554.0965   -36504.391    96.971187 
   25600    243.43095   -1115.8892    131748.04   -33951.158    2594.8222    -36545.98    97.067243 
   25650    243.89382   -1151.7609    131748.04   -33951.282    2599.7561   -36551.038    97.155283 
   25700    241.81938   -1001.6879    131748.04   -33950.668    2577.6439   -36528.312    97.302416 
   25750    246.67791   -1287.9245    131748.04   -33950.907    2629.4328   -36580.339    97.472317 
   25800    250.13045   -766.17798    131748.04   -33951.584    2666.2347   -36617.819    97.728156 
   25850    248.25554   -821.95604    131748.04   -33952.094    2646.2493   -36598.343     97.74576 
   25900    251.90678   -928.88966    131748.04   -33952.185    2685.1692   -36637.355     98.25034 
   25950    245.06276    -986.2825    131748.04   -33951.717    2612.2163   -36563.934    98.297521 
   26000    247.51643   -1213.4933    131748.04   -33951.681    2638.3709   -36590.052    98.533166 
   26050    250.48026    -974.3059    131748.04   -33951.844    2669.9635   -36621.808    98.872861 
   26100    249.82997   -1061.2881    131748.04   -33953.303    2663.0317   -36616.335    99.089357 
   26150    244.86703   -1168.9571    131748.04   -33951.063    2610.1299   -36561.193    99.332515 
   26200    245.47167   -937.98421    131748.04   -33952.197    2616.5751   -36568.772    99.410601 
   26250    242.32506   -1042.7504    131748.04   -33952.006    2583.0341    -36535.04    99.799255 
   26300    242.34923   -876.95982    131748.04   -33950.877    2583.2918   -36534.169    100.18648 
   26350    237.29747    -1160.901    131748.04   -33949.873    2529.4431   -36479.316    99.968757 
   26400    244.17499   -1051.3519    131748.04   -33951.639    2602.7532   -36554.392    100.41164 
   26450    243.82458   -1106.9767    131748.04    -33950.78    2599.0181   -36549.798     100.4517 
   26500    245.87445   -999.07943    131748.04   -33951.598    2620.8684   -36572.467    100.74861 
   26550    249.58217    -848.7379    131748.04   -33953.288    2660.3904   -36613.679    100.75222 
   26600    244.37526   -679.10138    131748.04   -33951.936     2604.888   -36556.823    100.83337 
   26650    245.48103   -962.36793    131748.04     -33951.2    2616.6747   -36567.874    100.74556 
   26700    248.91829   -1126.6231    131748.04   -33951.262    2653.3139   -36604.576    100.83384 
   26750    246.31022    -670.7774    131748.04   -33951.744    2625.5134   -36577.258    101.00301 
   26800    242.49737   -1130.5563    131748.04   -33951.158    2584.8708   -36536.029    101.03758 
   26850    242.61215   -936.27628    131748.04   -33950.546    2586.0943    -36536.64    100.83141 
   26900    248.30178   -1016.0691    131748.04   -33952.503    2646.7422   -36599.245     100.9412 
   26950    248.46655   -1001.7585    131748.04   -33952.103    2648.4986   -36600.601    101.01299 
   27000    244.87233   -731.46174    131748.04   -33951.847    2610.1864   -36562.033    101.23357 
   27050    245.70051   -1219.0686    131748.04   -33952.984    2619.0143   -36571.998    101.29824 
   27100     241.7832    -888.4092    131748.04   -33949.921    2577.2582   -36527.179    101.42783 
   27150    247.55136   -1045.8157    131748.04   -33952.324    2638.7432   -36591.067    101.45913 
   27200      246.426   -1269.5819    131748.04   -33951.578    2626.7476   -36578.325    102.12485 
   27250    245.41582   -1213.1947    131748.04   -33952.313    2615.9797   -36568.293    102.30075 
   27300    243.70682   -1281.6731    131748.04   -33950.339    2597.7628   -36548.102    102.59531 
   27350    243.31835   -1307.5438    131748.04    -33949.58     2593.622   -36543.202    102.83747 
   27400    244.43878   -1275.8081    131748.04   -33949.761    2605.5651   -36555.326    102.83271 
   27450    241.18764   -1236.3392    131748.04   -33950.178      2570.91   -36521.088    102.86657 
   27500    248.71277    -1162.657    131748.04   -33951.063    2651.1231   -36602.186    102.96211 
   27550     242.1278   -1322.0078    131748.04   -33950.984    2580.9315   -36531.915    103.23641 
   27600    243.21195   -1330.1149    131748.04   -33950.821    2592.4878   -36543.309    103.62547 
   27650    243.93734   -1099.1574    131748.04   -33951.052      2600.22   -36551.272     103.7869 
   27700    247.49248   -1098.0302    131748.04   -33950.693    2638.1156   -36588.809    104.21321 
   27750    248.88198   -1190.8884    131748.04   -33951.871    2652.9268   -36604.798    104.52226 
   27800    247.20663   -1240.8759    131748.04   -33951.217    2635.0686   -36586.285    104.75676 
   27850    247.61992   -1052.7845    131748.04   -33952.808     2639.474   -36592.282    104.75971 
   27900    245.76903   -1254.8297    131748.04   -33950.798    2619.7447   -36570.543    104.73803 
   27950    245.33057   -719.96855    131748.04   -33951.405     2615.071   -36566.476    104.85758 
   28000    248.66956   -956.72588    131748.04   -33951.823    2650.6625   -36602.485    105.24502 
   28050    246.85583   -894.89178    131748.04   -33951.662    2631.3293   -36582.991    105.66518 
   28100    248.16584   -1106.0961    131748.04   -33952.502    2645.2932   -36597.796    106.11483 
   28150    242.21195   -1060.5924    131748.04   -33950.077    2581.8284   -36531.905    106.49693 
   28200    245.68621    -979.6014    131748.04   -33952.168    2618.8619    -36571.03    106.90552 
   28250     244.6808   -1309.0012    131748.04   -33950.752    2608.1449   -36558.897    107.03515 
   28300    243.65521   -1224.2879    131748.04   -33950.651    2597.2127   -36547.864    107.17307 
   28350    244.82546   -1131.9739    131748.04   -33950.917    2609.6868   -36560.603      107.305 
   28400    242.45681   -897.43923    131748.04   -33950.177    2584.4385   -36534.615    107.54695 
   28450    247.88151   -1195.4159    131748.04   -33952.027    2642.2624   -36594.289     107.7389 
   28500    244.92024   -1311.8589    131748.04   -33950.879    2610.6971   -36561.576    107.92123 
   28550    245.23044   -975.48294    131748.04   -33951.218    2614.0036   -36565.222    108.01456 
   28600    242.94575   -1019.5098    131748.04   -33950.018    2589.6503   -36539.668    108.09598 
   28650    247.62222   -927.62117    131748.04   -33950.338    2639.4985   -36589.837    108.38671 
   28700    245.83195   -1138.7392    131748.04   -33951.018    2620.4154   -36571.434    108.70068 
   28750    242.25058   -843.17827    131748.04   -33950.636    2582.2402   -36532.877    109.00415 
   28800     246.4872   -787.56603    131748.04   -33952.174    2627.3999   -36579.574    109.17346 
   28850    245.52121   -903.10972    131748.04   -33950.066     2617.103   -36567.169    109.23808 
   28900    249.32123   -786.43403    131748.04   -33952.021    2657.6089    -36609.63    109.31641 
   28950    251.98509   -601.38953    131748.04   -33952.529     2686.004   -36638.533    109.50972 
   29000    246.41436    -814.8721    131748.04   -33952.122    2626.6235   -36578.746    109.35335 
   29050    245.26537   -861.54255    131748.04   -33950.341    2614.3759   -36564.717    109.52764 
   29100     246.2472   -995.42715    131748.04   -33951.638    2624.8417    -36576.48     109.8067 
   29150    245.51951   -1053.8776    131748.04   -33952.457     2617.085   -36569.542    110.00737 
   29200    244.90534   -909.27693    131748.04   -33950.598    2610.5383   -36561.137    110.25344 
   29250    244.45334   -961.78489    131748.04   -33951.345    2605.7202   -36557.065    110.19819 
   29300    246.11673   -1156.8808    131748.04   -33951.528     2623.451   -36574.979    110.36203 
   29350    242.83421   -959.62721    131748.04   -33951.281    2588.4613   -36539.742     110.7365 
   29400    244.67761   -1094.7027    131748.04   -33950.954    2608.1109   -36559.064    110.92046 
   29450    245.22284   -1075.3946    131748.04   -33952.407    2613.9227    -36566.33    110.97609 
   29500    245.55474   -1134.9287    131748.04   -33950.448    2617.4604   -36567.908    111.16143 
   29550    241.00694   -1231.7072    131748.04   -33949.664    2568.9838   -36518.647    111.27655 
   29600      247.292   -1454.9365    131748.04   -33950.154    2635.9786   -36586.133    111.77736 
   29650    250.05076   -1070.8088    131748.04   -33952.437    2665.3853   -36617.823    112.19134 
   29700    245.86612   -1454.0683    131748.04   -33951.268    2620.7796   -36572.047    112.58439 
   29750    244.03444    -960.0366    131748.04   -33949.461     2601.255   -36550.716    112.63169 
   29800    247.69944   -1183.8653    131748.04   -33952.123    2640.3216   -36592.445    112.73948 
   29850    246.77276   -1083.9558    131748.04    -33951.53    2630.4438   -36581.974    112.94791 
   29900    242.78545   -1483.2879    131748.04   -33950.488    2587.9415   -36538.429    113.13367 
   29950    244.43436   -1441.4364    131748.04   -33950.949    2605.5179   -36556.467    113.21196 
   30000    239.77111   -1356.8206    131748.04   -33950.354    2555.8105   -36506.165    113.30612 
   30050    242.86476   -1516.6144    131748.04    -33950.38     2588.787   -36539.167    113.10772 
   30100    246.37615   -1285.8507    131748.04   -33951.875    2626.2162   -36578.091    113.24268 
   30150    244.07176   -838.15142    131748.04   -33950.663    2601.6528   -36552.316    113.69734 
   30200    240.50805   -826.01824    131748.04   -33950.808    2563.6659   -36514.474    113.59981 
   30250    246.89127   -1194.7667    131748.04   -33950.822     2631.707   -36582.529     113.8316 
   30300    245.63038   -1218.2725    131748.04   -33950.269    2618.2668   -36568.536    114.12816 
   30350    242.68646   -1190.7487    131748.04   -33950.504    2586.8864   -36537.391    114.24674 
   30400    246.26311   -1209.1447    131748.04   -33951.417    2625.0113   -36576.429    114.84512 
   30450    251.31771   -918.33715    131748.04   -33952.526    2678.8902   -36631.416      114.823 
   30500    252.80753   -1070.9593    131748.04   -33952.063    2694.7707   -36646.834    115.16467 
   30550    253.57974   -1168.9249    131748.04   -33953.143     2703.002   -36656.144    115.50565 
   30600    246.85876    -1157.314    131748.04   -33951.949    2631.3605    -36583.31     115.7998 
   30650    248.01151   -1288.5158    131748.04   -33950.972    2643.6481    -36594.62    116.09451 
   30700    247.78299   -897.66967    131748.04   -33950.751    2641.2123   -36591.964    116.03735 
   30750     245.4069   -799.59317    131748.04   -33950.503    2615.8846   -36566.388    116.36566 
   30800    250.63791   -1127.1209    131748.04   -33952.698    2671.6439   -36624.342    116.44276 
   30850    249.82328   -1250.1012    131748.04   -33951.645    2662.9604   -36614.605    116.54702 
   30900    248.55497   -725.83498    131748.04   -33951.729    2649.4411    -36601.17    116.77854 
   30950    242.16965   -910.87814    131748.04   -33949.872    2581.3776    -36531.25    117.03997 
   31000    249.33142   -836.96462    131748.04   -33950.612    2657.7176   -36608.329    116.87946 
   31050     245.4407   -1087.8767    131748.04   -33950.206    2616.2449    -36566.45    117.14288 
   31100    248.57947   -912.83945    131748.04   -33950.594    2649.7023   -36600.296    117.39686 
   31150     249.1462   -1008.5353    131748.04   -33952.342    2655.7432   -36608.085    117.51638 
   31200    246.22652   -813.23933    131748.04   -33951.111    2624.6213   -36575.732    117.46587 
   31250    247.90697   -920.69301    131748.04   -33950.725    2642.5338   -36593.259    117.46396 
   31300     245.5507   -851.46322    131748.04   -33950.191    2617.4174   -36567.608    117.60178 
   31350    248.12205   -984.96034    131748.04   -33951.753    2644.8264   -36596.579    117.79766 
   31400    245.43563   -1216.7653    131748.04   -33951.333    2616.1908   -36567.524    117.71948 
   31450    244.95917    -995.0767    131748.04   -33950.264     2611.112   -36561.376    118.20902 
   31500     240.9779   -1375.3925    131748.04   -33950.026    2568.6742   -36518.701     118.4922 
   31550    248.06786   -1185.3315    131748.04   -33952.293    2644.2488   -36596.542    118.74967 
   31600    245.43178   -1100.4579    131748.04   -33950.348    2616.1498   -36566.498     119.4733 
   31650    241.20833   -1095.0004    131748.04   -33949.974    2571.1305   -36521.104    119.20671 
   31700    243.86268   -1025.3462    131748.04   -33950.641    2599.4242   -36550.066    119.53698 
   31750    246.83032   -1109.6134    131748.04   -33952.014    2631.0574   -36583.072    119.77613 
   31800    243.31823   -1003.6851    131748.04    -33950.27    2593.6207    -36543.89    120.26382 
   31850    243.98002   -1043.4218    131748.04   -33952.088     2600.675   -36552.763    120.35887 
   31900    249.28596   -1159.3036    131748.04   -33952.747     2657.233    -36609.98    120.46237 
   31950    246.15756   -1041.9479    131748.04    -33952.07    2623.8862   -36575.956    120.84024 
   32000    246.22002   -1147.8689    131748.04   -33951.067    2624.5519   -36575.619     121.0313 
   32050    243.80463   -1216.3858    131748.04   -33950.864    2598.8054    -36549.67    121.05968 
   32100     243.6669   -1235.0232    131748.04   -33951.463    2597.3373     -36548.8    121.44521 
   32150    245.23258   -1477.9415    131748.04   -33951.106    2614.0264   -36565.132    121.65795 
   32200    247.71356   -1190.0419    131748.04    -33950.58    2640.4722   -36591.052    121.84011 
   32250    241.26754   -976.97072    131748.04   -33950.095    2571.7616   -36521.856    122.27796 
   32300    245.97912   -1239.1502    131748.04   -33950.576    2621.9842    -36572.56    122.66803 
   32350    246.54686   -1255.0298    131748.04   -33951.056    2628.0359   -36579.091    122.47668 
   32400     246.6887   -1310.7335    131748.04   -33951.742    2629.5478    -36581.29    122.43735 
   32450    249.45022   -1381.9555    131748.04   -33951.842    2658.9838   -36610.826    122.77367 
   32500    248.37686   -1381.8902    131748.04   -33950.476    2647.5425   -36598.018    122.97451 
   32550    246.52254   -1370.5013    131748.04   -33951.842    2627.7767   -36579.619    123.29511 
   32600     247.0558   -1124.4053    131748.04   -33951.381    2633.4608   -36584.842    123.53173 
   32650    244.28893   -1283.0451    131748.04   -33950.235    2603.9678   -36554.203    123.61554 
   32700    244.15965   -1504.9294    131748.04   -33950.821    2602.5897   -36553.411    123.74729 
   32750    243.53654    -1277.394    131748.04   -33949.549    2595.9477   -36545.496    124.10454 
   32800    245.85589   -1432.0985    131748.04   -33950.973    2620.6705   -36571.644    124.59501 
   32850    248.93302   -1345.2886    131748.04   -33951.195    2653.4709   -36604.666     124.6642 
   32900    245.95856   -1186.2446    131748.04   -33950.786     2621.765   -36572.551    124.86782 
   32950    246.89467   -1010.2027    131748.04   -33951.322    2631.7433   -36583.065    125.09499 
   33000    242.64264   -771.19269    131748.04   -33950.467    2586.4193   -36536.886    125.34414 
   33050     246.2263      -931.54    131748.04   -33951.418    2624.6188   -36576.037    125.48259 
   33100    249.34789    -1037.736    131748.04   -33952.049    2657.8931   -36609.942    125.57495 
   33150    241.23432   -1162.0677    131748.04   -33950.027    2571.4075   -36521.434    125.75561 
   33200    248.78427   -905.41199    131748.04    -33952.93    2651.8852   -36604.815    126.18692 
   33250     243.9188    -1174.201    131748.04   -33951.383    2600.0224   -36551.405    126.45867 
   33300    244.86916   -1370.4792    131748.04   -33951.199    2610.1527   -36561.352    126.78941 
   33350    246.59213   -912.27606    131748.04   -33951.376    2628.5184   -36579.894    127.04441 
   33400    242.27276   -1124.9218    131748.04   -33951.102    2582.4766   -36533.579    127.17809 
   33450    248.56314   -982.95214    131748.04   -33951.553    2649.5281   -36601.081    126.96632 
   33500    247.21596   -1166.1492    131748.04   -33950.946     2635.168   -36586.114    127.43587 
   33550    243.61684   -960.92491    131748.04   -33949.866    2596.8037   -36546.669    127.55498 
   33600    243.68122   -1036.3355    131748.04   -33951.012    2597.4899   -36548.502    127.66862 
   33650    249.66064   -1421.7231    131748.04    -33952.62    2661.2268   -36613.847    127.80677 
   33700    241.45715   -1190.5702    131748.04   -33951.286    2573.7828   -36525.069    127.97355 
   33750    245.90708   -852.40799    131748.04   -33951.673    2621.2162   -36572.889    128.30299 
   33800    248.36823   -1347.1844    131748.04   -33952.287    2647.4505   -36599.737    128.48342 
   33850    247.02929   -930.56052    131748.04   -33951.297    2633.1782   -36584.475    129.02368 
   33900    251.21106   -1077.9764    131748.04    -33951.53    2677.7534   -36629.283    129.34895 
   33950    246.15311   -1247.0297    131748.04   -33950.798    2623.8387   -36574.636    129.22037 
   34000    251.18584   -1236.2922    131748.04   -33952.229    2677.4845   -36629.714    129.63112 
   34050    253.34948    -1304.758    131748.04   -33953.773    2700.5475   -36654.321    129.81504 
   34100    247.61298   -1227.6832    131748.04   -33952.297    2639.4001   -36591.697    130.01209 
   34150    244.07524   -803.29037    131748.04   -33951.197    2601.6899   -36552.887    130.33103 
   34200    251.83264   -1065.5404    131748.04   -33953.505     2684.379   -36637.884    130.38765 
   34250    246.70384    -1132.273    131748.04   -33950.925    2629.7092   -36580.634    130.91149 
   34300    246.03429   -916.09048    131748.04   -33950.691    2622.5722   -36573.263     131.3957 
   34350    249.58893   -1106.1215    131748.04   -33951.043    2660.4624   -36611.505     131.8237 
   34400    243.92424   -737.73904    131748.04   -33949.826    2600.0803   -36549.907    131.84202 
   34450    242.94425    -1136.247    131748.04   -33950.749    2589.6343   -36540.383    131.80011 
   34500    249.31445    -1128.155    131748.04    -33951.49    2657.5367   -36609.027    131.76052 
   34550    246.61719   -754.10428    131748.04    -33951.51    2628.7855   -36580.295    132.10369 
   34600    245.55796    -941.9968    131748.04   -33949.629    2617.4949   -36567.124    132.41645 
   34650    245.08582   -1010.5844    131748.04   -33950.691    2612.4621   -36563.154    132.74295 
   34700    242.21539   -989.81374    131748.04   -33950.209    2581.8651   -36532.074    132.85912 
   34750    246.06978   -968.16922    131748.04   -33951.718    2622.9505   -36574.668    132.98308 
   34800    246.19864   -1197.8544    131748.04   -33950.923    2624.3241   -36575.247    133.19313 
   34850    242.53218   -1151.3875    131748.04   -33950.523    2585.2419   -36535.765    133.41358 
   34900     248.0244   -834.50979    131748.04   -33950.802    2643.7855   -36594.588    133.81212 
   34950    243.10715   -839.45743    131748.04   -33950.827    2591.3707   -36542.197    133.92739 
   35000    249.10701   -1013.3825    131748.04   -33951.369    2655.3255   -36606.694    134.48478 
   35050    249.56248   -733.09755    131748.04   -33951.953    2660.1805   -36612.133    134.67378 
   35100    248.92141   -1162.0982    131748.04   -33951.254    2653.3471   -36604.601    134.83735 
   35150     244.6179   -1156.5542    131748.04   -33949.595    2607.4744   -36557.069    135.46163 
   35200     251.0917   -1248.6478    131748.04   -33952.531    2676.4811   -36629.013    135.62228 
   35250    247.45681   -942.84549    131748.04   -33951.619    2637.7354   -36589.355    135.69155 
   35300    247.20256   -1067.8377    131748.04   -33950.481    2635.0252   -36585.506     136.2151 
   35350     243.0014   -1275.5797    131748.04   -33950.836    2590.2435   -36541.079    136.59118 
   35400    243.42825   -954.80322    131748.04   -33950.888    2594.7934   -36545.682    136.52376 
   35450    243.55761   -882.61243    131748.04   -33950.416    2596.1723   -36546.589       136.71 
   35500    244.81653   -991.96488    131748.04   -33950.632    2609.5916   -36560.224    136.85561 
   35550    244.96203   -1085.7238    131748.04   -33951.278    2611.1426    -36562.42    136.95332 
   35600    246.15895   -1140.7604    131748.04   -33950.072    2623.9009   -36573.973    137.04896 
   35650    244.53071   -943.36108    131748.04   -33951.541     2606.545   -36558.086    137.08799 
   35700    247.60435   -985.67303    131748.04   -33950.798    2639.3081   -36590.106    137.06508 
   35750    245.92861   -856.15705    131748.04   -33950.244    2621.4457   -36571.689    136.84502 
   35800     243.8163   -947.53038    131748.04   -33950.369    2598.9298   -36549.299    136.87987 
   35850    245.85423   -885.27882    131748.04   -33950.058    2620.6528   -36570.711    136.95339 
   35900      250.495   -886.06109    131748.04   -33951.883    2670.1205   -36622.003    137.02892 
   35950    245.53609   -758.65002    131748.04   -33950.962    2617.2616   -36568.223    137.35361 
   36000    244.62192   -922.89137    131748.04   -33949.777    2607.5172   -36557.295    137.68062 
   36050    243.67113   -811.59232    131748.04   -33949.329    2597.3823   -36546.712    137.92374 
   36100    244.32015   -1100.9026    131748.04   -33950.463    2604.3005   -36554.764    138.22123 
   36150    247.60535    -1165.582    131748.04   -33952.117    2639.3187   -36591.436    138.65478 
   36200    250.28742   -950.26483    131748.04   -33952.067    2667.9079   -36619.975    138.99368 
   36250    251.32489   -1154.0443    131748.04   -33952.122    2678.9667   -36631.088    138.98221 
   36300    241.36533   -854.91828    131748.04   -33950.301     2572.804   -36523.105    138.83898 
   36350    249.87919   -1383.9327    131748.04   -33952.418    2663.5564   -36615.974    138.92417 
   36400    247.99802   -1169.5079    131748.04    -33951.62    2643.5043   -36595.124    139.39332 
   36450    252.54957   -939.40391    131748.04    -33951.28     2692.021   -36643.301    139.29297 
   36500    249.25541   -1195.9892    131748.04   -33951.594    2656.9073   -36608.501    139.45527 
   36550     247.8362   -1050.9863    131748.04   -33951.261    2641.7794    -36593.04    139.86571 
   36600    244.49264   -931.07939    131748.04   -33950.279    2606.1392   -36556.418    140.02481 
   36650    242.90693   -1225.8046    131748.04   -33951.879    2589.2365   -36541.116    140.20135 
   36700    243.52901   -1233.7242    131748.04   -33951.237    2595.8675   -36547.104    140.21684 
[...]
  140850    249.36605   -1102.9259    132554.86    -33855.74    2658.0867   -36513.827    454.74138 
  140900    248.15543   -1613.0615    132702.87    -33859.93    2645.1822   -36505.112    455.32293 
  140950    249.89441   -1577.5234    132738.15   -33866.975    2663.7186   -36530.694    455.69743 
  141000    248.00873   -1467.9458    132667.21   -33864.266    2643.6185   -36507.885    455.88201 
  141050    246.33957   -970.99406    132590.62    -33884.04    2625.8263   -36509.866    456.56317 
  141100    250.08334   -1277.6502    132571.27   -33860.201    2665.7326   -36525.933    456.29564 
  141150    244.20137   -1187.8726    132569.76   -33872.341    2603.0344   -36475.375     456.6025 
  141200    246.44163   -1035.8401    132557.75   -33886.553    2626.9141   -36513.467    456.83179 
  141250    249.03254   -1119.1628    132591.82   -33875.471    2654.5317   -36530.002    456.52678 
  141300     249.1502   -977.13181    132681.71   -33880.687    2655.7858   -36536.473    456.86366 
  141350    248.28553   -1070.3737    132849.19   -33884.567     2646.569   -36531.136     456.6836 
  141400    247.54906   -1640.4632    133036.56   -33899.254    2638.7187   -36537.973    457.15179 
  141450    243.72516   -1369.5651    133166.59   -33910.976    2597.9583   -36508.934    457.54253 
  141500    243.74239   -1569.9938    133239.96   -33910.686     2598.142   -36508.828    457.34017 
  141550    247.06144   -1166.1995    133220.85   -33899.864     2633.521   -36533.385    457.80571 
  141600    249.06943   -1083.3507    133131.48   -33920.793    2654.9249   -36575.718     457.5448 
  141650    246.07009   -1315.9835     133000.3   -33953.326    2622.9538    -36576.28    458.22938 
  141700    250.14727   -1400.4646    132870.17   -33963.629     2666.414   -36630.043    457.89427 
  141750    243.37346   -1201.8737    132741.86    -33938.62    2594.2094    -36532.83    457.43211 
  141800    242.80978   -1408.5527    132625.78   -33943.568    2588.2009   -36531.769     457.4284 
  141850    244.69908   -1016.3028    132515.13   -33966.939    2608.3397   -36575.279    457.67233 
  141900    244.60316   -1142.4053    132452.17   -33957.955    2607.3172   -36565.272    457.67418 
  141950    240.08407   -1392.3803    132391.54   -33978.321    2559.1465   -36537.468    456.98409 
  142000    245.49211   -1175.0955    132275.72   -33969.163    2616.7929   -36585.956    457.14699 
  142050    243.48342   -1463.9303    132149.53     -33989.2    2595.3815   -36584.582    457.00382 
  142100    243.90366   -1320.4729    132014.27   -33964.477     2599.861   -36564.338    456.34479 
  142150    247.41077   -1087.7222    131839.83   -33968.611    2637.2446   -36605.855    456.55988 
  142200    242.58719   -1214.7562    131731.08   -33957.282    2585.8282   -36543.111    456.34284 
  142250    246.11407   -1095.1248    131729.36   -33952.499    2623.4226   -36575.922    456.39114 
  142300    245.84398   -1286.9157     131790.2   -33963.605    2620.5436   -36584.149    456.98577 
  142350    242.24983   -1489.7367    131870.14   -33965.976    2582.2322   -36548.208     456.9582 
  142400    248.62247   -1178.4517    131909.87   -33957.438    2650.1606   -36607.599    457.24814 
  142450    242.83655   -1256.9458     131987.1   -33950.013    2588.4862   -36538.499    457.74943 
  142500    242.48122   -1252.5061    132078.62   -33964.759    2584.6987   -36549.457    458.50976 
  142550    240.51917   -1319.1699    132136.95   -33965.707    2563.7845   -36529.491    458.33654 
  142600    246.50937   -1511.0731    132084.09   -33972.294    2627.6363   -36599.931    458.59363 
  142650    243.65016   -917.31798    131950.56   -33964.031    2597.1588    -36561.19    458.03133 
  142700     246.2488   -814.33521    131892.44    -33960.41    2624.8588   -36585.268    458.70394 
  142750    245.43731   -1292.9198    131944.64   -34000.043    2616.2088   -36616.252    458.88719 
  142800    248.77737   -1434.0655     131985.9   -33995.341    2651.8117   -36647.153    459.19957 
  142850    241.77564   -1182.0949    131938.58   -33981.458    2577.1777   -36558.635    458.61692 
  142900    241.62969   -1020.6054    131888.56   -33984.523    2575.6219   -36560.145    459.08569 
  142950     244.0807   -1235.0655    131890.52   -33988.848    2601.7482   -36590.596    459.04941 
  143000    249.39834   -1173.1026    131923.99   -33979.299    2658.4309    -36637.73    459.43513 
  143050    247.20696   -1290.4431    131965.74   -33965.868    2635.0721    -36600.94    459.12555 
  143100    242.63623   -893.56784    132046.07    -33941.48     2586.351   -36527.831    459.83963 
  143150    244.88198   -1109.2494    132223.33   -33950.331    2610.2893    -36560.62    459.84327 
  143200    243.10924   -1373.8442    132431.12   -33934.424    2591.3929   -36525.817    460.50942 
  143250    248.98848   -1181.5075    132577.85   -33913.703     2654.062   -36567.765    460.70712 
  143300    246.22626   -1170.2993    132692.83   -33928.189    2624.6184   -36552.807    461.03739 
  143350    242.65183   -1365.3565    132760.64    -33944.93    2586.5173   -36531.447    460.72016 
  143400     247.3273   -1246.0927    132718.98   -33955.424    2636.3549   -36591.779    461.18283 
  143450     242.6511   -1248.0027    132597.61   -33955.642    2586.5095   -36542.151    460.98819 
  143500    247.53517   -912.70814    132435.78    -33954.16    2638.5707   -36592.731    461.08352 
  143550    248.98743   -761.45511    132313.54   -33942.721    2654.0508   -36596.772    461.36231 
  143600    246.48542   -933.71908    132297.21   -33922.326     2627.381   -36549.707    461.72682 
  143650     249.2461    -981.8163    132361.91   -33934.153    2656.8081   -36590.961    461.50846 
  143700    247.64643   -1013.0275    132518.46   -33929.362    2639.7566   -36569.119    461.49107 
  143750    251.31237   -1157.8805    132690.36   -33926.685    2678.8332   -36605.519    461.73954 
  143800    250.43056   -1295.0379    132860.27   -33921.326    2669.4336    -36590.76    461.45588 
  143850    249.81555   -1456.7593    132946.53   -33928.359    2662.8781   -36591.237    461.76057 
  143900    250.48285   -1316.9262    132885.68     -33921.8    2669.9911   -36591.791    462.01673 
  143950    250.06118   -1087.7232    132767.45   -33924.912    2665.4963   -36590.409    462.66224 
  144000     249.9535   -1430.2209    132672.09   -33924.975    2664.3486   -36589.323    463.00853 
  144050    245.23632   -762.04662    132569.64    -33903.85    2614.0663   -36517.917    463.15465 
  144100    245.02498   -1221.7471    132583.42   -33909.546    2611.8135   -36521.359    463.38729 
  144150    246.28884   -1241.4052    132621.82   -33906.645    2625.2855   -36531.931    463.50911 
  144200    242.46153   -1262.9792    132642.65   -33903.329    2584.4888   -36487.818    464.31785 
  144250    247.05996   -1334.1926    132643.56   -33884.024    2633.5052   -36517.529    464.15289 
  144300    244.43589   -1434.2156    132668.15   -33870.083    2605.5343   -36475.617    463.97749 
  144350    251.94891   -1056.4409     132707.3   -33873.613    2685.6183   -36559.231    464.59733 
  144400    251.89768   -1207.4776    132765.43   -33893.533    2685.0723   -36578.606    465.01497 
  144450    253.34968   -1540.9249    132815.62   -33890.954    2700.5497   -36591.504    465.54823 
  144500    248.21734   -1738.7333    132817.85   -33885.824    2645.8422   -36531.666    466.09174 
  144550    248.07541   -1494.6118    132734.71    -33901.25    2644.3293   -36545.579    465.96879 
  144600    248.28112   -1561.7077     132561.9   -33916.182     2646.522   -36562.704    465.33782 
  144650    252.68811   -1291.5475    132350.37    -33899.45    2693.4977   -36592.948    465.40046 
  144700    247.15641   -1471.9145    132168.62   -33869.037    2634.5333    -36503.57    465.16895 
  144750     248.6001   -1134.1408    132022.39   -33893.991    2649.9221   -36543.913    465.08594 
  144800    247.11315   -876.84528    131941.24   -33904.558    2634.0721    -36538.63    464.64405 
  144850    248.58889   -988.96926    132025.06   -33912.145    2649.8026   -36561.948    464.83251 
  144900    244.73039   -1104.9934     132183.4   -33912.667    2608.6734   -36521.341    464.73986 
  144950    249.81545    -1213.971    132331.41   -33928.062     2662.877   -36590.939    464.85277 
  145000    247.03556   -1511.7637    132414.16   -33939.145    2633.2451    -36572.39    465.46872 
  145050    245.81209   -1144.0359     132422.1   -33919.371    2620.2037   -36539.575    465.90047 
  145100    249.10801   -1309.7985    132443.51   -33923.826    2655.3361   -36579.162    465.77996 
  145150    245.76416   -954.68927    132474.69   -33929.087    2619.6927    -36548.78    466.06738 
  145200    248.36651   -1047.9926    132539.67   -33928.972    2647.4322   -36576.404    465.98857 
  145250    251.56759   -1439.7193    132637.78   -33927.194    2681.5537   -36608.748    466.40898 
  145300    244.23597   -1321.9537    132700.47   -33944.932    2603.4032   -36548.335    466.42892 
  145350    242.63936   -1353.4913     132723.3   -33961.159    2586.3843   -36547.544     466.8824 
  145400    245.69457   -996.89628    132714.62   -33938.881    2618.9509   -36557.832    466.29787 
  145450    246.57717   -1193.7641    132750.58   -33944.388    2628.3589   -36572.747    466.64937 
  145500    249.99312   -1424.8069     132770.3   -33944.456    2664.7709   -36609.227      466.725 
  145550    239.12024    -1446.481    132722.99    -33943.83    2548.8728   -36492.702    466.76326 
  145600    245.20042   -1381.9993    132599.98   -33944.225    2613.6836   -36557.909    466.87127 
  145650    246.28772   -1018.1676     132444.6   -33965.484    2625.2736   -36590.758    466.18008 
  145700     244.8149   -684.19159    132330.28   -33954.095    2609.5742   -36563.669    466.05579 
  145750    248.35989   -987.58796    132301.53    -33951.25    2647.3617   -36598.612     465.4478 
  145800    245.82235   -880.08077    132303.23   -33958.658     2620.313   -36578.971    465.99549 
  145850    248.72022   -1193.8872    132403.78   -33955.503    2651.2026   -36606.706    466.73138 
  145900    245.36917    -1257.181    132530.55     -33952.3    2615.4824   -36567.783    466.91706 
  145950    245.45637    -1274.108    132637.28   -33948.877    2616.4119   -36565.289    467.12399 
  146000     248.2858   -1094.9501     132716.4   -33958.835    2646.5718   -36605.407     467.0119 
  146050    247.23882     -1373.05    132742.92   -33949.938    2635.4117    -36585.35    467.07457 
  146100    249.87422   -951.81273    132781.09   -33909.569    2663.5035   -36573.072    467.48314 
  146150    244.33239   -1151.7558    132856.58   -33922.973    2604.4309   -36527.404    467.39972 
  146200    253.50858    -1176.567    132947.34   -33901.612    2702.2434   -36603.855     467.4297 
  146250    245.77707   -1318.5217    133030.32   -33900.219    2619.8304   -36520.049    467.39997 
  146300    250.43406   -1453.3523    133094.93   -33893.324     2669.471   -36562.795    467.66125 
  146350    250.16796   -1323.3381    133115.57   -33908.177    2666.6345   -36574.812    468.18013 
  146400     244.1473   -1399.6109    133080.91   -33927.271     2602.458   -36529.729    468.15848 
  146450    248.78354    -1081.531    132968.55    -33914.41    2651.8775   -36566.287     468.5174 
  146500    250.01044   -1151.8655    132873.83   -33910.145    2664.9555   -36575.101    468.57351 
  146550    247.32716   -1050.6355    132833.32   -33906.114    2636.3533   -36542.467    468.24796 
  146600     248.7217   -1245.6188    132811.84   -33907.047    2651.2183   -36558.265    468.97074 
  146650    244.80507    -1330.437    132784.84   -33927.683    2609.4694   -36537.152    469.21345 
  146700    246.96815   -1294.7717    132754.75   -33932.049    2632.5266   -36564.576    468.86525 
  146750    246.56249   -1353.3966    132734.45   -33923.551    2628.2024   -36551.754    469.11661 
  146800    247.45695    -1258.008    132682.61   -33927.863    2637.7369     -36565.6    469.58345 
  146850    246.20474   -1093.1711     132611.3    -33952.26     2624.389   -36576.649    468.66141 
  146900    249.77413   -1074.2231    132546.98   -33929.033    2662.4365   -36591.469    468.93486 
  146950    246.82051   -1201.7278    132489.12    -33936.17    2630.9528   -36567.122    469.33049 
  147000    250.94079   -1015.3286    132437.04   -33943.692    2674.8724   -36618.564    469.20458 
  147050    247.20492   -1283.4032    132438.53   -33935.673    2635.0504   -36570.723    469.13291 
  147100    243.86466    -1278.194    132477.35    -33955.46    2599.4453   -36554.905    469.35698 
  147150    245.23166   -1074.5706    132515.49   -33955.337    2614.0166   -36569.353     469.9472 
  147200    243.27145   -1098.8495     132577.6   -33948.686     2593.122   -36541.808    470.47648 
  147250    244.47719   -1482.0827    132689.99   -33950.099    2605.9745   -36556.074    470.67105 
  147300    244.61342    -1329.221    132717.09   -33965.104    2607.4266   -36572.531    471.24638 
  147350    247.99417   -1447.4673    132648.96   -33977.674    2643.4633   -36621.137     471.1718 
  147400      244.514   -1095.2443    132486.51   -33992.183    2606.3669    -36598.55    471.08092 
  147450     248.5818   -1146.5394     132310.5   -34002.704     2649.727   -36652.431    471.12996 
  147500    252.31189   -1053.4962       132181   -34006.572    2689.4875    -36696.06    471.43834 
  147550    245.77583   -928.73032    132091.99   -33989.065    2619.8171   -36608.882      471.639 
  147600    244.26408   -1189.0314     132099.1   -33977.702    2603.7028   -36581.404    471.79681 
  147650    249.22427   -920.35738    132220.13   -33972.092    2656.5754   -36628.668    472.41184 
  147700    248.49628   -1130.7376    132438.56   -33968.576    2648.8155   -36617.391    472.69764 
  147750    246.53331   -1478.5979    132654.22   -33959.401    2627.8915   -36587.292    473.09815 
  147800    245.86584   -1281.1092    132769.11   -33977.392    2620.7767   -36598.169    473.43447 
  147850    243.95947   -1410.9861    132808.46   -33996.474    2600.4559   -36596.929    473.79004 
  147900    247.81784   -1236.1527    132793.54   -34018.434    2641.5837   -36660.018    474.13927 
  147950    244.80193   -1191.5849    132770.84   -34005.874     2609.436    -36615.31    474.53471 
  148000    239.98274   -1290.3162    132744.28    -34007.94    2558.0665   -36566.006    474.16089 
  148050    246.14346   -1115.9075    132664.59   -34023.171    2623.7358   -36646.907    474.31373 
  148100     242.8422   -1188.2178    132570.69   -34033.359    2588.5465   -36621.905    474.12528 
  148150    243.70866   -1233.7654    132468.97   -34035.736    2597.7824   -36633.519    473.42359 
  148200    242.04431    -1407.795    132303.67    -34049.01    2580.0415   -36629.052    473.60073 
  148250    245.19761    -633.1023    132095.39   -34042.533    2613.6537   -36656.187    473.74914 
  148300    241.22378   -840.75195    132012.26   -34064.997    2571.2951   -36636.292    473.74607 
  148350    239.46509    -886.6652    132111.36   -34071.333    2552.5486   -36623.882    473.89802 
  148400    239.06299   -1136.3774    132325.11   -34048.208    2548.2624    -36596.47    474.45823 
  148450    245.72151   -1210.4025    132521.26   -34029.043    2619.2381   -36648.282    475.24414 
  148500    241.20076   -1450.8459    132621.09   -34031.642    2571.0498   -36602.692    475.69284 
  148550     246.7427   -1342.0024     132609.8    -34055.14    2630.1234   -36685.264    476.07802 
  148600     245.5853   -1203.2288    132525.13   -34061.188    2617.7862   -36678.974    475.79397 
  148650     242.8891   -1314.6476    132468.64   -34062.966    2589.0465   -36652.012    475.74615 
  148700    240.02118   -1059.2369    132461.94   -34059.152    2558.4762   -36617.628    476.80093 
  148750    249.38005   -1409.8615    132509.27   -34052.593    2658.2359   -36710.829    476.89633 
  148800    244.63665   -1154.8562     132556.6   -34050.894    2607.6742   -36658.568    477.05306 
  148850    247.00212   -1171.0713    132621.74   -34041.406    2632.8887   -36674.295    476.97638 
  148900    246.74832   -1363.4665    132699.23   -34045.335    2630.1833   -36675.518    476.94441 
  148950    241.91707   -1463.7157    132705.21   -34035.491    2578.6852   -36614.176    477.03302 
  149000    246.11775    -1556.955     132640.9   -34027.407    2623.4618   -36650.869    477.34553 
  149050    241.31098     -1192.51    132519.45   -34037.555    2572.2247   -36609.779    477.46709 
  149100    244.48035   -1198.1147    132391.87   -34056.403    2606.0082   -36662.411    477.81175 
  149150    247.06671   -1185.8353    132272.87   -34058.489    2633.5772   -36692.066    477.37386 
  149200    246.30646   -935.44302     132152.7   -34074.197    2625.4733    -36699.67    477.24135 
  149250    244.40521   -854.45768    132050.32    -34091.53    2605.2073   -36696.737     477.4451 
  149300    245.21401    -854.6603    132052.83   -34105.684    2613.8285   -36719.513    478.05496 
  149350     242.1806   -1259.0174    132192.96   -34122.352    2581.4942   -36703.846    478.01857 
  149400    238.85176   -1153.3924    132395.51   -34110.093    2546.0109   -36656.104    478.48985 
  149450     244.0711   -1528.0358    132565.27    -34105.07    2601.6458   -36706.716    478.83117 
  149500    237.50733   -1494.2568    132688.96   -34117.206    2531.6801   -36648.886    479.63696 
  149550    243.81438   -1581.1917    132747.89   -34102.033    2598.9094   -36700.943    480.08489 
  149600    242.56213    -1713.616    132723.21   -34092.108    2585.5611   -36677.669    480.50938 
  149650    238.86663   -1300.3569    132617.78   -34102.295    2546.1694   -36648.464    480.74764 
  149700    242.17662   -1496.8985    132540.22   -34094.238    2581.4519    -36675.69    480.55703 
  149750    238.66863    -1442.884    132449.57   -34100.534    2544.0588   -36644.593    479.91334 
  149800    242.63725   -1102.0805    132310.37   -34102.618    2586.3619    -36688.98    480.36086 
  149850    242.22054   -1024.1004    132209.98   -34095.365      2581.92   -36677.285    480.02832 
  149900    249.05758   -1288.9962    132171.06   -34121.544    2654.7986   -36776.343    479.83692 
  149950     244.9109   -945.14349    132186.71   -34096.363    2610.5975   -36706.961    479.97113 
  150000    246.72668   -1060.7761     132262.2   -34098.895    2629.9526   -36728.848    480.32206 
Loop time of 403.807 on 12 procs for 100000 steps with 6337 atoms

Performance: 213.964 ns/day, 0.112 hours/ns, 247.643 timesteps/s
96.7% CPU use with 12 MPI tasks x no OpenMP threads

MPI task timing breakdown:
Section |  min time  |  avg time  |  max time  |%varavg| %total
---------------------------------------------------------------
Pair    | 56.679     | 123.92     | 258.56     | 816.4 | 30.69
Neigh   | 8.8392     | 17.945     | 36.507     | 290.8 |  4.44
Comm    | 65.474     | 218.07     | 293.82     | 695.1 | 54.00
Output  | 0.32687    | 0.35499    | 0.43615    |   4.5 |  0.09
Modify  | 37.807     | 38.342     | 38.786     |   5.9 |  9.50
Other   |            | 5.172      |            |       |  1.28

Nlocal:        528.083 ave         921 max         339 min
Histogram: 8 0 0 0 0 0 0 0 0 4
Nghost:        1651.58 ave        1826 max        1554 min
Histogram: 7 1 0 0 0 0 0 0 1 3
Neighs:        0.00000 ave           0 max           0 min
Histogram: 12 0 0 0 0 0 0 0 0 0
FullNghs:      42659.3 ave      104763 max       12878 min
Histogram: 8 0 0 0 0 0 0 0 0 4

Total # of neighbors = 511912
Ave neighs/atom = 80.781442
Neighbor list builds = 11919
Dangerous builds = 0


# Create data file for import to other simulations
#
write_data data.${NAME}
write_data data.ML_graphite_m1000atm_245K
System init for write_data ...


Total wall time: 0:10:05
