LAMMPS data file via write_data, version 16 Mar 2018, timestep = 100000

4990 atoms
2 atom types

0.0000000000000000e+00 4.9219999999999999e+01 xlo xhi
0.0000000000000000e+00 4.9019635930410494e+01 ylo yhi
2.0580543203289601e+00 3.7941945679671875e+01 zlo zhi

Masses

1 18.015
2 12.01

Atoms # atomic

1816 1 3.4136314253359372e+00 9.9118640313113671e-01 3.7308759568216203e+00 1 0 0
1262 1 6.0207222829537299e+00 9.0122794480991963e+00 7.7658753563419838e+00 0 0 0
911 1 1.0877608318293161e+01 4.0087442435872571e+00 8.5877580415610488e+00 0 1 1
3796 1 1.1249641451235735e+01 1.0318304628414138e+01 9.7475579676884418e+00 1 0 1
3442 1 4.4374486902570789e+00 2.6244576408973481e+00 6.0170894246858380e+00 1 1 0
445 1 1.1787171928847739e+01 9.6824110581957239e+00 2.8814838157759923e+00 1 1 1
3861 1 5.3035851233875677e+00 1.0150693292141321e+01 1.0435204801872459e+01 1 0 1
3067 1 7.6109687549186775e+00 3.8336859404517094e+00 4.0656602043452672e+00 0 1 0
988 1 9.9959291068860132e+00 2.1306746095936457e+00 4.2141650141931164e+00 -1 0 0
4359 1 7.2206728383416818e-01 4.3248799801882329e+00 3.2103708933721489e+00 1 0 0
2911 1 1.3543779999926666e+00 4.2448842798212452e+00 5.8996296285508194e+00 2 1 1
407 1 3.2200827593059964e+00 6.2312181688975885e+00 5.6992516445392241e+00 1 2 1
518 1 5.9253807008815516e+00 5.4667182517655881e+00 5.9577008989408267e+00 1 0 1
2681 1 4.0218937239878407e+00 6.3319698598666703e+00 2.7889727952882786e+00 0 0 0
2982 1 1.1461526731178010e+01 5.2792489153638336e+00 5.2559642042435781e+00 0 0 1
2071 1 8.8603273086333836e+00 6.5387336468675263e+00 5.0075058673827026e+00 1 1 0
77 1 1.0084162635042986e+00 7.2827378976640151e+00 2.8450150293312229e+00 1 0 1
4588 1 3.6418369518125093e+00 1.0089240092161521e+01 4.8462590039698323e+00 1 0 1
2633 1 5.1054734788822724e+00 3.5094922411043163e+00 2.9756607366973769e+00 0 -1 0
1757 1 5.4000933916477969e+00 8.8823061994608334e+00 2.7871763502246152e+00 0 0 1
4317 1 3.2535037125406951e+00 8.5258753775375542e+00 7.1218912634130982e+00 0 -1 1
369 1 7.3993361558407331e+00 9.3100082504182851e+00 4.9554526836368256e+00 1 2 1
1709 1 1.0210391676437700e+01 1.0014006000757812e+01 4.8510991038894460e+00 0 0 0
2229 1 2.7204626253203679e+00 2.0123320067448942e+00 7.7522805641886707e+00 -1 0 0
4657 1 1.0261428491135813e+01 6.8813270948389080e+00 7.9769235784378996e+00 0 1 1
877 1 3.9007415247122372e+00 3.3594654253056730e+00 9.8902577603041770e+00 1 1 0
2054 1 9.6436307479070582e-01 9.5011693864640190e+00 8.4877085285048643e+00 1 1 2
3536 1 8.8511845684010368e-02 1.2653332250648259e+00 7.4125221372627772e+00 1 1 1
1339 1 8.8463211534227142e+00 9.6046578919529768e-01 6.5224298875289310e+00 1 1 0
4202 1 8.2260693092163120e+00 2.6970448123290351e+00 8.9542444046678256e+00 1 1 0
1886 1 1.0342701741673990e+00 7.9659573735983997e+00 1.0960605876715423e+01 2 2 0
390 1 6.1117321874705626e+00 4.4273915982969196e+00 8.5887147630667524e+00 0 0 1
991 1 1.1935160519701434e+01 9.2085057297535293e+00 7.2335980287782622e+00 1 -1 1
360 1 2.3276544589173645e-01 1.2227233700522044e+01 8.8596605730336311e+00 1 0 1
2561 1 7.3317355197828231e+00 6.9710464607595917e+00 9.0571520399588792e+00 1 1 1
2990 1 1.0633831667572458e+01 4.2241340727138796e+00 2.4402186652583886e+00 1 1 1
4630 1 1.2444493405216579e+00 1.6760887907597044e+00 2.2371259080922661e+00 1 1 1
4683 1 9.0550674985339175e+00 6.3324689392029487e+00 2.3061234790902008e+00 1 0 0
3703 1 1.0282045055076587e+00 1.1062248337524750e+01 4.3255321889404676e+00 1 0 1
884 1 5.2595855334092985e+00 1.1824989204306934e+01 6.0263129868722753e+00 0 0 0
4218 1 6.1353740410168420e+00 5.3025739292584517e-01 6.4130277149721246e+00 0 -1 0
4200 1 6.5530818527145520e+00 7.7913599864696884e-02 3.3476361424224148e+00 0 1 0
13 1 7.1276127787685839e+00 8.6246314633235210e-01 1.0846998823700336e+01 1 0 1
2960 1 1.0759498967146069e+01 1.2224566434166917e-01 8.3539904055279202e+00 1 0 1
914 1 7.0702134672883787e-01 3.7989351398538131e+00 1.4124691332760696e+01 1 2 1
2542 1 9.8649157827932630e+00 8.8641925939058837e+00 1.1597644874647694e+01 1 0 0
285 2 9.8440000000000012e+00 8.5251540748539956e+00 1.6993643145415518e+01 0 0 0
3832 1 5.8335793292491553e+00 5.3139299104603586e+00 1.1733184711679613e+01 1 0 1
4654 1 4.4017203248992969e+00 2.1240902756002069e+00 1.3869205679644047e+01 1 0 0
527 1 8.4781618352133581e+00 3.3430168137365737e+00 1.3709303054190508e+01 0 -1 0
3802 1 2.9848643577525107e+00 6.0773575079958624e+00 1.1331635492427155e+01 0 0 1
2619 1 1.0448771552613136e+01 3.9874199514814623e-01 1.4261498980622219e+01 0 0 0
3729 1 1.1644343341923609e+01 3.4266545633387295e+00 1.4471585181425683e+01 1 -1 1
4339 1 1.1044631588346352e+01 6.0968657739674068e+00 1.1262844000795548e+01 1 0 0
2132 1 3.0844728356178921e+00 5.9287147253773922e+00 1.4178930020308250e+01 1 0 0
283 2 8.6134999999999984e+00 1.0656442593567498e+01 1.6993643145415518e+01 0 0 0
2901 1 5.6074980344321705e+00 4.4463364935983893e+00 1.4521372599295082e+01 0 1 -1
426 1 7.6735559712434949e+00 6.3883410460253014e+00 1.4456551154420453e+01 1 0 0
2051 1 8.3606961759553489e+00 4.3905442925489115e+00 1.1125897266997461e+01 1 0 1
1831 1 1.0687194646142817e+01 6.2015682811117099e+00 1.4206704368369515e+01 0 1 0
286 2 1.1074500000000002e+01 9.2355835810918343e+00 1.6993643145415518e+01 0 0 0
2598 1 1.7614586258339853e+00 8.4452921628090305e+00 1.4208623908743133e+01 0 1 1
2695 1 3.6845943564394941e+00 1.0342609259345300e+01 1.4205694464472188e+01 0 0 0
2702 1 1.1226330920066729e+00 3.9443380939830082e+00 1.1310425699351692e+01 0 1 0
3497 1 6.3498508437095715e+00 9.2708962424331549e+00 1.4104290371007844e+01 1 1 0
1245 1 1.1809480069238564e+01 8.8119466587844926e+00 1.4282797446007489e+01 1 0 1
1766 1 7.0449390190540866e+00 8.1673961118824092e+00 1.1628965269027780e+01 0 0 0
307 2 1.1074500000000002e+01 1.0656442593567498e+01 1.6993643145415518e+01 0 0 0
2686 1 1.7783452310754637e+00 6.8066647244752765e-01 1.4538626837159482e+01 -1 1 0
193 2 0.0000000000000000e+00 2.8417180249513345e+00 1.6993643145415518e+01 0 0 0
194 2 0.0000000000000000e+00 0.0000000000000000e+00 1.6993643145415518e+01 0 0 0
195 2 1.2305000000000001e+00 7.1042950623783474e-01 1.6993643145415518e+01 0 0 0
199 2 1.2305000000000001e+00 2.1312885187134998e+00 1.6993643145415518e+01 0 0 0
200 2 2.4610000000000003e+00 2.8417180249513345e+00 1.6993643145415518e+01 0 0 0
201 2 2.4610000000000003e+00 0.0000000000000000e+00 1.6993643145415518e+01 0 0 0
202 2 3.6915000000000004e+00 7.1042950623783474e-01 1.6993643145415518e+01 0 0 0
210 2 3.6914999999999996e+00 2.1312885187134998e+00 1.6993643145415518e+01 0 0 0
211 2 4.9220000000000006e+00 2.8417180249513332e+00 1.6993643145415518e+01 0 0 0
212 2 4.9220000000000006e+00 0.0000000000000000e+00 1.6993643145415518e+01 0 0 0
213 2 6.1524999999999999e+00 7.1042950623783407e-01 1.6993643145415518e+01 0 0 0
225 2 6.1524999999999999e+00 2.1312885187134989e+00 1.6993643145415518e+01 0 0 0
226 2 7.3829999999999991e+00 2.8417180249513345e+00 1.6993643145415518e+01 0 0 0
227 2 7.3829999999999991e+00 0.0000000000000000e+00 1.6993643145415518e+01 0 0 0
228 2 8.6134999999999984e+00 7.1042950623783407e-01 1.6993643145415518e+01 0 0 0
244 2 8.6134999999999984e+00 2.1312885187135002e+00 1.6993643145415518e+01 0 0 0
245 2 9.8440000000000012e+00 2.8417180249513332e+00 1.6993643145415518e+01 0 0 0
246 2 9.8440000000000012e+00 0.0000000000000000e+00 1.6993643145415518e+01 0 0 0
247 2 1.1074500000000002e+01 7.1042950623783330e-01 1.6993643145415518e+01 0 0 0
267 2 1.1074500000000002e+01 2.1312885187135002e+00 1.6993643145415518e+01 0 0 0
197 2 0.0000000000000000e+00 4.2625770374269996e+00 1.6993643145415518e+01 0 0 0
198 2 1.2305000000000001e+00 4.9730065436648339e+00 1.6993643145415518e+01 0 0 0
206 2 1.2305000000000001e+00 6.3938655561404980e+00 1.6993643145415518e+01 0 0 0
208 2 2.4610000000000003e+00 4.2625770374269996e+00 1.6993643145415518e+01 0 0 0
209 2 3.6914999999999996e+00 4.9730065436648339e+00 1.6993643145415518e+01 0 0 0
221 2 3.6914999999999996e+00 6.3938655561404980e+00 1.6993643145415518e+01 0 0 0
196 2 0.0000000000000000e+00 7.1042950623783341e+00 1.6993643145415518e+01 0 0 0
207 2 2.4610000000000003e+00 7.1042950623783341e+00 1.6993643145415518e+01 0 0 0
223 2 4.9220000000000006e+00 4.2625770374269978e+00 1.6993643145415518e+01 0 0 0
224 2 6.1524999999999999e+00 4.9730065436648339e+00 1.6993643145415518e+01 0 0 0
240 2 6.1524999999999999e+00 6.3938655561404980e+00 1.6993643145415518e+01 0 0 0
242 2 7.3829999999999991e+00 4.2625770374269996e+00 1.6993643145415518e+01 0 0 0
222 2 4.9220000000000006e+00 7.1042950623783341e+00 1.6993643145415518e+01 0 0 0
241 2 7.3830000000000009e+00 7.1042950623783341e+00 1.6993643145415518e+01 0 0 0
243 2 8.6135000000000002e+00 4.9730065436648339e+00 1.6993643145415518e+01 0 0 0
263 2 8.6135000000000002e+00 6.3938655561404980e+00 1.6993643145415518e+01 0 0 0
265 2 9.8440000000000012e+00 4.2625770374270004e+00 1.6993643145415518e+01 0 0 0
266 2 1.1074500000000002e+01 4.9730065436648339e+00 1.6993643145415518e+01 0 0 0
287 2 1.1074500000000002e+01 6.3938655561404980e+00 1.6993643145415518e+01 0 0 0
264 2 9.8440000000000012e+00 7.1042950623783341e+00 1.6993643145415518e+01 0 0 0
204 2 0.0000000000000000e+00 8.5251540748539991e+00 1.6993643145415518e+01 0 0 0
205 2 1.2305000000000001e+00 9.2355835810918343e+00 1.6993643145415518e+01 0 0 0
219 2 2.4610000000000003e+00 8.5251540748539991e+00 1.6993643145415518e+01 0 0 0
220 2 3.6915000000000004e+00 9.2355835810918343e+00 1.6993643145415518e+01 0 0 0
203 2 0.0000000000000000e+00 1.1366872099805333e+01 1.6993643145415518e+01 0 0 0
217 2 1.2305000000000001e+00 1.0656442593567498e+01 1.6993643145415518e+01 0 0 0
218 2 2.4610000000000003e+00 1.1366872099805333e+01 1.6993643145415518e+01 0 0 0
236 2 3.6914999999999996e+00 1.0656442593567499e+01 1.6993643145415518e+01 0 0 0
261 2 7.3830000000000009e+00 8.5251540748539991e+00 1.6993643145415518e+01 0 0 0
259 2 6.1524999999999999e+00 1.0656442593567499e+01 1.6993643145415518e+01 0 0 0
260 2 7.3829999999999991e+00 1.1366872099805333e+01 1.6993643145415518e+01 0 0 0
239 2 6.1524999999999999e+00 9.2355835810918343e+00 1.6993643145415518e+01 0 0 0
237 2 4.9220000000000006e+00 1.1366872099805333e+01 1.6993643145415518e+01 0 0 0
238 2 4.9220000000000006e+00 8.5251540748539991e+00 1.6993643145415518e+01 0 0 0
262 2 8.6134999999999984e+00 9.2355835810918343e+00 1.6993643145415518e+01 0 0 0
308 2 1.2304999999999998e+01 1.1366872099805333e+01 1.6993643145415518e+01 0 0 0
284 2 9.8440000000000012e+00 1.1366872099805333e+01 1.6993643145415518e+01 0 0 0
3851 1 7.0931701041152984e+00 7.2310462937472708e-01 1.3626528786200803e+01 1 1 1
3529 1 9.3877550941286767e+00 1.0618553096333308e+01 1.3963734473797983e+01 1 1 0
4250 1 2.6910165584335459e+00 1.0332067743195239e+01 1.1309468916624549e+01 0 -1 1
2179 1 6.7304042945304925e+00 1.2239318267990601e+01 1.3819608816763537e+01 0 0 1
1814 1 1.0206843003973367e+01 6.5470722259399583e-01 1.1252085058053988e+01 -1 2 0
3819 1 1.1681104857511125e+01 3.3513580116522257e+00 1.1617920344287535e+01 0 0 1
3374 1 4.3104989084496825e+00 7.6855774558213186e-01 1.1186923145788096e+01 -1 1 0
549 2 0.0000000000000000e+00 1.4208590124756650e+00 2.0028046061538063e+01 0 0 0
550 2 0.0000000000000000e+00 0.0000000000000000e+00 2.0028046061538063e+01 0 0 0
554 2 1.2305000000000001e+00 2.1312885187134998e+00 2.0028046061538063e+01 0 0 0
555 2 2.4610000000000003e+00 1.4208590124756650e+00 2.0028046061538063e+01 0 0 0
556 2 2.4610000000000003e+00 0.0000000000000000e+00 2.0028046061538063e+01 0 0 0
564 2 3.6914999999999996e+00 2.1312885187134998e+00 2.0028046061538063e+01 0 0 0
710 2 0.0000000000000000e+00 2.8417180249513345e+00 2.3062448977661251e+01 0 0 0
711 2 0.0000000000000000e+00 0.0000000000000000e+00 2.3062448977661251e+01 0 0 0
712 2 1.2305000000000001e+00 7.1042950623783474e-01 2.3062448977661251e+01 0 0 0
716 2 1.2305000000000001e+00 2.1312885187134998e+00 2.3062448977661251e+01 0 0 0
717 2 2.4610000000000003e+00 2.8417180249513345e+00 2.3062448977661251e+01 0 0 0
718 2 2.4610000000000003e+00 0.0000000000000000e+00 2.3062448977661251e+01 0 0 0
719 2 3.6915000000000004e+00 7.1042950623783474e-01 2.3062448977661251e+01 0 0 0
727 2 3.6914999999999996e+00 2.1312885187134998e+00 2.3062448977661251e+01 0 0 0
553 2 1.2305000000000001e+00 3.5521475311891644e+00 2.0028046061538063e+01 0 0 0
563 2 3.6914999999999996e+00 3.5521475311891644e+00 2.0028046061538063e+01 0 0 0
565 2 4.9220000000000006e+00 1.4208590124756650e+00 2.0028046061538063e+01 0 0 0
566 2 4.9220000000000006e+00 0.0000000000000000e+00 2.0028046061538063e+01 0 0 0
578 2 6.1524999999999999e+00 2.1312885187134989e+00 2.0028046061538063e+01 0 0 0
579 2 7.3829999999999991e+00 1.4208590124756659e+00 2.0028046061538063e+01 0 0 0
580 2 7.3829999999999991e+00 0.0000000000000000e+00 2.0028046061538063e+01 0 0 0
728 2 4.9220000000000006e+00 2.8417180249513332e+00 2.3062448977661251e+01 0 0 0
729 2 4.9220000000000006e+00 0.0000000000000000e+00 2.3062448977661251e+01 0 0 0
730 2 6.1524999999999999e+00 7.1042950623783407e-01 2.3062448977661251e+01 0 0 0
742 2 6.1524999999999999e+00 2.1312885187134989e+00 2.3062448977661251e+01 0 0 0
743 2 7.3829999999999991e+00 2.8417180249513345e+00 2.3062448977661251e+01 0 0 0
744 2 7.3829999999999991e+00 0.0000000000000000e+00 2.3062448977661251e+01 0 0 0
577 2 6.1524999999999999e+00 3.5521475311891644e+00 2.0028046061538063e+01 0 0 0
596 2 8.6134999999999984e+00 2.1312885187135002e+00 2.0028046061538063e+01 0 0 0
597 2 9.8440000000000012e+00 1.4208590124756659e+00 2.0028046061538063e+01 0 0 0
598 2 9.8440000000000012e+00 0.0000000000000000e+00 2.0028046061538063e+01 0 0 0
618 2 1.1074500000000002e+01 2.1312885187135002e+00 2.0028046061538063e+01 0 0 0
745 2 8.6134999999999984e+00 7.1042950623783407e-01 2.3062448977661251e+01 0 0 0
761 2 8.6134999999999984e+00 2.1312885187135002e+00 2.3062448977661251e+01 0 0 0
762 2 9.8440000000000012e+00 2.8417180249513332e+00 2.3062448977661251e+01 0 0 0
763 2 9.8440000000000012e+00 0.0000000000000000e+00 2.3062448977661251e+01 0 0 0
764 2 1.1074500000000002e+01 7.1042950623783330e-01 2.3062448977661251e+01 0 0 0
784 2 1.1074500000000002e+01 2.1312885187135002e+00 2.3062448977661251e+01 0 0 0
595 2 8.6134999999999984e+00 3.5521475311891657e+00 2.0028046061538063e+01 0 0 0
617 2 1.1074500000000002e+01 3.5521475311891644e+00 2.0028046061538063e+01 0 0 0
551 2 0.0000000000000000e+00 5.6834360499026637e+00 2.0028046061538063e+01 0 0 0
552 2 0.0000000000000000e+00 4.2625770374269996e+00 2.0028046061538063e+01 0 0 0
560 2 1.2305000000000001e+00 6.3938655561404980e+00 2.0028046061538063e+01 0 0 0
561 2 2.4610000000000003e+00 5.6834360499026637e+00 2.0028046061538063e+01 0 0 0
562 2 2.4610000000000003e+00 4.2625770374269996e+00 2.0028046061538063e+01 0 0 0
574 2 3.6914999999999996e+00 6.3938655561404980e+00 2.0028046061538063e+01 0 0 0
714 2 0.0000000000000000e+00 4.2625770374269996e+00 2.3062448977661251e+01 0 0 0
715 2 1.2305000000000001e+00 4.9730065436648339e+00 2.3062448977661251e+01 0 0 0
723 2 1.2305000000000001e+00 6.3938655561404980e+00 2.3062448977661251e+01 0 0 0
725 2 2.4610000000000003e+00 4.2625770374269996e+00 2.3062448977661251e+01 0 0 0
726 2 3.6914999999999996e+00 4.9730065436648339e+00 2.3062448977661251e+01 0 0 0
738 2 3.6914999999999996e+00 6.3938655561404980e+00 2.3062448977661251e+01 0 0 0
559 2 1.2305000000000001e+00 7.8147245686161639e+00 2.0028046061538063e+01 0 0 0
573 2 3.6914999999999996e+00 7.8147245686161639e+00 2.0028046061538063e+01 0 0 0
713 2 0.0000000000000000e+00 7.1042950623783341e+00 2.3062448977661251e+01 0 0 0
724 2 2.4610000000000003e+00 7.1042950623783341e+00 2.3062448977661251e+01 0 0 0
575 2 4.9220000000000006e+00 5.6834360499026637e+00 2.0028046061538063e+01 0 0 0
576 2 4.9220000000000006e+00 4.2625770374269978e+00 2.0028046061538063e+01 0 0 0
592 2 6.1524999999999999e+00 6.3938655561404980e+00 2.0028046061538063e+01 0 0 0
593 2 7.3829999999999991e+00 5.6834360499026637e+00 2.0028046061538063e+01 0 0 0
594 2 7.3829999999999991e+00 4.2625770374269996e+00 2.0028046061538063e+01 0 0 0
740 2 4.9220000000000006e+00 4.2625770374269978e+00 2.3062448977661251e+01 0 0 0
741 2 6.1524999999999999e+00 4.9730065436648339e+00 2.3062448977661251e+01 0 0 0
757 2 6.1524999999999999e+00 6.3938655561404980e+00 2.3062448977661251e+01 0 0 0
759 2 7.3829999999999991e+00 4.2625770374269996e+00 2.3062448977661251e+01 0 0 0
591 2 6.1524999999999999e+00 7.8147245686161639e+00 2.0028046061538063e+01 0 0 0
739 2 4.9220000000000006e+00 7.1042950623783341e+00 2.3062448977661251e+01 0 0 0
758 2 7.3830000000000009e+00 7.1042950623783341e+00 2.3062448977661251e+01 0 0 0
614 2 8.6135000000000002e+00 6.3938655561404980e+00 2.0028046061538063e+01 0 0 0
615 2 9.8440000000000012e+00 5.6834360499026637e+00 2.0028046061538063e+01 0 0 0
616 2 9.8440000000000012e+00 4.2625770374270004e+00 2.0028046061538063e+01 0 0 0
637 2 1.1074500000000002e+01 6.3938655561404980e+00 2.0028046061538063e+01 0 0 0
760 2 8.6135000000000002e+00 4.9730065436648339e+00 2.3062448977661251e+01 0 0 0
780 2 8.6135000000000002e+00 6.3938655561404980e+00 2.3062448977661251e+01 0 0 0
782 2 9.8440000000000012e+00 4.2625770374270004e+00 2.3062448977661251e+01 0 0 0
783 2 1.1074500000000002e+01 4.9730065436648339e+00 2.3062448977661251e+01 0 0 0
804 2 1.1074500000000002e+01 6.3938655561404980e+00 2.3062448977661251e+01 0 0 0
613 2 8.6135000000000002e+00 7.8147245686161639e+00 2.0028046061538063e+01 0 0 0
636 2 1.1074500000000002e+01 7.8147245686161639e+00 2.0028046061538063e+01 0 0 0
781 2 9.8440000000000012e+00 7.1042950623783341e+00 2.3062448977661251e+01 0 0 0
557 2 0.0000000000000000e+00 9.9460130873296642e+00 2.0028046061538063e+01 0 0 0
558 2 0.0000000000000000e+00 8.5251540748539991e+00 2.0028046061538063e+01 0 0 0
571 2 2.4610000000000003e+00 9.9460130873296642e+00 2.0028046061538063e+01 0 0 0
572 2 2.4610000000000003e+00 8.5251540748539991e+00 2.0028046061538063e+01 0 0 0
721 2 0.0000000000000000e+00 8.5251540748539991e+00 2.3062448977661251e+01 0 0 0
722 2 1.2305000000000001e+00 9.2355835810918343e+00 2.3062448977661251e+01 0 0 0
736 2 2.4610000000000003e+00 8.5251540748539991e+00 2.3062448977661251e+01 0 0 0
737 2 3.6915000000000004e+00 9.2355835810918343e+00 2.3062448977661251e+01 0 0 0
569 2 1.2305000000000001e+00 1.2077301606043163e+01 2.0028046061538063e+01 0 0 0
570 2 1.2305000000000001e+00 1.0656442593567498e+01 2.0028046061538063e+01 0 0 0
587 2 3.6914999999999996e+00 1.2077301606043163e+01 2.0028046061538063e+01 0 0 0
588 2 3.6914999999999996e+00 1.0656442593567499e+01 2.0028046061538063e+01 0 0 0
720 2 0.0000000000000000e+00 1.1366872099805333e+01 2.3062448977661251e+01 0 0 0
734 2 1.2305000000000001e+00 1.0656442593567498e+01 2.3062448977661251e+01 0 0 0
735 2 2.4610000000000003e+00 1.1366872099805333e+01 2.3062448977661251e+01 0 0 0
753 2 3.6914999999999996e+00 1.0656442593567499e+01 2.3062448977661251e+01 0 0 0
589 2 4.9220000000000006e+00 9.9460130873296642e+00 2.0028046061538063e+01 0 0 0
590 2 4.9220000000000006e+00 8.5251540748539991e+00 2.0028046061538063e+01 0 0 0
611 2 7.3830000000000009e+00 9.9460130873296642e+00 2.0028046061538063e+01 0 0 0
612 2 7.3830000000000009e+00 8.5251540748539991e+00 2.0028046061538063e+01 0 0 0
755 2 4.9220000000000006e+00 8.5251540748539991e+00 2.3062448977661251e+01 0 0 0
756 2 6.1524999999999999e+00 9.2355835810918343e+00 2.3062448977661251e+01 0 0 0
778 2 7.3830000000000009e+00 8.5251540748539991e+00 2.3062448977661251e+01 0 0 0
609 2 6.1524999999999999e+00 1.2077301606043163e+01 2.0028046061538063e+01 0 0 0
610 2 6.1524999999999999e+00 1.0656442593567499e+01 2.0028046061538063e+01 0 0 0
754 2 4.9220000000000006e+00 1.1366872099805333e+01 2.3062448977661251e+01 0 0 0
776 2 6.1524999999999999e+00 1.0656442593567499e+01 2.3062448977661251e+01 0 0 0
777 2 7.3829999999999991e+00 1.1366872099805333e+01 2.3062448977661251e+01 0 0 0
634 2 9.8440000000000012e+00 9.9460130873296642e+00 2.0028046061538063e+01 0 0 0
635 2 9.8440000000000012e+00 8.5251540748539956e+00 2.0028046061538063e+01 0 0 0
779 2 8.6134999999999984e+00 9.2355835810918343e+00 2.3062448977661251e+01 0 0 0
802 2 9.8440000000000012e+00 8.5251540748539956e+00 2.3062448977661251e+01 0 0 0
803 2 1.1074500000000002e+01 9.2355835810918343e+00 2.3062448977661251e+01 0 0 0
632 2 8.6135000000000002e+00 1.2077301606043163e+01 2.0028046061538063e+01 0 0 0
633 2 8.6134999999999984e+00 1.0656442593567498e+01 2.0028046061538063e+01 0 0 0
655 2 1.1074500000000002e+01 1.2077301606043163e+01 2.0028046061538063e+01 0 0 0
656 2 1.1074500000000002e+01 1.0656442593567498e+01 2.0028046061538063e+01 0 0 0
800 2 8.6134999999999984e+00 1.0656442593567498e+01 2.3062448977661251e+01 0 0 0
801 2 9.8440000000000012e+00 1.1366872099805333e+01 2.3062448977661251e+01 0 0 0
824 2 1.1074500000000002e+01 1.0656442593567498e+01 2.3062448977661251e+01 0 0 0
825 2 1.2304999999999998e+01 1.1366872099805333e+01 2.3062448977661251e+01 0 0 0
1260 1 9.8605597015614403e+00 3.4368827168550866e+00 2.5358572734679246e+01 0 0 0
1352 1 3.0756644188394966e+00 5.1317143199526489e+00 2.8489135837372018e+01 0 2 0
1851 1 9.1421197237597678e+00 5.9211030281891261e+00 2.5800806671045542e+01 1 1 -1
389 1 5.5201505751839930e+00 3.6050918921984820e+00 2.6244609547077648e+01 0 1 0
3384 1 1.2133848752504122e+01 1.0669111029324638e+01 2.8761199189379582e+01 1 0 -1
3790 1 1.1389631654680114e+01 8.8263544152943640e-01 2.5978114490696857e+01 1 1 0
3868 1 7.3543855269932177e+00 1.9219019054626483e+00 2.5365264704504227e+01 1 1 0
2126 1 8.5940410056903698e+00 9.3819918206440143e+00 2.7801194318670195e+01 0 0 0
3405 1 1.1912521401307952e+01 7.0723566290150979e+00 2.5867538247191042e+01 0 0 0
3709 1 2.9407001453289503e+00 2.5837780843951883e+00 2.5362055099589213e+01 1 0 -1
3853 1 2.8498672026595169e+00 5.3354105561942458e+00 2.5745073564267358e+01 1 0 0
2164 1 6.3553771332190463e+00 5.8829440954801813e+00 2.5336029883547056e+01 0 0 0
975 1 9.8975068273659660e-03 5.6670862215438476e+00 2.5969715581204742e+01 1 1 -1
371 1 1.1619671824366538e+01 7.9470767562666085e+00 2.8487261679520724e+01 1 0 -1
3450 1 1.2044189261660136e+01 9.8317497236080165e+00 2.5756352863862180e+01 0 0 -1
97 1 9.4746411500903704e+00 1.1154163470843979e+01 2.5491355062057757e+01 0 -1 -1
475 1 2.0047525695982280e+00 1.1006693018946221e+01 2.8323260328593022e+01 0 0 0
881 1 2.2104464863624855e+00 9.7221699964287076e+00 2.5955983453753948e+01 0 0 0
3057 1 4.8362332665501118e+00 7.4532364451121778e+00 2.8546802576819143e+01 1 -2 0
3765 1 6.6471465303512032e+00 1.0419480905451694e+01 2.5812914249588932e+01 1 0 0
875 1 4.4968420809307785e+00 8.1494380963257740e+00 2.6101482747772671e+01 1 1 0
3863 1 7.7313764684981692e+00 6.3213607503178881e+00 2.8197963508670444e+01 0 0 -1
448 1 8.7787273794042679e+00 2.9670221551816911e+00 2.8224381820107009e+01 -1 -1 0
1318 1 4.7400174630222763e-01 1.6289019749979534e+00 2.8333545789014135e+01 0 2 -1
1276 1 1.1646414385466693e+01 1.9950714112460612e+00 2.8601180117815186e+01 1 1 0
470 1 9.8918315316335672e+00 1.2242274830379706e+01 2.8660316735762351e+01 0 0 0
4599 1 2.4810087538225218e+00 3.8188830782654053e+00 3.2712421875498180e+01 0 1 0
2976 1 1.2770243482686476e+00 7.0366853899824700e-01 3.1674584131594305e+01 0 1 0
3029 1 5.6060512206710538e+00 1.0760278302371973e+00 3.2468273507597317e+01 0 1 -1
4652 1 5.3039486936993789e+00 3.7125818466620673e+00 3.3117387797812256e+01 0 1 0
2625 1 2.6275882956423868e+00 9.3262902540527204e+00 3.7617100700377151e+01 0 0 -1
1832 1 8.0324293138017016e+00 4.3882368465768433e+00 3.0592812473513330e+01 1 0 -1
3506 1 5.0488424714855604e+00 9.9291891182864789e-01 2.9535814361107452e+01 1 1 -1
2079 1 7.3952371354834878e-01 3.3105031795188324e+00 3.0719412314881179e+01 0 0 0
3383 1 2.9586723768033756e+00 6.4453755941082829e+00 3.1388679703666423e+01 1 0 -1
2939 1 5.4653370240368426e+00 5.9006116109225859e+00 3.1294121839662147e+01 0 1 -1
3458 1 7.3129966536412159e+00 7.4781768666416975e+00 3.2609957577661717e+01 1 -1 -1
4358 1 5.5052984522474384e+00 1.2780165234952983e+00 3.6655951438756290e+01 0 -1 -1
4600 1 1.0633611646376275e+01 5.3707893095674395e+00 3.2192059693494343e+01 0 0 -1
1708 1 3.2025542332514162e-01 1.1062800336079814e+01 3.6919687842045292e+01 1 1 0
4552 1 4.5406929340843556e+00 1.0909925860837792e+01 3.0839025501520307e+01 1 0 0
4619 1 1.9248450542957278e+00 6.7423898630491772e+00 3.4015280269821815e+01 0 0 0
163 1 9.8355100496559338e+00 7.1539119828789319e+00 3.0473034793028674e+01 1 0 -1
3058 1 6.8772187219868313e+00 9.1402975315895620e+00 3.0112295428061053e+01 0 0 0
36 1 1.1777862132930856e+01 1.2021129878151141e+01 3.6735200898168486e+01 1 0 0
80 1 7.5761080226913498e+00 1.1452402114300397e+00 3.4873580142129512e+01 1 0 -1
487 1 1.0536762812732640e+01 4.7325490477809762e-01 3.5998569365943226e+01 0 1 1
38 1 2.5462055801177956e+00 9.0400943124063193e+00 3.0208537193431273e+01 0 0 -1
931 1 3.3560532325427550e-02 9.9680734527976576e+00 3.1682349633992327e+01 0 1 -1
4534 1 1.0609147009594157e+01 3.5354628597202264e+00 3.5595429572425346e+01 -1 0 -1
876 1 1.1554533254975256e+01 2.3918802298482449e+00 3.1783169224603206e+01 0 0 -1
4229 1 1.7434740477361659e+00 2.6843984184503458e+00 3.5155573988552334e+01 0 3 -1
2140 1 2.1827935430668592e+00 5.1851499657553495e+00 3.6369252800852180e+01 1 -1 0
2549 1 4.9442144263538257e+00 4.3584499374762293e+00 3.6029340648625706e+01 -1 0 0
2701 1 8.8873295422013818e+00 5.9789123202961214e+00 3.4478471548181815e+01 0 0 -2
3395 1 8.3098808367432877e+00 3.3945723767791569e+00 3.3316693863888304e+01 0 0 1
3715 1 1.0884863140769419e+01 9.3590549634879352e+00 3.1740444074847495e+01 -1 0 -1
395 1 3.2241643764697714e+00 4.1048378752516007e-01 3.3746907709717888e+01 0 2 0
3370 1 3.3479587887003546e+00 8.9036132040340998e+00 3.5001811816134122e+01 1 0 0
185 1 3.5678579974158215e+00 1.1367668510826187e+01 3.3532428857294263e+01 1 1 -1
1011 1 8.3998896364729081e+00 1.0212013203435749e+01 3.5282230952488817e+01 0 1 -1
377 1 1.0202163585117050e+01 8.4731477435574121e+00 3.6617370775644289e+01 0 0 0
380 1 6.0015743434571522e+00 8.5699401889767337e+00 3.5135688070763251e+01 1 1 0
2065 1 6.5852411010854564e+00 6.4895814675520889e+00 3.6832339520515617e+01 0 0 0
3712 1 9.5391107468008869e+00 1.1476277343194797e+01 3.2967538816340884e+01 0 -1 -1
3749 1 1.1356255304470100e+01 7.7538324393842100e+00 3.4311336284576470e+01 0 0 -1
46 1 8.0169024439239092e+00 1.1631737117763423e+01 3.0711050038590368e+01 1 -1 -2
1784 1 6.1523511938228310e+00 1.1255945817199922e+01 3.7083769961617676e+01 0 0 -1
2050 1 5.4765899061364927e+00 3.6990561688319286e+00 2.8971804699227643e+01 1 0 -1
178 1 3.7031989447324309e+00 1.3981123669350056e+01 6.3292340056612266e+00 0 0 0
4565 1 6.3609531662074996e+00 2.1823586847919170e+01 3.5025151763856268e+00 -1 1 1
2643 1 8.5312476078978783e+00 2.3758592667421162e+01 5.5524224261856538e+00 0 0 0
2201 1 5.9615991593700226e+00 1.5889542512726779e+01 3.1926930074561217e+00 1 1 1
4355 1 8.8522335134838457e+00 1.3730154491650341e+01 3.2475790151272363e+00 0 0 0
92 1 1.0315410773360146e+01 1.2597498396211364e+01 5.1896745655829140e+00 1 1 0
1023 1 3.5302849273808170e+00 1.8719131269098337e+01 5.3658325760565884e+00 0 0 0
3537 1 9.2023712059924989e+00 2.4007334567269766e+01 9.1612449569200152e+00 0 1 1
2114 1 6.1675613731896428e+00 1.8006532549503625e+01 4.7516932919859993e+00 -1 -1 0
192 1 7.0015673018208462e+00 1.7733102092677527e+01 7.3448558133487278e+00 1 0 0
3798 1 8.0090551203184432e+00 1.9500028955582287e+01 3.2713174326748762e+00 1 0 1
4573 1 1.1038812139847087e+01 1.7205134260536393e+01 5.2044898643719630e+00 0 0 0
3024 1 3.3641022157657665e+00 2.1492015263011311e+01 5.7457347680491537e+00 -1 1 0
2972 1 3.4391173282361065e-01 2.1033338688571341e+01 5.8802961842673795e+00 1 0 1
3411 1 3.2544737155694694e+00 1.2359285665161030e+01 2.3866302770522587e+00 0 0 0
434 1 9.8671479216278275e+00 2.1224437574637626e+01 4.3118286547813867e+00 0 1 1
896 1 5.2626418898230805e+00 1.9772015810720792e+01 8.3498517904335934e+00 0 -1 0
2228 1 9.0870875028510749e+00 1.6594608038299487e+01 3.2232949732913196e+00 0 0 0
464 1 3.2597220655127441e+00 1.4915491462402644e+01 3.6520303988277534e+00 1 1 1
3716 1 9.9108169651526179e+00 1.9824177368833997e+01 6.6617427315878048e+00 1 0 0
1715 1 9.3222232540976846e-01 1.4052944809271304e+01 6.9382705662121440e+00 1 0 0
1852 1 6.1746397889761635e+00 1.3009311783996852e+01 3.5727723275669288e+00 1 0 0
4360 1 9.1103228383080506e+00 2.4482281741190111e+01 2.6364136170917662e+00 0 2 1
4327 1 3.7206037883015850e+00 1.6452012007804868e+01 1.0159364575339813e+01 0 0 0
3465 1 9.3078395181984224e+00 1.4151898015347943e+01 7.2251396875865597e+00 1 0 0
4241 1 6.6020455903026445e+00 1.3231375221631611e+01 8.1954627106314746e+00 -1 0 1
2630 1 1.0927496648482522e+01 1.3010704659011193e+01 9.3600493931238642e+00 0 0 0
2048 1 5.3247476202634454e+00 1.5580130846842740e+01 7.8895065203494390e+00 1 1 1
3435 1 2.7406074389208630e+00 1.8525943438414433e+01 8.4008550016489565e+00 1 0 0
3828 1 6.3314115050306183e+00 2.2233953080968938e+01 6.6327394777800803e+00 -1 -1 0
2209 1 3.4311874620547194e+00 2.2146503636250596e+01 8.7400468490492962e+00 0 -1 1
2078 1 1.0043680954609631e+01 1.8045778874992308e+01 1.0480388813272219e+01 1 0 1
970 1 9.8305391306732162e+00 1.6926985771770923e+01 7.7579400607077211e+00 0 -1 0
422 1 2.6189964632717904e+00 2.2772245327497650e+01 3.3721092472316432e+00 1 0 1
3849 1 1.9118689251387745e-02 2.3196964784280908e+01 9.9148877679181151e+00 0 1 0
361 1 9.3621589881184564e-01 2.0648598156431444e+01 9.8602405206565642e+00 1 1 0
3783 1 8.4800207079546954e+00 2.1367513857056213e+01 8.2950252917417426e+00 1 0 1
2214 1 6.3485391823698911e-01 1.6555793923963257e+01 8.0944867315477822e+00 2 -1 0
1302 1 2.1158491394137053e+00 1.7536034628782993e+01 2.9513321759048408e+00 0 -1 0
3380 1 5.2262748346239523e+00 2.4358118136587173e+01 8.1907568631785121e+00 1 -1 0
1219 1 1.2281377627878982e+01 1.9522396435186284e+01 3.8429700532392030e+00 1 1 1