LAMMPS data file via write_data, version 16 Mar 2018, timestep = 8000000

4990 atoms
2 atom types

0.0000000000000000e+00 4.9219999999999999e+01 xlo xhi
0.0000000000000000e+00 4.9019635930410494e+01 ylo yhi
1.1349374297970947e+00 3.8865062570211741e+01 zlo zhi

Masses

1 18.015
2 12.01

Atoms # atomic

4258 1 7.0888822957439412e-01 3.2538584608565815e+00 2.4487226313960768e+00 3 0 2
3394 1 5.6466211991119346e+00 1.2693868370889643e+00 3.6706247139075687e+00 0 3 0
3463 1 4.6684205673420918e+00 3.6482793985995610e+00 2.3371386001766750e+00 -1 -2 0
2730 1 8.1078441896031865e+00 4.7475396434069256e-01 2.3199537188555821e+00 0 3 1
3480 1 9.7526724659124291e+00 2.4453089596759172e+00 3.2177276645045958e+00 -1 -3 0
474 1 1.3539705477909596e+00 1.0458953619275919e+01 7.3054366381212494e+00 1 6 1
4202 1 2.5052349478580811e+00 4.7320801541930368e+00 3.5121012484689431e+00 1 3 0
1833 1 2.1284249007089415e+00 7.4752944630365619e+00 2.7079820031658413e+00 2 6 1
2950 1 6.3609056023684545e+00 5.4481584659490876e+00 3.0729863476750423e+00 -2 0 1
545 1 6.1576322047465490e+00 7.8773082593304240e+00 2.2930211906750406e+00 1 1 1
1784 1 8.9247018197607293e+00 5.0287005471997848e+00 2.4016723671875084e+00 1 3 0
1732 1 1.0819202496021029e+01 6.8653226626800050e+00 3.3059972607200918e+00 -1 2 1
4626 1 3.9302050381772013e+00 9.2218860494184920e+00 3.5481291153423662e+00 0 2 1
1352 1 3.0206989414086260e+00 1.1511451586371418e+01 2.4921164766762947e+00 1 -4 1
1272 1 7.2019426289153250e+00 1.0050082232608471e+01 3.4785578925399250e+00 3 0 0
1284 1 9.8908546824318293e+00 9.6022723550542803e+00 2.6973730802449785e+00 -1 0 1
2216 1 1.1832299738673777e+01 1.1559469280398062e+01 3.3824995299245533e+00 -1 -1 1
3786 1 3.1806092847551128e+00 1.9663542585174931e+00 9.8397705343838577e+00 4 0 1
931 1 3.2509705186665059e+00 2.3079454573059754e+00 7.1491706299543569e+00 -1 4 0
4338 1 5.5646377163519247e+00 1.1129028313352517e+01 7.3101390110425184e+00 0 0 1
2878 1 5.6530232482951170e+00 1.3129168477352038e+00 6.2554663728812550e+00 4 1 1
2975 1 7.2425084443278944e+00 3.3266241634431308e+00 7.0185515434800694e+00 1 -1 1
2599 1 7.4552916670832552e+00 3.3790864901196622e+00 9.9891249846896333e+00 2 0 0
3801 1 5.3684290202153919e+00 1.1220865292913246e+01 1.0066758457358544e+01 -2 1 1
1229 1 1.2732450187777911e+00 7.4888363208537956e-01 6.0849885305701052e+00 1 3 1
2642 1 9.5649644066840942e+00 2.3345486544359475e+00 5.8788079426335331e+00 2 -3 0
1807 1 1.2004219829960821e+01 1.1464562957927434e+01 6.2304007776020933e+00 3 -4 0
1718 1 2.6395435111303196e+00 4.8100976495800012e+00 6.2050092931249141e+00 -4 -1 0
4591 1 7.7620195708085653e+00 1.0265051391953472e+01 6.2361630662149921e+00 -4 1 1
2153 1 4.3057185507439728e+00 6.6507399756914785e+00 7.1557474228040450e+00 -1 -3 0
4640 1 4.3678375226686751e-02 5.4953849450976673e+00 1.0054201421253305e+01 3 0 0
3804 1 4.3900013689687736e+00 6.5195254572555799e+00 9.9157773687605832e+00 -4 -1 0
959 1 6.4888800539476135e+00 5.6962661520353022e+00 5.8161154621275175e+00 -3 1 0
44 1 8.2771080917373450e+00 7.3721027978566775e+00 6.8827245400951638e+00 -1 -1 1
4226 1 8.2331957140876533e+00 7.7375110949812083e+00 9.5586800100407086e+00 1 2 0
3862 1 1.0912103710178219e+01 7.1866460924567823e+00 6.0799692752849177e+00 0 -1 1
513 1 1.1660682523576648e+01 4.3810514297514320e+00 9.8677372950718798e+00 0 4 1
3369 1 1.1107738094283663e+01 4.6925671644173272e+00 7.2827514918939960e+00 -4 -2 0
3445 1 1.3053182465033728e+00 1.0237934594261834e+01 9.9707956802538789e+00 -1 -3 0
4584 1 3.6590831039890994e+00 9.2921755550915517e+00 6.4373173555696139e+00 0 3 1
1216 1 4.3062272387490524e-01 5.5504005695461798e+00 7.4040686476011119e+00 3 -2 1
1334 1 1.2264390445482281e+01 1.7194398109592832e+00 2.4967561203552955e+00 0 -2 1
4692 1 9.5087908373275631e+00 1.2183037927245250e+01 6.9238870950476308e+00 0 1 1
3705 1 1.0489177670790427e+01 1.1648832873234176e-01 9.6160442166908151e+00 0 0 0
898 1 1.5152706365606536e+00 4.5942055393144970e-01 3.3256550191364678e+00 -1 0 1
4224 1 9.4669609528394787e+00 1.2103643402002545e+01 9.7437524466081680e+00 1 3 0
3483 1 3.6706686747693111e+00 9.2651284283424129e+00 1.0350967011019524e+01 2 2 0
78 1 4.9294200972900432e-01 2.7094518271797803e+00 1.4193927344496194e+01 2 -1 0
3709 1 1.1716333847937777e+00 9.5337866241471877e-02 1.3957757738810047e+01 5 0 0
1299 1 5.4796537767288758e+00 1.4039140242735095e+00 1.3454725379195192e+01 -5 3 1
461 1 4.8919956745641615e+00 3.9222424559100957e+00 1.4250747099620618e+01 0 1 1
4282 1 7.9427749983633742e+00 5.8222089053506909e-01 1.4198869616241595e+01 -1 0 0
1358 1 9.9167806245878776e+00 2.3075273140067956e+00 1.3527384864901336e+01 -2 1 1
409 1 1.1818731002229816e+01 1.1483377690941637e+01 1.1062464891034079e+01 -2 4 1
3011 1 2.4278741256115675e+00 4.5314769111923905e+00 1.3488796496789023e+01 2 1 1
2552 1 1.9023171774657208e+00 7.0264689465828170e+00 1.4265543986583866e+01 3 7 1
2962 1 7.6948699951121382e+00 1.0143266451202658e+01 1.0962619809010324e+01 2 -2 1
4351 1 6.8724756741019801e+00 5.7751292728808137e+00 1.3480420820219370e+01 4 3 0
1276 1 5.6718299968838197e+00 1.3432383663059160e+00 1.0757377830352409e+01 5 3 1
544 1 9.2964171037291621e+00 5.0527272150814078e+00 1.4175232205871119e+01 3 1 0
2877 1 1.0873594858012037e+01 6.8179692636676563e+00 1.3373080764705493e+01 1 0 1
1029 1 6.9360905127160244e+00 5.8806447971287339e+00 1.0816585988120213e+01 1 5 0
4339 1 3.3326527629413758e+00 1.1243987034350322e+01 1.4324018280879677e+01 -4 2 0
2932 1 3.6496421978431819e+00 8.6984047120587284e+00 1.3325651414027645e+01 1 4 2
283 2 8.6134999999999984e+00 1.0656442593567498e+01 1.6838965450994827e+01 0 0 0
93 1 9.7828555847810836e+00 2.4542433571044264e+00 1.0678562246043033e+01 -3 -1 0
3023 1 6.0741415067612667e+00 8.2171194542007360e+00 1.4537655685747593e+01 -2 -3 1
170 1 7.7177305542903696e+00 1.0197124376192866e+01 1.3684065745595959e+01 0 -1 0
2983 1 1.1417525812752523e+01 1.1106250915022436e+01 1.3783553102642681e+01 1 1 1
262 2 8.6134999999999984e+00 9.2355835810918343e+00 1.6838965450994827e+01 0 0 0
1025 1 9.9584446806626747e+00 9.1237897750393504e+00 1.4558497235573212e+01 -1 -2 -1
193 2 0.0000000000000000e+00 2.8417180249513345e+00 1.6838965450994827e+01 0 0 0
194 2 0.0000000000000000e+00 0.0000000000000000e+00 1.6838965450994827e+01 0 0 0
195 2 1.2305000000000001e+00 7.1042950623783474e-01 1.6838965450994827e+01 0 0 0
199 2 1.2305000000000001e+00 2.1312885187134998e+00 1.6838965450994827e+01 0 0 0
200 2 2.4610000000000003e+00 2.8417180249513345e+00 1.6838965450994827e+01 0 0 0
201 2 2.4610000000000003e+00 0.0000000000000000e+00 1.6838965450994827e+01 0 0 0
202 2 3.6915000000000004e+00 7.1042950623783474e-01 1.6838965450994827e+01 0 0 0
210 2 3.6914999999999996e+00 2.1312885187134998e+00 1.6838965450994827e+01 0 0 0
211 2 4.9220000000000006e+00 2.8417180249513332e+00 1.6838965450994827e+01 0 0 0
212 2 4.9220000000000006e+00 0.0000000000000000e+00 1.6838965450994827e+01 0 0 0
213 2 6.1524999999999999e+00 7.1042950623783407e-01 1.6838965450994827e+01 0 0 0
225 2 6.1524999999999999e+00 2.1312885187134989e+00 1.6838965450994827e+01 0 0 0
226 2 7.3829999999999991e+00 2.8417180249513345e+00 1.6838965450994827e+01 0 0 0
227 2 7.3829999999999991e+00 0.0000000000000000e+00 1.6838965450994827e+01 0 0 0
228 2 8.6134999999999984e+00 7.1042950623783407e-01 1.6838965450994827e+01 0 0 0
244 2 8.6134999999999984e+00 2.1312885187135002e+00 1.6838965450994827e+01 0 0 0
245 2 9.8440000000000012e+00 2.8417180249513332e+00 1.6838965450994827e+01 0 0 0
246 2 9.8440000000000012e+00 0.0000000000000000e+00 1.6838965450994827e+01 0 0 0
247 2 1.1074500000000002e+01 7.1042950623783330e-01 1.6838965450994827e+01 0 0 0
267 2 1.1074500000000002e+01 2.1312885187135002e+00 1.6838965450994827e+01 0 0 0
197 2 0.0000000000000000e+00 4.2625770374269996e+00 1.6838965450994827e+01 0 0 0
198 2 1.2305000000000001e+00 4.9730065436648339e+00 1.6838965450994827e+01 0 0 0
206 2 1.2305000000000001e+00 6.3938655561404980e+00 1.6838965450994827e+01 0 0 0
208 2 2.4610000000000003e+00 4.2625770374269996e+00 1.6838965450994827e+01 0 0 0
209 2 3.6914999999999996e+00 4.9730065436648339e+00 1.6838965450994827e+01 0 0 0
221 2 3.6914999999999996e+00 6.3938655561404980e+00 1.6838965450994827e+01 0 0 0
196 2 0.0000000000000000e+00 7.1042950623783341e+00 1.6838965450994827e+01 0 0 0
207 2 2.4610000000000003e+00 7.1042950623783341e+00 1.6838965450994827e+01 0 0 0
223 2 4.9220000000000006e+00 4.2625770374269978e+00 1.6838965450994827e+01 0 0 0
224 2 6.1524999999999999e+00 4.9730065436648339e+00 1.6838965450994827e+01 0 0 0
240 2 6.1524999999999999e+00 6.3938655561404980e+00 1.6838965450994827e+01 0 0 0
242 2 7.3829999999999991e+00 4.2625770374269996e+00 1.6838965450994827e+01 0 0 0
222 2 4.9220000000000006e+00 7.1042950623783341e+00 1.6838965450994827e+01 0 0 0
241 2 7.3830000000000009e+00 7.1042950623783341e+00 1.6838965450994827e+01 0 0 0
243 2 8.6135000000000002e+00 4.9730065436648339e+00 1.6838965450994827e+01 0 0 0
263 2 8.6135000000000002e+00 6.3938655561404980e+00 1.6838965450994827e+01 0 0 0
265 2 9.8440000000000012e+00 4.2625770374270004e+00 1.6838965450994827e+01 0 0 0
266 2 1.1074500000000002e+01 4.9730065436648339e+00 1.6838965450994827e+01 0 0 0
287 2 1.1074500000000002e+01 6.3938655561404980e+00 1.6838965450994827e+01 0 0 0
264 2 9.8440000000000012e+00 7.1042950623783341e+00 1.6838965450994827e+01 0 0 0
236 2 3.6914999999999996e+00 1.0656442593567499e+01 1.6838965450994827e+01 0 0 0
204 2 0.0000000000000000e+00 8.5251540748539991e+00 1.6838965450994827e+01 0 0 0
205 2 1.2305000000000001e+00 9.2355835810918343e+00 1.6838965450994827e+01 0 0 0
219 2 2.4610000000000003e+00 8.5251540748539991e+00 1.6838965450994827e+01 0 0 0
220 2 3.6915000000000004e+00 9.2355835810918343e+00 1.6838965450994827e+01 0 0 0
203 2 0.0000000000000000e+00 1.1366872099805333e+01 1.6838965450994827e+01 0 0 0
217 2 1.2305000000000001e+00 1.0656442593567498e+01 1.6838965450994827e+01 0 0 0
218 2 2.4610000000000003e+00 1.1366872099805333e+01 1.6838965450994827e+01 0 0 0
237 2 4.9220000000000006e+00 1.1366872099805333e+01 1.6838965450994827e+01 0 0 0
239 2 6.1524999999999999e+00 9.2355835810918343e+00 1.6838965450994827e+01 0 0 0
261 2 7.3830000000000009e+00 8.5251540748539991e+00 1.6838965450994827e+01 0 0 0
259 2 6.1524999999999999e+00 1.0656442593567499e+01 1.6838965450994827e+01 0 0 0
260 2 7.3829999999999991e+00 1.1366872099805333e+01 1.6838965450994827e+01 0 0 0
238 2 4.9220000000000006e+00 8.5251540748539991e+00 1.6838965450994827e+01 0 0 0
285 2 9.8440000000000012e+00 8.5251540748539956e+00 1.6838965450994827e+01 0 0 0
284 2 9.8440000000000012e+00 1.1366872099805333e+01 1.6838965450994827e+01 0 0 0
308 2 1.2304999999999998e+01 1.1366872099805333e+01 1.6838965450994827e+01 0 0 0
286 2 1.1074500000000002e+01 9.2355835810918343e+00 1.6838965450994827e+01 0 0 0
307 2 1.1074500000000002e+01 1.0656442593567498e+01 1.6838965450994827e+01 0 0 0
2583 1 2.6857233867565915e+00 4.4331412693568142e+00 1.0640850164299247e+01 0 4 0
4537 1 1.0744811371871473e+01 6.9776925681147954e+00 1.0577690477169408e+01 -1 0 1
549 2 0.0000000000000000e+00 1.4208590124756650e+00 2.0029489037333121e+01 0 0 0
550 2 0.0000000000000000e+00 0.0000000000000000e+00 2.0029489037333121e+01 0 0 0
554 2 1.2305000000000001e+00 2.1312885187134998e+00 2.0029489037333121e+01 0 0 0
555 2 2.4610000000000003e+00 1.4208590124756650e+00 2.0029489037333121e+01 0 0 0
556 2 2.4610000000000003e+00 0.0000000000000000e+00 2.0029489037333121e+01 0 0 0
564 2 3.6914999999999996e+00 2.1312885187134998e+00 2.0029489037333121e+01 0 0 0
710 2 0.0000000000000000e+00 2.8417180249513345e+00 2.3220012623681601e+01 0 0 0
711 2 0.0000000000000000e+00 0.0000000000000000e+00 2.3220012623681601e+01 0 0 0
712 2 1.2305000000000001e+00 7.1042950623783474e-01 2.3220012623681601e+01 0 0 0
716 2 1.2305000000000001e+00 2.1312885187134998e+00 2.3220012623681601e+01 0 0 0
717 2 2.4610000000000003e+00 2.8417180249513345e+00 2.3220012623681601e+01 0 0 0
718 2 2.4610000000000003e+00 0.0000000000000000e+00 2.3220012623681601e+01 0 0 0
719 2 3.6915000000000004e+00 7.1042950623783474e-01 2.3220012623681601e+01 0 0 0
727 2 3.6914999999999996e+00 2.1312885187134998e+00 2.3220012623681601e+01 0 0 0
553 2 1.2305000000000001e+00 3.5521475311891644e+00 2.0029489037333121e+01 0 0 0
563 2 3.6914999999999996e+00 3.5521475311891644e+00 2.0029489037333121e+01 0 0 0
565 2 4.9220000000000006e+00 1.4208590124756650e+00 2.0029489037333121e+01 0 0 0
566 2 4.9220000000000006e+00 0.0000000000000000e+00 2.0029489037333121e+01 0 0 0
578 2 6.1524999999999999e+00 2.1312885187134989e+00 2.0029489037333121e+01 0 0 0
579 2 7.3829999999999991e+00 1.4208590124756659e+00 2.0029489037333121e+01 0 0 0
580 2 7.3829999999999991e+00 0.0000000000000000e+00 2.0029489037333121e+01 0 0 0
728 2 4.9220000000000006e+00 2.8417180249513332e+00 2.3220012623681601e+01 0 0 0
729 2 4.9220000000000006e+00 0.0000000000000000e+00 2.3220012623681601e+01 0 0 0
730 2 6.1524999999999999e+00 7.1042950623783407e-01 2.3220012623681601e+01 0 0 0
742 2 6.1524999999999999e+00 2.1312885187134989e+00 2.3220012623681601e+01 0 0 0
743 2 7.3829999999999991e+00 2.8417180249513345e+00 2.3220012623681601e+01 0 0 0
744 2 7.3829999999999991e+00 0.0000000000000000e+00 2.3220012623681601e+01 0 0 0
577 2 6.1524999999999999e+00 3.5521475311891644e+00 2.0029489037333121e+01 0 0 0
596 2 8.6134999999999984e+00 2.1312885187135002e+00 2.0029489037333121e+01 0 0 0
597 2 9.8440000000000012e+00 1.4208590124756659e+00 2.0029489037333121e+01 0 0 0
598 2 9.8440000000000012e+00 0.0000000000000000e+00 2.0029489037333121e+01 0 0 0
618 2 1.1074500000000002e+01 2.1312885187135002e+00 2.0029489037333121e+01 0 0 0
745 2 8.6134999999999984e+00 7.1042950623783407e-01 2.3220012623681601e+01 0 0 0
761 2 8.6134999999999984e+00 2.1312885187135002e+00 2.3220012623681601e+01 0 0 0
762 2 9.8440000000000012e+00 2.8417180249513332e+00 2.3220012623681601e+01 0 0 0
763 2 9.8440000000000012e+00 0.0000000000000000e+00 2.3220012623681601e+01 0 0 0
764 2 1.1074500000000002e+01 7.1042950623783330e-01 2.3220012623681601e+01 0 0 0
784 2 1.1074500000000002e+01 2.1312885187135002e+00 2.3220012623681601e+01 0 0 0
595 2 8.6134999999999984e+00 3.5521475311891657e+00 2.0029489037333121e+01 0 0 0
617 2 1.1074500000000002e+01 3.5521475311891644e+00 2.0029489037333121e+01 0 0 0
551 2 0.0000000000000000e+00 5.6834360499026637e+00 2.0029489037333121e+01 0 0 0
552 2 0.0000000000000000e+00 4.2625770374269996e+00 2.0029489037333121e+01 0 0 0
560 2 1.2305000000000001e+00 6.3938655561404980e+00 2.0029489037333121e+01 0 0 0
561 2 2.4610000000000003e+00 5.6834360499026637e+00 2.0029489037333121e+01 0 0 0
562 2 2.4610000000000003e+00 4.2625770374269996e+00 2.0029489037333121e+01 0 0 0
574 2 3.6914999999999996e+00 6.3938655561404980e+00 2.0029489037333121e+01 0 0 0
714 2 0.0000000000000000e+00 4.2625770374269996e+00 2.3220012623681601e+01 0 0 0
715 2 1.2305000000000001e+00 4.9730065436648339e+00 2.3220012623681601e+01 0 0 0
723 2 1.2305000000000001e+00 6.3938655561404980e+00 2.3220012623681601e+01 0 0 0
725 2 2.4610000000000003e+00 4.2625770374269996e+00 2.3220012623681601e+01 0 0 0
726 2 3.6914999999999996e+00 4.9730065436648339e+00 2.3220012623681601e+01 0 0 0
738 2 3.6914999999999996e+00 6.3938655561404980e+00 2.3220012623681601e+01 0 0 0
559 2 1.2305000000000001e+00 7.8147245686161639e+00 2.0029489037333121e+01 0 0 0
573 2 3.6914999999999996e+00 7.8147245686161639e+00 2.0029489037333121e+01 0 0 0
713 2 0.0000000000000000e+00 7.1042950623783341e+00 2.3220012623681601e+01 0 0 0
724 2 2.4610000000000003e+00 7.1042950623783341e+00 2.3220012623681601e+01 0 0 0
575 2 4.9220000000000006e+00 5.6834360499026637e+00 2.0029489037333121e+01 0 0 0
576 2 4.9220000000000006e+00 4.2625770374269978e+00 2.0029489037333121e+01 0 0 0
592 2 6.1524999999999999e+00 6.3938655561404980e+00 2.0029489037333121e+01 0 0 0
593 2 7.3829999999999991e+00 5.6834360499026637e+00 2.0029489037333121e+01 0 0 0
594 2 7.3829999999999991e+00 4.2625770374269996e+00 2.0029489037333121e+01 0 0 0
740 2 4.9220000000000006e+00 4.2625770374269978e+00 2.3220012623681601e+01 0 0 0
741 2 6.1524999999999999e+00 4.9730065436648339e+00 2.3220012623681601e+01 0 0 0
757 2 6.1524999999999999e+00 6.3938655561404980e+00 2.3220012623681601e+01 0 0 0
759 2 7.3829999999999991e+00 4.2625770374269996e+00 2.3220012623681601e+01 0 0 0
591 2 6.1524999999999999e+00 7.8147245686161639e+00 2.0029489037333121e+01 0 0 0
739 2 4.9220000000000006e+00 7.1042950623783341e+00 2.3220012623681601e+01 0 0 0
758 2 7.3830000000000009e+00 7.1042950623783341e+00 2.3220012623681601e+01 0 0 0
614 2 8.6135000000000002e+00 6.3938655561404980e+00 2.0029489037333121e+01 0 0 0
615 2 9.8440000000000012e+00 5.6834360499026637e+00 2.0029489037333121e+01 0 0 0
616 2 9.8440000000000012e+00 4.2625770374270004e+00 2.0029489037333121e+01 0 0 0
637 2 1.1074500000000002e+01 6.3938655561404980e+00 2.0029489037333121e+01 0 0 0
760 2 8.6135000000000002e+00 4.9730065436648339e+00 2.3220012623681601e+01 0 0 0
780 2 8.6135000000000002e+00 6.3938655561404980e+00 2.3220012623681601e+01 0 0 0
782 2 9.8440000000000012e+00 4.2625770374270004e+00 2.3220012623681601e+01 0 0 0
783 2 1.1074500000000002e+01 4.9730065436648339e+00 2.3220012623681601e+01 0 0 0
804 2 1.1074500000000002e+01 6.3938655561404980e+00 2.3220012623681601e+01 0 0 0
613 2 8.6135000000000002e+00 7.8147245686161639e+00 2.0029489037333121e+01 0 0 0
636 2 1.1074500000000002e+01 7.8147245686161639e+00 2.0029489037333121e+01 0 0 0
781 2 9.8440000000000012e+00 7.1042950623783341e+00 2.3220012623681601e+01 0 0 0
557 2 0.0000000000000000e+00 9.9460130873296642e+00 2.0029489037333121e+01 0 0 0
558 2 0.0000000000000000e+00 8.5251540748539991e+00 2.0029489037333121e+01 0 0 0
571 2 2.4610000000000003e+00 9.9460130873296642e+00 2.0029489037333121e+01 0 0 0
572 2 2.4610000000000003e+00 8.5251540748539991e+00 2.0029489037333121e+01 0 0 0
721 2 0.0000000000000000e+00 8.5251540748539991e+00 2.3220012623681601e+01 0 0 0
722 2 1.2305000000000001e+00 9.2355835810918343e+00 2.3220012623681601e+01 0 0 0
736 2 2.4610000000000003e+00 8.5251540748539991e+00 2.3220012623681601e+01 0 0 0
737 2 3.6915000000000004e+00 9.2355835810918343e+00 2.3220012623681601e+01 0 0 0
569 2 1.2305000000000001e+00 1.2077301606043163e+01 2.0029489037333121e+01 0 0 0
570 2 1.2305000000000001e+00 1.0656442593567498e+01 2.0029489037333121e+01 0 0 0
587 2 3.6914999999999996e+00 1.2077301606043163e+01 2.0029489037333121e+01 0 0 0
588 2 3.6914999999999996e+00 1.0656442593567499e+01 2.0029489037333121e+01 0 0 0
720 2 0.0000000000000000e+00 1.1366872099805333e+01 2.3220012623681601e+01 0 0 0
734 2 1.2305000000000001e+00 1.0656442593567498e+01 2.3220012623681601e+01 0 0 0
735 2 2.4610000000000003e+00 1.1366872099805333e+01 2.3220012623681601e+01 0 0 0
753 2 3.6914999999999996e+00 1.0656442593567499e+01 2.3220012623681601e+01 0 0 0
589 2 4.9220000000000006e+00 9.9460130873296642e+00 2.0029489037333121e+01 0 0 0
590 2 4.9220000000000006e+00 8.5251540748539991e+00 2.0029489037333121e+01 0 0 0
611 2 7.3830000000000009e+00 9.9460130873296642e+00 2.0029489037333121e+01 0 0 0
612 2 7.3830000000000009e+00 8.5251540748539991e+00 2.0029489037333121e+01 0 0 0
755 2 4.9220000000000006e+00 8.5251540748539991e+00 2.3220012623681601e+01 0 0 0
756 2 6.1524999999999999e+00 9.2355835810918343e+00 2.3220012623681601e+01 0 0 0
778 2 7.3830000000000009e+00 8.5251540748539991e+00 2.3220012623681601e+01 0 0 0
609 2 6.1524999999999999e+00 1.2077301606043163e+01 2.0029489037333121e+01 0 0 0
610 2 6.1524999999999999e+00 1.0656442593567499e+01 2.0029489037333121e+01 0 0 0
754 2 4.9220000000000006e+00 1.1366872099805333e+01 2.3220012623681601e+01 0 0 0
776 2 6.1524999999999999e+00 1.0656442593567499e+01 2.3220012623681601e+01 0 0 0
777 2 7.3829999999999991e+00 1.1366872099805333e+01 2.3220012623681601e+01 0 0 0
634 2 9.8440000000000012e+00 9.9460130873296642e+00 2.0029489037333121e+01 0 0 0
635 2 9.8440000000000012e+00 8.5251540748539956e+00 2.0029489037333121e+01 0 0 0
779 2 8.6134999999999984e+00 9.2355835810918343e+00 2.3220012623681601e+01 0 0 0
802 2 9.8440000000000012e+00 8.5251540748539956e+00 2.3220012623681601e+01 0 0 0
803 2 1.1074500000000002e+01 9.2355835810918343e+00 2.3220012623681601e+01 0 0 0
632 2 8.6135000000000002e+00 1.2077301606043163e+01 2.0029489037333121e+01 0 0 0
633 2 8.6134999999999984e+00 1.0656442593567498e+01 2.0029489037333121e+01 0 0 0
655 2 1.1074500000000002e+01 1.2077301606043163e+01 2.0029489037333121e+01 0 0 0
656 2 1.1074500000000002e+01 1.0656442593567498e+01 2.0029489037333121e+01 0 0 0
800 2 8.6134999999999984e+00 1.0656442593567498e+01 2.3220012623681601e+01 0 0 0
801 2 9.8440000000000012e+00 1.1366872099805333e+01 2.3220012623681601e+01 0 0 0
824 2 1.1074500000000002e+01 1.0656442593567498e+01 2.3220012623681601e+01 0 0 0
825 2 1.2304999999999998e+01 1.1366872099805333e+01 2.3220012623681601e+01 0 0 0
34 1 1.1104058839548656e+00 2.6771574746146767e+00 2.6438734177171867e+01 -3 1 0
2729 1 7.9244210187900030e+00 1.3163073194005976e+00 2.9155459697725551e+01 1 -2 -1
1880 1 1.3171543670761607e+00 6.2153096719184397e-02 2.5596108152460420e+01 -1 -1 0
3442 1 8.0556060436046217e-01 3.0788883465223384e+00 2.9250910255941864e+01 1 1 -1
4264 1 5.5485055883021124e+00 1.6634157376928866e+00 2.5557611504177064e+01 3 4 0
2227 1 4.9990454894222394e+00 3.9913515946685911e+00 2.6732764880573363e+01 -4 -4 0
2656 1 7.8849829966327025e+00 8.2294322248175744e-01 2.6456142105434122e+01 -3 -1 -1
887 1 1.0210978359457423e+01 9.6208675327550210e+00 2.9359121299127782e+01 0 3 -1
2926 1 9.7845235206041075e+00 2.6104212608438977e+00 2.5558951769033616e+01 0 1 1
1734 1 8.3528933113465200e+00 1.0645225859982173e+01 2.5504157096608971e+01 -1 3 0
3001 1 1.0584255636119773e+01 9.5794365540825925e+00 2.6669742653561787e+01 1 2 0
2582 1 2.6442614634042951e+00 4.8857663886768510e+00 2.5604220218997476e+01 1 -2 -1
3372 1 2.0655275412449212e+00 7.4014079010412370e+00 2.6624294807427233e+01 2 -2 0
2141 1 6.4689575753814985e+00 6.0653429539355352e+00 2.5922982986746437e+01 0 -2 0
3815 1 9.0828383801085071e+00 5.2174257882588844e+00 2.6380922198559517e+01 -3 5 -1
4619 1 1.0922225756489361e+01 7.1130780821282471e+00 2.5673288726312766e+01 2 6 0
2869 1 6.1863535041941136e+00 8.3694053025125452e+00 2.9373665710560150e+01 -1 4 -1
4257 1 4.0240457476343909e+00 9.2974278127852532e+00 2.5751260540416183e+01 -3 1 0
4220 1 6.5008039906453519e+00 8.7625718189844282e+00 2.6433735001371780e+01 3 1 0
4382 1 3.2986000617359097e+00 1.1814559394782561e+01 2.9382952144154764e+01 -2 0 -1
1879 1 2.2017880092473430e+00 7.6756153575620534e+00 2.9285832837758857e+01 -5 3 0
3506 1 3.1722760167479200e+00 1.1789363425756148e+01 2.6751679452480708e+01 0 0 -1
3412 1 1.2252929008414418e+01 1.1549907430003811e+01 2.5746291654716579e+01 3 -1 -1
2881 1 1.2261970747906554e+01 2.1007041756022176e+00 2.6422044639444742e+01 1 -1 0
102 1 4.8308950195753715e+00 4.0797042925673743e+00 2.9375820388438555e+01 1 -1 -1
394 1 9.1134405871668687e+00 5.3680210468353629e+00 2.9209861966203285e+01 2 3 -1
2935 1 1.2280956609977645e+01 2.1383755288021118e+00 2.9206221515692064e+01 0 2 -1
1390 1 2.9031232508714715e+00 2.0878890931184508e+00 3.3833017377844627e+01 -2 2 0
2689 1 9.0953668523558076e+00 5.0065801070188494e+00 3.7496502011008104e+01 -1 3 -1
167 1 1.1650440765210829e+01 1.1266456240789225e+01 3.2668974855937194e+01 -3 1 -1
428 1 5.5088350154042303e+00 1.4661839469027445e+00 3.2989674604647021e+01 -2 3 0
1720 1 7.3256821729562587e+00 3.5399782241074584e+00 3.3865195831299246e+01 3 -4 0
3850 1 5.4681801502363774e+00 1.5250370998722371e+00 3.0253883733583265e+01 -2 2 0
3056 1 9.6744833941941693e+00 2.7840392479139582e+00 3.0136190100558171e+01 5 2 0
960 1 9.6291413431893620e+00 2.4725235747309324e+00 3.2880486948976127e+01 3 2 0
892 1 2.4736484653053665e+00 4.6579600207494813e+00 3.2981269205292833e+01 -1 2 0
479 1 2.5213497457023721e+00 5.1295238203431133e+00 3.0207070417068707e+01 -2 -2 0
1200 1 5.5682803950751385e+00 1.1046338106618801e+01 3.6684071028463691e+01 4 -4 -1
1338 1 4.1461537850077503e+00 6.7200414003449200e+00 3.3697534333544354e+01 7 -1 0
4256 1 6.5106231009448132e+00 5.6375929121852231e+00 3.0278355978349403e+01 5 -2 -1
1252 1 6.6626129009182407e+00 5.9198995036628670e+00 3.2810348842090079e+01 1 -2 -1
374 1 1.1555301623335657e+01 4.4276286271372083e+00 3.3928954911002236e+01 -2 -2 0
352 1 8.4211313354620856e+00 7.7347146371666335e+00 3.3714585134138602e+01 -2 2 0
3430 1 1.1053847480898167e+01 7.0233043670526838e+00 3.3162385246897131e+01 1 0 -1
4203 1 1.0938793621794856e+01 7.2642266715269423e+00 3.0349555521208458e+01 1 1 -1
2635 1 3.8142559853216640e+00 9.4010095725397296e+00 3.3159390212020199e+01 1 2 -1
3723 1 1.2519514562624894e+00 9.9403031066368843e+00 3.3794949380704821e+01 7 -5 -1
50 1 3.9041253329531971e+00 9.3005174755310254e+00 3.0491676766222888e+01 0 1 0
4637 1 1.0257754165695689e+01 9.6536772681379759e+00 3.7731726980021776e+01 2 1 -1
2128 1 7.5459096935279844e+00 1.0141709109726573e+01 3.3151157247606179e+01 -2 3 0
4207 1 5.0987326265326329e+00 1.1440444081127476e+01 3.4126043519309903e+01 1 1 0
4539 1 7.8609982669057654e+00 1.0266728274176595e+01 3.0437417108991202e+01 2 -2 -1
185 1 1.2857125649200889e+00 1.1219632021917873e-01 3.2854883068654168e+01 -1 3 -1
3363 1 3.1794744606325009e+00 1.1793942542646585e+01 3.7612606489639859e+01 2 -3 -1
3725 1 5.3946849136134711e-01 2.8378257783699405e+00 3.7465293880784671e+01 -2 0 -1
1875 1 2.8199628024561720e+00 2.0746686490441877e+00 3.6567107768600010e+01 1 1 0
2972 1 7.3281491475169656e+00 3.0336255556745639e+00 3.6493786120012786e+01 -2 2 0
2061 1 7.6606953929329267e+00 4.9340449279530402e-01 3.7363481579756055e+01 5 2 -1
459 1 4.8151799414286014e+00 3.6935635934048774e+00 3.7180710310685072e+01 -1 2 0
2111 1 8.5618199573365725e+00 7.7706523706777162e+00 3.6752284549750982e+01 -2 0 0
4540 1 1.1799160196858687e+00 1.0077222898362438e+01 3.6514901244383935e+01 0 1 -1
2062 1 1.2298230413446710e+01 1.1446282593221923e+01 2.9914387330896794e+01 0 2 -1
542 1 1.8744213390362638e+00 7.5003375983001508e+00 3.7626905223669155e+01 0 0 0
3482 1 6.0168622031888015e+00 8.3293764961162307e+00 3.7330530354975181e+01 1 -1 0
192 1 4.2040583023297717e+00 6.1229615125979713e+00 3.6401181971199975e+01 4 1 -1
1896 1 1.1662790669300160e+01 4.2793985341726524e+00 3.6737578578873581e+01 -4 3 -2
3706 1 9.5019568361766549e+00 1.2151695181723577e+01 3.6787101512982503e+01 -3 -1 -1
4522 1 1.9926723211670916e-01 5.2613972848573374e+00 3.6645928717543768e+01 1 -1 -1
1204 1 1.3116290602116174e+00 1.6008380601690514e-01 3.0025387537242274e+01 0 1 0
1335 1 1.2182709366130593e+01 1.8285583741960947e+00 3.7336574911062669e+01 0 -6 -1
3386 1 9.3048456105472095e+00 1.1998077164520181e+01 3.3932177841244226e+01 4 3 0
3518 1 1.0384000763720211e+01 2.7033137721808487e-02 3.3689777181410435e+01 0 1 -1
2103 1 7.2175847765218553e+00 2.2712943561540250e+01 6.1937721994650046e+00 1 1 2
2571 1 1.1767694433291371e+01 2.1528359990400382e+01 9.9594388126983553e+00 -1 -3 0
3717 1 4.3618515861649483e+00 1.3664265339785251e+01 3.6399008197348404e+00 0 -1 0
3381 1 7.0566868621230405e+00 1.2607189885289344e+01 2.9670668322031624e+00 -2 7 0
3735 1 8.6963615320295151e+00 1.4650476763098609e+01 3.3564256470729958e+00 1 2 1
4673 1 1.1111473861168058e+01 1.3965121515959796e+01 2.5816645743810156e+00 3 -1 0
537 1 3.9744899233015157e-01 2.2314597260117520e+01 9.7146057679668694e+00 2 1 1
135 1 1.3095023251090845e+00 1.7530545727376555e+01 3.3615787106066377e+00 0 0 0
870 1 7.3769961658276484e-01 1.9963544152798562e+01 2.3164693071741960e+00 5 1 1
1324 1 3.9800991719976593e+00 1.6378280506589995e+01 2.4520917993411970e+00 -1 4 0
514 1 5.9437059029925141e+00 1.8161983042595160e+01 3.3600240639344254e+00 2 -2 1
3877 1 8.2825041656826830e+00 1.7334775922852071e+01 2.6449039350820485e+00 -2 -1 0
4566 1 1.0144072042885513e+01 1.9507930079506753e+01 3.2758620996077261e+00 3 -2 1
3028 1 9.0558257406622165e+00 2.4424497072402183e+01 7.1915773472708935e+00 2 0 1
3360 1 2.8503825388539243e+00 2.1479147215490830e+01 3.3534955806398643e+00 -3 -2 1
2916 1 1.9814837405491434e+00 2.3990979856290004e+01 2.3228877552947145e+00 3 0 0
1711 1 5.4636931695687956e+00 2.0928910004407424e+01 2.5754518539200610e+00 2 2 0
3458 1 7.2530743460956808e+00 2.2726894586089930e+01 3.3132184075863322e+00 0 3 0
1770 1 9.8368799424621987e+00 2.2022429090647133e+01 2.4708910565537421e+00 0 1 0
152 1 1.1463040721174020e+01 2.1399493526596135e+01 7.2450033553991560e+00 2 3 1
432 1 2.2644457860954375e+00 1.4773876848986665e+01 7.3449320396687572e+00 -2 0 1
4364 1 2.5003821642357136e+00 1.4485071894943296e+01 9.9310880368332484e+00 4 -2 1
4266 1 4.7258997100561251e+00 2.3031215822581672e+01 9.8568960771708038e+00 -4 0 1
2241 1 4.4954563039686608e+00 1.3637901311859807e+01 6.4437044203161227e+00 -2 -4 0
4612 1 6.3865124883602489e+00 1.5773943674855124e+01 1.0044805620974072e+01 -1 1 2
1255 1 6.1493447708980398e+00 1.5549181382856986e+01 7.1780486887581541e+00 -1 2 1
3010 1 7.0630892164205261e-01 1.2773443190895589e+01 6.1644963260922703e+00 0 0 1
2954 1 8.4158826052217979e+00 1.4728962911795442e+01 6.2190446452495047e+00 -3 -1 1
487 1 4.4128904031123488e+00 2.2954933432481077e+01 6.9706104549817418e+00 4 4 2
3479 1 3.4367829475319933e+00 1.8882700256926654e+01 1.0000977857491355e+01 2 1 1
3802 1 1.5690841505465993e+00 1.7141395578319713e+01 6.1590803482822736e+00 2 3 1
3433 1 3.3732948630345034e+00 1.8755190164806397e+01 7.0343966889423397e+00 0 0 0
899 1 6.0159520342261024e+00 1.7990295516643581e+01 6.1398038766993404e+00 2 -1 0
4550 1 7.7226222369855595e+00 2.0080683498295112e+01 6.8574940336658727e+00 3 0 1
4333 1 8.0169100994842761e+00 1.9926856382755656e+01 9.7115005411125566e+00 -3 -1 0
935 1 1.0090767243460688e+01 1.6886691605855187e+01 9.9597006096438410e+00 0 1 0
1230 1 1.0165982102284540e+01 1.9296833846418405e+01 5.9375085405759220e+00 -3 4 1