LAMMPS data file via write_data, version 16 Mar 2018, timestep = 100000

4078 atoms
2 atom types

0.0000000000000000e+00 4.9219999999999999e+01 xlo xhi
0.0000000000000000e+00 4.9019635930410494e+01 ylo yhi
1.3577849186563853e+00 2.6582215081343513e+01 zlo zhi

Masses

1 18.015
2 12.01

Atoms # atomic

52 2 0.0000000000000000e+00 2.8417180249513345e+00 3.1063554281417627e+00 0 0 0
54 2 0.0000000000000000e+00 0.0000000000000000e+00 3.1063554281417627e+00 0 0 0
56 2 1.2305000000000001e+00 7.1042950623783474e-01 3.1063554281417627e+00 0 0 0
63 2 1.2305000000000001e+00 2.1312885187134998e+00 3.1063554281417627e+00 0 0 0
65 2 2.4610000000000003e+00 2.8417180249513345e+00 3.1063554281417627e+00 0 0 0
67 2 2.4610000000000003e+00 0.0000000000000000e+00 3.1063554281417627e+00 0 0 0
69 2 3.6915000000000004e+00 7.1042950623783474e-01 3.1063554281417627e+00 0 0 0
84 2 3.6914999999999996e+00 2.1312885187134998e+00 3.1063554281417627e+00 0 0 0
86 2 4.9220000000000006e+00 2.8417180249513332e+00 3.1063554281417627e+00 0 0 0
88 2 4.9220000000000006e+00 0.0000000000000000e+00 3.1063554281417627e+00 0 0 0
90 2 6.1524999999999999e+00 7.1042950623783407e-01 3.1063554281417627e+00 0 0 0
113 2 6.1524999999999999e+00 2.1312885187134989e+00 3.1063554281417627e+00 0 0 0
115 2 7.3829999999999991e+00 2.8417180249513345e+00 3.1063554281417627e+00 0 0 0
117 2 7.3829999999999991e+00 0.0000000000000000e+00 3.1063554281417627e+00 0 0 0
119 2 8.6134999999999984e+00 7.1042950623783407e-01 3.1063554281417627e+00 0 0 0
150 2 8.6134999999999984e+00 2.1312885187135002e+00 3.1063554281417627e+00 0 0 0
152 2 9.8440000000000012e+00 2.8417180249513332e+00 3.1063554281417627e+00 0 0 0
154 2 9.8440000000000012e+00 0.0000000000000000e+00 3.1063554281417627e+00 0 0 0
156 2 1.1074500000000002e+01 7.1042950623783330e-01 3.1063554281417627e+00 0 0 0
195 2 1.1074500000000002e+01 2.1312885187135002e+00 3.1063554281417627e+00 0 0 0
59 2 0.0000000000000000e+00 4.2625770374269996e+00 3.1063554281417627e+00 0 0 0
61 2 1.2305000000000001e+00 4.9730065436648339e+00 3.1063554281417627e+00 0 0 0
76 2 1.2305000000000001e+00 6.3938655561404980e+00 3.1063554281417627e+00 0 0 0
80 2 2.4610000000000003e+00 4.2625770374269996e+00 3.1063554281417627e+00 0 0 0
82 2 3.6914999999999996e+00 4.9730065436648339e+00 3.1063554281417627e+00 0 0 0
105 2 3.6914999999999996e+00 6.3938655561404980e+00 3.1063554281417627e+00 0 0 0
57 2 0.0000000000000000e+00 7.1042950623783341e+00 3.1063554281417627e+00 0 0 0
78 2 2.4610000000000003e+00 7.1042950623783341e+00 3.1063554281417627e+00 0 0 0
109 2 4.9220000000000006e+00 4.2625770374269978e+00 3.1063554281417627e+00 0 0 0
111 2 6.1524999999999999e+00 4.9730065436648339e+00 3.1063554281417627e+00 0 0 0
142 2 6.1524999999999999e+00 6.3938655561404980e+00 3.1063554281417627e+00 0 0 0
146 2 7.3829999999999991e+00 4.2625770374269996e+00 3.1063554281417627e+00 0 0 0
107 2 4.9220000000000006e+00 7.1042950623783341e+00 3.1063554281417627e+00 0 0 0
144 2 7.3830000000000009e+00 7.1042950623783341e+00 3.1063554281417627e+00 0 0 0
148 2 8.6135000000000002e+00 4.9730065436648339e+00 3.1063554281417627e+00 0 0 0
187 2 8.6135000000000002e+00 6.3938655561404980e+00 3.1063554281417627e+00 0 0 0
191 2 9.8440000000000012e+00 4.2625770374270004e+00 3.1063554281417627e+00 0 0 0
193 2 1.1074500000000002e+01 4.9730065436648339e+00 3.1063554281417627e+00 0 0 0
234 2 1.1074500000000002e+01 6.3938655561404980e+00 3.1063554281417627e+00 0 0 0
189 2 9.8440000000000012e+00 7.1042950623783341e+00 3.1063554281417627e+00 0 0 0
72 2 0.0000000000000000e+00 8.5251540748539991e+00 3.1063554281417627e+00 0 0 0
74 2 1.2305000000000001e+00 9.2355835810918343e+00 3.1063554281417627e+00 0 0 0
101 2 2.4610000000000003e+00 8.5251540748539991e+00 3.1063554281417627e+00 0 0 0
103 2 3.6915000000000004e+00 9.2355835810918343e+00 3.1063554281417627e+00 0 0 0
70 2 0.0000000000000000e+00 1.1366872099805333e+01 3.1063554281417627e+00 0 0 0
97 2 1.2305000000000001e+00 1.0656442593567498e+01 3.1063554281417627e+00 0 0 0
99 2 2.4610000000000003e+00 1.1366872099805333e+01 3.1063554281417627e+00 0 0 0
134 2 3.6914999999999996e+00 1.0656442593567499e+01 3.1063554281417627e+00 0 0 0
138 2 4.9220000000000006e+00 8.5251540748539991e+00 3.1063554281417627e+00 0 0 0
140 2 6.1524999999999999e+00 9.2355835810918343e+00 3.1063554281417627e+00 0 0 0
183 2 7.3830000000000009e+00 8.5251540748539991e+00 3.1063554281417627e+00 0 0 0
136 2 4.9220000000000006e+00 1.1366872099805333e+01 3.1063554281417627e+00 0 0 0
179 2 6.1524999999999999e+00 1.0656442593567499e+01 3.1063554281417627e+00 0 0 0
181 2 7.3829999999999991e+00 1.1366872099805333e+01 3.1063554281417627e+00 0 0 0
185 2 8.6134999999999984e+00 9.2355835810918343e+00 3.1063554281417627e+00 0 0 0
230 2 9.8440000000000012e+00 8.5251540748539956e+00 3.1063554281417627e+00 0 0 0
232 2 1.1074500000000002e+01 9.2355835810918343e+00 3.1063554281417627e+00 0 0 0
226 2 8.6134999999999984e+00 1.0656442593567498e+01 3.1063554281417627e+00 0 0 0
228 2 9.8440000000000012e+00 1.1366872099805333e+01 3.1063554281417627e+00 0 0 0
273 2 1.1074500000000002e+01 1.0656442593567498e+01 3.1063554281417627e+00 0 0 0
275 2 1.2304999999999998e+01 1.1366872099805333e+01 3.1063554281417627e+00 0 0 0
53 2 0.0000000000000000e+00 1.4208590124756650e+00 6.0703726651072039e+00 0 0 0
55 2 0.0000000000000000e+00 0.0000000000000000e+00 6.0703726651072039e+00 0 0 0
64 2 1.2305000000000001e+00 2.1312885187134998e+00 6.0703726651072039e+00 0 0 0
66 2 2.4610000000000003e+00 1.4208590124756650e+00 6.0703726651072039e+00 0 0 0
68 2 2.4610000000000003e+00 0.0000000000000000e+00 6.0703726651072039e+00 0 0 0
85 2 3.6914999999999996e+00 2.1312885187134998e+00 6.0703726651072039e+00 0 0 0
381 2 0.0000000000000000e+00 2.8417180249513345e+00 9.0343899020730234e+00 0 0 0
382 2 0.0000000000000000e+00 0.0000000000000000e+00 9.0343899020730234e+00 0 0 0
383 2 1.2305000000000001e+00 7.1042950623783474e-01 9.0343899020730234e+00 0 0 0
387 2 1.2305000000000001e+00 2.1312885187134998e+00 9.0343899020730234e+00 0 0 0
388 2 2.4610000000000003e+00 2.8417180249513345e+00 9.0343899020730234e+00 0 0 0
389 2 2.4610000000000003e+00 0.0000000000000000e+00 9.0343899020730234e+00 0 0 0
390 2 3.6915000000000004e+00 7.1042950623783474e-01 9.0343899020730234e+00 0 0 0
398 2 3.6914999999999996e+00 2.1312885187134998e+00 9.0343899020730234e+00 0 0 0
62 2 1.2305000000000001e+00 3.5521475311891644e+00 6.0703726651072039e+00 0 0 0
83 2 3.6914999999999996e+00 3.5521475311891644e+00 6.0703726651072039e+00 0 0 0
87 2 4.9220000000000006e+00 1.4208590124756650e+00 6.0703726651072039e+00 0 0 0
89 2 4.9220000000000006e+00 0.0000000000000000e+00 6.0703726651072039e+00 0 0 0
114 2 6.1524999999999999e+00 2.1312885187134989e+00 6.0703726651072039e+00 0 0 0
116 2 7.3829999999999991e+00 1.4208590124756659e+00 6.0703726651072039e+00 0 0 0
118 2 7.3829999999999991e+00 0.0000000000000000e+00 6.0703726651072039e+00 0 0 0
399 2 4.9220000000000006e+00 2.8417180249513332e+00 9.0343899020730234e+00 0 0 0
400 2 4.9220000000000006e+00 0.0000000000000000e+00 9.0343899020730234e+00 0 0 0
401 2 6.1524999999999999e+00 7.1042950623783407e-01 9.0343899020730234e+00 0 0 0
413 2 6.1524999999999999e+00 2.1312885187134989e+00 9.0343899020730234e+00 0 0 0
414 2 7.3829999999999991e+00 2.8417180249513345e+00 9.0343899020730234e+00 0 0 0
415 2 7.3829999999999991e+00 0.0000000000000000e+00 9.0343899020730234e+00 0 0 0
112 2 6.1524999999999999e+00 3.5521475311891644e+00 6.0703726651072039e+00 0 0 0
151 2 8.6134999999999984e+00 2.1312885187135002e+00 6.0703726651072039e+00 0 0 0
153 2 9.8440000000000012e+00 1.4208590124756659e+00 6.0703726651072039e+00 0 0 0
155 2 9.8440000000000012e+00 0.0000000000000000e+00 6.0703726651072039e+00 0 0 0
196 2 1.1074500000000002e+01 2.1312885187135002e+00 6.0703726651072039e+00 0 0 0
416 2 8.6134999999999984e+00 7.1042950623783407e-01 9.0343899020730234e+00 0 0 0
432 2 8.6134999999999984e+00 2.1312885187135002e+00 9.0343899020730234e+00 0 0 0
433 2 9.8440000000000012e+00 2.8417180249513332e+00 9.0343899020730234e+00 0 0 0
434 2 9.8440000000000012e+00 0.0000000000000000e+00 9.0343899020730234e+00 0 0 0
435 2 1.1074500000000002e+01 7.1042950623783330e-01 9.0343899020730234e+00 0 0 0
455 2 1.1074500000000002e+01 2.1312885187135002e+00 9.0343899020730234e+00 0 0 0
149 2 8.6134999999999984e+00 3.5521475311891657e+00 6.0703726651072039e+00 0 0 0
194 2 1.1074500000000002e+01 3.5521475311891644e+00 6.0703726651072039e+00 0 0 0
58 2 0.0000000000000000e+00 5.6834360499026637e+00 6.0703726651072039e+00 0 0 0
60 2 0.0000000000000000e+00 4.2625770374269996e+00 6.0703726651072039e+00 0 0 0
77 2 1.2305000000000001e+00 6.3938655561404980e+00 6.0703726651072039e+00 0 0 0
79 2 2.4610000000000003e+00 5.6834360499026637e+00 6.0703726651072039e+00 0 0 0
81 2 2.4610000000000003e+00 4.2625770374269996e+00 6.0703726651072039e+00 0 0 0
106 2 3.6914999999999996e+00 6.3938655561404980e+00 6.0703726651072039e+00 0 0 0
385 2 0.0000000000000000e+00 4.2625770374269996e+00 9.0343899020730234e+00 0 0 0
386 2 1.2305000000000001e+00 4.9730065436648339e+00 9.0343899020730234e+00 0 0 0
394 2 1.2305000000000001e+00 6.3938655561404980e+00 9.0343899020730234e+00 0 0 0
396 2 2.4610000000000003e+00 4.2625770374269996e+00 9.0343899020730234e+00 0 0 0
397 2 3.6914999999999996e+00 4.9730065436648339e+00 9.0343899020730234e+00 0 0 0
409 2 3.6914999999999996e+00 6.3938655561404980e+00 9.0343899020730234e+00 0 0 0
75 2 1.2305000000000001e+00 7.8147245686161639e+00 6.0703726651072039e+00 0 0 0
104 2 3.6914999999999996e+00 7.8147245686161639e+00 6.0703726651072039e+00 0 0 0
384 2 0.0000000000000000e+00 7.1042950623783341e+00 9.0343899020730234e+00 0 0 0
395 2 2.4610000000000003e+00 7.1042950623783341e+00 9.0343899020730234e+00 0 0 0
108 2 4.9220000000000006e+00 5.6834360499026637e+00 6.0703726651072039e+00 0 0 0
110 2 4.9220000000000006e+00 4.2625770374269978e+00 6.0703726651072039e+00 0 0 0
143 2 6.1524999999999999e+00 6.3938655561404980e+00 6.0703726651072039e+00 0 0 0
145 2 7.3829999999999991e+00 5.6834360499026637e+00 6.0703726651072039e+00 0 0 0
147 2 7.3829999999999991e+00 4.2625770374269996e+00 6.0703726651072039e+00 0 0 0
411 2 4.9220000000000006e+00 4.2625770374269978e+00 9.0343899020730234e+00 0 0 0
412 2 6.1524999999999999e+00 4.9730065436648339e+00 9.0343899020730234e+00 0 0 0
428 2 6.1524999999999999e+00 6.3938655561404980e+00 9.0343899020730234e+00 0 0 0
430 2 7.3829999999999991e+00 4.2625770374269996e+00 9.0343899020730234e+00 0 0 0
141 2 6.1524999999999999e+00 7.8147245686161639e+00 6.0703726651072039e+00 0 0 0
410 2 4.9220000000000006e+00 7.1042950623783341e+00 9.0343899020730234e+00 0 0 0
429 2 7.3830000000000009e+00 7.1042950623783341e+00 9.0343899020730234e+00 0 0 0
188 2 8.6135000000000002e+00 6.3938655561404980e+00 6.0703726651072039e+00 0 0 0
190 2 9.8440000000000012e+00 5.6834360499026637e+00 6.0703726651072039e+00 0 0 0
192 2 9.8440000000000012e+00 4.2625770374270004e+00 6.0703726651072039e+00 0 0 0
235 2 1.1074500000000002e+01 6.3938655561404980e+00 6.0703726651072039e+00 0 0 0
431 2 8.6135000000000002e+00 4.9730065436648339e+00 9.0343899020730234e+00 0 0 0
451 2 8.6135000000000002e+00 6.3938655561404980e+00 9.0343899020730234e+00 0 0 0
453 2 9.8440000000000012e+00 4.2625770374270004e+00 9.0343899020730234e+00 0 0 0
454 2 1.1074500000000002e+01 4.9730065436648339e+00 9.0343899020730234e+00 0 0 0
475 2 1.1074500000000002e+01 6.3938655561404980e+00 9.0343899020730234e+00 0 0 0
186 2 8.6135000000000002e+00 7.8147245686161639e+00 6.0703726651072039e+00 0 0 0
233 2 1.1074500000000002e+01 7.8147245686161639e+00 6.0703726651072039e+00 0 0 0
452 2 9.8440000000000012e+00 7.1042950623783341e+00 9.0343899020730234e+00 0 0 0
71 2 0.0000000000000000e+00 9.9460130873296642e+00 6.0703726651072039e+00 0 0 0
73 2 0.0000000000000000e+00 8.5251540748539991e+00 6.0703726651072039e+00 0 0 0
100 2 2.4610000000000003e+00 9.9460130873296642e+00 6.0703726651072039e+00 0 0 0
102 2 2.4610000000000003e+00 8.5251540748539991e+00 6.0703726651072039e+00 0 0 0
392 2 0.0000000000000000e+00 8.5251540748539991e+00 9.0343899020730234e+00 0 0 0
393 2 1.2305000000000001e+00 9.2355835810918343e+00 9.0343899020730234e+00 0 0 0
407 2 2.4610000000000003e+00 8.5251540748539991e+00 9.0343899020730234e+00 0 0 0
408 2 3.6915000000000004e+00 9.2355835810918343e+00 9.0343899020730234e+00 0 0 0
96 2 1.2305000000000001e+00 1.2077301606043163e+01 6.0703726651072039e+00 0 0 0
98 2 1.2305000000000001e+00 1.0656442593567498e+01 6.0703726651072039e+00 0 0 0
133 2 3.6914999999999996e+00 1.2077301606043163e+01 6.0703726651072039e+00 0 0 0
135 2 3.6914999999999996e+00 1.0656442593567499e+01 6.0703726651072039e+00 0 0 0
391 2 0.0000000000000000e+00 1.1366872099805333e+01 9.0343899020730234e+00 0 0 0
405 2 1.2305000000000001e+00 1.0656442593567498e+01 9.0343899020730234e+00 0 0 0
406 2 2.4610000000000003e+00 1.1366872099805333e+01 9.0343899020730234e+00 0 0 0
424 2 3.6914999999999996e+00 1.0656442593567499e+01 9.0343899020730234e+00 0 0 0
137 2 4.9220000000000006e+00 9.9460130873296642e+00 6.0703726651072039e+00 0 0 0
139 2 4.9220000000000006e+00 8.5251540748539991e+00 6.0703726651072039e+00 0 0 0
182 2 7.3830000000000009e+00 9.9460130873296642e+00 6.0703726651072039e+00 0 0 0
184 2 7.3830000000000009e+00 8.5251540748539991e+00 6.0703726651072039e+00 0 0 0
426 2 4.9220000000000006e+00 8.5251540748539991e+00 9.0343899020730234e+00 0 0 0
427 2 6.1524999999999999e+00 9.2355835810918343e+00 9.0343899020730234e+00 0 0 0
449 2 7.3830000000000009e+00 8.5251540748539991e+00 9.0343899020730234e+00 0 0 0
178 2 6.1524999999999999e+00 1.2077301606043163e+01 6.0703726651072039e+00 0 0 0
180 2 6.1524999999999999e+00 1.0656442593567499e+01 6.0703726651072039e+00 0 0 0
425 2 4.9220000000000006e+00 1.1366872099805333e+01 9.0343899020730234e+00 0 0 0
447 2 6.1524999999999999e+00 1.0656442593567499e+01 9.0343899020730234e+00 0 0 0
448 2 7.3829999999999991e+00 1.1366872099805333e+01 9.0343899020730234e+00 0 0 0
229 2 9.8440000000000012e+00 9.9460130873296642e+00 6.0703726651072039e+00 0 0 0
231 2 9.8440000000000012e+00 8.5251540748539956e+00 6.0703726651072039e+00 0 0 0
450 2 8.6134999999999984e+00 9.2355835810918343e+00 9.0343899020730234e+00 0 0 0
473 2 9.8440000000000012e+00 8.5251540748539956e+00 9.0343899020730234e+00 0 0 0
474 2 1.1074500000000002e+01 9.2355835810918343e+00 9.0343899020730234e+00 0 0 0
225 2 8.6135000000000002e+00 1.2077301606043163e+01 6.0703726651072039e+00 0 0 0
227 2 8.6134999999999984e+00 1.0656442593567498e+01 6.0703726651072039e+00 0 0 0
272 2 1.1074500000000002e+01 1.2077301606043163e+01 6.0703726651072039e+00 0 0 0
274 2 1.1074500000000002e+01 1.0656442593567498e+01 6.0703726651072039e+00 0 0 0
471 2 8.6134999999999984e+00 1.0656442593567498e+01 9.0343899020730234e+00 0 0 0
472 2 9.8440000000000012e+00 1.1366872099805333e+01 9.0343899020730234e+00 0 0 0
495 2 1.1074500000000002e+01 1.0656442593567498e+01 9.0343899020730234e+00 0 0 0
496 2 1.2304999999999998e+01 1.1366872099805333e+01 9.0343899020730234e+00 0 0 0
4019 1 2.4483593327056257e+00 1.8621296054459238e+00 1.1687774358259585e+01 0 1 0
598 1 1.0992687312898212e+01 1.2088231117517061e+01 1.2069151032638384e+01 1 0 0
2730 1 7.3067056717898149e+00 1.8900204287989122e+00 1.2178223130600392e+01 0 0 -1
2052 1 1.1600707348778961e+01 9.4590844999751909e+00 1.1585096573115857e+01 1 1 1
1264 1 9.8453526125076110e+00 2.1962491572399112e+00 1.1512492230671727e+01 1 0 0
1338 1 6.4274192706819919e+00 9.8161023744973264e+00 1.1453637235113604e+01 1 0 0
1987 1 3.5231026739557838e+00 5.0253745846599385e+00 1.1729547474034888e+01 0 1 0
1942 1 6.3290635288990371e+00 4.6905845517858085e+00 1.1631627297282419e+01 1 0 -1
19 1 7.0827192154333574e+00 7.3613744615067356e+00 1.2113610396775922e+01 0 0 0
1225 1 1.1448635432786745e+01 4.6152578192547047e+00 1.2174894148333756e+01 -1 1 0
710 1 1.0062569332749385e+01 7.1482138012660599e+00 1.1526729252949666e+01 0 1 0
4043 1 1.8478043385021974e+00 7.3530387685924774e+00 1.1582826494631712e+01 1 1 -1
3319 1 3.5021013394335379e+00 9.8241956031759212e+00 1.1940795547288804e+01 1 1 0
2734 1 1.3283211586444479e+00 1.1627918535062873e+01 1.1831021094811987e+01 1 1 -1
3279 1 7.9949125401806151e+00 1.1469685026830943e+01 1.2737188041924306e+01 2 -1 -1
2638 1 3.3626259932180491e+00 2.6211490216430611e+00 1.4151464512807756e+01 1 0 1
3940 1 1.1083358169162818e+01 6.7391191787680151e+00 2.2395562975210279e+01 1 1 0
678 1 2.7673005319434991e+00 2.0171597638270065e+00 1.7957175371816160e+01 -1 1 -1
2122 1 7.5198574533254510e+00 1.9967410788906688e+00 1.4796864599745108e+01 0 2 0
1226 1 9.8205950604970997e+00 1.3921379758719901e+00 1.6057659907573914e+01 1 1 -1
2616 1 5.0946310497343426e+00 7.9958072104366840e-01 1.5821300111694688e+01 1 0 0
551 1 3.9540894618921465e+00 5.8168173398793357e+00 1.4698950936213626e+01 0 1 0
2648 1 4.3597752597488473e+00 6.5032305174224385e+00 1.7523175193836853e+01 0 0 -1
1274 1 7.3651089904753571e+00 4.6799117597041011e+00 1.5505413887283636e+01 0 0 -1
3446 1 6.4833263893248736e+00 7.0479191012296853e+00 1.4751227614763152e+01 0 1 0
2061 1 1.0877529707131293e+01 6.1745983846284282e+00 1.6437227055120044e+01 0 0 -1
2664 1 1.0158719446622170e+01 7.7494334673106513e+00 1.4413848752195928e+01 0 0 1
3972 1 2.5951047548928683e+00 8.6917034492000393e+00 1.6369858169084555e+01 -1 -1 0
2666 1 4.1823340124519426e-01 8.6812059413222560e+00 2.5300201562718787e+01 0 1 0
3337 1 6.3183449859295280e+00 9.8346869547519713e+00 1.6416276761150367e+01 1 -1 -1
750 1 1.0396309559698199e+01 3.9671653010742212e+00 2.5438138695557434e+01 0 1 0
1445 1 9.9107618632938745e+00 3.2829512984510340e-01 2.5494134978028882e+01 0 0 1
543 1 5.3291315233542091e+00 3.7220164489478305e+00 1.7137167907760315e+01 0 2 -1
1375 1 4.0147985531940265e+00 2.0206886958372015e+00 2.2668418876866188e+01 0 1 0
2623 1 4.9674958968324185e+00 3.5943827997306455e-01 1.8789113460402628e+01 -1 0 -1
2606 1 7.3689823137446240e+00 3.6238088951199900e+00 2.1785552007084636e+01 0 1 0
1958 1 6.6503081870727732e+00 1.3148187956974637e+00 2.3064886888196639e+01 0 0 0
1924 1 9.3129072646339992e+00 1.5031208330349006e+00 1.8593222086714285e+01 0 0 0
2600 1 2.7041414179051664e+00 4.6338825081744996e+00 1.8971387106255435e+01 1 1 0
1269 1 2.9370258572142066e-01 9.6381674509624098e+00 1.7757673090863229e+01 1 1 0
2693 1 7.3692881570472988e+00 3.4660027959218205e+00 1.9132328002593873e+01 1 0 0
3445 1 8.5441658724967127e+00 5.8608944044103488e+00 1.8145790085045491e+01 0 1 0
3366 1 1.0901451518357213e+01 7.2387457079436208e+00 1.9791722930159835e+01 0 0 -1
12 1 7.4347348152341937e+00 1.0141864307695768e+01 2.6048873853463903e+01 2 0 0
4002 1 1.0571119195200407e+00 9.0820463153856554e+00 2.2516422683171889e+01 -1 1 0
1347 1 9.1914048055945283e+00 1.0643509560877149e+01 2.3996117319604490e+01 0 0 0
2751 1 8.4551560869804625e+00 8.2017923479589001e+00 2.2776046994847714e+01 0 1 -2
21 1 6.5795363590422706e+00 9.1747189094578641e+00 2.0856500534184978e+01 0 0 -1
4045 1 6.5631124779252046e+00 7.6634489372997612e+00 1.8303216077966013e+01 1 1 -1
1357 1 1.2218512923737096e+01 9.8043532651823035e+00 1.4641183876304444e+01 1 0 -1
1278 1 3.9377092468184651e+00 1.0542374755129712e+01 1.4757585326796439e+01 2 0 0
656 1 1.0809514919484723e+01 4.0507918916947752e+00 1.4889993327374935e+01 1 0 0
3407 1 1.0108756672366255e+01 1.0077213587045907e+01 1.9210943026858235e+01 1 0 0
600 1 2.8472970489335765e+00 2.0135154349115685e+00 2.5258027497306603e+01 0 0 -1
4009 1 1.1961340828268412e+01 9.6241471763314674e+00 2.5263018794759688e+01 0 1 0
2013 1 7.1375947253866272e+00 8.9059990721168758e-01 2.5812430925963771e+01 1 0 0
1457 1 7.9561903899708941e+00 7.4726958181813350e+00 2.5697379192989679e+01 1 1 1
2653 1 1.0123366778056791e+01 3.8992701030089401e+00 2.2749395162200901e+01 0 0 1
1350 1 9.0844502737461106e+00 1.0297024021747367e+01 1.4860005759197954e+01 1 0 0
3336 1 1.2200523265620034e+00 1.1806970179180176e+01 1.4766852913714700e+01 0 1 -1
672 1 3.2845436600168552e+00 1.2091988702195918e+01 2.2463995940781555e+01 1 0 -1
1972 1 1.5314962503166563e+00 7.1430698238327288e+00 1.4469938166450850e+01 1 0 -2
1399 1 2.3876054270121436e+00 4.4796499440958790e+00 2.1856262234975453e+01 0 1 1
2078 1 3.2078166671568318e+00 7.4706237370126711e+00 2.5428389567924899e+01 1 -1 -1
3952 1 3.8966742565833572e+00 6.6766678079616115e+00 2.2908316776421721e+01 0 0 -1
2715 1 6.4617837454530838e+00 5.9919383771401753e+00 2.2966301338656546e+01 2 1 0
3932 1 5.9662550204121949e+00 5.6923110876314293e+00 2.5690611304949044e+01 0 0 0
4061 1 5.1459390145815453e-01 3.8408454592179102e+00 2.5733548522328128e+01 1 1 0
2760 1 7.7611180638794242e+00 3.5899549925107506e+00 2.5347199374366404e+01 1 1 0
3448 1 1.0821350818172954e+01 6.9778635429465625e+00 2.5289331462214719e+01 1 1 0
559 1 4.8334530340666335e+00 9.7026766732745884e+00 2.5339446707332506e+01 -1 1 0
2582 1 4.2006790147481059e+00 9.4806066238051869e+00 2.2530534600320919e+01 0 0 0
2571 1 4.8937545818761841e-01 4.8990337841814874e-01 1.7625165905474873e+01 1 1 -1
3254 1 1.0047065882181544e+01 5.3665813917227989e-01 2.2664134570321917e+01 0 0 0
1951 1 8.7687053218578101e-02 1.1600747301286557e+01 2.1574615591122299e+01 0 1 0
3924 1 5.2265437048299940e-03 4.2819316961047562e+00 2.2981295966487700e+01 1 1 -1
2044 1 6.5836916515385724e-01 2.8215943912580563e+00 1.5167815724100231e+01 0 0 0
1252 1 1.1901212302888778e+01 2.0362179011473045e+00 1.9190348023414519e+01 1 1 0
1995 1 7.5221885645048587e+00 1.2029514309770812e+01 2.0183991079813399e+01 0 1 0
1434 1 8.1606025053484323e+00 1.1692200490116667e+01 1.7369635099123265e+01 1 0 0
1976 1 6.1600662546467788e-02 5.3518822275623981e+00 1.8510987481473546e+01 0 0 -1
93 2 0.0000000000000000e+00 1.2787731112280996e+01 3.1063554281417627e+00 0 0 0
95 2 1.2305000000000001e+00 1.3498160618518829e+01 3.1063554281417627e+00 0 0 0
130 2 2.4610000000000003e+00 1.2787731112280996e+01 3.1063554281417627e+00 0 0 0
132 2 3.6915000000000004e+00 1.3498160618518829e+01 3.1063554281417627e+00 0 0 0
91 2 0.0000000000000000e+00 1.5629449137232333e+01 3.1063554281417627e+00 0 0 0
126 2 1.2305000000000001e+00 1.4919019630994494e+01 3.1063554281417627e+00 0 0 0
128 2 2.4610000000000003e+00 1.5629449137232328e+01 3.1063554281417627e+00 0 0 0
171 2 3.6915000000000004e+00 1.4919019630994494e+01 3.1063554281417627e+00 0 0 0
175 2 4.9220000000000006e+00 1.2787731112280996e+01 3.1063554281417627e+00 0 0 0
177 2 6.1524999999999990e+00 1.3498160618518829e+01 3.1063554281417627e+00 0 0 0
222 2 7.3829999999999991e+00 1.2787731112280996e+01 3.1063554281417627e+00 0 0 0
173 2 4.9220000000000006e+00 1.5629449137232333e+01 3.1063554281417627e+00 0 0 0
218 2 6.1524999999999990e+00 1.4919019630994494e+01 3.1063554281417627e+00 0 0 0
220 2 7.3829999999999991e+00 1.5629449137232333e+01 3.1063554281417627e+00 0 0 0
224 2 8.6135000000000002e+00 1.3498160618518835e+01 3.1063554281417627e+00 0 0 0
269 2 9.8440000000000012e+00 1.2787731112280996e+01 3.1063554281417627e+00 0 0 0
271 2 1.1074500000000002e+01 1.3498160618518829e+01 3.1063554281417627e+00 0 0 0
265 2 8.6135000000000002e+00 1.4919019630994494e+01 3.1063554281417627e+00 0 0 0
267 2 9.8440000000000012e+00 1.5629449137232328e+01 3.1063554281417627e+00 0 0 0
307 2 1.1074500000000002e+01 1.4919019630994494e+01 3.1063554281417627e+00 0 0 0
122 2 0.0000000000000000e+00 1.7050308149707998e+01 3.1063554281417627e+00 0 0 0
167 2 2.4610000000000003e+00 1.7050308149707998e+01 3.1063554281417627e+00 0 0 0
120 2 0.0000000000000000e+00 1.9892026174659328e+01 3.1063554281417627e+00 0 0 0
124 2 1.2305000000000001e+00 1.7760737655945832e+01 3.1063554281417627e+00 0 0 0
163 2 1.2305000000000001e+00 1.9181596668421495e+01 3.1063554281417627e+00 0 0 0
165 2 2.4610000000000003e+00 1.9892026174659328e+01 3.1063554281417627e+00 0 0 0
169 2 3.6914999999999996e+00 1.7760737655945832e+01 3.1063554281417627e+00 0 0 0
210 2 3.6914999999999996e+00 1.9181596668421495e+01 3.1063554281417627e+00 0 0 0
214 2 4.9220000000000006e+00 1.7050308149707998e+01 3.1063554281417627e+00 0 0 0
261 2 7.3830000000000009e+00 1.7050308149707998e+01 3.1063554281417627e+00 0 0 0
212 2 4.9220000000000006e+00 1.9892026174659328e+01 3.1063554281417627e+00 0 0 0
216 2 6.1524999999999999e+00 1.7760737655945832e+01 3.1063554281417627e+00 0 0 0
257 2 6.1524999999999999e+00 1.9181596668421495e+01 3.1063554281417627e+00 0 0 0
259 2 7.3829999999999991e+00 1.9892026174659328e+01 3.1063554281417627e+00 0 0 0
303 2 9.8440000000000012e+00 1.7050308149707998e+01 3.1063554281417627e+00 0 0 0
337 2 1.2304999999999998e+01 1.7050308149707998e+01 3.1063554281417627e+00 0 0 0
263 2 8.6134999999999984e+00 1.7760737655945832e+01 3.1063554281417627e+00 0 0 0
299 2 8.6135000000000002e+00 1.9181596668421495e+01 3.1063554281417627e+00 0 0 0
301 2 9.8440000000000012e+00 1.9892026174659335e+01 3.1063554281417627e+00 0 0 0
305 2 1.1074500000000002e+01 1.7760737655945835e+01 3.1063554281417627e+00 0 0 0
333 2 1.1074500000000002e+01 1.9181596668421495e+01 3.1063554281417627e+00 0 0 0
157 2 0.0000000000000000e+00 2.4154603212086325e+01 3.1063554281417627e+00 0 0 0
159 2 0.0000000000000000e+00 2.1312885187134999e+01 3.1063554281417627e+00 0 0 0
161 2 1.2304999999999993e+00 2.2023314693372832e+01 3.1063554281417627e+00 0 0 0
202 2 1.2304999999999993e+00 2.3444173705848499e+01 3.1063554281417627e+00 0 0 0
204 2 2.4610000000000003e+00 2.4154603212086325e+01 3.1063554281417627e+00 0 0 0
206 2 2.4610000000000003e+00 2.1312885187134995e+01 3.1063554281417627e+00 0 0 0
208 2 3.6914999999999996e+00 2.2023314693372832e+01 3.1063554281417627e+00 0 0 0
249 2 3.6915000000000004e+00 2.3444173705848499e+01 3.1063554281417627e+00 0 0 0
251 2 4.9220000000000006e+00 2.4154603212086325e+01 3.1063554281417627e+00 0 0 0
253 2 4.9220000000000006e+00 2.1312885187134995e+01 3.1063554281417627e+00 0 0 0
255 2 6.1524999999999990e+00 2.2023314693372832e+01 3.1063554281417627e+00 0 0 0
291 2 6.1524999999999999e+00 2.3444173705848499e+01 3.1063554281417627e+00 0 0 0
293 2 7.3830000000000009e+00 2.4154603212086336e+01 3.1063554281417627e+00 0 0 0
295 2 7.3829999999999991e+00 2.1312885187134999e+01 3.1063554281417627e+00 0 0 0
297 2 8.6135000000000002e+00 2.2023314693372832e+01 3.1063554281417627e+00 0 0 0
325 2 8.6134999999999984e+00 2.3444173705848499e+01 3.1063554281417627e+00 0 0 0
327 2 9.8440000000000012e+00 2.4154603212086336e+01 3.1063554281417627e+00 0 0 0
329 2 9.8440000000000012e+00 2.1312885187134999e+01 3.1063554281417627e+00 0 0 0
331 2 1.1074500000000002e+01 2.2023314693372832e+01 3.1063554281417627e+00 0 0 0
351 2 1.1074500000000002e+01 2.3444173705848499e+01 3.1063554281417627e+00 0 0 0
94 2 0.0000000000000000e+00 1.2787731112280996e+01 6.0703726651072039e+00 0 0 0
131 2 2.4610000000000003e+00 1.2787731112280996e+01 6.0703726651072039e+00 0 0 0
403 2 0.0000000000000000e+00 1.2787731112280996e+01 9.0343899020730234e+00 0 0 0
404 2 1.2305000000000001e+00 1.3498160618518829e+01 9.0343899020730234e+00 0 0 0
422 2 2.4610000000000003e+00 1.2787731112280996e+01 9.0343899020730234e+00 0 0 0
423 2 3.6915000000000004e+00 1.3498160618518829e+01 9.0343899020730234e+00 0 0 0
92 2 0.0000000000000000e+00 1.4208590124756663e+01 6.0703726651072039e+00 0 0 0
127 2 1.2305000000000001e+00 1.4919019630994494e+01 6.0703726651072039e+00 0 0 0
129 2 2.4610000000000003e+00 1.4208590124756663e+01 6.0703726651072039e+00 0 0 0
172 2 3.6915000000000004e+00 1.4919019630994494e+01 6.0703726651072039e+00 0 0 0
402 2 0.0000000000000000e+00 1.5629449137232333e+01 9.0343899020730234e+00 0 0 0
420 2 1.2305000000000001e+00 1.4919019630994494e+01 9.0343899020730234e+00 0 0 0
421 2 2.4610000000000003e+00 1.5629449137232328e+01 9.0343899020730234e+00 0 0 0
443 2 3.6915000000000004e+00 1.4919019630994494e+01 9.0343899020730234e+00 0 0 0
176 2 4.9220000000000006e+00 1.2787731112280996e+01 6.0703726651072039e+00 0 0 0
223 2 7.3829999999999991e+00 1.2787731112280996e+01 6.0703726651072039e+00 0 0 0
445 2 4.9220000000000006e+00 1.2787731112280996e+01 9.0343899020730234e+00 0 0 0
446 2 6.1524999999999990e+00 1.3498160618518829e+01 9.0343899020730234e+00 0 0 0
469 2 7.3829999999999991e+00 1.2787731112280996e+01 9.0343899020730234e+00 0 0 0
174 2 4.9220000000000006e+00 1.4208590124756663e+01 6.0703726651072039e+00 0 0 0
219 2 6.1524999999999990e+00 1.4919019630994494e+01 6.0703726651072039e+00 0 0 0
221 2 7.3830000000000009e+00 1.4208590124756663e+01 6.0703726651072039e+00 0 0 0
444 2 4.9220000000000006e+00 1.5629449137232333e+01 9.0343899020730234e+00 0 0 0
467 2 6.1524999999999990e+00 1.4919019630994494e+01 9.0343899020730234e+00 0 0 0
468 2 7.3829999999999991e+00 1.5629449137232333e+01 9.0343899020730234e+00 0 0 0
270 2 9.8440000000000012e+00 1.2787731112280996e+01 6.0703726651072039e+00 0 0 0
470 2 8.6135000000000002e+00 1.3498160618518835e+01 9.0343899020730234e+00 0 0 0
493 2 9.8440000000000012e+00 1.2787731112280996e+01 9.0343899020730234e+00 0 0 0
494 2 1.1074500000000002e+01 1.3498160618518829e+01 9.0343899020730234e+00 0 0 0
266 2 8.6135000000000002e+00 1.4919019630994494e+01 6.0703726651072039e+00 0 0 0
268 2 9.8440000000000012e+00 1.4208590124756663e+01 6.0703726651072039e+00 0 0 0
306 2 1.1074500000000002e+01 1.6339878643470161e+01 6.0703726651072039e+00 0 0 0
308 2 1.1074500000000002e+01 1.4919019630994494e+01 6.0703726651072039e+00 0 0 0
310 2 1.2304999999999998e+01 1.4208590124756658e+01 6.0703726651072039e+00 0 0 0
491 2 8.6135000000000002e+00 1.4919019630994494e+01 9.0343899020730234e+00 0 0 0
492 2 9.8440000000000012e+00 1.5629449137232328e+01 9.0343899020730234e+00 0 0 0
512 2 1.1074500000000002e+01 1.4919019630994494e+01 9.0343899020730234e+00 0 0 0
123 2 0.0000000000000000e+00 1.7050308149707998e+01 6.0703726651072039e+00 0 0 0
125 2 1.2305000000000001e+00 1.6339878643470165e+01 6.0703726651072039e+00 0 0 0
168 2 2.4610000000000003e+00 1.7050308149707998e+01 6.0703726651072039e+00 0 0 0
170 2 3.6915000000000004e+00 1.6339878643470165e+01 6.0703726651072039e+00 0 0 0