LAMMPS data file via write_data, version 16 Mar 2018, timestep = 8000000

4078 atoms
2 atom types

0.0000000000000000e+00 4.9219999999999999e+01 xlo xhi
0.0000000000000000e+00 4.9019635930410494e+01 ylo yhi
9.8060549346357462e-01 2.6959394506528220e+01 zlo zhi

Masses

1 18.015
2 12.01

Atoms # atomic

52 2 0.0000000000000000e+00 2.8417180249513345e+00 2.7814685475509204e+00 0 0 0
54 2 0.0000000000000000e+00 0.0000000000000000e+00 2.7814685475509204e+00 0 0 0
56 2 1.2305000000000001e+00 7.1042950623783474e-01 2.7814685475509204e+00 0 0 0
63 2 1.2305000000000001e+00 2.1312885187134998e+00 2.7814685475509204e+00 0 0 0
65 2 2.4610000000000003e+00 2.8417180249513345e+00 2.7814685475509204e+00 0 0 0
67 2 2.4610000000000003e+00 0.0000000000000000e+00 2.7814685475509204e+00 0 0 0
69 2 3.6915000000000004e+00 7.1042950623783474e-01 2.7814685475509204e+00 0 0 0
84 2 3.6914999999999996e+00 2.1312885187134998e+00 2.7814685475509204e+00 0 0 0
86 2 4.9220000000000006e+00 2.8417180249513332e+00 2.7814685475509204e+00 0 0 0
88 2 4.9220000000000006e+00 0.0000000000000000e+00 2.7814685475509204e+00 0 0 0
90 2 6.1524999999999999e+00 7.1042950623783407e-01 2.7814685475509204e+00 0 0 0
113 2 6.1524999999999999e+00 2.1312885187134989e+00 2.7814685475509204e+00 0 0 0
115 2 7.3829999999999991e+00 2.8417180249513345e+00 2.7814685475509204e+00 0 0 0
117 2 7.3829999999999991e+00 0.0000000000000000e+00 2.7814685475509204e+00 0 0 0
119 2 8.6134999999999984e+00 7.1042950623783407e-01 2.7814685475509204e+00 0 0 0
150 2 8.6134999999999984e+00 2.1312885187135002e+00 2.7814685475509204e+00 0 0 0
152 2 9.8440000000000012e+00 2.8417180249513332e+00 2.7814685475509204e+00 0 0 0
154 2 9.8440000000000012e+00 0.0000000000000000e+00 2.7814685475509204e+00 0 0 0
156 2 1.1074500000000002e+01 7.1042950623783330e-01 2.7814685475509204e+00 0 0 0
195 2 1.1074500000000002e+01 2.1312885187135002e+00 2.7814685475509204e+00 0 0 0
59 2 0.0000000000000000e+00 4.2625770374269996e+00 2.7814685475509204e+00 0 0 0
61 2 1.2305000000000001e+00 4.9730065436648339e+00 2.7814685475509204e+00 0 0 0
76 2 1.2305000000000001e+00 6.3938655561404980e+00 2.7814685475509204e+00 0 0 0
80 2 2.4610000000000003e+00 4.2625770374269996e+00 2.7814685475509204e+00 0 0 0
82 2 3.6914999999999996e+00 4.9730065436648339e+00 2.7814685475509204e+00 0 0 0
105 2 3.6914999999999996e+00 6.3938655561404980e+00 2.7814685475509204e+00 0 0 0
57 2 0.0000000000000000e+00 7.1042950623783341e+00 2.7814685475509204e+00 0 0 0
78 2 2.4610000000000003e+00 7.1042950623783341e+00 2.7814685475509204e+00 0 0 0
109 2 4.9220000000000006e+00 4.2625770374269978e+00 2.7814685475509204e+00 0 0 0
111 2 6.1524999999999999e+00 4.9730065436648339e+00 2.7814685475509204e+00 0 0 0
142 2 6.1524999999999999e+00 6.3938655561404980e+00 2.7814685475509204e+00 0 0 0
146 2 7.3829999999999991e+00 4.2625770374269996e+00 2.7814685475509204e+00 0 0 0
107 2 4.9220000000000006e+00 7.1042950623783341e+00 2.7814685475509204e+00 0 0 0
144 2 7.3830000000000009e+00 7.1042950623783341e+00 2.7814685475509204e+00 0 0 0
148 2 8.6135000000000002e+00 4.9730065436648339e+00 2.7814685475509204e+00 0 0 0
187 2 8.6135000000000002e+00 6.3938655561404980e+00 2.7814685475509204e+00 0 0 0
191 2 9.8440000000000012e+00 4.2625770374270004e+00 2.7814685475509204e+00 0 0 0
193 2 1.1074500000000002e+01 4.9730065436648339e+00 2.7814685475509204e+00 0 0 0
234 2 1.1074500000000002e+01 6.3938655561404980e+00 2.7814685475509204e+00 0 0 0
189 2 9.8440000000000012e+00 7.1042950623783341e+00 2.7814685475509204e+00 0 0 0
72 2 0.0000000000000000e+00 8.5251540748539991e+00 2.7814685475509204e+00 0 0 0
74 2 1.2305000000000001e+00 9.2355835810918343e+00 2.7814685475509204e+00 0 0 0
101 2 2.4610000000000003e+00 8.5251540748539991e+00 2.7814685475509204e+00 0 0 0
103 2 3.6915000000000004e+00 9.2355835810918343e+00 2.7814685475509204e+00 0 0 0
70 2 0.0000000000000000e+00 1.1366872099805333e+01 2.7814685475509204e+00 0 0 0
97 2 1.2305000000000001e+00 1.0656442593567498e+01 2.7814685475509204e+00 0 0 0
99 2 2.4610000000000003e+00 1.1366872099805333e+01 2.7814685475509204e+00 0 0 0
134 2 3.6914999999999996e+00 1.0656442593567499e+01 2.7814685475509204e+00 0 0 0
138 2 4.9220000000000006e+00 8.5251540748539991e+00 2.7814685475509204e+00 0 0 0
140 2 6.1524999999999999e+00 9.2355835810918343e+00 2.7814685475509204e+00 0 0 0
183 2 7.3830000000000009e+00 8.5251540748539991e+00 2.7814685475509204e+00 0 0 0
136 2 4.9220000000000006e+00 1.1366872099805333e+01 2.7814685475509204e+00 0 0 0
179 2 6.1524999999999999e+00 1.0656442593567499e+01 2.7814685475509204e+00 0 0 0
181 2 7.3829999999999991e+00 1.1366872099805333e+01 2.7814685475509204e+00 0 0 0
185 2 8.6134999999999984e+00 9.2355835810918343e+00 2.7814685475509204e+00 0 0 0
230 2 9.8440000000000012e+00 8.5251540748539956e+00 2.7814685475509204e+00 0 0 0
232 2 1.1074500000000002e+01 9.2355835810918343e+00 2.7814685475509204e+00 0 0 0
226 2 8.6134999999999984e+00 1.0656442593567498e+01 2.7814685475509204e+00 0 0 0
228 2 9.8440000000000012e+00 1.1366872099805333e+01 2.7814685475509204e+00 0 0 0
273 2 1.1074500000000002e+01 1.0656442593567498e+01 2.7814685475509204e+00 0 0 0
275 2 1.2304999999999998e+01 1.1366872099805333e+01 2.7814685475509204e+00 0 0 0
53 2 0.0000000000000000e+00 1.4208590124756650e+00 5.8341273364179331e+00 0 0 0
55 2 0.0000000000000000e+00 0.0000000000000000e+00 5.8341273364179331e+00 0 0 0
64 2 1.2305000000000001e+00 2.1312885187134998e+00 5.8341273364179331e+00 0 0 0
66 2 2.4610000000000003e+00 1.4208590124756650e+00 5.8341273364179331e+00 0 0 0
68 2 2.4610000000000003e+00 0.0000000000000000e+00 5.8341273364179331e+00 0 0 0
85 2 3.6914999999999996e+00 2.1312885187134998e+00 5.8341273364179331e+00 0 0 0
381 2 0.0000000000000000e+00 2.8417180249513345e+00 8.8867861252741989e+00 0 0 0
382 2 0.0000000000000000e+00 0.0000000000000000e+00 8.8867861252741989e+00 0 0 0
383 2 1.2305000000000001e+00 7.1042950623783474e-01 8.8867861252741989e+00 0 0 0
387 2 1.2305000000000001e+00 2.1312885187134998e+00 8.8867861252741989e+00 0 0 0
388 2 2.4610000000000003e+00 2.8417180249513345e+00 8.8867861252741989e+00 0 0 0
389 2 2.4610000000000003e+00 0.0000000000000000e+00 8.8867861252741989e+00 0 0 0
390 2 3.6915000000000004e+00 7.1042950623783474e-01 8.8867861252741989e+00 0 0 0
398 2 3.6914999999999996e+00 2.1312885187134998e+00 8.8867861252741989e+00 0 0 0
62 2 1.2305000000000001e+00 3.5521475311891644e+00 5.8341273364179331e+00 0 0 0
83 2 3.6914999999999996e+00 3.5521475311891644e+00 5.8341273364179331e+00 0 0 0
87 2 4.9220000000000006e+00 1.4208590124756650e+00 5.8341273364179331e+00 0 0 0
89 2 4.9220000000000006e+00 0.0000000000000000e+00 5.8341273364179331e+00 0 0 0
114 2 6.1524999999999999e+00 2.1312885187134989e+00 5.8341273364179331e+00 0 0 0
116 2 7.3829999999999991e+00 1.4208590124756659e+00 5.8341273364179331e+00 0 0 0
118 2 7.3829999999999991e+00 0.0000000000000000e+00 5.8341273364179331e+00 0 0 0
399 2 4.9220000000000006e+00 2.8417180249513332e+00 8.8867861252741989e+00 0 0 0
400 2 4.9220000000000006e+00 0.0000000000000000e+00 8.8867861252741989e+00 0 0 0
401 2 6.1524999999999999e+00 7.1042950623783407e-01 8.8867861252741989e+00 0 0 0
413 2 6.1524999999999999e+00 2.1312885187134989e+00 8.8867861252741989e+00 0 0 0
414 2 7.3829999999999991e+00 2.8417180249513345e+00 8.8867861252741989e+00 0 0 0
415 2 7.3829999999999991e+00 0.0000000000000000e+00 8.8867861252741989e+00 0 0 0
112 2 6.1524999999999999e+00 3.5521475311891644e+00 5.8341273364179331e+00 0 0 0
151 2 8.6134999999999984e+00 2.1312885187135002e+00 5.8341273364179331e+00 0 0 0
153 2 9.8440000000000012e+00 1.4208590124756659e+00 5.8341273364179331e+00 0 0 0
155 2 9.8440000000000012e+00 0.0000000000000000e+00 5.8341273364179331e+00 0 0 0
196 2 1.1074500000000002e+01 2.1312885187135002e+00 5.8341273364179331e+00 0 0 0
416 2 8.6134999999999984e+00 7.1042950623783407e-01 8.8867861252741989e+00 0 0 0
432 2 8.6134999999999984e+00 2.1312885187135002e+00 8.8867861252741989e+00 0 0 0
433 2 9.8440000000000012e+00 2.8417180249513332e+00 8.8867861252741989e+00 0 0 0
434 2 9.8440000000000012e+00 0.0000000000000000e+00 8.8867861252741989e+00 0 0 0
435 2 1.1074500000000002e+01 7.1042950623783330e-01 8.8867861252741989e+00 0 0 0
455 2 1.1074500000000002e+01 2.1312885187135002e+00 8.8867861252741989e+00 0 0 0
149 2 8.6134999999999984e+00 3.5521475311891657e+00 5.8341273364179331e+00 0 0 0
194 2 1.1074500000000002e+01 3.5521475311891644e+00 5.8341273364179331e+00 0 0 0
58 2 0.0000000000000000e+00 5.6834360499026637e+00 5.8341273364179331e+00 0 0 0
60 2 0.0000000000000000e+00 4.2625770374269996e+00 5.8341273364179331e+00 0 0 0
77 2 1.2305000000000001e+00 6.3938655561404980e+00 5.8341273364179331e+00 0 0 0
79 2 2.4610000000000003e+00 5.6834360499026637e+00 5.8341273364179331e+00 0 0 0
81 2 2.4610000000000003e+00 4.2625770374269996e+00 5.8341273364179331e+00 0 0 0
106 2 3.6914999999999996e+00 6.3938655561404980e+00 5.8341273364179331e+00 0 0 0
385 2 0.0000000000000000e+00 4.2625770374269996e+00 8.8867861252741989e+00 0 0 0
386 2 1.2305000000000001e+00 4.9730065436648339e+00 8.8867861252741989e+00 0 0 0
394 2 1.2305000000000001e+00 6.3938655561404980e+00 8.8867861252741989e+00 0 0 0
396 2 2.4610000000000003e+00 4.2625770374269996e+00 8.8867861252741989e+00 0 0 0
397 2 3.6914999999999996e+00 4.9730065436648339e+00 8.8867861252741989e+00 0 0 0
409 2 3.6914999999999996e+00 6.3938655561404980e+00 8.8867861252741989e+00 0 0 0
75 2 1.2305000000000001e+00 7.8147245686161639e+00 5.8341273364179331e+00 0 0 0
104 2 3.6914999999999996e+00 7.8147245686161639e+00 5.8341273364179331e+00 0 0 0
384 2 0.0000000000000000e+00 7.1042950623783341e+00 8.8867861252741989e+00 0 0 0
395 2 2.4610000000000003e+00 7.1042950623783341e+00 8.8867861252741989e+00 0 0 0
108 2 4.9220000000000006e+00 5.6834360499026637e+00 5.8341273364179331e+00 0 0 0
110 2 4.9220000000000006e+00 4.2625770374269978e+00 5.8341273364179331e+00 0 0 0
143 2 6.1524999999999999e+00 6.3938655561404980e+00 5.8341273364179331e+00 0 0 0
145 2 7.3829999999999991e+00 5.6834360499026637e+00 5.8341273364179331e+00 0 0 0
147 2 7.3829999999999991e+00 4.2625770374269996e+00 5.8341273364179331e+00 0 0 0
411 2 4.9220000000000006e+00 4.2625770374269978e+00 8.8867861252741989e+00 0 0 0
412 2 6.1524999999999999e+00 4.9730065436648339e+00 8.8867861252741989e+00 0 0 0
428 2 6.1524999999999999e+00 6.3938655561404980e+00 8.8867861252741989e+00 0 0 0
430 2 7.3829999999999991e+00 4.2625770374269996e+00 8.8867861252741989e+00 0 0 0
141 2 6.1524999999999999e+00 7.8147245686161639e+00 5.8341273364179331e+00 0 0 0
410 2 4.9220000000000006e+00 7.1042950623783341e+00 8.8867861252741989e+00 0 0 0
429 2 7.3830000000000009e+00 7.1042950623783341e+00 8.8867861252741989e+00 0 0 0
188 2 8.6135000000000002e+00 6.3938655561404980e+00 5.8341273364179331e+00 0 0 0
190 2 9.8440000000000012e+00 5.6834360499026637e+00 5.8341273364179331e+00 0 0 0
192 2 9.8440000000000012e+00 4.2625770374270004e+00 5.8341273364179331e+00 0 0 0
235 2 1.1074500000000002e+01 6.3938655561404980e+00 5.8341273364179331e+00 0 0 0
431 2 8.6135000000000002e+00 4.9730065436648339e+00 8.8867861252741989e+00 0 0 0
451 2 8.6135000000000002e+00 6.3938655561404980e+00 8.8867861252741989e+00 0 0 0
453 2 9.8440000000000012e+00 4.2625770374270004e+00 8.8867861252741989e+00 0 0 0
454 2 1.1074500000000002e+01 4.9730065436648339e+00 8.8867861252741989e+00 0 0 0
475 2 1.1074500000000002e+01 6.3938655561404980e+00 8.8867861252741989e+00 0 0 0
186 2 8.6135000000000002e+00 7.8147245686161639e+00 5.8341273364179331e+00 0 0 0
233 2 1.1074500000000002e+01 7.8147245686161639e+00 5.8341273364179331e+00 0 0 0
452 2 9.8440000000000012e+00 7.1042950623783341e+00 8.8867861252741989e+00 0 0 0
71 2 0.0000000000000000e+00 9.9460130873296642e+00 5.8341273364179331e+00 0 0 0
73 2 0.0000000000000000e+00 8.5251540748539991e+00 5.8341273364179331e+00 0 0 0
100 2 2.4610000000000003e+00 9.9460130873296642e+00 5.8341273364179331e+00 0 0 0
102 2 2.4610000000000003e+00 8.5251540748539991e+00 5.8341273364179331e+00 0 0 0
392 2 0.0000000000000000e+00 8.5251540748539991e+00 8.8867861252741989e+00 0 0 0
393 2 1.2305000000000001e+00 9.2355835810918343e+00 8.8867861252741989e+00 0 0 0
407 2 2.4610000000000003e+00 8.5251540748539991e+00 8.8867861252741989e+00 0 0 0
408 2 3.6915000000000004e+00 9.2355835810918343e+00 8.8867861252741989e+00 0 0 0
96 2 1.2305000000000001e+00 1.2077301606043163e+01 5.8341273364179331e+00 0 0 0
98 2 1.2305000000000001e+00 1.0656442593567498e+01 5.8341273364179331e+00 0 0 0
133 2 3.6914999999999996e+00 1.2077301606043163e+01 5.8341273364179331e+00 0 0 0
135 2 3.6914999999999996e+00 1.0656442593567499e+01 5.8341273364179331e+00 0 0 0
391 2 0.0000000000000000e+00 1.1366872099805333e+01 8.8867861252741989e+00 0 0 0
405 2 1.2305000000000001e+00 1.0656442593567498e+01 8.8867861252741989e+00 0 0 0
406 2 2.4610000000000003e+00 1.1366872099805333e+01 8.8867861252741989e+00 0 0 0
424 2 3.6914999999999996e+00 1.0656442593567499e+01 8.8867861252741989e+00 0 0 0
137 2 4.9220000000000006e+00 9.9460130873296642e+00 5.8341273364179331e+00 0 0 0
139 2 4.9220000000000006e+00 8.5251540748539991e+00 5.8341273364179331e+00 0 0 0
182 2 7.3830000000000009e+00 9.9460130873296642e+00 5.8341273364179331e+00 0 0 0
184 2 7.3830000000000009e+00 8.5251540748539991e+00 5.8341273364179331e+00 0 0 0
426 2 4.9220000000000006e+00 8.5251540748539991e+00 8.8867861252741989e+00 0 0 0
427 2 6.1524999999999999e+00 9.2355835810918343e+00 8.8867861252741989e+00 0 0 0
449 2 7.3830000000000009e+00 8.5251540748539991e+00 8.8867861252741989e+00 0 0 0
178 2 6.1524999999999999e+00 1.2077301606043163e+01 5.8341273364179331e+00 0 0 0
180 2 6.1524999999999999e+00 1.0656442593567499e+01 5.8341273364179331e+00 0 0 0
425 2 4.9220000000000006e+00 1.1366872099805333e+01 8.8867861252741989e+00 0 0 0
447 2 6.1524999999999999e+00 1.0656442593567499e+01 8.8867861252741989e+00 0 0 0
448 2 7.3829999999999991e+00 1.1366872099805333e+01 8.8867861252741989e+00 0 0 0
229 2 9.8440000000000012e+00 9.9460130873296642e+00 5.8341273364179331e+00 0 0 0
231 2 9.8440000000000012e+00 8.5251540748539956e+00 5.8341273364179331e+00 0 0 0
450 2 8.6134999999999984e+00 9.2355835810918343e+00 8.8867861252741989e+00 0 0 0
473 2 9.8440000000000012e+00 8.5251540748539956e+00 8.8867861252741989e+00 0 0 0
474 2 1.1074500000000002e+01 9.2355835810918343e+00 8.8867861252741989e+00 0 0 0
225 2 8.6135000000000002e+00 1.2077301606043163e+01 5.8341273364179331e+00 0 0 0
227 2 8.6134999999999984e+00 1.0656442593567498e+01 5.8341273364179331e+00 0 0 0
272 2 1.1074500000000002e+01 1.2077301606043163e+01 5.8341273364179331e+00 0 0 0
274 2 1.1074500000000002e+01 1.0656442593567498e+01 5.8341273364179331e+00 0 0 0
471 2 8.6134999999999984e+00 1.0656442593567498e+01 8.8867861252741989e+00 0 0 0
472 2 9.8440000000000012e+00 1.1366872099805333e+01 8.8867861252741989e+00 0 0 0
495 2 1.1074500000000002e+01 1.0656442593567498e+01 8.8867861252741989e+00 0 0 0
496 2 1.2304999999999998e+01 1.1366872099805333e+01 8.8867861252741989e+00 0 0 0
661 1 1.6561402766090187e+00 2.3000773176868359e+00 1.1409786135663994e+01 -2 1 -1
18 1 1.1109402941720250e+01 8.6221878980565627e+00 1.1864429455386340e+01 -1 -1 1
2664 1 7.4715477938318955e+00 2.3744520118567731e+00 1.1675870053032252e+01 -1 -1 1
2054 1 7.5700785211508057e+00 1.0982617643859895e+01 1.1909731938453007e+01 -1 -1 0
2059 1 1.0264678118057613e+01 1.9681073084511642e+00 1.1374779780616983e+01 0 2 0
2056 1 5.8013200411375783e+00 8.8160362235969210e+00 1.1357266419118117e+01 1 0 0
4065 1 3.2345089476122793e+00 4.5669306498937070e+00 1.2575244647796509e+01 0 1 0
3997 1 1.7013852416756658e+00 6.6430694917039634e+00 1.1412008156231595e+01 -1 2 -1
2580 1 5.5689408920407635e+00 4.4401775183207359e+00 1.1378665650841519e+01 2 1 0
725 1 7.2981096917460135e+00 6.5491078403955703e+00 1.2042022021291261e+01 -2 -1 -1
1413 1 1.1392894991024198e+01 4.4675471987808733e+00 1.1743785791353037e+01 1 -1 -1
3925 1 9.8899876252119636e+00 6.6441222990982221e+00 1.0924612816763736e+01 1 1 0
2596 1 3.1710215698416060e+00 8.9021936498451524e+00 1.2031456268658188e+01 -1 0 0
1220 1 1.3591673070531192e+00 1.0933404632950960e+01 1.1236683149967652e+01 3 0 0
2732 1 1.0181131325510894e+01 1.1247711897705312e+01 1.1336867517328118e+01 1 0 -1
2619 1 1.2002784759530860e+01 1.5009593556097734e-02 1.1861806707493539e+01 -1 0 0
600 1 5.7542726796610104e+00 4.5743930584472452e-02 1.1630339162459860e+01 0 0 -1
3385 1 3.1623132600272528e+00 5.9572529989495748e-02 1.2686893289964619e+01 0 0 -1
3346 1 1.5225050637795527e+00 2.0113937656148706e+00 1.5794218689683222e+01 0 -1 0
693 1 1.7628106019676453e+00 2.0865422245347487e+00 1.8395146265836345e+01 -1 0 -1
558 1 7.1251306635911087e+00 2.0252193109446561e+00 1.4592090550944503e+01 0 0 0
2802 1 7.6665645023232560e+00 1.0958794785285825e+01 2.1983359536288159e+01 0 0 0
3413 1 1.0028750595696748e+01 2.1310883945604830e+00 1.5364376116510678e+01 1 3 0
4044 1 3.1017302342638633e+00 4.3122327802631846e+00 1.5157284610571070e+01 -1 2 0
678 1 1.5302977255846808e+00 6.6420550629336095e+00 1.5749649812590038e+01 -1 2 -1
3970 1 5.9575775651214720e+00 4.2356273639592272e+00 1.5677466208574916e+01 2 3 0
2774 1 7.3157518239399106e+00 6.4630069677926363e+00 1.4716392868879465e+01 0 0 1
1260 1 1.1524643046698591e+01 4.6575076864326457e+00 1.4498233666501866e+01 0 0 0
2717 1 9.8771789009132664e+00 6.5975591518492838e+00 1.5751406682524054e+01 0 1 -1
3266 1 1.8299498526553495e+00 1.0780192087466046e+01 1.5760617319796506e+01 -2 0 0
3272 1 3.1253914688860545e+00 8.4508953326378258e+00 1.4665362194333440e+01 2 -1 0
3908 1 1.8801964146465089e+00 1.0829125055260960e+01 1.8311242433889522e+01 1 -1 1
4077 1 5.7710744877192566e+00 8.7015556943118479e+00 1.5351060117187103e+01 1 -1 0
2752 1 1.1444217519336638e+01 8.6233113880782106e+00 1.4667664234935375e+01 2 -1 -1
1290 1 1.0216268908181306e+01 1.1172693694029190e+01 1.5259992416246055e+01 1 0 0
1374 1 1.0209890498439513e+01 1.1509303882814718e+01 1.8021604569535757e+01 1 1 -1
674 1 3.3006570525877170e+00 4.2792865056054348e+00 1.8944018923045000e+01 2 1 1
1465 1 7.2817562037724421e+00 2.0214384427954508e+00 1.8853462683922537e+01 1 1 0
553 1 7.1202191886931416e+00 1.9585976274402668e+00 2.1679758170054640e+01 2 1 -1
3255 1 4.6991009776337229e+00 1.0822102512282733e+01 2.5547357548177732e+01 -2 1 0
601 1 1.0168913477244857e+01 2.1841967242654254e+00 1.8073683265986570e+01 2 3 1
2740 1 1.1785528722627982e+01 4.5102567489873646e+00 2.1847371987082735e+01 2 1 -1
4034 1 8.7191194017887828e+00 8.6167509785541423e+00 2.5596088662151139e+01 1 2 0
1327 1 1.6542725609281779e+00 6.6941170116229243e+00 1.8436184551518508e+01 -1 1 -1
1393 1 3.0722028989333032e+00 4.2912072767439033e+00 2.1788262593515526e+01 4 -1 0
2101 1 7.4779198135923908e+00 1.0935881469948537e+01 1.4501766392425331e+01 1 1 -1
540 1 6.1116188709401307e+00 4.4025390304431706e+00 1.8360687234742652e+01 -1 -1 0
626 1 7.3996103838108702e+00 6.6733528673223459e+00 1.9195094727243493e+01 0 0 -1
1382 1 7.6946639224957192e+00 6.2587453331314320e+00 2.1785258714347069e+01 1 -1 -1
1447 1 4.8942746844285079e+00 6.4346701125674945e+00 2.2961065492627021e+01 0 2 1
1402 1 9.8973257888802326e+00 6.7484993031502238e+00 1.8388596974196794e+01 2 0 0
4019 1 1.1311491403498962e+01 4.4304446321425051e+00 1.9009348289997604e+01 -1 0 0
2734 1 8.9460559699366087e+00 4.0646593164612241e+00 2.2441232714671251e+01 1 2 -1
3293 1 3.3170252601457610e+00 8.6785980110404815e+00 1.9408655937261962e+01 1 1 1
4036 1 3.1599829574059095e+00 8.4404720134472235e+00 2.2098737760249406e+01 1 -2 -1
3326 1 6.1557040950506812e+00 8.9704831400690193e+00 1.8226746566112539e+01 3 1 0
1288 1 7.8936727025235216e+00 1.0929770156355806e+01 1.9110911482996553e+01 -1 -1 -1
1326 1 1.1396968986020784e+01 9.2369919653548944e+00 1.8933311260838867e+01 0 0 -1
2578 1 1.1269939532501931e+01 8.7241866030296222e+00 2.1553595103055812e+01 1 1 0
734 1 4.4105711506571534e+00 1.9512904956999102e+00 2.2632981672136744e+01 -1 0 1
3301 1 4.7570736400494980e+00 2.0123954858910187e+00 2.5338773410087075e+01 0 0 0
2735 1 7.2987254868880465e+00 2.1674787739398065e+00 2.6123602592232189e+01 1 2 -1
2038 1 7.3106228891917393e+00 1.0859293664000703e+01 2.6532837382253238e+01 1 -1 -1
3950 1 1.1485398765175121e+01 8.8451971321091403e+00 2.6276294409897968e+01 0 1 0
1431 1 8.7345071437704966e+00 8.7194482257226493e+00 2.2754065285399776e+01 1 2 1
4057 1 3.0747819299783976e+00 4.0413721175063335e+00 2.5960371740821078e+01 0 0 1
2603 1 1.6291294197289530e-01 4.3030940911127225e+00 2.5659609566366093e+01 0 -1 1
3429 1 4.5713169167594652e+00 6.4173126114944967e+00 2.5701069321051268e+01 2 2 0
3966 1 7.3396553748281255e+00 6.4629044745421940e+00 2.6362935307186014e+01 1 1 -1
4045 1 8.5983510508882723e+00 4.2247561254853734e+00 2.5232659892337139e+01 2 1 -1
4047 1 1.1267154811563589e+01 4.5444148718609148e+00 2.6311294034958554e+01 0 2 -1
2053 1 3.1453174437515163e+00 8.8000493697868887e+00 2.6367885579738797e+01 -2 -3 1
3394 1 3.6549508822359461e-01 4.6825980740889452e+00 2.3028764919833581e+01 0 0 0
3400 1 5.6930258631801967e-01 8.5793831550393858e+00 2.5744164800229029e+01 0 -1 0
3977 1 4.7580636154465221e+00 1.0746960294671974e+01 2.2639805877884047e+01 0 1 -1
1289 1 4.6930734496465398e-01 8.8826405836901703e+00 2.3104789317937509e+01 -2 2 0
2609 1 1.1332692535728240e+01 1.4494769362761417e-01 2.1759903775452987e+01 -1 1 0
2640 1 1.1424605796181481e+01 8.8171557617123142e-02 1.9081122486113891e+01 2 0 0
93 2 0.0000000000000000e+00 1.2787731112280996e+01 2.7814685475509204e+00 0 0 0
95 2 1.2305000000000001e+00 1.3498160618518829e+01 2.7814685475509204e+00 0 0 0
130 2 2.4610000000000003e+00 1.2787731112280996e+01 2.7814685475509204e+00 0 0 0
132 2 3.6915000000000004e+00 1.3498160618518829e+01 2.7814685475509204e+00 0 0 0
91 2 0.0000000000000000e+00 1.5629449137232333e+01 2.7814685475509204e+00 0 0 0
126 2 1.2305000000000001e+00 1.4919019630994494e+01 2.7814685475509204e+00 0 0 0
128 2 2.4610000000000003e+00 1.5629449137232328e+01 2.7814685475509204e+00 0 0 0
171 2 3.6915000000000004e+00 1.4919019630994494e+01 2.7814685475509204e+00 0 0 0
175 2 4.9220000000000006e+00 1.2787731112280996e+01 2.7814685475509204e+00 0 0 0
177 2 6.1524999999999990e+00 1.3498160618518829e+01 2.7814685475509204e+00 0 0 0
222 2 7.3829999999999991e+00 1.2787731112280996e+01 2.7814685475509204e+00 0 0 0
173 2 4.9220000000000006e+00 1.5629449137232333e+01 2.7814685475509204e+00 0 0 0
218 2 6.1524999999999990e+00 1.4919019630994494e+01 2.7814685475509204e+00 0 0 0
220 2 7.3829999999999991e+00 1.5629449137232333e+01 2.7814685475509204e+00 0 0 0
224 2 8.6135000000000002e+00 1.3498160618518835e+01 2.7814685475509204e+00 0 0 0
269 2 9.8440000000000012e+00 1.2787731112280996e+01 2.7814685475509204e+00 0 0 0
271 2 1.1074500000000002e+01 1.3498160618518829e+01 2.7814685475509204e+00 0 0 0
265 2 8.6135000000000002e+00 1.4919019630994494e+01 2.7814685475509204e+00 0 0 0
267 2 9.8440000000000012e+00 1.5629449137232328e+01 2.7814685475509204e+00 0 0 0
307 2 1.1074500000000002e+01 1.4919019630994494e+01 2.7814685475509204e+00 0 0 0
122 2 0.0000000000000000e+00 1.7050308149707998e+01 2.7814685475509204e+00 0 0 0
167 2 2.4610000000000003e+00 1.7050308149707998e+01 2.7814685475509204e+00 0 0 0
120 2 0.0000000000000000e+00 1.9892026174659328e+01 2.7814685475509204e+00 0 0 0
124 2 1.2305000000000001e+00 1.7760737655945832e+01 2.7814685475509204e+00 0 0 0
163 2 1.2305000000000001e+00 1.9181596668421495e+01 2.7814685475509204e+00 0 0 0
165 2 2.4610000000000003e+00 1.9892026174659328e+01 2.7814685475509204e+00 0 0 0
169 2 3.6914999999999996e+00 1.7760737655945832e+01 2.7814685475509204e+00 0 0 0
210 2 3.6914999999999996e+00 1.9181596668421495e+01 2.7814685475509204e+00 0 0 0
214 2 4.9220000000000006e+00 1.7050308149707998e+01 2.7814685475509204e+00 0 0 0
261 2 7.3830000000000009e+00 1.7050308149707998e+01 2.7814685475509204e+00 0 0 0
212 2 4.9220000000000006e+00 1.9892026174659328e+01 2.7814685475509204e+00 0 0 0
216 2 6.1524999999999999e+00 1.7760737655945832e+01 2.7814685475509204e+00 0 0 0
257 2 6.1524999999999999e+00 1.9181596668421495e+01 2.7814685475509204e+00 0 0 0
259 2 7.3829999999999991e+00 1.9892026174659328e+01 2.7814685475509204e+00 0 0 0
303 2 9.8440000000000012e+00 1.7050308149707998e+01 2.7814685475509204e+00 0 0 0
337 2 1.2304999999999998e+01 1.7050308149707998e+01 2.7814685475509204e+00 0 0 0
263 2 8.6134999999999984e+00 1.7760737655945832e+01 2.7814685475509204e+00 0 0 0
299 2 8.6135000000000002e+00 1.9181596668421495e+01 2.7814685475509204e+00 0 0 0
301 2 9.8440000000000012e+00 1.9892026174659335e+01 2.7814685475509204e+00 0 0 0
305 2 1.1074500000000002e+01 1.7760737655945835e+01 2.7814685475509204e+00 0 0 0
333 2 1.1074500000000002e+01 1.9181596668421495e+01 2.7814685475509204e+00 0 0 0
157 2 0.0000000000000000e+00 2.4154603212086325e+01 2.7814685475509204e+00 0 0 0
159 2 0.0000000000000000e+00 2.1312885187134999e+01 2.7814685475509204e+00 0 0 0
161 2 1.2304999999999993e+00 2.2023314693372832e+01 2.7814685475509204e+00 0 0 0
202 2 1.2304999999999993e+00 2.3444173705848499e+01 2.7814685475509204e+00 0 0 0
204 2 2.4610000000000003e+00 2.4154603212086325e+01 2.7814685475509204e+00 0 0 0
206 2 2.4610000000000003e+00 2.1312885187134995e+01 2.7814685475509204e+00 0 0 0
208 2 3.6914999999999996e+00 2.2023314693372832e+01 2.7814685475509204e+00 0 0 0
249 2 3.6915000000000004e+00 2.3444173705848499e+01 2.7814685475509204e+00 0 0 0
251 2 4.9220000000000006e+00 2.4154603212086325e+01 2.7814685475509204e+00 0 0 0
253 2 4.9220000000000006e+00 2.1312885187134995e+01 2.7814685475509204e+00 0 0 0
255 2 6.1524999999999990e+00 2.2023314693372832e+01 2.7814685475509204e+00 0 0 0
291 2 6.1524999999999999e+00 2.3444173705848499e+01 2.7814685475509204e+00 0 0 0
293 2 7.3830000000000009e+00 2.4154603212086336e+01 2.7814685475509204e+00 0 0 0
295 2 7.3829999999999991e+00 2.1312885187134999e+01 2.7814685475509204e+00 0 0 0
297 2 8.6135000000000002e+00 2.2023314693372832e+01 2.7814685475509204e+00 0 0 0
325 2 8.6134999999999984e+00 2.3444173705848499e+01 2.7814685475509204e+00 0 0 0
327 2 9.8440000000000012e+00 2.4154603212086336e+01 2.7814685475509204e+00 0 0 0
329 2 9.8440000000000012e+00 2.1312885187134999e+01 2.7814685475509204e+00 0 0 0
331 2 1.1074500000000002e+01 2.2023314693372832e+01 2.7814685475509204e+00 0 0 0
351 2 1.1074500000000002e+01 2.3444173705848499e+01 2.7814685475509204e+00 0 0 0
94 2 0.0000000000000000e+00 1.2787731112280996e+01 5.8341273364179331e+00 0 0 0
131 2 2.4610000000000003e+00 1.2787731112280996e+01 5.8341273364179331e+00 0 0 0
403 2 0.0000000000000000e+00 1.2787731112280996e+01 8.8867861252741989e+00 0 0 0
404 2 1.2305000000000001e+00 1.3498160618518829e+01 8.8867861252741989e+00 0 0 0
422 2 2.4610000000000003e+00 1.2787731112280996e+01 8.8867861252741989e+00 0 0 0
423 2 3.6915000000000004e+00 1.3498160618518829e+01 8.8867861252741989e+00 0 0 0
92 2 0.0000000000000000e+00 1.4208590124756663e+01 5.8341273364179331e+00 0 0 0
127 2 1.2305000000000001e+00 1.4919019630994494e+01 5.8341273364179331e+00 0 0 0
129 2 2.4610000000000003e+00 1.4208590124756663e+01 5.8341273364179331e+00 0 0 0
172 2 3.6915000000000004e+00 1.4919019630994494e+01 5.8341273364179331e+00 0 0 0
402 2 0.0000000000000000e+00 1.5629449137232333e+01 8.8867861252741989e+00 0 0 0
420 2 1.2305000000000001e+00 1.4919019630994494e+01 8.8867861252741989e+00 0 0 0
421 2 2.4610000000000003e+00 1.5629449137232328e+01 8.8867861252741989e+00 0 0 0
443 2 3.6915000000000004e+00 1.4919019630994494e+01 8.8867861252741989e+00 0 0 0
176 2 4.9220000000000006e+00 1.2787731112280996e+01 5.8341273364179331e+00 0 0 0
223 2 7.3829999999999991e+00 1.2787731112280996e+01 5.8341273364179331e+00 0 0 0
445 2 4.9220000000000006e+00 1.2787731112280996e+01 8.8867861252741989e+00 0 0 0
446 2 6.1524999999999990e+00 1.3498160618518829e+01 8.8867861252741989e+00 0 0 0
469 2 7.3829999999999991e+00 1.2787731112280996e+01 8.8867861252741989e+00 0 0 0
174 2 4.9220000000000006e+00 1.4208590124756663e+01 5.8341273364179331e+00 0 0 0
219 2 6.1524999999999990e+00 1.4919019630994494e+01 5.8341273364179331e+00 0 0 0
221 2 7.3830000000000009e+00 1.4208590124756663e+01 5.8341273364179331e+00 0 0 0
444 2 4.9220000000000006e+00 1.5629449137232333e+01 8.8867861252741989e+00 0 0 0
467 2 6.1524999999999990e+00 1.4919019630994494e+01 8.8867861252741989e+00 0 0 0
468 2 7.3829999999999991e+00 1.5629449137232333e+01 8.8867861252741989e+00 0 0 0
270 2 9.8440000000000012e+00 1.2787731112280996e+01 5.8341273364179331e+00 0 0 0
470 2 8.6135000000000002e+00 1.3498160618518835e+01 8.8867861252741989e+00 0 0 0
493 2 9.8440000000000012e+00 1.2787731112280996e+01 8.8867861252741989e+00 0 0 0
494 2 1.1074500000000002e+01 1.3498160618518829e+01 8.8867861252741989e+00 0 0 0
266 2 8.6135000000000002e+00 1.4919019630994494e+01 5.8341273364179331e+00 0 0 0
268 2 9.8440000000000012e+00 1.4208590124756663e+01 5.8341273364179331e+00 0 0 0
306 2 1.1074500000000002e+01 1.6339878643470161e+01 5.8341273364179331e+00 0 0 0
308 2 1.1074500000000002e+01 1.4919019630994494e+01 5.8341273364179331e+00 0 0 0
310 2 1.2304999999999998e+01 1.4208590124756658e+01 5.8341273364179331e+00 0 0 0
491 2 8.6135000000000002e+00 1.4919019630994494e+01 8.8867861252741989e+00 0 0 0
492 2 9.8440000000000012e+00 1.5629449137232328e+01 8.8867861252741989e+00 0 0 0
512 2 1.1074500000000002e+01 1.4919019630994494e+01 8.8867861252741989e+00 0 0 0
123 2 0.0000000000000000e+00 1.7050308149707998e+01 5.8341273364179331e+00 0 0 0
125 2 1.2305000000000001e+00 1.6339878643470165e+01 5.8341273364179331e+00 0 0 0
168 2 2.4610000000000003e+00 1.7050308149707998e+01 5.8341273364179331e+00 0 0 0
170 2 3.6915000000000004e+00 1.6339878643470165e+01 5.8341273364179331e+00 0 0 0
418 2 0.0000000000000000e+00 1.7050308149707998e+01 8.8867861252741989e+00 0 0 0
441 2 2.4610000000000003e+00 1.7050308149707998e+01 8.8867861252741989e+00 0 0 0
121 2 0.0000000000000000e+00 1.8471167162183658e+01 5.8341273364179331e+00 0 0 0