
# Create simulation box and atoms

read_data data.ML_graphite_m1000atm_255K
  orthogonal box = (0 0 1.44492) to (49.22 49.0196 26.4951)
  4 by 4 by 2 MPI processor grid
  reading atoms ...
  4078 atoms
  reading velocities ...
  4078 velocities
group water type 1
1318 atoms in group water
group graphite type 2
2760 atoms in group graphite

# Define potential

pair_style sw
pair_coeff * * MLC_e.sw mW C


# Fix graphite atoms in place

fix 5 graphite setforce 0.0 0.0 0.0
velocity graphite set 0.0 0.0 0.0


# Equilibration of molecular water

# Add velocity/set timestep

velocity	    water create ${TEMP} ${SEED} rot yes dist gaussian
velocity	    water create 255 ${SEED} rot yes dist gaussian
velocity	    water create 255 6436 rot yes dist gaussian
timestep	    5.0

# Define output

compute			1 water msd
compute			3 water temp
thermo	    	50
thermo_style	custom step temp press vol etotal ke pe c_1[4] c_3

# Neighbor lists

neigh_modify    delay 0 every 1 check yes

# Set fixes

fix             1 water momentum 10 linear 1 1 1 rescale
fix             2 water nve
fix             3 water temp/csvr ${TEMP} ${TEMP} 500.0 ${SEED}
fix             3 water temp/csvr 255 ${TEMP} 500.0 ${SEED}
fix             3 water temp/csvr 255 255 500.0 ${SEED}
fix             3 water temp/csvr 255 255 500.0 6436
fix             4 water press/berendsen z ${PRES} ${PRES} 1000.0 modulus 20000
fix             4 water press/berendsen z -1000 ${PRES} 1000.0 modulus 20000
fix             4 water press/berendsen z -1000 -1000 1000.0 modulus 20000

# Run 0.5 ns equilibration

dump		    1 all atom 2000 ${DIR}/eq.${NAME}-${TEMP}.dump
dump		    1 all atom 2000 run_6/eq.${NAME}-${TEMP}.dump
dump		    1 all atom 2000 run_6/eq.het_freeze_6-${TEMP}.dump
dump		    1 all atom 2000 run_6/eq.het_freeze_6-255.dump

reset_timestep  0

run	            100000
Neighbor list info ...
  update every 1 steps, delay 0 steps, check yes
  max neighbors/atom: 2000, page size: 100000
  master list distance cutoff = 6.67472
  ghost atom cutoff = 6.67472
  binsize = 3.33736, bins = 15 15 8
  1 neighbor lists, perpetual/occasional/extra = 1 0 0
  (1) pair sw, perpetual
      attributes: full, newton on
      pair build: full/bin/atomonly
      stencil: full/bin/3d
      bin: standard
Per MPI rank memory allocation (min/avg/max) = 4.115 | 4.3 | 4.486 Mbytes
Step Temp Press Volume TotEng KinEng PotEng c_1[4] c_3 
       0    82.373068   -1477.0276    60439.688   -12684.867    1001.0603   -13685.928            0          255 
      50    82.147864   -2048.2315    60406.674   -12657.714    998.32349   -13656.037     0.535359    254.30284 
     100    84.130062   -1616.1589     60400.11   -12686.872    1022.4127   -13709.285   0.90535282    260.43908 
     150    86.507318   -1112.4134    60461.287   -12639.472    1051.3029   -13690.774    1.1774173    267.79828 
     200     83.02218   -1489.6665    60492.133   -12673.025    1008.9488   -13681.974    1.4815695    257.00944 
     250    83.965356   -1596.3932    60476.566   -12689.504     1020.411   -13709.915    1.7010632     259.9292 
     300    82.617084   -1413.2659    60416.895   -12712.018    1004.0258   -13716.044    1.8083378    255.75539 
     350    82.271043   -1623.6151    60385.707   -12718.102    999.82045   -13717.922    1.9711278    254.68416 
     400    84.656153   -1214.9459     60412.21   -12728.857    1028.8061   -13757.663    2.2359209    262.06768 
     450    84.939594   -1316.5906    60426.909   -12731.735    1032.2507   -13763.986    2.4892053    262.94512 
     500    81.601431   -1100.9757    60458.081    -12747.95    991.68282   -13739.632    2.6971157    252.61126 
     550    82.703502   -1405.4471    60505.201   -12710.527     1005.076   -13715.603    2.8472738    256.02291 
     600    82.955429   -1400.3746    60487.839   -12716.961    1008.1376   -13725.098    2.9684169     256.8028 
     650    81.163457   -1541.0491    60475.154   -12709.694    986.36022   -13696.054    3.1283202    251.25544 
     700    84.518109   -1356.1429    60440.903   -12682.608    1027.1285   -13709.737    3.2629324    261.64034 
     750    83.607828   -1561.3976    60458.985   -12680.224    1016.0661    -13696.29    3.4226495    258.82241 
     800    80.167579   -1554.6737     60461.11   -12707.104    974.25755   -13681.361    3.7025062    248.17253 
     850    81.152328   -1539.3787    60458.521    -12734.25    986.22497   -13720.475    3.8152284    251.22099 
     900    81.550612   -1372.0013    60503.594   -12716.239    991.06523   -13707.304    3.9342798    252.45395 
     950    82.404251   -1521.5789     60526.54   -12692.268    1001.4393   -13693.708    4.1150883    255.09653 
    1000    83.879439   -1658.7034    60519.912   -12700.945    1019.3669   -13720.312    4.2373435    259.66323 
    1050    83.600669   -1174.5473     60480.29   -12688.068    1015.9791   -13704.047    4.3904372    258.80025 
    1100    82.608987   -1633.0931      60484.6   -12680.262    1003.9274   -13684.189    4.6704672    255.73033 
    1150     82.30341   -1471.0883    60512.213   -12736.277    1000.2138   -13736.491    4.8633497    254.78436 
    1200    80.114048   -972.77872    60488.583   -12718.903    973.60701    -13692.51    5.0712658    248.00681 
    1250    81.983202   -1003.0529    60524.684   -12724.324    996.32239   -13720.647    5.3396142     253.7931 
    1300    82.033377   -1451.9681    60591.115   -12712.358    996.93215    -13709.29    5.4265577    253.94843 
    1350    83.958716   -1166.9206    60585.397    -12684.16    1020.3303   -13704.491    5.5601104    259.90864 
    1400    81.317443   -1113.1111     60609.44     -12683.1    988.23158   -13671.331    5.8530018    251.73213 
    1450     84.01659   -1597.7944    60651.463   -12695.607    1021.0337   -13716.641    6.1612525     260.0878 
    1500    79.560303   -1557.6057    60683.367   -12717.371    966.87748   -13684.248    6.3289314     246.2926 
    1550    81.855265   -1509.2579    60640.515   -12740.097     994.7676   -13734.865     6.621509    253.39705 
    1600    82.201566   -1202.9514    60641.955   -12707.773    998.97612   -13706.749    6.7899268    254.46909 
    1650    83.046401   -1664.3466    60640.134   -12681.758    1009.2432   -13691.001     6.999208    257.08442 
    1700    85.571581   -1384.0887    60628.632   -12687.772    1039.9311   -13727.703    7.0817312    264.90155 
    1750    82.264715   -1580.7124    60575.372   -12684.219    999.74355   -13683.963    7.2540404    254.66457 
    1800    84.139923   -1324.3725    60469.399   -12677.512    1022.5325   -13700.044    7.4266359     260.4696 
    1850    81.063719   -1604.9317    60446.181   -12691.817    985.14813   -13676.965    7.6812318    250.94668 
    1900    83.368073   -1250.8603    60454.015   -12677.647    1013.1524   -13690.799    7.9418644    258.08021 
    1950    83.920215   -1303.1763    60442.774   -12650.412    1019.8624   -13670.274    8.1130363    259.78946 
    2000    85.869385   -989.66871    60483.351   -12637.583    1043.5503   -13681.133    8.2144189    265.82345 
    2050    81.310649   -1628.4284    60469.955    -12663.71    988.14901   -13651.859    8.4621866     251.7111 
    2100    81.695268   -1088.1024    60471.698   -12635.047     992.8232    -13627.87    8.9194514    252.90175 
    2150    85.756421   -1245.6733    60548.826   -12608.412    1042.1774   -13650.589    9.1822947    265.47375 
    2200    81.754077    -1475.871    60588.426   -12631.387    993.53789   -13624.925    9.4397604    253.08381 
    2250    82.668194   -1634.4398    60535.391   -12636.839    1004.6469   -13641.486    9.4950782    255.91361 
    2300    82.798018   -1565.7892    60473.748   -12661.881    1006.2247   -13668.106    9.6380491     256.3155 
    2350    83.017078   -1498.3773    60478.512   -12666.993    1008.8868   -13675.879    9.7632065    256.99364 
    2400    79.192672   -1634.8479    60436.512   -12673.177    962.40974   -13635.586    9.8387639    245.15454 
    2450      83.2449   -1565.3969    60405.221   -12625.872    1011.6555   -13637.528    10.144425    257.69891 
    2500    83.692819   -1242.6069    60433.857   -12630.269     1017.099   -13647.368    10.529588    259.08552 
    2550    80.985545   -1571.4405    60438.759   -12642.676     984.1981   -13626.874    10.730917    250.70468 
    2600    82.710654   -1403.8778     60407.12   -12650.225    1005.1629   -13655.388    10.951355    256.04505 
    2650    82.867522   -1469.3234    60475.311   -12642.383    1007.0693   -13649.452    11.132769    256.53067 
    2700    82.355684    -1379.713    60437.171   -12655.575    1000.8491   -13656.424    11.315129    254.94618 
    2750    84.840827   -1369.0694    60410.749   -12677.208    1031.0504   -13708.258    11.510285    262.63937 
    2800    81.639883    -1381.874    60384.152   -12682.921    992.15011   -13675.071     11.60215     252.7303 
    2850    82.010338   -1440.0834    60347.666   -12688.223    996.65217   -13684.875    11.653237    253.87711 
    2900    81.807128   -1721.0336    60339.681   -12691.439    994.18261   -13685.622    11.970506    253.24804 
    2950    84.057401   -1421.6774    60321.125   -12680.348    1021.5296   -13701.877    12.090146    260.21414 
    3000    82.292843   -1588.5447    60294.648   -12691.648    1000.0854   -13691.733    12.343593    254.75165 
    3050    82.949887   -1240.1446     60320.34   -12698.785    1008.0703   -13706.856    12.430764    256.78564 
    3100    78.960154   -1290.7445    60324.193   -12699.237    959.58401   -13658.821    12.499793    244.43474 
    3150    79.748244    -1302.875    60332.356   -12723.237    969.16147   -13692.398     12.56009     246.8744 
    3200    83.304706   -981.18317    60394.661   -12717.323    1012.3823   -13729.706    12.829701    257.88404 
    3250    81.220004   -1267.5824    60460.742   -12703.245    987.04742   -13690.293    13.038496    251.43049 
    3300    81.865406   -1445.6524    60434.361    -12706.26    994.89085    -13701.15    13.158186    253.42844 
    3350    79.320102   -1229.4025    60435.504   -12715.308    963.95837   -13679.266    13.380239    245.54902 
    3400    79.502297   -1323.0735    60516.829   -12714.967    966.17254    -13681.14    13.484723    246.11303 
    3450    84.327715   -1405.2692    60546.598   -12694.665    1024.8147    -13719.48    13.848674    261.05094 
    3500    80.294846   -1910.7395    60530.881   -12708.152     975.8042   -13683.957    14.004225     248.5665 
    3550    82.803347   -1774.4289     60504.21   -12699.902    1006.2894   -13706.191    14.185672      256.332 
    3600    80.503721    -1298.715    60502.608   -12700.712    978.34261   -13679.054    14.555161    249.21311 
    3650    80.530256   -1817.7499    60519.809   -12731.183    978.66509   -13709.848    14.695994    249.29526 
    3700    81.012049   -1338.8324    60494.991    -12749.58     984.5202     -13734.1    14.902878    250.78673 
    3750    84.285366   -1488.6632    60483.897   -12751.723       1024.3   -13776.023    15.258355    260.91985 
    3800    79.599451   -1118.1252    60560.631   -12771.169    967.35322   -13738.523    15.517811    246.41379 
    3850    81.883595   -1125.6881     60593.42   -12782.297    995.11189   -13777.409    15.517813    253.48475 
    3900    79.980815    -1211.741    60630.186   -12769.013    971.98785   -13741.001    15.783485    247.59437 
    3950     84.91028   -830.23465     60755.05    -12774.73    1031.8945   -13806.624    15.879625    262.85438 
    4000     82.78712   -1102.8913    60818.309   -12751.665    1006.0922   -13757.757    16.186556    256.28177 
    4050     83.84393   -1347.1529    60862.954   -12722.169    1018.9354   -13741.105    16.497771    259.55331 
    4100    85.951039   -1083.1426    60912.297   -12715.846    1044.5426   -13760.388    16.730018    266.07622 
    4150    82.447803    -1334.442    60986.789   -12729.746    1001.9686   -13731.714    16.715519    255.23135 
    4200     87.16857    -1413.429    61031.885   -12735.848    1059.3389   -13795.187    16.711745     269.8453 
    4250      82.0042   -1473.8745     61063.22   -12718.901    996.57757   -13715.478    17.020099     253.8581 
    4300    82.217454    -1518.114    61001.815    -12728.02    999.16919   -13727.189     17.04646    254.51827 
    4350    80.918145   -1562.3316    60940.932   -12769.325      983.379   -13752.704    17.189489    250.49603 
    4400    80.520328   -1268.1799    60945.827       -12755    978.54442   -13733.544    17.121491    249.26452 
    4450     80.25171   -1234.7866    60920.285   -12739.803    975.27998   -13715.083    17.339394    248.43297 
    4500    82.406856   -1235.7568    60907.067   -12721.854     1001.471   -13723.325    17.437516     255.1046 
    4550    83.627653   -1360.8651    60894.652   -12704.163     1016.307    -13720.47    17.712561    258.88378 
    4600    85.955343   -1609.9378    60868.058   -12702.305    1044.5949     -13746.9    17.648909    266.08955 
    4650     84.94876   -1208.1981    60790.617   -12715.629    1032.3621   -13747.991    17.817467     262.9735 
    4700    84.010984   -970.30547    60811.681    -12687.09    1020.9655   -13708.056    18.084869    260.07045 
    4750    83.570641   -1433.3964    60861.569   -12685.996    1015.6142    -13701.61    18.287284    258.70729 
    4800    87.199548    -1412.927     60799.37   -12700.325    1059.7154   -13760.041    18.354294     269.9412 
    4850    83.323642   -1837.7423    60768.036   -12721.541    1012.6124   -13734.153    18.511409    257.94266 
    4900    83.103248   -1519.8551    60774.874    -12734.17     1009.934   -13744.104    18.680991     257.2604 
    4950     80.12521   -1850.3062    60774.525   -12756.977    973.74265    -13730.72    18.707331    248.04137 
    5000     81.32499   -1974.4539    60691.015   -12742.839    988.32329   -13731.162    18.916472    251.75549 
    5050    83.292048   -1609.7559    60547.143   -12746.115    1012.2285   -13758.343    19.116336    257.84486 
    5100    83.043057   -1447.1042    60524.418   -12757.292    1009.2026   -13766.495    19.279737    257.07406 
    5150    83.334914   -1442.3387    60569.563   -12774.944    1012.7494   -13787.694    19.392463    257.97756 
    5200    80.087361   -1588.6244    60635.422   -12763.203    973.28268   -13736.486    19.538809     247.9242 
    5250     79.67812   -1270.2762    60650.869   -12791.858    968.30927   -13760.167    19.673172    246.65732 
    5300    81.235141   -1550.0287    60600.571   -12803.005    987.23138   -13790.237    19.814284    251.47735 
    5350    82.516911   -1260.2439     60580.95   -12795.485    1002.8084   -13798.293    20.095512    255.44529 
    5400    80.649557   -1535.4989    60552.599   -12802.639    980.11492   -13782.754    20.202874    249.66457 
    5450    81.323932    -1466.043    60522.816   -12807.746    988.31043   -13796.056    20.435555    251.75222 
    5500    80.889182   -1126.7845    60557.613   -12792.955    983.02702   -13775.982    20.676912    250.40637 
    5550    81.826142   -2056.8354    60584.837   -12801.608    994.41368   -13796.022    20.662222     253.3069 
    5600    81.123084   -1666.9745     60582.12   -12807.495    985.86958   -13793.365    20.770897    251.13046 
    5650    80.641021   -1054.2761    60636.197   -12819.856    980.01118   -13799.867    21.138719    249.63815 
    5700    81.859848   -1364.9801    60685.735     -12794.9     994.8233   -13789.723    21.234879    253.41124 
    5750    80.259894   -1357.6091    60695.718   -12793.326    975.37943   -13768.705    21.302528     248.4583 
    5800    80.310795   -1526.3865        60703   -12797.841    975.99802   -13773.839    21.520251    248.61588 
    5850    81.615825   -1277.9761    60733.947   -12774.406    991.85774   -13766.264    21.700592    252.65582 
    5900    84.195196   -1411.2319    60754.741    -12762.03    1023.2042   -13785.234    21.858437    260.64071 
    5950    81.399949   -1628.0055    60741.831   -12765.278    989.23425   -13754.512    21.957696    251.98754 
    6000    81.531768   -1479.0904     60722.83    -12798.79    990.83622   -13789.626     22.05743    252.39561 
    6050    81.630315   -1384.7915    60775.993   -12783.426    992.03384   -13775.459    22.164188    252.70068 
    6100    84.995612   -1211.8837    60798.297   -12797.402    1032.9315   -13830.334    22.058339    263.11854 
    6150    82.282492   -1456.2578    60792.187   -12784.168    999.95959   -13784.127    22.368612     254.7196 
    6200    80.570351   -1561.2824    60804.379   -12794.714    979.15234   -13773.866    22.400164    249.41938 
    6250    80.818098   -1244.8786    60800.141   -12783.999    982.16316   -13766.162    22.528356    250.18632 
    6300    84.218726   -1644.1975    60832.204    -12714.83    1023.4902    -13738.32    22.591418    260.71355 
    6350    84.793476   -1649.9073    60832.759   -12740.109     1030.475   -13770.584    22.847702    262.49279 
    6400    85.728617   -1322.8168    60812.812   -12733.588    1041.8395   -13775.428    23.144675    265.38768 
    6450     82.09729   -1520.1169    60815.113   -12730.359    997.70887   -13728.068    23.090435    254.14628 
    6500    83.608618   -1457.4234    60762.594   -12742.743    1016.0757   -13758.818    23.110277    258.82486 
    6550    80.699253   -1380.2316    60733.262   -12745.339    980.71886   -13726.058    23.428937    249.81842 
    6600    83.967339   -1669.5351    60685.974   -12748.549    1020.4351   -13768.984    23.616222    259.93534 
    6650      84.9528   -1465.6851    60568.854   -12746.473    1032.4112   -13778.884    23.956863      262.986 
    6700    83.025458   -1224.1799    60549.067   -12770.181    1008.9887    -13779.17    23.944634    257.01958 
    6750    82.056701   -1673.4851    60564.658   -12801.655     997.2156    -13798.87    23.979573    254.02063 
    6800    82.901871   -1458.0951    60567.683   -12766.505    1007.4868   -13773.992    23.992092      256.637 
    6850    83.604313   -1441.8326    60617.426   -12732.202    1016.0234   -13748.225    24.222103    258.81153 
    6900    83.290285   -1462.0415     60620.73   -12728.812    1012.2071   -13741.019     24.41091     257.8394 
    6950    83.457032   -1309.0865    60671.589   -12734.795    1014.2335   -13749.029    24.521171    258.35559 
    7000    82.586845   -1368.7262    60700.714   -12733.904    1003.6583   -13737.562    24.708542    255.66178 
    7050    80.994553   -1499.0295    60739.243   -12772.881    984.30758   -13757.188    24.724869    250.73257 
    7100    81.691908   -1203.8426    60819.418   -12769.303    992.78236   -13762.085    24.889073    252.89135 
    7150    80.385999   -1650.5291    60832.394   -12789.841    976.91196   -13766.753    24.892943    248.84869 
    7200    83.377046   -1307.8581    60834.355   -12788.654    1013.2614   -13801.915    25.161185    258.10798 
    7250    83.731864   -1709.2679    60862.093   -12753.147    1017.5735    -13770.72    25.418143    259.20638 
    7300    82.781485   -1456.1319    60814.654   -12780.663    1006.0237   -13786.687    25.342073    256.26432 
    7350    79.079651   -1567.1533    60840.657   -12782.771    961.03623   -13743.807    25.301035    244.80466 
    7400    82.136699   -1219.0843    60822.502   -12722.252    998.18781    -13720.44    25.315284    254.26828 
    7450    80.992096   -1323.8886    60807.745   -12722.851    984.27771   -13707.129    25.423246    250.72496 
    7500    84.079897   -1457.2435    60820.557   -12739.188     1021.803   -13760.991    25.527416    260.28378 
    7550    81.875586    -1296.448    60844.809   -12780.519    995.01456   -13775.534    25.697683    253.45996 
    7600    81.384039    -1758.751    60816.075    -12805.62     989.0409   -13794.661    25.732747    251.93829 
    7650    80.898329   -1110.5276    60861.203   -12795.501    983.13819   -13778.639    25.798308    250.43469 
    7700    79.846093   -1217.1785    60879.457   -12790.955    970.35061   -13761.305    25.718421    247.17731 
    7750    80.192382   -1599.4085    60864.977   -12808.276    974.55898   -13782.835    25.657369    248.24931 
    7800    81.906739   -1464.1354    60852.056   -12812.621    995.39315   -13808.014    25.645818     253.5564 
    7850    80.555593   -1496.0732     60831.33   -12825.853      978.973   -13804.826    25.692557    249.37369 
    7900    79.778475   -1357.3061     60852.53    -12803.01    969.52886   -13772.538    26.005072    246.96799 
    7950    80.462943   -1539.9315    60854.682   -12792.906    977.84704   -13770.753    26.227462    249.08688 
    8000    79.015054   -1558.2995    60831.668   -12815.273    960.25119   -13775.524    26.402329    244.60469 
    8050    81.412068   -1467.7642    60815.535    -12792.89    989.38153   -13782.272    26.660111    252.02506 
    8100    80.140549    -1026.272     60883.42    -12754.19    973.92907   -13728.119    26.816195    248.08885 
    8150    84.268281   -1588.2711    60956.246   -12762.559    1024.0924   -13786.652    26.785068    260.86696 
    8200    83.167439   -1682.4986    60875.878   -12775.624    1010.7141   -13786.338    26.916516    257.45911 
    8250     82.77038   -1615.6724    60869.717   -12754.137    1005.8888   -13760.025    27.093009    256.22995 
    8300    82.845642   -1551.1294    60839.616   -12759.315    1006.8034   -13766.119    27.348152    256.46293 
    8350    82.554478   -1564.3252    60815.168   -12778.072     1003.265   -13781.337    27.354505    255.56159 
    8400    83.609326   -1431.1371    60847.851   -12807.747    1016.0843   -13823.831     27.33941    258.82705 
    8450    82.981029   -1285.3167    60889.728   -12764.332    1008.4487    -13772.78    27.577331    256.88205 
    8500    84.896466   -1607.9818      60842.9   -12732.691    1031.7266   -13764.417    27.760797    262.81161 
    8550    82.122282   -1191.4539     60894.32   -12755.879     998.0126   -13753.892     27.89194    254.22365 
    8600    84.513148   -1453.0102    60975.678   -12746.116    1027.0682   -13773.185    28.332594    261.62498 
    8650    84.292966   -1440.8618    60940.189   -12738.147    1024.3924   -13762.539    28.471786    260.94337 
    8700    80.928889   -1079.1182    60982.802   -12744.718    983.50958   -13728.228    28.449957    250.52929 
    8750    80.333041   -1869.5971     60983.98    -12758.57    976.26837   -13734.838    28.803801    248.68474 
    8800    80.633878   -1725.9841     60946.72   -12685.897    979.92437   -13665.822    28.830218    249.61604 
    8850    81.717401   -1643.9444    60917.712   -12685.017    993.09218   -13678.109    28.938124    252.97027 
    8900    85.500146   -1318.8318    60966.231   -12665.517     1039.063    -13704.58    29.318312    264.68041 
    8950     84.78247   -1381.0637    61041.452   -12676.619    1030.3412    -13706.96     29.61467    262.45872 
    9000    83.072926   -1757.6316    61088.069   -12665.943    1009.5655   -13675.509    29.968863    257.16653 
    9050    84.909577   -2113.1319     61072.99   -12652.783    1031.8859   -13684.668    29.854429     262.8522 
    9100    84.220645    -1807.168    61002.009   -12621.613    1023.5135   -13645.127    29.988832    260.71949 
    9150    86.302938   -1545.0206    60928.026   -12645.571    1048.8191    -13694.39    30.286456    267.16559 
    9200    82.943809   -1513.3482    60884.189   -12692.882    1007.9964   -13700.878    30.687066    256.76683 
    9250     81.03545   -1773.6115    60774.826   -12727.182    984.80459   -13711.986     31.10748    250.85917 
    9300    79.365362   -1708.9728    60745.386   -12724.429     964.5084   -13688.937    31.057306    245.68913 
    9350    79.139914   -1704.8757    60785.934    -12747.67    961.76858   -13709.439    31.037368    244.99121 
    9400    81.270474   -1374.1397      60771.9   -12747.524    987.66078   -13735.185    31.246397    251.58673 
    9450    81.037871   -1582.2464    60773.296   -12705.884      984.834   -13690.718    31.652465    250.86667 
    9500    81.932604    -1346.846    60818.277   -12717.203    995.70748    -13712.91    31.989052    253.63647 
    9550     82.09869   -1587.1646    60781.149   -12710.072    997.72589   -13707.797    32.265177    254.15061 
    9600    81.473628   -1763.3363    60801.711   -12720.588    990.12966   -13710.718    32.517153    252.21563 
    9650    84.510034   -1691.5174    60805.698    -12675.98    1027.0304    -13703.01    32.446924    261.61534 
    9700    82.044639   -1531.7754    60784.123   -12675.716    997.06902   -13672.785    32.810287    253.98329 
    9750    81.211416   -1597.0517    60732.012   -12682.897    986.94305    -13669.84    32.823674     251.4039 
    9800    84.151026   -1107.9814    60705.282   -12631.157    1022.6674   -13653.824    33.173963    260.50397 
    9850    82.710312   -1471.6786    60739.176   -12643.412    1005.1588   -13648.571    33.246145    256.04399 
    9900    84.441672   -1100.0774     60767.13   -12647.928    1026.1996   -13674.128    33.406409    261.40372 
    9950    82.572161   -1565.0049    60737.525   -12658.936    1003.4799   -13662.416    33.653472    255.61632 
   10000    82.451338   -1279.1176    60752.868     -12669.5    1002.0115   -13671.512    34.066707     255.2423 
   10050    82.370034    -1397.797    60786.515   -12737.561    1001.0235   -13738.585    34.438038     254.9906 
   10100     81.49933   -1614.1569    60802.044   -12743.345      990.442   -13733.787     34.35905    252.29519 
   10150    84.234174   -1231.2348    60800.698   -12717.167    1023.6779   -13740.845    34.570264    260.76137 
   10200    82.824611   -1819.9397    60806.031   -12714.032    1006.5478    -13720.58    34.875069    256.39783 
   10250    82.799417   -1780.9049    60768.663   -12706.805    1006.2417   -13713.046    35.087143    256.31984 
   10300    82.803607   -1915.3124    60719.558   -12687.821    1006.2926   -13694.114    35.327371    256.33281 
   10350    82.574457   -1971.8634    60671.695   -12678.207    1003.5078   -13681.715    35.305772    255.62343 
   10400    80.738559   -1459.4157    60580.452   -12730.993    981.19654   -13712.189    35.044483     249.9401 
   10450    81.696174   -1659.9394    60548.769   -12730.355    992.83421    -13723.19    35.449614    252.90456 
   10500    79.644889   -1741.0067    60483.081   -12755.037    967.90543   -13722.942    35.417794    246.55445 
   10550    79.143706    -1379.455    60494.241   -12774.211    961.81467   -13736.026    35.463904    245.00295 
   10600    78.968713   -1470.8188    60401.929   -12774.709    959.68801   -13734.397    35.795717    244.46123 
   10650    79.996051   -1492.6992    60391.669    -12723.62    972.17302   -13695.793    36.347976    247.64154 
   10700    81.727436   -1625.7299    60349.544   -12718.546    993.21412    -13711.76    36.297116    253.00133 
   10750     77.80523   -1299.7388    60328.671   -12718.753    945.54849   -13664.301    36.537259    240.85947 
   10800    81.847131   -1474.1156    60311.382   -12719.816    994.66875   -13714.485    36.544682    253.37187 
   10850    79.306673   -1615.6338     60350.48   -12737.745    963.79517    -13701.54    36.777854    245.50745 
   10900    84.082562   -1283.7489     60373.53   -12708.836    1021.8354   -13730.671    36.900121    260.29203 
   10950    82.916752   -1368.9544    60317.821    -12707.68    1007.6676   -13715.348    36.994406    256.68307 
   11000     80.77548   -1416.6971    60294.484   -12724.919    981.64523   -13706.565    37.354575    250.05439 
   11050    79.812452   -1562.4802    60291.758   -12723.514    969.94178   -13693.456    37.546962    247.07317 
   11100    82.192723   -1231.6808    60302.866   -12698.721    998.86864    -13697.59    37.844937    254.44171 
   11150    81.798868   -1485.5611    60291.699    -12718.48    994.08222   -13712.562    38.078016    253.22246 
   11200    81.037626   -857.83531    60310.158   -12700.638    984.83103   -13685.469    37.939314    250.86591 
   11250    82.700803   -1639.7792    60389.583   -12701.465    1005.0432   -13706.509    37.999576    256.01456 
   11300    84.468639   -1215.1517    60411.019   -12694.504    1026.5273   -13721.031     38.14975     261.4872 
   11350      82.8775   -1511.7633    60409.801    -12711.76    1007.1906    -13718.95      38.7786    256.56155 
   11400     82.54284   -1402.8612    60419.651   -12680.356    1003.1235   -13683.479    38.973886    255.52556 
   11450    84.120971   -1230.4402    60359.512    -12662.24    1022.3022   -13684.542    39.370542    260.41093 
   11500     81.92781   -1344.6364    60407.502   -12652.709    995.64922   -13648.358    39.556048    253.62162 
   11550    82.342419   -1659.4927    60388.606   -12684.558    1000.6879   -13685.246    39.632842    254.90512 
   11600    82.202106   -1440.0472    60324.408   -12722.835    998.98267   -13721.817    39.760855    254.47076 
   11650    79.735957    -1268.709    60325.549   -12709.979    969.01216   -13678.991    40.038014    246.83637 
   11700    81.717583   -1497.3359    60392.527   -12674.091    993.09439   -13667.185     40.35276    252.97083 
   11750    84.512167   -1167.0403    60415.409   -12695.935    1027.0563   -13722.992    40.373118    261.62195 
   11800    82.670779   -1582.3935    60413.943   -12677.541    1004.6783   -13682.219    40.526415    255.92161 
   11850    83.366028   -1508.8832    60385.194     -12695.4    1013.1275   -13708.527    40.696133    258.07388 
   11900    82.692935   -1180.3899    60429.672   -12746.287    1004.9476   -13751.235    41.023054     255.9902 
   11950    78.192961   -1418.3787    60443.397   -12764.011    950.26049   -13714.271    41.261819    242.05976 
   12000    79.860066   -1291.9003    60438.862   -12757.589    970.52042    -13728.11    41.788557    247.22057 
   12050    78.643267   -1322.4839    60493.099   -12780.393    955.73295   -13736.126    41.735387    243.45376 
   12100    81.278371   -1500.1217    60553.729    -12792.95    987.75674   -13780.707    41.656868    251.61118 
   12150    81.068805   -1721.0127    60528.998   -12759.457    985.20993   -13744.666    41.983917    250.96243 
   12200    80.751949   -1393.4588     60584.26   -12726.406    981.35927   -13707.766    42.318031    249.98155 
   12250    81.818912   -1682.3186    60591.835   -12735.441    994.32582   -13729.767    42.513825    253.28451 
   12300    82.264025   -1210.7031    60590.643   -12685.766    999.73516   -13685.501    42.673471    254.66244 
   12350    80.899943    -1096.562    60604.833   -12687.414     983.1578   -13670.572    42.656468    250.43969 
   12400    84.232464   -1225.6574    60632.406   -12682.776    1023.6571   -13706.434    42.981138    260.75608 
   12450    82.350526   -1305.8575    60639.848   -12681.168    1000.7864   -13681.954    43.257412    254.93022 
   12500    82.614488   -1774.0073    60595.324   -12686.656    1003.9943   -13690.651    43.352586    255.74736 
   12550    84.157121   -1499.9998    60547.982   -12663.742    1022.7415   -13686.483    43.205079    260.52284 
   12600    82.591661   -1480.2527     60516.92   -12698.087    1003.7168   -13701.804    43.604921    255.67669 
   12650    83.357176   -1604.6584     60503.65   -12702.983      1013.02   -13716.003    43.943267    258.04647 
   12700    82.452339    -1510.503    60513.882   -12682.368    1002.0237   -13684.392    43.904845     255.2454 
   12750    83.554862   -1552.4336    60492.763   -12676.941    1015.4224   -13692.364    44.480015    258.65844 
   12800    83.562628   -1227.7689    60520.697   -12661.025    1015.5168   -13676.542    44.342086    258.68249 
   12850    84.375012   -1554.4114    60478.436   -12661.508    1025.3895   -13686.897    44.324886    261.19736 
   12900    84.108989   -1404.4798    60490.803   -12677.745    1022.1566   -13699.902    44.329404    260.37384 
   12950    80.964488    -1509.086    60566.408   -12670.846     983.9422   -13654.788    44.630227     250.6395 
   13000     80.02845   -1175.8158    60567.083   -12690.441    972.56675   -13663.008    44.918245    247.74183 
   13050    78.171388   -1382.6234     60562.93   -12712.337    949.99832   -13662.335    45.132435    241.99298 
   13100    80.438531   -1765.0039    60546.206   -12710.712    977.55037   -13688.262    45.240041    249.01131 
   13150    82.173534   -1136.1274    60559.384    -12687.12    998.63545   -13685.756    45.610873    254.38231 
   13200    84.035422   -1605.4214    60583.385   -12677.725    1021.2625   -13698.988    45.640213     260.1461 
   13250    86.013444   -1693.8535     60573.69   -12671.008     1045.301   -13716.309    45.648058    266.26941 
   13300    83.005523   -1328.2945    60577.274   -12651.318    1008.7464   -13660.064     45.78707    256.95787 
   13350    84.118818   -1427.8304    60580.728   -12679.796     1022.276   -13702.072    45.903099    260.40427 
   13400    84.617175    -1669.202    60584.696   -12679.292    1028.3324   -13707.625     46.29355    261.94702 
   13450    80.438904   -1396.3053    60569.607   -12671.927    977.55491   -13649.482    46.341325    249.01246 
   13500    82.494879   -1442.6498    60588.871   -12675.112    1002.5407   -13677.652    46.519834    255.37709 
   13550    78.511257   -1435.8141    60564.662   -12690.578    954.12867   -13644.707    46.799625     243.0451 
   13600    81.227329   -1415.9625     60592.39   -12705.584    987.13645   -13692.721    47.097784    251.45317 
   13650    82.497893   -1522.2936    60631.671   -12722.107    1002.5773   -13724.684    47.076431    255.38642 
   13700    82.726566   -1588.2711    60629.449   -12687.651    1005.3563   -13693.008    47.223501    256.09431 
   13750    82.360605   -1705.3713    60616.404   -12685.434    1000.9089   -13686.343    47.446055    254.96142 
   13800    84.080101   -1378.3263    60595.998   -12670.423    1021.8055   -13692.229    47.833208    260.28441 
   13850    83.692692   -1588.7226    60535.654   -12649.521    1017.0974   -13666.618      47.9945    259.08512 
   13900    86.530395   -1312.1459    60595.429    -12613.19    1051.5833   -13664.774    47.962274    267.86972 
   13950    83.991242   -1420.2816    60582.798   -12617.634    1020.7256    -13638.36    47.851712    260.00933 
   14000    82.699929   -1546.6993     60534.89   -12633.922    1005.0326   -13638.954    47.966734    256.01185 
   14050    81.715858   -1324.0047    60492.769   -12657.134    993.07342   -13650.207    48.075772    252.96549 
   14100    81.275738    -918.5478     60520.67   -12644.907    987.72475   -13632.632    48.126482    251.60302 
   14150    84.950635   -1033.6719    60560.117   -12633.897    1032.3849   -13666.282    48.305939     262.9793 
   14200    84.232174   -1283.9586    60629.302   -12639.274    1023.6536   -13662.928    48.623273    260.75518 
   14250    81.637706   -1417.8968     60583.88   -12662.662    992.12366   -13654.786    48.976003    252.72356 
   14300    81.728947   -1549.5773    60521.371   -12625.591    993.23249   -13618.824    49.687429    253.00601 
   14350    84.338279   -1400.4243    60541.785   -12651.562    1024.9431   -13676.505    50.024936    261.08365 
   14400    81.168317   -1574.4505     60557.01   -12652.571    986.41929    -13638.99    50.521148    251.27049 
   14450    80.794935   -1327.3774     60609.94   -12656.464    981.88166   -13638.345    50.460429    250.11462 
   14500    80.287361   -1329.2464    60625.777   -12667.441    975.71323   -13643.155    50.810035    248.54333 
   14550    83.845538   -1446.8303    60578.898   -12678.899    1018.9549   -13697.854    50.683804    259.55828 
   14600    81.856876   -1569.7108     60587.58   -12662.142    994.78719   -13656.929    50.587862    253.40204 
   14650    79.908771   -1526.0356    60584.603   -12681.723    971.11233   -13652.836    50.773393    247.37134 
   14700    83.306969   -1421.7591    60641.289   -12685.057    1012.4098   -13697.467    51.100947    257.89105 
   14750    81.847178   -1706.9541    60650.617   -12686.831    994.66933     -13681.5    51.410846    253.37202 
   14800    83.501037   -1206.7031    60683.097    -12639.77    1014.7683   -13654.538      51.9647    258.49182 
   14850    81.836597   -1429.4322    60688.418   -12634.344    994.54073   -13628.884    52.049686    253.33926 
   14900    83.169333   -1586.1152    60676.541    -12642.87    1010.7372   -13653.608    52.300448    257.46497 
   14950    82.753573   -1488.6036    60661.128   -12666.179    1005.6845   -13671.864    52.507708    256.17792 
   15000    83.464979     -1482.98     60667.22   -12663.568    1014.3301   -13677.898    52.735895     258.3802 
   15050    80.109435   -1746.0459    60630.504   -12686.327    973.55094   -13659.878    52.897708    247.99253 
   15100    79.411562   -1396.7346    60634.697   -12710.585    965.06986   -13675.655    52.944428    245.83215 
   15150    79.235273   -1301.4669    60646.898    -12699.26    962.92747   -13662.187    52.937001    245.28642 
   15200    82.045163   -1331.7814    60640.691   -12701.195    997.07538    -13698.27    53.387498    253.98491 
   15250    81.848648   -1423.0952    60682.849   -12723.927    994.68718   -13718.614    53.525092    253.37657 
   15300    78.341308   -1203.6456    60749.978   -12758.333    952.06331   -13710.396    53.609114    242.51899 
   15350    78.868221    -1393.651    60789.284   -12761.476    958.46676   -13719.943    53.634621    244.15014 
   15400     80.78224   -1623.4831    60771.249   -12775.626    981.72738   -13757.354    53.696129    250.07532 
   15450     79.67364   -1567.1231    60709.582   -12751.212    968.25483   -13719.466    53.716371    246.64346 
   15500    80.256478   -1393.7558     60727.69   -12713.624    975.33792   -13688.961     54.03915    248.44773 
   15550    82.819513   -951.09876    60761.051    -12684.29    1006.4859   -13690.776    53.999132    256.38205 
   15600    81.531984   -1193.7108    60775.758     -12672.2    990.83884   -13663.039     54.33733    252.39628 
   15650    81.037165   -1508.2666    60732.022   -12664.823    984.82543   -13649.648    54.839716    250.86448 
   15700    81.748821    -1314.806    60695.698   -12684.206    993.47401    -13677.68    55.150769    253.06754 
   15750    83.105704    -1494.841    60788.508   -12669.083    1009.9639   -13679.047    55.283489      257.268 
   15800    84.376694   -1744.0713    60774.182   -12678.705    1025.4099   -13704.115    55.766054    261.20257 
   15850    83.174762    -1659.437    60778.669   -12676.204    1010.8031   -13687.008    55.859341    257.48178 
   15900    86.087367    -1350.157    60729.469   -12628.445    1046.1993   -13674.645    56.164693    266.49825 
   15950     82.38145   -1581.3585    60735.589     -12632.8    1001.1622   -13633.963    56.256492    255.02595 
   16000    77.692101   -1279.9599    60721.676   -12650.969    944.17366   -13595.143    56.365084    240.50926 
   16050     83.26685   -1448.0024    60686.989   -12634.241    1011.9223   -13646.164    56.750205    257.76685 
   16100    81.393073    -1154.699    60719.416   -12649.604     989.1507   -13638.754    56.787838    251.96626 
   16150    81.383906   -1365.9749    60743.564   -12656.541    989.03929    -13645.58    56.896987    251.93788 
   16200    81.542553    -1463.242    60765.576   -12677.191    990.96728   -13668.158    57.287898      252.429 
   16250    82.276778   -1254.1737    60743.987   -12623.599    999.89015   -13623.489    57.382891    254.70192 
   16300    80.573982   -1636.3583    60732.911   -12646.452    979.19648   -13625.648    57.307709    249.43062 
   16350    80.264351   -1703.9791    60701.134   -12672.364    975.43361   -13647.798    57.450073     248.4721 
   16400    81.662992   -1640.7265     60665.84     -12660.8    992.43095   -13653.231    58.001919    252.80184 
   16450    83.049142   -1737.7049    60621.434   -12666.031    1009.2765   -13675.308    58.374826     257.0929 
   16500     82.83365   -1425.7552    60563.521   -12656.652    1006.6577    -13663.31    58.462483    256.42581 
   16550    82.284613   -1014.3428     60515.63   -12659.491    999.98536   -13659.476    58.500227    254.72617 
   16600    83.281647   -1565.5622    60460.378    -12631.76    1012.1021   -13643.862    58.435262    257.81266 
   16650    84.628798    -1481.164    60421.776   -12636.994    1028.4737   -13665.467    58.850429      261.983 
   16700    81.899236   -1875.6127    60407.861   -12647.636    995.30197   -13642.938    59.089411    253.53317 
   16750    80.609545   -1538.9978    60314.542   -12657.663    979.62867   -13637.292    59.101453    249.54071 
   16800    82.873984   -1759.3759    60324.689   -12674.304    1007.1478   -13681.452    59.641245    256.55067 
   16850    82.367347   -1406.1047    60317.693   -12669.749    1000.9908    -13670.74    59.855503    254.98229 
   16900    82.420428   -1409.8441    60351.211   -12653.796    1001.6359   -13655.431    60.385175    255.14661 
   16950    82.995086   -1606.1635    60334.371   -12639.274    1008.6196   -13647.894    60.517499    256.92556 
   17000    84.126403   -1555.7719    60312.063   -12628.009    1022.3682   -13650.378    60.483392    260.42775 
   17050     85.78541    -1321.918    60287.229   -12644.881    1042.5297    -13687.41    60.515864    265.56349 
   17100    83.866049   -1374.0189    60302.265   -12636.766    1019.2042    -13655.97    60.449445    259.62178 
   17150     83.33306   -1520.0113    60296.576   -12655.741    1012.7269   -13668.468    60.710106    257.97182 
   17200     81.60068   -1331.6971    60339.972   -12661.191    991.67369   -13652.865    60.775127    252.60894 
   17250    83.993903    -1400.928    60367.896   -12660.629     1020.758   -13681.387    61.054795    260.01757 
   17300     83.09701   -1310.7943    60353.609   -12687.603    1009.8582   -13697.462    61.494386    257.24109 
   17350    81.457783   -1273.2585    60403.245   -12685.333     989.9371   -13675.271    61.887295    252.16658 
   17400    82.656585   -1409.6259      60412.8   -12699.051    1004.5059   -13703.557    61.854176    255.87767 
   17450    84.035688   -1703.8098    60420.443   -12664.909    1021.2658   -13686.175    62.040074    260.14692 
   17500    82.114975   -1172.1933    60468.674   -12683.533     997.9238   -13681.457    62.135429    254.20103 
   17550    84.431512   -956.90888    60499.603   -12696.893    1026.0761   -13722.969    62.363197    261.37227 
   17600    81.044008   -1362.1598     60482.48   -12686.297    984.90859   -13671.206    62.665687    250.88567 
   17650    83.735879   -1260.1596    60421.691   -12665.121    1017.6223   -13682.743     62.93236    259.21882 
   17700    81.785366   -1582.8796    60367.654   -12704.112    993.91813    -13698.03    63.168352    253.18066 
   17750    82.959103   -1239.5883    60311.529   -12703.664    1008.1823   -13711.846     63.02394    256.81417 
   17800    81.545734   -1464.1078    60265.752   -12721.655    991.00595   -13712.661    63.018058    252.43884 
   17850    80.932335   -1556.7637    60208.516   -12691.169    983.55146    -13674.72    62.871286    250.53996 
   17900    82.839384   -1379.3055    60203.381   -12710.708    1006.7274   -13717.436    62.910308    256.44356 
   17950    78.732013   -1223.5539     60196.02   -12685.903    956.81146   -13642.715    62.888102    243.72849 
   18000    85.404314   -1214.2771    60209.686   -12671.463    1037.8984   -13709.361    62.984766    264.38374 
   18050    79.270025   -1361.6169    60222.855   -12702.517    963.34979   -13665.867    63.290118      245.394 
   18100    81.035414   -1511.6558    60191.807   -12690.817    984.80415   -13675.622     63.34954    250.85906 
   18150    79.757579   -1221.7937    60209.879   -12684.012    969.27492   -13653.287    63.081624     246.9033 
   18200    81.022692   -1254.8683    60232.126   -12683.382    984.64954   -13668.032    63.549267    250.81968 
   18250    82.136356   -1390.4788    60252.464   -12680.227    998.18363   -13678.411    63.537193    254.26722 
   18300    82.462272   -880.70937    60232.786     -12698.3    1002.1444   -13700.445    63.742036    255.27614 
   18350    82.227015   -1289.9906    60286.311   -12656.561    999.28539   -13655.846    64.009911    254.54787 
   18400    86.513169    -1353.486    60335.707   -12594.583     1051.374   -13645.957    63.887188    267.81639 
   18450    87.124844   -1797.7127    60320.045   -12625.941    1058.8075   -13684.749    64.352751    269.70994 
   18500    86.403503   -1288.5205    60311.561   -12598.425    1050.0413   -13648.467    64.770043     267.4769 
   18550    84.754833   -1518.7927    60358.387   -12617.742    1030.0054   -13647.747    64.896073    262.37316 
   18600    81.372417   -1505.4336    60394.732   -12623.403    988.89966   -13612.302    65.143764    251.90231 
   18650    81.804304   -1620.7553    60409.607   -12686.054    994.14828   -13680.202    65.536038    253.23929 
   18700    80.900822   -1615.6936        60402   -12707.698    983.16849   -13690.866    65.910625    250.44241 
   18750    81.863855   -1428.8738    60379.395   -12680.141      994.872   -13675.013    65.916684    253.42364 
   18800     84.77635   -1747.3512    60397.383   -12672.398    1030.2669   -13702.665    65.907939    262.43977 
   18850    82.033108   -1456.1658    60382.238   -12632.931    996.92888    -13629.86    65.971435    253.94759 
   18900    82.230127   -1436.2184    60374.261    -12635.08     999.3232   -13634.403    66.294286     254.5575 
   18950    82.900031   -1451.3563    60356.462   -12638.369    1007.4644   -13645.834    66.388003     256.6313 
   19000    87.358726   -1369.9726    60402.481   -12622.493    1061.6499   -13684.143    66.605766    270.43396 
   19050    83.770452   -1577.0754    60364.928   -12643.407    1018.0424    -13661.45    66.852189    259.32584 
   19100    82.085585   -1400.5487    60399.317   -12639.674    997.56663    -13637.24    66.983776    254.11005 
   19150    84.736867   -1710.3621    60388.284    -12652.73     1029.787   -13682.517    67.461361    262.31755 
   19200    83.193645   -1054.2506    60402.226   -12655.778    1011.0326   -13666.811    67.276671    257.54024 
   19250    81.485721   -1604.3332    60407.847   -12653.872    990.27662   -13644.149     67.38636    252.25306 
   19300    82.468587   -1042.9411     60432.89   -12663.816    1002.2212   -13666.037    67.406881    255.29569 
   19350    81.944432   -1805.7912    60437.813   -12700.337    995.85123   -13696.188    67.775607    253.67308 
   19400    78.232727   -1271.6019    60416.074   -12696.781    950.74375   -13647.525    67.745279    242.18286 
   19450    82.840918   -1511.7738      60443.7   -12660.783     1006.746   -13667.529    67.943871    256.44831 
   19500    81.438745   -1310.6895    60488.709   -12642.402    989.70573   -13632.108    67.956328    252.10764 
   19550    83.713445   -1572.0187    60476.793   -12627.859    1017.3496   -13645.209    68.436164    259.14937 
   19600    84.594703   -1260.4145    60507.004   -12595.042    1028.0593   -13623.101      68.9563    261.87745 
   19650    85.290396   -1249.7339    60479.632   -12562.969    1036.5139   -13599.483     69.29436    264.03109 
   19700    82.846886   -1640.3714    60458.896   -12615.545    1006.8185   -13622.363    69.749279    256.46678 
   19750     84.65652   -1463.9725    60472.048   -12578.293    1028.8106   -13607.104    70.172383    262.06882 
   19800    85.285537   -1725.0353    60448.223   -12596.621    1036.4549   -13633.075    70.719519    264.01605 
   19850    84.573255   -1494.6133    60470.947   -12623.627    1027.7987   -13651.426    70.944125    261.81106 
   19900    82.206354   -1381.2037    60484.232   -12627.225     999.0343    -13626.26    70.994472    254.48391 
   19950    80.476447   -1357.7236    60481.085   -12677.649    978.01115   -13655.661    71.290201    249.12868 
   20000    81.039128   -1301.4289    60544.592   -12660.876    984.84929   -13645.726    70.952164    250.87056 
   20050    82.389382   -1556.6057    60552.563   -12678.744    1001.2586   -13680.003    71.601435     255.0505 
   20100    80.782951   -1384.1421    60539.086   -12674.245    981.73602   -13655.981    72.046292    250.07752 
   20150    81.790834   -1392.0932    60551.102   -12679.133    993.98458   -13673.118    72.198452    253.19759 
   20200    81.562468   -1345.0496    60571.268   -12685.551     991.2093    -13676.76    72.367977    252.49065 
   20250    82.250726   -1502.6737    60588.532   -12680.899    999.57355   -13680.473    72.907318    254.62127 
   20300    84.511267    -1463.982    60579.167   -12692.616    1027.0454   -13719.661    73.140694    261.61916 
   20350    82.406785   -1097.1685    60581.508   -12692.539    1001.4701   -13694.009    73.253608    255.10437 
   20400    82.762335   -1270.6966     60595.27   -12672.426     1005.791   -13678.217    73.391383    256.20504 
   20450     80.83497   -1430.4883    60555.672   -12676.228     982.3682   -13658.596    73.163157    250.23855 
   20500    81.755499   -1437.7189     60558.74   -12671.196    993.55517   -13664.751     73.25995    253.08821 
   20550     81.75418    -1080.136    60563.677   -12676.819    993.53913   -13670.358    73.484951    253.08412 
   20600    80.417016   -1530.7355     60560.48   -12695.067    977.28891   -13672.355    73.600819     248.9447 
   20650    81.919264   -1744.4811    60584.929   -12697.682    995.54537   -13693.227    73.748279    253.59517 
   20700    83.419141   -1393.3505    60593.264   -12670.718     1013.773   -13684.491    73.603063     258.2383 
   20750    80.208314   -1652.9321    60593.336   -12683.046    974.75259   -13657.798    73.915134    248.29863 
   20800    82.341285   -1640.6004    60594.909   -12669.439    1000.6741   -13670.113     74.18081    254.90161 
   20850    82.107414   -1598.6004    60530.998   -12657.995     997.8319   -13655.827    74.355635    254.17762 
   20900    80.896265   -1591.3519    60507.536   -12655.797     983.1131    -13638.91    74.943621     250.4283 
   20950    83.559816   -1832.1223    60465.279   -12652.421    1015.4826   -13667.904    75.242455    258.67378 
   21000    82.644957   -1601.2937    60426.961   -12657.528    1004.3645   -13661.893    75.385683    255.84168 
   21050    82.496429   -1836.1269    60382.546   -12664.555    1002.5595   -13667.115    75.673033    255.38188 
   21100    83.384762   -1375.8273    60327.982    -12693.58    1013.3552   -13706.935    75.390178    258.13187 
   21150    83.000504   -1545.0334    60295.082   -12691.783    1008.6854   -13700.469    75.576933    256.94234 
   21200    81.408736   -1885.0273    60272.022   -12673.105    989.34104   -13662.446    75.598189    252.01474 
   21250    81.231477   -2034.2225    60241.238   -12695.677    987.18685   -13682.864    75.532955    251.46601 
   21300    81.327737   -1701.5934    60210.173   -12725.422    988.35668   -13713.778    75.937301      251.764 
   21350    78.616489   -1502.3805    60193.509   -12758.117    955.40753   -13713.525    75.767802    243.37086 
   21400    80.327797   -1309.3996     60241.27   -12766.192    976.20465   -13742.397    76.232328    248.66851 
   21450    81.718208   -1474.4566    60267.914   -12749.174    993.10198   -13742.276      76.7118    252.97277 
   21500    78.915869   -1352.1583    60247.994   -12740.292    959.04581   -13699.337     76.81805    244.29764 
   21550    82.854464   -1363.1054    60241.895   -12725.698    1006.9106   -13732.609    77.225675    256.49024 
   21600    84.494221   -1487.6655     60320.69   -12721.211    1026.8382   -13748.049    77.604126    261.56639 
   21650    82.235516   -788.71719    60379.049   -12716.446     999.3887   -13715.835    77.732107    254.57418 
   21700    84.098744   -1368.4045    60441.403    -12702.16    1022.0321   -13724.192    77.505441    260.34213 
   21750    84.493854   -1444.3436    60427.992   -12706.381    1026.8337   -13733.214    77.100234    261.56526 
   21800    81.154948   -1291.4093    60435.873   -12721.396    986.25682   -13707.652    77.262659     251.2291 
   21850    82.713123   -1433.7072    60434.535   -12746.075    1005.1929   -13751.268    77.570801     256.0527 
   21900    84.810378   -1617.6457    60447.686   -12739.576    1030.6804   -13770.256    77.805718    262.54511 
   21950    83.387456   -1454.5177    60483.839   -12700.447    1013.3879   -13713.835    77.884122    258.14021 
   22000    83.233529   -1134.8811    60560.919   -12705.639    1011.5173   -13717.156    77.970284     257.6637 
   22050    84.644161   -1092.5063    60560.556   -12683.019    1028.6604   -13711.679    77.968569    262.03056 
   22100    83.227327      -1344.2    60547.165   -12700.302    1011.4419   -13711.744    77.889061    257.64451 
   22150    81.218865   -1565.5997    60522.513   -12701.199    987.03358   -13688.232    78.244948    251.42696 
   22200    83.237825   -1512.6821    60494.525   -12697.156    1011.5695   -13708.726    78.824801      257.677 
   22250    84.201979   -1489.1252    60537.214   -12697.155    1023.2867   -13720.442    78.947209    260.66171 
   22300    83.112672   -1521.2877    60542.602   -12705.096    1010.0486   -13715.144    79.026669    257.28957 
   22350    80.375094   -1553.2702    60486.761   -12723.832    976.77944   -13700.611    79.163838    248.81493 
   22400    81.442296   -1481.4707     60503.91   -12734.305    989.74888   -13724.054    79.115219    252.11863 
   22450    78.288497   -1467.5183    60505.296   -12721.974    951.42152   -13673.396    79.536549    242.35551 
   22500    79.432843   -1778.0954    60463.351   -12719.394    965.32848   -13684.723    79.295958    245.89803 
   22550    82.789247   -1694.7589    60388.342   -12713.165    1006.1181   -13719.283    79.085946    256.28835 
   22600    81.800863   -1755.2591    60377.407   -12703.656    994.10647   -13697.763    79.312153    253.22864 
   22650    80.482578   -1427.5177    60375.079   -12744.192    978.08567   -13722.277    79.993875    249.14766 
   22700    83.694068   -1178.7216    60349.784   -12708.239    1017.1141   -13725.353     80.01095    259.08938 
   22750    80.703239   -1599.1408    60307.024    -12704.38    980.76731   -13685.147    80.102894    249.83076 
   22800    83.136904   -1819.6898    60275.287   -12690.858    1010.3431   -13701.201     80.60546    257.36458 
   22850    83.269137   -1344.6129    60195.087   -12661.163    1011.9501   -13673.113    80.966101    257.77394 
   22900    81.365529   -1535.8889    60195.667    -12661.52    988.81596   -13650.336    80.924467    251.88099 
   22950    86.788434   -1502.2478      60196.8   -12692.129    1054.7192   -13746.848    80.703159    268.66852 
   23000    82.944123   -1418.5192    60217.092    -12710.89    1008.0002    -13718.89    80.648239     256.7678 
   23050    83.482062   -1084.8451    60212.129   -12704.385    1014.5377   -13718.923    80.511203    258.43308 
   23100    79.871108    -1456.787    60201.159   -12708.053    970.65462   -13678.707    80.708156    247.25475 
   23150    85.389386   -1383.3167    60191.534   -12703.337    1037.7169   -13741.054    80.984936    264.33753 
   23200    86.459059   -1385.9027    60251.535   -12715.578    1050.7164   -13766.294    80.825078    267.64889 
   23250    84.323379   -1502.1766    60225.261   -12686.557     1024.762   -13711.319    80.837297    261.03752 
   23300    81.839848   -1390.4096    60234.826   -12727.725    994.58024   -13722.305    81.057298    253.34932 
   23350    81.346177   -1534.8746    60235.068   -12689.782    988.58077   -13678.363     81.64117    251.82108 
   23400     83.29413   -1510.4488    60283.104   -12695.667    1012.2538    -13707.92    81.404551    257.85131 
   23450    81.806676   -1452.3729    60247.801   -12703.808    994.17711   -13697.985    81.827153    253.24663 
   23500    80.654155   -1152.5342    60299.818   -12696.883     980.1708   -13677.054     82.38361    249.67881 
   23550    81.473291   -1321.7252    60271.283   -12720.203    990.12556   -13710.329    82.538881    252.21459 
   23600       80.798   -1359.8431    60274.702   -12713.071    981.91891   -13694.989    82.645116    250.12411 
   23650    80.880191   -1609.2883    60247.266   -12697.763    982.91776   -13680.681    82.529757    250.37854 
   23700    82.092685   -1707.4983    60182.268   -12717.424    997.65291   -13715.077    82.482309    254.13202 
   23750    79.950601   -1650.9644    60160.931   -12725.497    971.62067   -13697.118    82.688455    247.50083 
   23800    81.981079   -1553.8467    60102.794   -12697.425    996.29659   -13693.721    82.908802    253.78653 
   23850    83.101926   -1447.4143    60078.704   -12636.708     1009.918   -13646.626    83.263031     257.2563 
   23900    81.405754   -1265.4035    60119.101   -12656.547     989.3048   -13645.852    83.918127    252.00551 
   23950    81.512649   -1043.9832    60174.938   -12631.423    990.60387   -13622.027     84.16402    252.33642 
   24000    82.865797   -1292.8033    60209.687   -12657.101    1007.0484   -13664.149    83.866075    256.52533 
   24050    85.886032   -1426.6893    60138.327   -12656.917    1043.7525   -13700.669    84.504009    265.87498 
   24100       82.888   -1495.4909    60067.524   -12666.453    1007.3182   -13673.771    84.320151    256.59406 
   24150    83.748962   -1285.8177    60047.499   -12643.807    1017.7812   -13661.588    84.835631    259.25931 
   24200    84.997883   -1460.0223    60045.217   -12649.994    1032.9591   -13682.953    84.438928    263.12557 
   24250    81.527678   -1687.4936    60019.199   -12648.824    990.78651   -13639.611    84.558017    252.38295 
   24300    85.027141   -1533.5111    60003.251   -12661.611    1033.3147   -13694.925    84.728836    263.21614 
   24350    84.692278   -1297.0949    60002.237    -12674.92    1029.2451   -13704.165     85.38686    262.17951 
   24400    78.646386   -1510.2485    60038.424   -12692.419    955.77086    -13648.19    85.047857    243.46342 
   24450    80.535374   -1439.4165    60051.757   -12737.831    978.72728   -13716.558    85.288431     249.3111 
   24500    82.210389   -1425.3909    60023.745   -12734.916    999.08334       -13734    85.573736     254.4964 
   24550    78.459796   -1513.5703    60072.297   -12721.241    953.50327   -13674.744    86.051412    242.88579 
   24600    80.739887   -1208.1928    60076.965   -12686.069    981.21268   -13667.281    86.549552    249.94421 
   24650    80.178911   -1468.5301    60102.342   -12699.552    974.39527   -13673.948    87.258807    248.20761 
   24700    79.293722   -1393.3326    60088.705   -12707.951    963.63777   -13671.589    87.083785    245.46735 
   24750    82.869028   -1470.4845    60105.531   -12721.461    1007.0876   -13728.549    86.810047    256.53533 
   24800    81.233017   -1455.5667    60106.695   -12755.303    987.20557   -13742.509    86.513915    251.47078 
   24850    82.402233   -1616.3039    60064.995   -12749.556    1001.4148   -13750.971    86.784581    255.09028 
   24900    81.993294   -1011.2807     60065.17   -12736.195    996.44504    -13732.64    86.986386    253.82434 
   24950    83.675475   -1101.1854    60124.927   -12732.387    1016.8882   -13749.275    86.942115    259.03182 
   25000    80.683657   -1479.5462     60207.54   -12744.208    980.52932   -13724.737    87.003269    249.77014 
   25050    83.344933   -1685.0039    60209.302   -12700.829    1012.8712     -13713.7    87.128637    258.00857 
   25100    82.979994   -1368.2292    60182.483   -12729.048    1008.4362   -13737.484    87.582315    256.87884 
   25150    80.708188   -1353.7323    60184.355   -12726.305    980.82745   -13707.132    87.942916    249.84608 
   25200    82.355344    -1464.011    60183.444   -12748.599    1000.8449   -13749.444    88.530646    254.94513 
   25250      81.6724   -1493.2504    60136.838   -12724.295    992.54528    -13716.84    88.724453    252.83096 
   25300    85.027486   -1464.8968    60157.741   -12691.649    1033.3188   -13724.968    89.100431    263.21721 
   25350    82.097687   -1435.3306     60178.93   -12680.601    997.71369   -13678.315     89.31628    254.14751 
   25400    82.402976   -1236.7568    60190.633   -12681.793    1001.4238   -13683.217    88.960315    255.09258 
   25450    82.528423   -1807.8939    60184.639    -12683.58    1002.9483   -13686.528    89.225101    255.48093 
   25500    80.878109    -1423.414     60143.66   -12690.152    982.89246   -13673.045    89.675631     250.3721 
   25550    81.737586    -1605.994    60142.152   -12721.377    993.33748   -13714.715    90.140865    253.03275 
   25600    83.112891   -1354.0737    60182.666   -12705.628    1010.0512   -13715.679    90.250131    257.29025 
   25650    81.314294   -1402.8868    60196.061   -12697.608    988.19331   -13685.801    90.196536    251.72238 
   25700    83.821159   -1678.3493    60149.008   -12688.866    1018.6586   -13707.525    89.912679    259.48281 
   25750    81.176604    -1757.308    60145.059   -12701.438    986.51999   -13687.958    89.475779    251.29614 
   25800    80.657354    -1348.952    60164.683   -12715.221    980.20967    -13695.43    89.893405    249.68871 
   25850    82.489703   -1440.3383     60160.55   -12721.729    1002.4778   -13724.206    90.586476    255.36106 
   25900    81.293359    -1753.027    60164.264   -12730.294    987.93889   -13718.233    91.230204    251.65757 
   25950    82.745306     -1281.18    60160.041   -12716.455    1005.5841   -13722.039    91.325159    256.15233 
   26000    80.234796   -1407.1488    60227.271   -12696.224    975.07443   -13671.298    91.307562    248.38061 
   26050    80.987703   -1492.6149    60245.682    -12726.93    984.22433   -13711.154    91.673897    250.71136 
   26100    82.139013   -1410.4924    60314.141   -12704.742    998.21592   -13702.958    91.629609    254.27544 
   26150    85.250867   -1531.8359    60304.575    -12719.16    1036.0335   -13755.194    91.960761    263.90872 
   26200    79.690407   -1406.1628    60279.013   -12732.059     968.4586   -13700.517    91.849874    246.69536 
   26250    79.934368   -1472.1825    60299.582   -12727.558     971.4234   -13698.981     91.97454    247.45058 
   26300    79.454723   -1360.7972    60286.105   -12758.629    965.59439   -13724.223    92.625659    245.96576 
   26350    80.847724   -1417.8294    60277.917   -12729.104    982.52319   -13711.627     92.82845    250.27803 
   26400    81.586734    -1183.438    60273.755   -12735.481     991.5042   -13726.985     92.65717    252.56577 
   26450    82.307392   -1644.1667    60294.738   -12723.691    1000.2622   -13723.954    92.647915    254.79669 
   26500    85.089507   -1599.1375     60264.36   -12714.989    1034.0726   -13749.062    92.995768     263.4092 
   26550      82.3769   -1365.0274    60286.781   -12727.637    1001.1069   -13728.744    93.156406    255.01186 
   26600    81.834387   -1340.7952     60333.84   -12726.469    994.51387   -13720.983    93.240124    253.33242 
   26650    79.219721   -1517.7552    60393.175   -12740.505    962.73846   -13703.244    93.224848    245.23827 
   26700    82.180378     -1603.58    60415.336   -12735.275    998.71862   -13733.994    92.501508    254.40349 
   26750    83.096841   -1523.4452    60380.982   -12700.894    1009.8562   -13710.751    92.248815    257.24056 
   26800    81.578419   -1419.3527    60396.247    -12695.53    991.40316   -13686.933    92.286859    252.54003 
   26850    80.049856   -1441.4457    60342.533   -12732.455     972.8269   -13705.281    92.650273     247.8081 
   26900    82.541219   -1223.0437    60271.397    -12716.01    1003.1038   -13719.114    92.773267    255.52054 
   26950    80.935918   -1518.7804     60275.59   -12721.812    983.59499   -13705.407    93.180586    250.55105 
   27000    80.943418   -1492.9938     60209.64   -12718.883    983.68614   -13702.569    93.543452    250.57427 
   27050    82.456876   -1551.9948    60203.471   -12721.935    1002.0788   -13724.013    93.930837    255.25944 
   27100    82.221922   -1600.2804    60176.287   -12718.831     999.2235   -13718.054    94.357284     254.5321 
   27150    81.749268    -1366.055    60191.468   -12711.702    993.47945   -13705.182    94.913535    253.06892 
   27200    80.396217   -1809.1587     60150.12   -12685.604    977.03614    -13662.64    95.570066    248.88032 
   27250    83.845224   -1625.1082    60112.013    -12678.39    1018.9511   -13697.341    96.010687    259.55731 
   27300    84.009467   -1695.7148    60038.356   -12706.248    1020.9471   -13727.196    96.288451    260.06575 
   27350    82.431119   -1282.2042    59995.261   -12725.838    1001.7658   -13727.604    96.273086    255.17971 
   27400    83.557783   -1382.8769    59969.218   -12709.476    1015.4579   -13724.934    96.537874    258.66749 
   27450    82.587895   -1310.2548    59979.984   -12714.363    1003.6711   -13718.034    96.825538    255.66503 
   27500    83.382081   -1063.3083    60007.962   -12690.789    1013.3226   -13704.112    96.844232    258.12357 
   27550    84.722365   -1267.1502    60047.331   -12683.735    1029.6108   -13713.345     96.97361    262.27265 
   27600    83.463886   -1116.5938    60094.438   -12701.858    1014.3168   -13716.174      96.4646    258.37681 
   27650    80.655924   -1487.5249    60147.916   -12707.442     980.1923   -13687.635    96.122268    249.68428 
   27700    83.888289   -1401.9568    60119.041   -12689.438    1019.4745   -13708.913    96.192772    259.69062 
   27750    85.597549   -1139.7116    60098.454   -12659.976    1040.2467   -13700.223    95.991833    264.98193 
   27800    80.422007   -1620.3671    60107.102   -12688.375    977.34956   -13665.725    96.195485    248.96015 
   27850    80.348361   -1365.0372    60064.274   -12694.226    976.45455    -13670.68    96.322817    248.73217 
   27900    83.948981   -1483.8557    60013.489   -12697.384     1020.212   -13717.596    95.954726    259.87851 
   27950    79.639172   -1631.3705    59987.919   -12730.399    967.83595   -13698.235    96.303726    246.53675 
   28000    82.078679   -1089.9268    60007.391   -12687.835     997.4827   -13685.318    96.677118    254.08867 
   28050    84.306704    -1063.461    60059.191   -12656.297    1024.5594   -13680.857     96.87754     260.9859 
   28100    82.383877   -1331.4059    60124.525   -12663.602    1001.1917   -13664.793      97.5458    255.03346 
   28150    86.063642   -1344.0948    60139.665   -12689.633     1045.911   -13735.544    97.688293     266.4248 
   28200    83.207859   -1139.0951    60155.158   -12753.249    1011.2054   -13764.454    98.045328    257.58424 
   28250    81.570917   -1099.1067    60254.172   -12727.729    991.31199   -13719.041    98.273472     252.5168 
   28300    80.858786   -1446.5843    60305.142   -12717.566    982.65763   -13700.223    98.891824    250.31228 
   28350    79.782009   -1253.3608    60320.701   -12724.471    969.57182   -13694.042    98.862638    246.97893 
   28400    82.337961   -1389.5513    60352.704   -12725.247    1000.6337   -13725.881     98.77852    254.89132 
   28450    81.692261    -1210.835    60333.937    -12737.28    992.78665   -13730.066    98.504654    252.89244 
   28500    81.041728   -1479.4659    60325.522   -12742.256    984.88087   -13727.137    98.840012    250.87861 
   28550    79.208577   -1218.6386    60325.428   -12708.117    962.60303   -13670.721    99.096188    245.20377 
   28600    81.044453   -1534.3747     60333.67   -12708.058      984.914   -13692.972    99.156284    250.88704 
   28650    83.401755   -1201.8595    60328.695   -12681.047    1013.5617   -13694.608    99.017739    258.18448 
   28700    83.059718   -1637.5926    60296.831   -12687.883     1009.405   -13697.288    98.954211    257.12564 
   28750    82.033932    -1128.568    60356.582   -12690.597     996.9389   -13687.536    98.747122    253.95015 
   28800    78.863434   -1271.5307     60431.76   -12690.765    958.40858   -13649.174    98.934033    244.13532 
   28850     83.68246   -1671.0871    60468.297   -12694.415    1016.9731   -13711.388    99.593507    259.05345 
   28900    80.503657   -1675.5676    60481.996   -12711.417    978.34183   -13689.759    100.04347    249.21292 
   28950    81.936362   -1345.1552    60481.253    -12695.14    995.75316   -13690.893    100.44026     253.6481 
   29000    79.845889   -1691.5556    60506.324   -12709.285    970.34813   -13679.634    100.98913    247.17668 
   29050     83.66274   -1470.4207    60543.722   -12710.668    1016.7334   -13727.401    100.81364     258.9924 
   29100    82.792084    -1519.099    60560.872   -12690.913    1006.1525   -13697.065    100.92416    256.29714 
   29150    82.550407   -1716.2845    60485.434   -12681.674    1003.2155   -13684.889    101.03024    255.54898 
   29200    81.730949    -1713.738    60388.866   -12698.382    993.25682   -13691.639    101.44768    253.01221 
   29250    85.542885   -1605.1281    60397.826   -12662.107    1039.5824   -13701.689    101.65768    264.81271 
   29300    80.711688   -1406.0736    60342.673   -12663.636    980.86999   -13644.506    101.95384    249.85691 
   29350    83.717131   -1380.9468     60379.39   -12668.061    1017.3944   -13685.455    102.15125    259.16078 
   29400    84.133091   -1419.3037    60343.602   -12677.878    1022.4495   -13700.328    102.14953    260.44845 
   29450    82.665844   -1672.7779    60284.444   -12694.158    1004.6184   -13698.776    101.90924    255.90634 
   29500    82.587105   -1315.3143     60291.79   -12698.709    1003.6615    -13702.37    101.64172    255.66259 
   29550    80.381505   -1299.4112    60325.387   -12713.401    976.85734   -13690.259    101.86109    248.83477 
   29600    80.282156   -1201.6438    60339.939   -12696.635    975.64998   -13672.285    102.57032    248.52722 
   29650    83.701361   -1400.1317    60351.163   -12672.902    1017.2028   -13690.105    103.20249    259.11196 
   29700    85.528903   -1271.8191    60307.554   -12697.878    1039.4124    -13737.29    103.26214    264.76943 
   29750    81.115665   -1168.8907    60295.423   -12700.692    985.77941   -13686.471    103.39451    251.10749 
   29800     81.77556    -1519.551     60304.07   -12744.316    993.79896   -13738.115    103.29828    253.15031 
   29850    83.314569   -1602.7143    60261.695   -12757.621    1012.5022   -13770.123    103.10804    257.91458 
   29900    82.401132   -1533.5271    60267.524   -12737.381    1001.4014   -13738.782    103.53454    255.08688 
   29950    81.400348   -1118.9733    60266.858    -12736.75     989.2391   -13725.989    103.61464    251.98878 
   30000    81.894009   -1463.6193    60291.213    -12720.37    995.23845   -13715.609    104.03289    253.51699 
   30050    82.373485   -1764.0965     60235.29   -12696.674    1001.0654    -13697.74    104.44706    255.00129 
   30100     82.63843   -1224.7315    60219.191   -12703.629    1004.2852   -13707.914    105.16845    255.82147 
   30150    84.037255   -1430.7207     60235.46   -12678.426    1021.2848   -13699.711    105.50999    260.15177 
   30200    83.903424     -1477.01    60312.598   -12722.526    1019.6584   -13742.185    105.58436    259.73748 
   30250     79.28975   -1394.1688    60297.051   -12761.648     963.5895   -13725.238    105.82072    245.45506 
   30300    78.341072   -1424.5598    60203.349   -12723.186    952.06045   -13675.247    105.85268    242.51826 
   30350    78.797552   -1322.1961    60221.208   -12743.792    957.60794     -13701.4    106.20601    243.93137 
   30400    79.703264   -1350.2931    60250.501   -12760.998    968.61484   -13729.613    106.14603    246.73516 
   30450    80.463504   -1534.9219    60296.838    -12749.62    977.85386   -13727.473    106.76837    249.08861 
   30500    79.866603   -1188.7015    60309.244   -12742.941    970.59986   -13713.541    107.28953     247.2408 
   30550    81.775389   -1334.9217    60319.778   -12721.109    993.79688   -13714.906    107.25118    253.14978 
   30600    77.557573   -1487.5709    60332.085   -12723.225    942.53877   -13665.763    107.58004    240.09281 
   30650     80.92273   -1169.8595    60350.263   -12723.486    983.43472   -13706.921    107.44091    250.51023 
   30700    83.213027   -1443.9375     60351.37   -12698.011    1011.2682   -13709.279    107.56806    257.60024 
   30750    81.923766   -1613.7696    60380.613   -12690.945    995.60008   -13686.545    108.10594    253.60911 
   30800    82.763822    -1641.743    60361.739   -12672.014    1005.8091   -13677.823    107.71681    256.20965 
   30850    81.709443   -1401.1613     60312.07   -12682.923    992.99546   -13675.919    107.56366    252.94563 
   30900    80.312853   -1211.0914    60361.396   -12679.199    976.02303   -13655.222    107.64092    248.62225 
   30950    84.441088   -1073.3241     60442.97   -12666.427    1026.1925    -13692.62    107.74221    261.40191 
   31000    81.479166   -1498.9959    60504.961   -12665.404    990.19696   -13655.601    107.94038    252.23277 
   31050    86.473134   -1480.9119    60510.929   -12652.464    1050.8875   -13703.352    108.34541    267.69246 
   31100    82.130006    -1284.764    60497.174   -12696.159    998.10646   -13694.265    108.54544    254.24756 
   31150    82.957493    -1327.685    60441.036    -12712.53    1008.1627   -13720.693    108.29198    256.80919 
   31200    83.188819   -1075.3997    60466.466   -12708.701     1010.974   -13719.675    108.53302     257.5253 
   31250    81.539785   -1079.3985    60475.878   -12699.538    990.93365   -13690.472    108.68773    252.42043 
   31300    85.279099   -1235.4603    60555.437    -12707.54    1036.3766   -13743.916    109.08441    263.99612 
   31350    83.422327   -1278.3926    60608.223   -12696.096    1013.8117   -13709.908    108.77319    258.24816 
   31400    83.875348   -1673.4205    60587.815   -12701.094    1019.3172   -13720.411    109.20792    259.65056 
   31450    83.764938   -1091.2316    60557.202   -12697.058    1017.9754   -13715.033    109.17306    259.30877 
   31500    82.599843   -1492.9275     60545.15   -12723.125    1003.8163   -13726.942    109.24396    255.70202 
   31550    81.542225   -1387.5031    60573.842    -12693.68     990.9633   -13684.643    109.38737    252.42798 
   31600    84.963203   -1413.2919    60595.766    -12650.43    1032.5376   -13682.968    109.48781    263.01821 
   31650    84.288105   -1270.6565    60580.426   -12612.297    1024.3333   -13636.631    109.31896    260.92833 
   31700    84.570217   -1372.9362    60632.379   -12605.962    1027.7618   -13633.724    109.21049    261.80165 
   31750    83.617323    -1458.039    60660.725   -12660.527    1016.1815   -13676.708     109.3489     258.8518 
   31800    82.675699   -1422.8873    60702.046   -12698.108    1004.7381   -13702.846    109.65039    255.93685 
   31850    82.900578   -1434.5795    60656.172   -12695.749     1007.471    -13703.22    109.70998      256.633 
   31900    81.846622    -1452.587    60735.987   -12718.605    994.66256   -13713.267    109.16971    253.37029 
   31950    79.087793   -1394.0362    60765.042   -12739.795    961.13517    -13700.93    109.65402    244.82986 
   32000    79.339039   -996.05572    60839.766    -12735.33     964.1885   -13699.518    109.40541    245.60764 
   32050    81.218358   -1254.6073    60856.953   -12739.668    987.02742   -13726.696    109.47003     251.4254 
   32100    80.683084   -1548.8518    60839.603   -12748.627    980.52237   -13729.149    109.66272    249.76836 
   32150    83.137882   -1203.2099    60837.304   -12736.608    1010.3549   -13746.963    110.13526    257.36761 
   32200    82.469957   -1542.7531    60840.227   -12703.384    1002.2378   -13705.622    110.31301    255.29993 
   32250    85.518925   -1461.8306    60841.118   -12712.058    1039.2912   -13751.349     110.5792    264.73854 
   32300    82.100158   -1610.8983    60825.985   -12710.119    997.74372   -13707.863    110.82586    254.15516 
   32350    80.199524   -1728.6057    60788.631   -12716.452    974.64578   -13691.098    110.84038    248.27142 
   32400    82.986435   -1144.3182    60714.311   -12703.478    1008.5144   -13711.993    111.55984    256.89878 
   32450    82.353201   -1699.0319      60701.6   -12701.879    1000.8189   -13702.698    112.00103     254.9385 
   32500    83.114827   -1233.2503    60693.928    -12696.74    1010.0748   -13706.815    111.94202    257.29624 
   32550    83.924825   -1687.7938    60708.839   -12697.727    1019.9185   -13717.645    112.04297    259.80373 
   32600    82.043696    -1549.421     60688.85   -12709.555    997.05756   -13706.612    112.50844    253.98037 
   32650    80.365647   -1899.1501    60646.389   -12748.251    976.66462   -13724.916    112.80228    248.78568 
   32700    81.864381    -1319.341    60542.813    -12726.92    994.87838   -13721.798    112.69427    253.42527 
   32750    82.843373   -2094.9662    60542.541   -12740.583    1006.7758   -13747.359     112.6516    256.45591 
   32800    80.514709   -1634.1418    60458.839   -12725.992    978.47614   -13704.468    112.41733    249.24713 
   32850    81.332494   -1504.2596    60412.706    -12729.05    988.41448   -13717.465    113.11163    251.77872 
   32900    80.283588   -1146.8311    60399.454   -12716.585    975.66739   -13692.253    113.23716    248.53166 
   32950     79.37104   -1277.4247    60441.522   -12698.165     964.5774   -13662.742    113.44632     245.7067 
   33000    82.147366   -1389.3256    60456.169   -12680.141    998.31743   -13678.458    113.34224     254.3013 
   33050    83.648657   -1514.0541    60362.501   -12679.744    1016.5623   -13696.306    113.33165     258.9488 
   33100    84.393696   -1044.4587    60326.035   -12691.856    1025.6166   -13717.473    113.43292     261.2552 
   33150    81.385473   -1462.0082    60292.971   -12698.614    989.05833   -13687.672    113.87236    251.94273 
   33200    82.706574   -1947.7952    60258.147   -12716.132    1005.1134   -13721.246    114.03537    256.03242 
   33250    80.465442   -1649.5417    60222.059   -12686.296    977.87741   -13664.174    113.68812    249.09461 
   33300    83.584703   -1690.7709    60201.227   -12694.569     1015.785   -13710.354     114.0096    258.75082 
   33350    82.895561   -1529.9828      60198.4   -12702.875    1007.4101   -13710.285    114.18356    256.61746 
   33400    81.342272   -1381.2234    60178.773   -12703.954    988.53332   -13692.487    114.59288    251.80899 
   33450    82.034483   -1506.3494      60194.5   -12698.807    996.94559   -13695.753    115.20025    253.95185 
   33500    82.523416   -1189.1359    60227.128   -12721.901    1002.8875   -13724.788    115.32156    255.46543 
   33550    84.447609   -1278.3657    60300.879   -12717.845    1026.2717   -13744.117     115.8645     261.4221 
   33600    83.397672   -1071.3363    60311.976   -12694.979    1013.5121   -13708.491    116.04373    258.17184 
   33650    82.996144   -1469.9612     60281.86   -12709.796    1008.6324   -13718.428    116.04683    256.92884 
   33700     81.78997   -1524.1661    60271.302   -12741.743    993.97408   -13735.717    115.63597    253.19492 
   33750    81.242767   -1577.3661    60276.691   -12773.924    987.32405   -13761.248     115.4814    251.50096 
   33800    79.456258   -1600.1209     60196.94   -12789.648    965.61304   -13755.261    116.02145    245.97051 
   33850    79.757875   -1419.5573    60222.166   -12761.119    969.27852   -13730.398    116.41223    246.90422 
   33900    78.518963   -1756.7282    60188.941   -12772.307    954.22232   -13726.529    116.03808    243.06895 
   33950    79.133242   -1456.5238    60157.803   -12762.067    961.68751   -13723.755    116.34651    244.97056 
[...]
   92000    81.296781   -1554.9131    60780.022   -12718.439    987.98048   -13706.419    305.90468    251.66817 
   92050    82.985643    -1601.704    60729.601   -12724.447    1008.5048   -13732.952     306.7253    256.89633 
   92100     83.99484   -1391.6238    60761.392   -12713.538    1020.7693   -13734.307    306.50003    260.02047 
   92150     84.02829   -1457.3817    60816.707   -12733.507    1021.1759   -13754.683    306.56648    260.12402 
   92200    83.296484   -1203.9589    60835.116   -12748.554    1012.2824   -13760.836    306.25125    257.85859 
   92250    83.724503   -1434.2931    60852.014   -12723.075     1017.484   -13740.559    306.74831     259.1836 
   92300    82.358825   -1688.5405    60821.759   -12774.447    1000.8872   -13775.335    307.71432    254.95591 
   92350    86.537448   -1534.2332    60771.162   -12747.992    1051.6691   -13799.661    307.78219    267.89155 
   92400    81.968646   -1657.4177    60757.597    -12763.55    996.14549   -13759.695    308.02192    253.74804 
   92450    82.667533   -1554.1312    60726.324   -12760.507    1004.6389   -13765.146    308.33718    255.91157 
   92500    82.404206   -1597.3361     60705.34   -12768.638    1001.4387   -13770.076    308.78755    255.09639 
   92550    83.798541   -1183.8837    60682.586   -12782.258    1018.3838   -13800.642     308.0788     259.4128 
   92600    81.564143   -1324.1032    60690.159   -12764.483    991.22967   -13755.713    308.03998    252.49583 
   92650    82.200031   -1747.1881    60694.494   -12745.769    998.95746   -13744.727    308.46514    254.46433 
   92700    77.909694   -1693.1324    60740.791   -12760.587    946.81801   -13707.405    308.79979    241.18286 
   92750    82.093703    -1511.685    60739.396   -12748.968    997.66528   -13746.633     308.8418    254.13518 
   92800    81.101295   -1303.7474    60736.668   -12744.043    985.60479   -13729.648    309.30185    251.06301 
   92850    83.976798   -1177.8056    60792.326    -12712.18    1020.5501    -13732.73    308.97388    259.96462 
   92900    80.326971   -1243.0688    60833.276   -12765.005    976.19461     -13741.2    309.48428    248.66595 
   92950    85.814652   -1397.9778    60843.507   -12763.309    1042.8851   -13806.194    308.64874    265.65401 
   93000    81.544607   -1295.8985     60786.02   -12743.619    990.99225   -13734.611    308.49306    252.43536 
   93050    84.408106   -1430.4213    60735.738   -12741.668    1025.7917    -13767.46    308.51888    261.29981 
   93100    83.408465   -1278.1385    60799.485   -12790.232    1013.6433   -13803.875    308.36685    258.20525 
   93150    79.355103   -1384.5622    60813.147   -12802.809    964.38373   -13767.192    308.61146    245.65737 
   93200    80.837824   -1147.8007    60814.388   -12779.791    982.40288   -13762.194    309.08417    250.24739 
   93250    82.167534   -1679.2049    60829.059   -12789.589    998.56253   -13788.152    309.23905    254.36373 
   93300     81.35439   -1424.0284    60861.608   -12778.626    988.68058   -13767.306    309.15714     251.8465 
   93350    85.328903   -1498.5831     60831.76    -12770.04    1036.9819   -13807.022    309.87808     264.1503 
   93400    85.603033   -1350.1231    60805.462   -12748.257    1040.3133    -13788.57    309.68857    264.99891 
   93450    86.414683   -1407.2397    60882.367   -12732.819    1050.1771   -13782.996    309.20714    267.51151 
   93500    81.620758    -1655.147    60876.022   -12778.524    991.91769   -13770.442    310.00072    252.67109 
   93550    81.165037   -1715.3012    60845.561    -12770.73    986.37943   -13757.109    310.08497    251.26033 
   93600    84.947935   -1624.5081    60753.867   -12794.682    1032.3521   -13827.035    309.84291    262.97094 
   93650    84.833854   -1422.1825    60699.184    -12795.63    1030.9657   -13826.596    310.09124    262.61778 
   93700    83.965822   -1512.0739    60701.649   -12815.675    1020.4167   -13836.092    309.56496    259.93064 
   93750    81.279423   -1232.0423    60718.908   -12830.228    987.76953   -13817.998    310.04823    251.61443 
   93800    80.036124   -1390.8752    60702.335   -12837.575    972.66001   -13810.235    310.11049    247.76559 
   93850    81.503609   -1550.4141    60688.533   -12850.422    990.49401   -13840.916    310.09028    252.30844 
   93900    81.642546   -1487.7008    60643.548   -12824.549    992.18248   -13816.732    309.96453    252.73854 
   93950    81.074709   -1395.1327     60628.13   -12805.664     985.2817   -13790.946    310.20298    250.98071 
   94000    77.756983    -1470.791    60591.457   -12817.878    944.96216    -13762.84    310.52797    240.71011 
   94050    82.113217   -1647.9455    60613.649   -12796.314    997.90243   -13794.217    310.97937    254.19559 
   94100    78.782385   -1372.7914    60633.934   -12805.889    957.42362   -13763.312    311.08026    243.88442 
   94150     78.55666   -1731.3929    60630.309   -12811.607    954.68044   -13766.287    310.90974    243.18565 
   94200    81.621139   -1559.1956    60563.638   -12792.847    991.92232    -13784.77    311.08323    252.67227 
   94250    82.626125   -1608.3449    60556.755   -12768.225    1004.1357   -13772.361    310.64189    255.78338 
   94300    83.670847    -1236.265    60570.153   -12766.241    1016.8319   -13783.073    310.63234     259.0175 
   94350    83.486955   -1777.6625    60595.215   -12742.657    1014.5971   -13757.254    310.71683    258.44823 
   94400    84.565686   -1315.1615     60614.48   -12720.957    1027.7067   -13748.664    310.63161    261.78762 
   94450    83.841557   -1505.1284    60593.344   -12725.962    1018.9065   -13744.868    310.97394    259.54596 
   94500    83.807091   -1145.2404    60632.892   -12708.404    1018.4877   -13726.892    311.11752    259.43926 
   94550    82.074284   -1404.4488    60678.966   -12707.625    997.42929   -13705.054    311.60206    254.07506 
   94600     84.77371   -1283.6598    60710.264   -12743.239    1030.2348   -13773.474    311.53775     262.4316 
   94650    84.256817   -1231.3902    60718.819    -12754.48    1023.9531   -13778.433    311.57683    260.83147 
   94700    82.170148   -1389.0254     60732.41   -12751.086    998.59429    -13749.68    310.95261    254.37182 
   94750    81.719443   -1430.9403    60763.912   -12742.395    993.11699   -13735.512    311.21715    252.97659 
   94800    82.202599   -1016.2647    60726.641   -12734.524    998.98867   -13733.513    311.63478    254.47228 
   94850    80.492223   -1165.9715    60795.841   -12759.216    978.20287   -13737.419    312.19482    249.17752 
   94900    82.232857   -1091.1806    60803.743   -12756.077    999.35639   -13755.433    312.15094    254.56595 
   94950    84.625223   -1040.6709    60833.483   -12757.625    1028.4302   -13786.055    311.90598    261.97193 
   95000    81.564132   -968.26353    60905.711   -12746.057    991.22953   -13737.286    312.56708     252.4958 
   95050    83.503744    -1488.173    60946.205   -12731.113    1014.8012   -13745.914    313.04144     258.5002 
   95100    81.018447   -1484.1413    60941.233   -12723.013    984.59795   -13707.611    313.65966    250.80654 
   95150    81.182949   -1602.1216    60967.067     -12746.6    986.59711   -13733.197    313.99204    251.31578 
   95200    83.093274   -1375.5333    60976.579   -12707.903    1009.8128   -13717.716      314.441    257.22952 
   95250    81.058822   -1261.2736    60907.123   -12727.277    985.08861   -13712.366    314.33196    250.93152 
   95300    82.609379   -968.87521    60871.921   -12761.647    1003.9322   -13765.579    314.91749    255.73154 
   95350    82.543022   -1251.4238    60933.867   -12741.857    1003.1257   -13744.983     315.3677    255.52612 
   95400    81.301852   -1601.1543    60941.935   -12726.056     988.0421   -13714.098    315.38143    251.68386 
   95450    84.474924   -1274.4571    60923.951   -12739.708    1026.6037   -13766.311    315.09945    261.50666 
   95500    81.414172   -1348.9204    60928.272    -12759.47    989.40711   -13748.877    315.30943    252.03157 
   95550     81.14776     -1524.07    60918.575   -12771.215    986.16947   -13757.384    315.22805    251.20685 
   95600    85.568448   -1222.6849    60901.826   -12727.888     1039.893   -13767.781      315.539    264.89185 
   95650    83.219656   -1409.5601    60909.634   -12729.148    1011.3487   -13740.497    315.52502    257.62076 
   95700    82.538986   -1288.4504    60869.365   -12717.825    1003.0767   -13720.902    316.32048    255.51363 
   95750    83.129281   -1489.0406    60922.086   -12719.048    1010.2504   -13729.298    316.55776    257.34099 
   95800    83.116939    -1567.776    60930.258   -12748.094    1010.1004   -13758.195    316.51639    257.30278 
   95850    83.981618   -1365.3109      60890.5   -12716.998    1020.6087   -13737.606    317.37652    259.97954 
   95900    86.023908   -1369.7036    60864.585   -12693.919    1045.4281   -13739.347    317.76662     266.3018 
   95950    83.775321   -1621.0022     60855.39   -12737.395    1018.1016   -13755.497    318.99372    259.34091 
   96000    82.200477   -1173.4119    60888.931   -12723.493    998.96288   -13722.456    319.79878    254.46571 
   96050    84.195983   -1403.8354     60938.79   -12687.698    1023.2138   -13710.912    320.03943    260.64315 
   96100    83.510186   -1396.3211    60976.554   -12687.032    1014.8795   -13701.912    320.11905    258.52014 
   96150    81.340707   -1190.4527    61030.996   -12712.717     988.5143   -13701.232    320.86722    251.80415 
   96200     86.13309   -1376.3682    61051.578     -12708.9     1046.755   -13755.655    320.16949    266.63979 
   96250    82.634747   -1414.4629    61048.409   -12730.584    1004.2405   -13734.824    319.02557    255.81007 
   96300    79.719868   -1386.7777    61030.149   -12754.354    968.81663    -13723.17    318.97988    246.78656 
   96350    79.966006   -1644.4848    60987.206    -12744.59    971.80788   -13716.398    318.76092    247.54852 
   96400    80.522674   -1369.9406    60912.351   -12746.237    978.57294    -13724.81    318.25995    249.27179 
   96450    79.479611   -1691.0854    60813.422   -12757.982    965.89684   -13723.879      318.873     246.0428 
   96500    81.939659   -1187.0039     60750.97   -12769.137    995.79322    -13764.93    318.51873    253.65831 
   96550    80.014645   -1416.1115    60723.492   -12748.107    972.39899   -13720.506    317.99334     247.6991 
   96600    84.089867   -984.13469    60727.223   -12744.307    1021.9242   -13766.231    317.48579    260.31464 
   96650    84.163844   -1420.2164    60694.162    -12732.92    1022.8232   -13755.743    317.95405    260.54365 
   96700    82.622554   -945.41111     60702.16   -12750.949    1004.0923   -13755.041    317.97151    255.77232 
   96750    81.295016   -1263.8608    60729.264    -12728.26    987.95902    -13716.22    318.53081     251.6627 
   96800    84.956529    -1191.546    60724.339   -12734.902    1032.4565   -13767.359    319.08032    262.99755 
   96850     83.80729   -1397.9879    60707.233   -12738.412    1018.4901   -13756.902    318.43701    259.43988 
   96900    81.654615   -1483.3043    60705.951     -12764.1    992.32915   -13756.429    319.08449     252.7759 
   96950     80.93492   -1466.2967     60719.03   -12765.923    983.58286   -13749.506    319.37824    250.54796 
   97000    80.020044   -1254.7457    60719.388   -12778.081    972.46459   -13750.546    319.17969    247.71581 
   97050    81.245051   -1517.3825    60655.197   -12794.075    987.35181   -13781.427    318.59201    251.50803 
   97100    81.195256   -1138.3757    60642.708   -12759.172    986.74667   -13745.919    319.40822    251.35388 
   97150    81.726261   -1338.1949    60677.464   -12732.002    993.19985   -13725.202    319.57874     252.9977 
   97200    80.602808    -1526.493    60675.928   -12755.342    979.54678   -13734.889    320.73239    249.51985 
   97250    80.643252   -1480.0745    60669.256   -12775.021    980.03829   -13755.059    320.58411    249.64506 
   97300    81.941494    -1777.594    60620.254   -12775.478    995.81552   -13771.293    320.11459    253.66399 
   97350    81.221794   -1461.8455    60583.106   -12776.539    987.06918   -13763.609    320.27552    251.43603 
   97400     81.76994   -1287.8707      60604.9    -12766.87    993.73067     -13760.6    320.61611    253.13291 
   97450    80.021955   -1554.3927    60606.089   -12759.335    972.48783   -13731.823    320.59752    247.72173 
   97500    82.346239   -1525.3576    60611.772   -12747.289    1000.7343   -13748.023    320.89254    254.91695 
   97550    81.490333   -1527.4283    60619.428   -12726.989    990.33266   -13717.322    321.94368    252.26734 
   97600    81.949741   -1370.3014    60623.929   -12736.353    995.91574   -13732.269    321.94966    253.68952 
   97650    81.217669   -785.38464    60694.842   -12742.109    987.01905   -13729.128    322.69015    251.42326 
   97700    82.764367   -1641.4283    60671.647   -12748.721    1005.8157   -13754.537    323.04424    256.21133 
   97750    82.823405   -1408.2601    60674.782   -12753.231    1006.5332   -13759.764    323.45344    256.39409 
   97800    84.989471   -1564.2373    60683.518   -12761.278    1032.8569   -13794.135    323.69626    263.09953 
   97850    82.976791   -1237.7295    60710.387   -12732.373    1008.3972    -13740.77    324.51611    256.86893 
   97900    82.120963    -1889.613    60729.067   -12742.831    997.99657   -13740.828    324.81638    254.21957 
   97950    83.042005   -1585.3026    60735.719   -12749.958    1009.1898   -13759.148    324.99131    257.07081 
   98000    80.946713   -1404.3471    60705.879     -12763.5    983.72618   -13747.227    325.39038    250.58447 
   98050    81.301319   -1233.2465    60715.039   -12778.453    988.03563   -13766.488    325.10314    251.68222 
   98100    80.313162   -1483.5181    60717.027   -12768.873    976.02678     -13744.9    325.38806     248.6232 
   98150    79.700899   -1547.2419    60764.466   -12776.726     968.5861   -13745.312     325.4993    246.72784 
   98200    84.161077   -1109.6745    60807.062   -12753.963    1022.7896   -13776.752    325.22663    260.53509 
   98250    80.126343    -1330.234    60846.032   -12770.768    973.75642   -13744.525    325.99795    248.04487 
   98300     85.48894   -995.96752    60867.056    -12729.27    1038.9268   -13768.197    325.94272    264.64572 
   98350    81.643842   -1108.3319    60918.043   -12744.535    992.19822   -13736.733    325.96912    252.74255 
   98400    80.780648   -1467.0839    60899.308    -12744.96    981.70803   -13726.668    326.16214    250.07039 
   98450    81.988769   -1400.6256    60905.713   -12744.812    996.39004   -13741.202    325.83354    253.81033 
   98500    81.317584   -1710.1413     60911.57   -12749.481     988.2333   -13737.714    325.75843    251.73257 
   98550    81.079559   -1359.7753     60938.41   -12763.511    985.34063   -13748.851    326.85992    250.99572 
   98600    80.506962   -1432.3508    60905.815   -12761.367      978.382   -13739.749    326.93648    249.22315 
   98650    81.407083   -1567.9026    60847.005   -12780.024    989.32095   -13769.345    326.55151    252.00963 
   98700    84.598672   -1320.7116    60887.451   -12767.727    1028.1076   -13795.834    327.96527    261.88974 
   98750     82.28597   -1694.9598    60862.008   -12745.383    1000.0019   -13745.385    327.74958    254.73037 
   98800    81.334884   -1270.2572    60877.723   -12750.414    988.44353   -13738.857    327.44781    251.78612 
   98850    79.762667   -1267.2182    60913.751   -12742.314    969.33675   -13711.651    328.06456    246.91905 
   98900    83.870169   -1416.2187    60917.019   -12695.489    1019.2542   -13714.743    327.78121    259.63453 
   98950    85.040979   -1458.5779    60931.697   -12690.776    1033.4828   -13724.259     328.3096    263.25898 
   99000    83.304136   -1687.4144    60888.588   -12682.298    1012.3754   -13694.673    328.49437    257.88228 
   99050    84.836361   -1486.7486    60895.847   -12670.406    1030.9962   -13701.402    328.51154    262.62555 
   99100    82.781637   -1359.4327    60919.388   -12683.168    1006.0256   -13689.193    328.61747     256.2648 
   99150    84.141729     -1615.08    60978.126   -12661.434    1022.5545   -13683.989    327.90649    260.47519 
   99200    84.560964   -1699.5515    60979.123   -12649.029    1027.6493   -13676.678    327.35191    261.77301 
   99250    81.573216   -1533.2423    60946.565   -12678.565    991.33993   -13669.904    327.03512    252.52392 
   99300    83.170538   -1530.6441    60842.019   -12706.371    1010.7518   -13717.123    326.51227     257.4687 
   99350    84.122564   -1381.1114    60816.163   -12697.886    1022.3215   -13720.208    327.46014    260.41586 
   99400    80.824578   -1447.9751    60795.543   -12681.603    982.24191   -13663.845    326.84145    250.20638 
   99450    81.183903   -1796.0351    60764.231   -12700.896     986.6087   -13687.504     326.7539    251.31873 
   99500    80.701052   -1645.3013     60719.26    -12734.99    980.74073    -13715.73    326.73419    249.82399 
   99550    80.771718   -1240.5816     60708.01   -12718.249    981.59951   -13699.849    327.20179    250.04274 
   99600    82.749004   -1406.8755    60789.838   -12716.178     1005.629   -13721.807    327.75187    256.16377 
   99650    81.319374   -1357.4425    60858.914    -12765.49    988.25504   -13753.745    327.42466    251.73811 
   99700    80.499746   -1215.2259    60860.271   -12743.917     978.2943   -13722.212    328.33227    249.20081 
   99750    84.527745   -1428.1647    60860.954   -12722.032    1027.2456   -13749.278    328.29596    261.67017 
   99800    80.869334   -1606.9723    60828.173   -12756.768    982.78582   -13739.554      328.232    250.34493 
   99850    81.185707    -1589.468     60872.76   -12745.107    986.63062   -13731.738    328.25507    251.32432 
   99900    85.093899   -1231.2546    60877.688   -12721.311    1034.1259   -13755.437    328.62191     263.4228 
   99950    82.052534   -1846.5692    60879.673   -12727.514    997.16497   -13724.679    329.36003    254.00773 
  100000    82.314753   -1548.0841    60860.155    -12739.34    1000.3516   -13739.692    329.30738    254.81947 
Loop time of 84.4746 on 32 procs for 100000 steps with 4078 atoms

Performance: 511.396 ns/day, 0.047 hours/ns, 1183.788 timesteps/s
99.9% CPU use with 32 MPI tasks x no OpenMP threads

MPI task timing breakdown:
Section |  min time  |  avg time  |  max time  |%varavg| %total
---------------------------------------------------------------
Pair    | 48.671     | 54.764     | 61.882     |  74.1 | 64.83
Neigh   | 1.1944     | 2.7637     | 4.5138     |  92.3 |  3.27
Comm    | 12.147     | 20.58      | 28.241     | 146.9 | 24.36
Output  | 0.09796    | 0.10341    | 0.19892    |   5.3 |  0.12
Modify  | 4.6299     | 5.4265     | 6.4958     |  20.9 |  6.42
Other   |            | 0.8371     |            |       |  0.99

Nlocal:    127.438 ave 202 max 61 min
Histogram: 16 0 0 0 0 0 0 0 8 8
Nghost:    989.5 ave 1058 max 914 min
Histogram: 5 11 0 0 0 0 0 0 6 10
Neighs:    0 ave 0 max 0 min
Histogram: 32 0 0 0 0 0 0 0 0 0
FullNghs:  13833.1 ave 25626 max 3194 min
Histogram: 16 0 0 0 0 0 0 0 4 12

Total # of neighbors = 442658
Ave neighs/atom = 108.548
Neighbor list builds = 5786
Dangerous builds = 0

write_data		${DIR}/data.eq-${NAME}-${TEMP}
write_data		run_6/data.eq-${NAME}-${TEMP}
write_data		run_6/data.eq-het_freeze_6-${TEMP}
write_data		run_6/data.eq-het_freeze_6-255
undump          1

reset_timestep  0

unfix           2
unfix           3
unfix           4


################################################
#######         Run Simulation         #########
################################################

log				${DIR}/log.run_${NAME}
log				run_6/log.run_${NAME}
log				run_6/log.run_het_freeze_6
