LAMMPS data file via write_data, version 16 Mar 2018, timestep = 6000000

6489 atoms
2 atom types

0.0000000000000000e+00 4.9219999999999999e+01 xlo xhi
0.0000000000000000e+00 4.9019635930410494e+01 ylo yhi
7.4212869845193552e-01 5.9319871301550954e+01 zlo zhi

Masses

1 18.015
2 12.01

Atoms # atomic

3427 1 3.9190181026701265e+00 1.7628761952226550e+00 1.8834523832248109e+00 2 1 0
2920 1 1.6536385843821755e+00 3.1558894595981593e+00 2.8869078293378201e+00 0 1 1
1582 1 8.5133802389478070e+00 1.9960936306160062e+00 1.6948843714399291e+00 0 2 1
6438 1 6.1243147739616406e+00 3.1519649680085511e+00 2.6534545656853701e+00 1 0 1
6200 1 1.7371224805397079e+00 5.7360513900790977e+00 1.9142009937416646e+00 0 1 1
3229 1 3.7611214582437968e+00 7.2317563195201471e+00 2.6528858717309829e+00 1 0 1
2962 1 8.0981804610550672e+00 7.0764120411180205e+00 2.6865096021301236e+00 1 0 1
3555 1 5.7924050074252733e+00 5.8600916792692841e+00 1.7130336165027371e+00 1 0 1
476 1 4.2377318456119548e+00 9.6300696133107362e+00 1.4805776571946172e+00 -1 0 1
1916 1 2.0835675055591891e+00 1.0933767612530808e+01 2.5041798723522573e+00 0 -2 0
4645 1 6.2140592428688857e+00 1.1062655555283635e+01 2.7502807782183343e+00 0 0 1
1500 1 8.3305972759612512e+00 9.6092265071003204e+00 1.7019005121919268e+00 0 1 0
6251 1 1.6429283627618196e+00 3.1129651974621688e+00 5.5633051953036015e+00 2 2 1
3247 1 1.7456205511558167e+00 6.0987835086090159e-01 6.7550728533870963e+00 2 0 0
3191 1 5.8594998602225568e+00 3.0255971926948599e+00 5.5434736442144343e+00 0 2 1
1671 1 6.3114008108471005e+00 2.0824724386548790e-01 6.5292141864713127e+00 0 1 0
1614 1 3.8356970615393768e+00 4.6000636347226376e+00 6.3870232112776737e+00 0 1 1
1978 1 4.0661392233184328e+00 7.2760228302422121e+00 5.3379347310304652e+00 0 0 0
467 1 8.4634188627661491e+00 4.0694020503639132e+00 6.2985720860326051e+00 -1 0 0
3598 1 8.7027354758262732e+00 6.8723237002684661e+00 5.5175035140475517e+00 1 -1 0
2899 1 1.7062212731742370e+00 8.4143303590104175e+00 6.3793667398489671e+00 0 2 1
108 1 1.6051363037908399e+00 1.0805677167395345e+01 5.3151929162122524e+00 0 -1 0
4772 1 6.5065942473084437e+00 8.3849677551834727e+00 6.3251352310093596e+00 0 0 1
6168 1 6.3945943325096737e+00 1.1095236014064911e+01 5.5933513603899625e+00 0 -1 0
6187 1 4.0108100238029385e+00 1.2189044548368761e+01 6.2510590516614455e+00 1 2 0
4904 1 8.5908419608924333e+00 1.2131915872921747e+01 6.5302941363894824e+00 1 0 0
5235 1 3.9981085787897594e+00 1.6014759838999741e+00 1.0243193982064561e+01 1 -2 0
3738 1 1.4795595272976574e+00 3.7840794829120655e-01 9.5360284763601122e+00 -1 1 1
3228 1 8.4589864012448839e+00 1.5233113662696931e+00 9.8088042838263707e+00 1 2 1
5096 1 1.8530811197551271e+00 1.0903536657114524e-01 1.3659237026758962e+01 0 0 0
4926 1 4.1434765794358999e+00 4.3509199094096980e+00 9.2504599912510272e+00 0 1 0
1300 1 1.8294516352492540e+00 5.5162198086503897e+00 1.0324354480098082e+01 0 1 0
4995 1 8.4173388294184033e+00 4.0215432569157903e+00 8.8766104422233170e+00 0 -1 1
2182 1 6.4854396688704057e+00 5.6559413123381610e+00 9.9164524384755683e+00 1 -1 1
3726 1 6.0086116677527261e+00 8.4244459189789929e+00 9.1935134084949777e+00 1 0 0
1361 1 1.9624756278013162e+00 7.9924129838792943e+00 9.2030146329615405e+00 0 2 1
3290 1 3.9177265526806870e+00 9.8096833552649993e+00 1.0108321470521563e+01 0 0 0
4756 1 6.2321246254122995e+00 1.8249356383914064e-01 9.4197081028687997e+00 1 1 1
1866 1 8.5289841345090309e+00 9.5786619471054664e+00 1.0096961399614452e+01 -1 0 0
2191 1 6.3333161364837318e+00 8.0328488061397092e+00 1.3758449890548093e+01 -1 0 1
1878 1 3.9177150956453493e+00 1.5597665144260113e+00 1.2868664834328937e+01 0 0 0
5121 1 4.1854653566602940e+00 4.0026729702916795e+00 1.3923304267873119e+01 0 0 1
6185 1 4.1041433627529971e+00 9.6752395149023211e+00 1.2866658480637987e+01 0 -2 1
3322 1 8.6326703438689325e+00 9.6836363645154560e+00 1.2810169100845551e+01 0 0 0
6295 1 8.3957046706133873e+00 1.6447948994285575e+00 1.2676498873102089e+01 0 -1 0
1668 1 1.7950253867119292e+00 8.3771081429201626e+00 1.4090789413468402e+01 1 1 1
3608 1 2.0665723941519447e+00 5.5224389426613723e+00 1.2999279276978635e+01 -1 -1 1
3390 1 8.2549665970601183e+00 4.2981523278589258e+00 1.4013462874433788e+01 -1 0 0
6 1 6.1017930317955642e+00 5.3591518525191386e+00 1.2809450178333254e+01 -1 0 0
3347 1 4.2396245491745495e+00 1.2171167798632300e+01 1.4212947067256307e+01 0 2 0
243 1 8.5360191431263477e+00 1.2254207831013877e+01 9.2240332046023816e+00 1 0 0
3314 1 3.9063558644652567e+00 1.3071732071737532e+00 1.7549052176514095e+01 -1 0 1
6432 1 8.5297641782563467e+00 1.1387961008942324e+00 1.6973762683419146e+01 0 0 1
3606 1 8.4976212408855858e+00 3.8299238484573537e+00 1.6604155748619000e+01 -1 1 1
64 1 3.8831225544549359e+00 3.9810643474650695e+00 1.6762867064282535e+01 3 0 1
3696 1 1.8027906159323870e+00 5.5002509464768323e+00 1.7640062390048193e+01 0 0 1
3336 1 6.2669026780848638e+00 5.1964318109513776e+00 1.7458009758801964e+01 0 1 0
6176 1 1.8569982800532598e+00 8.2921606358141933e+00 1.6729114858760425e+01 2 -1 1
500 1 4.2075660466991431e+00 9.7697286639733765e+00 1.7604305187929143e+01 1 1 0
6433 1 6.2633332289563315e+00 7.9219014094434153e+00 1.6682707705688465e+01 0 1 1
5433 1 8.3735604733716205e+00 9.4482842639106259e+00 1.7756848115801986e+01 -1 -1 1
3344 1 3.7724649717473677e+00 1.0314649309796959e+00 2.0172387400197337e+01 -2 0 1
4815 1 1.5613173414496939e+00 2.3091375725833934e+00 2.0594855444666262e+01 1 0 1
1536 1 8.1737173757588781e+00 1.0866252897496878e+00 2.0060219515693287e+01 -1 0 1
1674 1 5.8756492105274924e+00 2.4492032175197407e+00 2.1327943816169103e+01 0 -1 0
527 1 3.7187815027369018e+00 6.7040287225617563e+00 2.0992580036866585e+01 0 0 1
1794 1 1.4005862390615016e+00 5.0422653578647045e+00 2.0383310269253425e+01 0 0 0
3211 1 8.2035906757021095e+00 6.5043138770073812e+00 2.1184467493011088e+01 1 0 0
4496 1 6.0728748551101432e+00 5.0653603260135585e+00 2.0097219971237905e+01 1 2 1
6434 1 3.6796823864315327e+00 9.4535517627473080e+00 2.0474336539828901e+01 1 0 1
183 1 1.3066794566017346e+00 1.0888911460140253e+01 2.0816364982822446e+01 1 1 0
2970 1 6.1671022228084222e+00 1.0681384341804581e+01 2.0833195791034452e+01 0 1 1
5419 1 8.5400657407366438e+00 9.3434529416287937e+00 2.0533732213774801e+01 2 0 1
3304 1 8.8833819284031943e+00 1.2205854571632544e+01 1.6735107410514154e+01 1 1 1
154 1 1.5886110663462922e+00 6.4133115723460393e-02 1.6678302638434019e+01 0 -1 0
3721 1 3.7610862570048300e+00 1.1769136281935406e+00 2.4391465884299567e+01 2 1 0
1703 1 1.5051935870649993e+00 2.1840713897162747e+00 2.3356740859544384e+01 1 -2 0
2183 1 8.5014809796808475e+00 1.0161586032223506e+00 2.4234384400220179e+01 2 0 1
6212 1 6.2588747951787704e+00 2.5742760030840621e+00 2.4075196163950846e+01 1 -1 1
181 1 1.6334789281520861e+00 5.1341429978323214e+00 2.3657713058772060e+01 1 0 0
3536 1 3.7086906522372076e+00 6.7731002254008974e+00 2.3717796268514427e+01 -1 2 0
4520 1 5.9986700547379224e+00 5.2303867378453290e+00 2.4206258602904352e+01 1 0 1
3060 1 8.4176595317898872e+00 6.5467245199016411e+00 2.3852474994702607e+01 0 -1 0
6423 1 4.2606792603855039e+00 9.4097797714687665e+00 2.4283885670638401e+01 0 1 1
6135 1 1.7747105427532288e+00 1.0396879625798020e+01 2.3382415595885334e+01 0 0 1
6265 1 8.6306524474771997e+00 9.2776139023082056e+00 2.4412897842368473e+01 1 -1 1
2000 1 6.5684611160520738e+00 1.0929438034818219e+01 2.3476457663231940e+01 0 1 0
572 2 0.0000000000000000e+00 2.8417180249513345e+00 2.6732132933865490e+01 0 0 0
574 2 0.0000000000000000e+00 0.0000000000000000e+00 2.6732132933865490e+01 0 0 0
576 2 1.2305000000000001e+00 7.1042950623783474e-01 2.6732132933865490e+01 0 0 0
583 2 1.2305000000000001e+00 2.1312885187134998e+00 2.6732132933865490e+01 0 0 0
585 2 2.4610000000000003e+00 2.8417180249513345e+00 2.6732132933865490e+01 0 0 0
587 2 2.4610000000000003e+00 0.0000000000000000e+00 2.6732132933865490e+01 0 0 0
589 2 3.6915000000000004e+00 7.1042950623783474e-01 2.6732132933865490e+01 0 0 0
604 2 3.6914999999999996e+00 2.1312885187134998e+00 2.6732132933865490e+01 0 0 0
606 2 4.9220000000000006e+00 2.8417180249513332e+00 2.6732132933865490e+01 0 0 0
608 2 4.9220000000000006e+00 0.0000000000000000e+00 2.6732132933865490e+01 0 0 0
610 2 6.1524999999999999e+00 7.1042950623783407e-01 2.6732132933865490e+01 0 0 0
633 2 6.1524999999999999e+00 2.1312885187134989e+00 2.6732132933865490e+01 0 0 0
635 2 7.3829999999999991e+00 2.8417180249513345e+00 2.6732132933865490e+01 0 0 0
637 2 7.3829999999999991e+00 0.0000000000000000e+00 2.6732132933865490e+01 0 0 0
639 2 8.6134999999999984e+00 7.1042950623783407e-01 2.6732132933865490e+01 0 0 0
670 2 8.6134999999999984e+00 2.1312885187135002e+00 2.6732132933865490e+01 0 0 0
579 2 0.0000000000000000e+00 4.2625770374269996e+00 2.6732132933865490e+01 0 0 0
581 2 1.2305000000000001e+00 4.9730065436648339e+00 2.6732132933865490e+01 0 0 0
596 2 1.2305000000000001e+00 6.3938655561404980e+00 2.6732132933865490e+01 0 0 0
600 2 2.4610000000000003e+00 4.2625770374269996e+00 2.6732132933865490e+01 0 0 0
602 2 3.6914999999999996e+00 4.9730065436648339e+00 2.6732132933865490e+01 0 0 0
625 2 3.6914999999999996e+00 6.3938655561404980e+00 2.6732132933865490e+01 0 0 0
577 2 0.0000000000000000e+00 7.1042950623783341e+00 2.6732132933865490e+01 0 0 0
598 2 2.4610000000000003e+00 7.1042950623783341e+00 2.6732132933865490e+01 0 0 0
629 2 4.9220000000000006e+00 4.2625770374269978e+00 2.6732132933865490e+01 0 0 0
631 2 6.1524999999999999e+00 4.9730065436648339e+00 2.6732132933865490e+01 0 0 0
662 2 6.1524999999999999e+00 6.3938655561404980e+00 2.6732132933865490e+01 0 0 0
666 2 7.3829999999999991e+00 4.2625770374269996e+00 2.6732132933865490e+01 0 0 0
668 2 8.6135000000000002e+00 4.9730065436648339e+00 2.6732132933865490e+01 0 0 0
707 2 8.6135000000000002e+00 6.3938655561404980e+00 2.6732132933865490e+01 0 0 0
627 2 4.9220000000000006e+00 7.1042950623783341e+00 2.6732132933865490e+01 0 0 0
664 2 7.3830000000000009e+00 7.1042950623783341e+00 2.6732132933865490e+01 0 0 0
592 2 0.0000000000000000e+00 8.5251540748539991e+00 2.6732132933865490e+01 0 0 0
594 2 1.2305000000000001e+00 9.2355835810918343e+00 2.6732132933865490e+01 0 0 0
621 2 2.4610000000000003e+00 8.5251540748539991e+00 2.6732132933865490e+01 0 0 0
623 2 3.6915000000000004e+00 9.2355835810918343e+00 2.6732132933865490e+01 0 0 0
590 2 0.0000000000000000e+00 1.1366872099805333e+01 2.6732132933865490e+01 0 0 0
617 2 1.2305000000000001e+00 1.0656442593567498e+01 2.6732132933865490e+01 0 0 0
619 2 2.4610000000000003e+00 1.1366872099805333e+01 2.6732132933865490e+01 0 0 0
654 2 3.6914999999999996e+00 1.0656442593567499e+01 2.6732132933865490e+01 0 0 0
660 2 6.1524999999999999e+00 9.2355835810918343e+00 2.6732132933865490e+01 0 0 0
703 2 7.3830000000000009e+00 8.5251540748539991e+00 2.6732132933865490e+01 0 0 0
699 2 6.1524999999999999e+00 1.0656442593567499e+01 2.6732132933865490e+01 0 0 0
656 2 4.9220000000000006e+00 1.1366872099805333e+01 2.6732132933865490e+01 0 0 0
746 2 8.6134999999999984e+00 1.0656442593567498e+01 2.6732132933865490e+01 0 0 0
658 2 4.9220000000000006e+00 8.5251540748539991e+00 2.6732132933865490e+01 0 0 0
701 2 7.3829999999999991e+00 1.1366872099805333e+01 2.6732132933865490e+01 0 0 0
705 2 8.6134999999999984e+00 9.2355835810918343e+00 2.6732132933865490e+01 0 0 0
573 2 0.0000000000000000e+00 1.4208590124756650e+00 3.0031000000001921e+01 0 0 0
575 2 0.0000000000000000e+00 0.0000000000000000e+00 3.0031000000001921e+01 0 0 0
584 2 1.2305000000000001e+00 2.1312885187134998e+00 3.0031000000001921e+01 0 0 0
586 2 2.4610000000000003e+00 1.4208590124756650e+00 3.0031000000001921e+01 0 0 0
588 2 2.4610000000000003e+00 0.0000000000000000e+00 3.0031000000001921e+01 0 0 0
605 2 3.6914999999999996e+00 2.1312885187134998e+00 3.0031000000001921e+01 0 0 0
582 2 1.2305000000000001e+00 3.5521475311891644e+00 3.0031000000001921e+01 0 0 0
603 2 3.6914999999999996e+00 3.5521475311891644e+00 3.0031000000001921e+01 0 0 0
901 2 0.0000000000000000e+00 2.8417180249513345e+00 3.3329867066119490e+01 0 0 0
902 2 0.0000000000000000e+00 0.0000000000000000e+00 3.3329867066119490e+01 0 0 0
903 2 1.2305000000000001e+00 7.1042950623783474e-01 3.3329867066119490e+01 0 0 0
907 2 1.2305000000000001e+00 2.1312885187134998e+00 3.3329867066119490e+01 0 0 0
908 2 2.4610000000000003e+00 2.8417180249513345e+00 3.3329867066119490e+01 0 0 0
909 2 2.4610000000000003e+00 0.0000000000000000e+00 3.3329867066119490e+01 0 0 0
910 2 3.6915000000000004e+00 7.1042950623783474e-01 3.3329867066119490e+01 0 0 0
918 2 3.6914999999999996e+00 2.1312885187134998e+00 3.3329867066119490e+01 0 0 0
607 2 4.9220000000000006e+00 1.4208590124756650e+00 3.0031000000001921e+01 0 0 0
609 2 4.9220000000000006e+00 0.0000000000000000e+00 3.0031000000001921e+01 0 0 0
634 2 6.1524999999999999e+00 2.1312885187134989e+00 3.0031000000001921e+01 0 0 0
636 2 7.3829999999999991e+00 1.4208590124756659e+00 3.0031000000001921e+01 0 0 0
638 2 7.3829999999999991e+00 0.0000000000000000e+00 3.0031000000001921e+01 0 0 0
671 2 8.6134999999999984e+00 2.1312885187135002e+00 3.0031000000001921e+01 0 0 0
632 2 6.1524999999999999e+00 3.5521475311891644e+00 3.0031000000001921e+01 0 0 0
669 2 8.6134999999999984e+00 3.5521475311891657e+00 3.0031000000001921e+01 0 0 0
919 2 4.9220000000000006e+00 2.8417180249513332e+00 3.3329867066119490e+01 0 0 0
920 2 4.9220000000000006e+00 0.0000000000000000e+00 3.3329867066119490e+01 0 0 0
921 2 6.1524999999999999e+00 7.1042950623783407e-01 3.3329867066119490e+01 0 0 0
933 2 6.1524999999999999e+00 2.1312885187134989e+00 3.3329867066119490e+01 0 0 0
934 2 7.3829999999999991e+00 2.8417180249513345e+00 3.3329867066119490e+01 0 0 0
935 2 7.3829999999999991e+00 0.0000000000000000e+00 3.3329867066119490e+01 0 0 0
936 2 8.6134999999999984e+00 7.1042950623783407e-01 3.3329867066119490e+01 0 0 0
952 2 8.6134999999999984e+00 2.1312885187135002e+00 3.3329867066119490e+01 0 0 0
578 2 0.0000000000000000e+00 5.6834360499026637e+00 3.0031000000001921e+01 0 0 0
580 2 0.0000000000000000e+00 4.2625770374269996e+00 3.0031000000001921e+01 0 0 0
597 2 1.2305000000000001e+00 6.3938655561404980e+00 3.0031000000001921e+01 0 0 0
599 2 2.4610000000000003e+00 5.6834360499026637e+00 3.0031000000001921e+01 0 0 0
601 2 2.4610000000000003e+00 4.2625770374269996e+00 3.0031000000001921e+01 0 0 0
626 2 3.6914999999999996e+00 6.3938655561404980e+00 3.0031000000001921e+01 0 0 0
595 2 1.2305000000000001e+00 7.8147245686161639e+00 3.0031000000001921e+01 0 0 0
624 2 3.6914999999999996e+00 7.8147245686161639e+00 3.0031000000001921e+01 0 0 0
905 2 0.0000000000000000e+00 4.2625770374269996e+00 3.3329867066119490e+01 0 0 0
906 2 1.2305000000000001e+00 4.9730065436648339e+00 3.3329867066119490e+01 0 0 0
914 2 1.2305000000000001e+00 6.3938655561404980e+00 3.3329867066119490e+01 0 0 0
916 2 2.4610000000000003e+00 4.2625770374269996e+00 3.3329867066119490e+01 0 0 0
917 2 3.6914999999999996e+00 4.9730065436648339e+00 3.3329867066119490e+01 0 0 0
929 2 3.6914999999999996e+00 6.3938655561404980e+00 3.3329867066119490e+01 0 0 0
904 2 0.0000000000000000e+00 7.1042950623783341e+00 3.3329867066119490e+01 0 0 0
915 2 2.4610000000000003e+00 7.1042950623783341e+00 3.3329867066119490e+01 0 0 0
628 2 4.9220000000000006e+00 5.6834360499026637e+00 3.0031000000001921e+01 0 0 0
630 2 4.9220000000000006e+00 4.2625770374269978e+00 3.0031000000001921e+01 0 0 0
663 2 6.1524999999999999e+00 6.3938655561404980e+00 3.0031000000001921e+01 0 0 0
665 2 7.3829999999999991e+00 5.6834360499026637e+00 3.0031000000001921e+01 0 0 0
667 2 7.3829999999999991e+00 4.2625770374269996e+00 3.0031000000001921e+01 0 0 0
708 2 8.6135000000000002e+00 6.3938655561404980e+00 3.0031000000001921e+01 0 0 0
661 2 6.1524999999999999e+00 7.8147245686161639e+00 3.0031000000001921e+01 0 0 0
706 2 8.6135000000000002e+00 7.8147245686161639e+00 3.0031000000001921e+01 0 0 0
931 2 4.9220000000000006e+00 4.2625770374269978e+00 3.3329867066119490e+01 0 0 0
932 2 6.1524999999999999e+00 4.9730065436648339e+00 3.3329867066119490e+01 0 0 0
948 2 6.1524999999999999e+00 6.3938655561404980e+00 3.3329867066119490e+01 0 0 0
950 2 7.3829999999999991e+00 4.2625770374269996e+00 3.3329867066119490e+01 0 0 0
951 2 8.6135000000000002e+00 4.9730065436648339e+00 3.3329867066119490e+01 0 0 0
971 2 8.6135000000000002e+00 6.3938655561404980e+00 3.3329867066119490e+01 0 0 0
930 2 4.9220000000000006e+00 7.1042950623783341e+00 3.3329867066119490e+01 0 0 0
949 2 7.3830000000000009e+00 7.1042950623783341e+00 3.3329867066119490e+01 0 0 0
591 2 0.0000000000000000e+00 9.9460130873296642e+00 3.0031000000001921e+01 0 0 0
593 2 0.0000000000000000e+00 8.5251540748539991e+00 3.0031000000001921e+01 0 0 0
620 2 2.4610000000000003e+00 9.9460130873296642e+00 3.0031000000001921e+01 0 0 0
622 2 2.4610000000000003e+00 8.5251540748539991e+00 3.0031000000001921e+01 0 0 0
616 2 1.2305000000000001e+00 1.2077301606043163e+01 3.0031000000001921e+01 0 0 0
618 2 1.2305000000000001e+00 1.0656442593567498e+01 3.0031000000001921e+01 0 0 0
653 2 3.6914999999999996e+00 1.2077301606043163e+01 3.0031000000001921e+01 0 0 0
655 2 3.6914999999999996e+00 1.0656442593567499e+01 3.0031000000001921e+01 0 0 0
912 2 0.0000000000000000e+00 8.5251540748539991e+00 3.3329867066119490e+01 0 0 0
913 2 1.2305000000000001e+00 9.2355835810918343e+00 3.3329867066119490e+01 0 0 0
927 2 2.4610000000000003e+00 8.5251540748539991e+00 3.3329867066119490e+01 0 0 0
928 2 3.6915000000000004e+00 9.2355835810918343e+00 3.3329867066119490e+01 0 0 0
911 2 0.0000000000000000e+00 1.1366872099805333e+01 3.3329867066119490e+01 0 0 0
925 2 1.2305000000000001e+00 1.0656442593567498e+01 3.3329867066119490e+01 0 0 0
926 2 2.4610000000000003e+00 1.1366872099805333e+01 3.3329867066119490e+01 0 0 0
944 2 3.6914999999999996e+00 1.0656442593567499e+01 3.3329867066119490e+01 0 0 0
657 2 4.9220000000000006e+00 9.9460130873296642e+00 3.0031000000001921e+01 0 0 0
659 2 4.9220000000000006e+00 8.5251540748539991e+00 3.0031000000001921e+01 0 0 0
702 2 7.3830000000000009e+00 9.9460130873296642e+00 3.0031000000001921e+01 0 0 0
704 2 7.3830000000000009e+00 8.5251540748539991e+00 3.0031000000001921e+01 0 0 0
698 2 6.1524999999999999e+00 1.2077301606043163e+01 3.0031000000001921e+01 0 0 0
700 2 6.1524999999999999e+00 1.0656442593567499e+01 3.0031000000001921e+01 0 0 0
745 2 8.6135000000000002e+00 1.2077301606043163e+01 3.0031000000001921e+01 0 0 0
747 2 8.6134999999999984e+00 1.0656442593567498e+01 3.0031000000001921e+01 0 0 0
946 2 4.9220000000000006e+00 8.5251540748539991e+00 3.3329867066119490e+01 0 0 0
947 2 6.1524999999999999e+00 9.2355835810918343e+00 3.3329867066119490e+01 0 0 0
969 2 7.3830000000000009e+00 8.5251540748539991e+00 3.3329867066119490e+01 0 0 0
970 2 8.6134999999999984e+00 9.2355835810918343e+00 3.3329867066119490e+01 0 0 0
945 2 4.9220000000000006e+00 1.1366872099805333e+01 3.3329867066119490e+01 0 0 0
967 2 6.1524999999999999e+00 1.0656442593567499e+01 3.3329867066119490e+01 0 0 0
968 2 7.3829999999999991e+00 1.1366872099805333e+01 3.3329867066119490e+01 0 0 0
991 2 8.6134999999999984e+00 1.0656442593567498e+01 3.3329867066119490e+01 0 0 0
1803 1 3.5762333523649743e+00 2.7591736244215470e+00 3.5946839205899295e+01 1 0 0
4935 1 1.4868355132313631e+00 1.2761997803238967e+00 3.5484196960505727e+01 0 2 0
3725 1 8.5000386348946044e+00 2.3266776545758061e+00 3.6199225518077519e+01 -1 -1 0
3019 1 6.0143489824636660e+00 1.4888314769267295e+00 3.5802623098675838e+01 1 -1 0
2957 1 3.8865598213277628e+00 5.5087177171276114e+00 3.6092212414100736e+01 -1 0 0
6395 1 1.2701890645687512e+00 6.7642445985167665e+00 3.5872311683726799e+01 1 0 0
4767 1 6.2836659618333668e+00 6.7211221381578490e+00 3.5953155095795331e+01 1 0 0
2891 1 8.6049797224245825e+00 4.9117452627068436e+00 3.5726386652909795e+01 1 0 -1
4858 1 3.9198260528831130e+00 1.0696880866060184e+01 3.5902984498923203e+01 1 0 -1
3772 1 1.2726118824254022e+00 9.6026775296524214e+00 3.5879921047346414e+01 1 1 0
1543 1 6.2890959927828387e+00 9.5045161985828681e+00 3.6258374638996578e+01 -1 0 -1
1830 1 8.7321937963503373e+00 1.0891201476292466e+01 3.5629957328877175e+01 0 1 -1
1446 1 1.0635417722143512e+00 1.0812620414329388e+00 3.8247135152901961e+01 0 0 0
3495 1 3.2810302240551543e+00 2.4100521142515920e+00 3.8914332231809674e+01 1 1 -1
6359 1 5.9865512816800912e+00 1.3736162874605111e+00 3.8463304357810024e+01 0 1 0
5129 1 8.3279331700018240e+00 2.7079590982831636e+00 3.9267368345527181e+01 0 3 -1
5411 1 3.5142081325414249e+00 5.0962182142020307e+00 3.9030917625582461e+01 1 -1 0
6331 1 1.1230173139763540e+00 6.7934783555912688e+00 3.8956256405105570e+01 1 0 0
2142 1 5.8932683068705840e+00 6.6856596778631934e+00 3.9125726792255513e+01 0 0 0
4564 1 8.3464399629242969e+00 5.3178033085467238e+00 3.8382999260328482e+01 -1 0 0
3215 1 3.0530334547936007e+00 1.0933776334420754e+01 3.8847737697962664e+01 0 0 0
3005 1 8.1718125542430819e-01 9.5007589086009716e+00 3.8653588028809999e+01 0 0 0
4722 1 5.3618127082220042e+00 9.4707719964200319e+00 3.8975576320766663e+01 0 1 -1
1268 1 8.0290528025203596e+00 1.0458103318664476e+01 3.9110603508153709e+01 1 0 0
487 1 4.0104905884006579e+00 2.4711672876482851e+00 4.1784813184038157e+01 -1 1 0
5329 1 1.7101686315529803e+00 3.6568278989711924e+00 4.2794500550877864e+01 1 1 -1
5321 1 8.6103120500640262e+00 2.9009441916330925e+00 4.2034651905785736e+01 2 1 -1
3173 1 6.0972145707272833e+00 3.9737085155568566e+00 4.2682606074473824e+01 0 2 0
3508 1 1.7884049820427315e+00 6.3166950213281430e+00 4.1830891006838861e+01 1 0 -1
6388 1 4.0581230571404454e+00 7.5744322065207790e+00 4.2561484643003880e+01 1 2 -1
3605 1 8.4716842007101683e+00 7.7400407161368276e+00 4.2871526726003182e+01 0 -1 -1
2013 1 6.2721828066157483e+00 6.4803806982002232e+00 4.1642347226899616e+01 1 2 0
5196 1 3.8070184201979251e+00 1.0247334564548941e+01 4.1790150435079596e+01 -1 0 -1
2991 1 1.6647170502121098e+00 1.1471958941101489e+01 4.3074145101669686e+01 2 1 0
153 1 5.8667354290050318e+00 1.1486237112206219e+01 4.3016082480110647e+01 0 0 0
6449 1 8.2031407312553366e+00 1.0294587138551996e+01 4.2035427431599572e+01 0 2 0
1490 1 8.5567129454899824e+00 1.8111400765693550e-01 4.3318047922804062e+01 1 0 0
5125 1 1.7407998543580723e+00 9.0880972611344257e-01 4.6393970417611861e+01 1 1 -1
1733 1 1.7074037754248372e+00 3.4517823894024784e+00 4.5294783605598631e+01 0 0 -1
1791 1 6.2795122254143720e+00 1.2246304290022463e+00 4.6641721471406321e+01 0 2 -1
3777 1 6.1256606284495509e+00 3.7578057795303565e+00 4.5423885082334323e+01 0 0 0
209 1 3.9942011898831611e+00 4.8018531079456110e+00 4.6315795121727128e+01 1 1 -1
4736 1 4.1496744355889632e+00 7.3212165397070983e+00 4.5442126149321304e+01 0 1 0
5314 1 8.5010208529886420e+00 4.7102545383024221e+00 4.6317736100642200e+01 -2 2 0
2864 1 8.7192855642778326e+00 7.5859239484692553e+00 4.5758278887060094e+01 -1 1 0
1667 1 1.9330523378993183e+00 8.6912946312944594e+00 4.6284110341358996e+01 1 0 0
3518 1 1.8442300422367459e+00 1.1325584606735227e+01 4.5765727967264887e+01 2 0 -1
3351 1 6.4367230244105809e+00 8.5554472877461727e+00 4.6439176658779786e+01 -1 0 -1
2199 1 6.6284500345309807e+00 1.1243412864973708e+01 4.5758446151479916e+01 1 1 0
5431 1 1.7036529890049155e+00 1.0539840203967810e+00 4.9117508453551622e+01 -1 0 0
6219 1 4.0602710913939104e+00 2.2599830391760438e+00 4.9904939894350690e+01 0 2 -1
1426 1 6.4015908794401772e+00 1.0025622808214665e+00 4.9393769679254930e+01 0 0 0
1435 1 8.3699014689109088e+00 2.2103585989655969e+00 5.0675568720160499e+01 1 1 0
4637 1 4.2392860403948296e+00 4.9219409404677501e+00 4.9061774213125183e+01 1 1 0
4871 1 1.9724837382459874e+00 6.1794447146185076e+00 4.9826648685549920e+01 1 0 -1
1993 1 8.6502710178215327e+00 4.5414564207315795e+00 4.9135762483770513e+01 1 0 -1
5092 1 6.5160238027075632e+00 5.9813008666746006e+00 5.0292720598098654e+01 1 1 -1
4809 1 1.7513745870857709e+00 8.8282996054158325e+00 4.9087938528637466e+01 1 0 0
5022 1 4.1831348314474353e+00 9.8959961649659611e+00 5.0354433944296957e+01 0 0 0
3274 1 8.6334635299380693e+00 1.0112085830872481e+01 5.0240514138287452e+01 0 0 -1
3335 1 6.4218055009615256e+00 8.6837062512752929e+00 4.9247345087308943e+01 1 1 0
5280 1 1.6238623488434123e+00 3.5826104229536782e+00 5.3661310442023769e+01 2 0 -1
219 1 3.9091642348098024e+00 2.2180176244602530e+00 5.2811786834585405e+01 0 0 0
5071 1 5.9920459601051990e+00 3.3884771512376712e+00 5.4249023878491805e+01 1 2 -1
3117 1 8.2846637256301605e+00 2.2595673801947131e+00 5.3456643319331945e+01 0 0 0
1939 1 1.7038954020577497e+00 6.0110612907680929e+00 5.2760972097484654e+01 0 0 -1
3260 1 4.3987768684857693e+00 7.1886675654424099e+00 5.3754281073838200e+01 2 -1 -1
3261 1 6.4589045090002557e+00 1.1276817901355258e+01 5.6632146431776661e+01 1 0 0
3295 1 8.8439555130778533e+00 7.1005131131817487e+00 5.3697444589490487e+01 0 -1 -1
1507 1 6.6524566831465446e+00 5.8507057190437592e+00 5.2998856077063181e+01 0 1 -1
2980 1 4.3874730441547092e+00 1.0026581128790202e+01 5.2902667929284988e+01 0 1 0
5303 1 1.9424209609727172e+00 1.1203065882493366e+01 5.3696996056342563e+01 -1 1 -1
4765 1 8.8443433935852624e+00 9.7743865370860625e+00 5.2837140068815664e+01 1 -1 0
4970 1 6.6758106438338780e+00 1.1261342640311167e+01 5.3685068461668514e+01 1 0 0
3292 1 4.0196416814808087e+00 1.6863893329101762e+00 5.7649834902680283e+01 0 1 -1
4910 1 1.8141932419268869e+00 2.9577909993401730e+00 5.6630724838423035e+01 0 -1 -1
4804 1 8.6471756282323629e+00 1.9354011231927817e+00 5.7499803219847450e+01 1 2 0
3747 1 6.1818533665193520e+00 3.1561301433058224e+00 5.6994092021661338e+01 0 -1 0
3579 1 1.7619000472985809e+00 5.7695197463398911e+00 5.7721993894826511e+01 2 -1 -1
1815 1 4.0182893430072797e+00 7.1449800882828542e+00 5.6527480574474623e+01 2 1 -1
5307 1 8.5506370872635689e+00 7.2475408612372618e+00 5.6493432435834066e+01 1 1 -1
3138 1 6.0656312822922276e+00 5.8797633519734562e+00 5.7343388095457378e+01 0 1 0
2940 1 2.0613990960557627e+00 1.1239906930955410e+01 5.6530468503662320e+01 0 1 -1
1576 1 4.3307870122922711e+00 9.7369896132317102e+00 5.7329268359219121e+01 0 1 -1
3674 1 8.5817182859281953e+00 1.0002008064955985e+01 5.7468868677214893e+01 0 0 -1
4493 1 2.0349745907209318e+00 1.3590680760051987e+01 1.9159409922004789e+00 2 0 1
3458 1 4.1404242649322756e+00 1.5078762792965698e+01 3.0338499693003995e+00 -1 0 0
1883 1 6.4102843618768643e+00 1.3897798564638011e+01 2.0175850781851024e+00 2 0 0
328 1 8.6933427225408657e+00 1.4947527387012718e+01 3.1622268812177330e+00 0 -1 0
2971 1 4.2656291400751440e+00 1.7626813219003733e+01 2.0495570026959453e+00 -1 -1 1
1967 1 1.8882595374433089e+00 1.8601683501410172e+01 2.9813786548424046e+00 1 -1 0
6252 1 8.7790665977084803e+00 1.7484656356803082e+01 1.9357928205873716e+00 1 3 1
2073 1 6.6104922691365413e+00 1.8972009436660962e+01 3.0388677475588088e+00 -2 0 1
2952 1 1.8814586199500787e+00 2.1227359603664372e+01 2.2256194864994576e+00 -1 -1 1
4921 1 4.1774163863894822e+00 2.2561215366747096e+01 3.0229721310921054e+00 0 1 0
1388 1 8.5230685881393331e+00 2.2377200109404946e+01 2.8645939386938961e+00 0 1 0
6448 1 6.2768156342266144e+00 2.1352337124806958e+01 1.9036841650627558e+00 1 -1 0
6277 1 4.0160850230558545e+00 1.4745576576494765e+01 5.7161681288103106e+00 1 0 0
70 1 1.6535067793750899e+00 1.6031978112173920e+01 6.4746900437752863e+00 2 1 0
4951 1 8.6286661372764328e+00 1.4954175327934376e+01 5.9231072171465096e+00 1 -2 0
4954 1 6.2386317544452812e+00 1.5961573621297758e+01 6.5918188882725284e+00 0 -2 1
6457 1 8.4611041208836539e+00 2.2358775045702316e+01 5.4541612083562754e+00 1 0 0
3428 1 1.8633347116794043e+00 1.8561323357398667e+01 5.6690189582642070e+00 1 -1 0
3312 1 3.8656896643804521e+00 2.0093275990713224e+01 6.6076846124264748e+00 0 1 0
1863 1 6.0156844552469089e+00 1.8762113959633574e+01 5.8351404995649458e+00 -1 1 0
1810 1 8.1789564463577271e+00 2.0027310884336266e+01 6.8506220193588634e+00 1 -1 0
3751 1 1.8102899758583775e+00 2.3966566313285117e+01 6.6615815155005098e+00 2 1 1
3239 1 4.0026986328822458e+00 2.2624221714823179e+01 5.7096844773961353e+00 1 -1 0
4519 1 6.3859861727486891e+00 2.3762525015738028e+01 6.6547059953248198e+00 1 -1 1
3271 1 1.9693688946352357e+00 1.3612842113494004e+01 1.0288761818096228e+01 1 -1 1
55 1 6.5474010198455215e+00 1.3739131258000461e+01 1.0125586604372439e+01 -1 0 0
1635 1 6.6783254564136509e+00 1.6409600129235120e+01 9.4347705820257293e+00 0 0 1
6178 1 1.9699868460074661e+00 1.6064275437324874e+01 9.4038716002688698e+00 1 1 1
4604 1 4.3675648301831247e+00 1.7510459224135108e+01 9.8734635564706359e+00 0 0 1
3221 1 4.1343463424017877e+00 2.0057447171398351e+01 9.4958929457011791e+00 1 0 0
213 1 8.8265805410520155e+00 1.7640180742522009e+01 1.0402968900425087e+01 1 -1 0
3379 1 8.7283624707099037e+00 2.0075453088400433e+01 9.3011345634528944e+00 1 1 0
5323 1 1.6260070682527765e+00 2.1332451887131839e+01 1.0321924496827103e+01 1 0 0
3187 1 1.6129994852729452e+00 2.4112812796963343e+01 9.4803465253699972e+00 1 0 1
2911 1 6.3298227151646191e+00 2.1327580949895101e+01 1.0329414780018483e+01 0 1 1
1319 1 2.0123396983932813e+00 2.3984890283967196e+01 1.3813489432267522e+01 0 0 1
2152 1 2.0116434836762482e+00 1.3682432417430604e+01 1.3016255748949124e+01 1 -1 0
334 1 1.7579209631087016e+00 1.6283899094231270e+01 1.3659571431673635e+01 1 -1 0
77 1 6.3366701283290032e+00 1.3699089207362444e+01 1.3086381721984297e+01 1 1 0
5073 1 6.0289613946545364e+00 1.6215858982970285e+01 1.4106423588081277e+01 1 1 0
1282 1 4.0144876937874194e+00 1.7317664501158102e+01 1.2715885579034996e+01 1 0 1
3603 1 3.8708602004267152e+00 2.0044853870131618e+01 1.3748026394648919e+01 2 1 0
4537 1 8.5527244865344798e+00 2.0376402158040424e+01 1.4088034491265946e+01 1 1 1
5064 1 8.5218100180715162e+00 1.7515408926064371e+01 1.3172137117410379e+01 1 2 0
1711 1 6.5251018119337543e+00 2.3922641687395167e+01 9.3738440666480347e+00 1 -1 0
6194 1 1.7921266012695096e+00 2.1510426019203415e+01 1.2864321774489277e+01 1 -2 1