LAMMPS data file via write_data, version 16 Mar 2018, timestep = 100000

6489 atoms
2 atom types

0.0000000000000000e+00 4.9219999999999999e+01 xlo xhi
0.0000000000000000e+00 4.9019635930410494e+01 ylo yhi
1.9117423455153464e+00 5.8150257654484541e+01 zlo zhi

Masses

1 18.015
2 12.01

Atoms # atomic

6311 1 2.0013361443164626e+00 3.3290051448005462e+00 5.0382170708520988e+00 1 -1 0
531 1 4.3082250492000620e+00 1.7674792995666802e+00 5.1661718335263345e+00 -1 0 1
1679 1 6.5859304883111385e+00 2.8185877626068172e+00 3.6927142677431881e+00 1 1 0
5307 1 9.2629274866170555e+00 3.3190397615421849e+00 4.9931370714738668e+00 1 1 0
3594 1 7.5544524781013109e+00 2.0446788621601508e-01 3.0810608251218552e+00 -1 0 0
4739 1 6.3712075754510771e+00 1.1832510665959337e+01 6.0243041414144329e+00 1 1 0
207 1 5.6778898614394917e+00 6.7953624573549485e+00 3.3931618735528053e+00 1 1 0
65 1 2.2512636882842085e+00 7.4417535109024699e+00 3.8580581851843694e+00 1 0 0
1929 1 6.1598340692697446e+00 5.4050214475214160e+00 7.9347668927718056e+00 0 0 0
80 1 8.7092796995710415e+00 9.3825448590402960e+00 7.3497024686057806e+00 1 1 0
1651 1 8.5398984472735850e-01 1.6944918582363879e+00 7.0072393963345050e+00 0 0 0
233 1 9.4783265810077761e+00 7.4258622822113871e+00 2.4338201976355442e+00 0 1 1
3336 1 6.6925959008267739e+00 1.1557345324082743e+01 8.6266111343340022e+00 0 1 0
13 1 8.0897901177196854e+00 1.0221217743646189e+01 4.6923237117964636e+00 0 1 0
272 1 6.9628005452191788e+00 8.8465581003132936e+00 2.4209113925623087e+00 -1 1 0
3247 1 9.6447025007112046e+00 7.4568816446419008e+00 5.3150516308827038e+00 1 1 0
3417 1 5.1169718369415518e-01 3.1789909608970244e+00 2.7466862815299402e+00 1 0 0
109 1 4.8223703597435765e+00 9.5928573669943624e+00 4.7691621449581945e+00 1 2 1
2903 1 5.4272119139333110e+00 2.5334100376987041e+00 7.6884704718182224e+00 0 0 1
1615 1 8.2365056978999220e+00 1.8336472348454842e+00 7.1088076143157082e+00 -1 0 0
3011 1 1.9787902929722221e+00 1.0475604267425318e+01 5.3526837249563606e+00 0 0 1
1812 1 7.3995016957769755e+00 5.7050258074285987e+00 5.3877902505413111e+00 1 0 0
4585 1 2.0111910554238688e+00 5.7871856528217318e+00 6.3216292195448629e+00 0 1 1
2045 1 4.4343835302466150e+00 7.4032399025547466e+00 6.5244559598168248e+00 1 1 0
5034 1 3.1250953173652700e+00 1.0081685067567681e+01 2.3142215446285626e+00 0 -1 0
1707 1 3.5235786377607217e+00 8.4475756168263381e+00 8.8355810837337252e+00 0 0 0
5033 1 9.7734890213500734e+00 3.4566512900956994e+00 8.7841275022549503e+00 1 -1 0
2012 1 2.1316509341280541e+00 1.0930051264721966e+01 8.2831807173256387e+00 1 0 0
210 1 1.4172123529117435e+00 9.7755930296587454e+00 1.4529282731965241e+01 0 1 0
1297 1 2.2691987824522677e+00 1.3675946068817000e+00 1.1430259227237423e+01 0 1 1
5065 1 6.0533043122617824e+00 3.1135296230292440e+00 1.0612064938335216e+01 1 0 0
5116 1 6.8843894631549380e+00 1.1606664190209745e+01 1.4127299300514180e+01 1 0 1
1369 1 4.1281771368347462e+00 5.9071378050868066e+00 1.2082432772972096e+01 0 1 1
6267 1 5.0215221841204984e+00 1.0507776454425249e+01 1.2440911801610271e+01 0 0 1
5071 1 1.5388509410311746e+00 6.5768056134194888e+00 1.0911518426997208e+01 1 2 0
5012 1 3.1909320220426202e-01 6.9309049069637571e-02 1.5332001281047862e+01 0 1 0
1614 1 7.8495505461706800e+00 7.0283845148853059e+00 9.8142298665933332e+00 0 1 1
6228 1 7.0606137933779003e+00 7.7548715577681797e+00 1.2530367282287038e+01 -1 1 1
1838 1 1.0362661176905714e+00 7.1163050332445641e+00 1.3755374188228865e+01 1 1 0
3222 1 7.2525990984214186e+00 2.1590668152356959e-01 1.4543407843488543e+01 0 1 1
3225 1 6.0513416567217426e+00 9.3666680246624345e+00 1.0033463584094974e+01 1 0 0
353 1 6.4479194009054845e+00 3.5718065125931120e+00 1.4847410803600388e+01 0 2 0
5236 1 4.1891081502557768e+00 3.1318126241871700e+00 1.2714664713484483e+01 1 1 0
194 1 1.9300496301001289e+00 2.8594918919844590e+00 9.2864533388413868e+00 0 1 0
1962 1 2.6185189769250572e+00 1.1812211693175907e+01 1.2358895232270465e+01 0 0 0
3770 1 1.0980567716990313e+00 9.3507740788249745e+00 1.1024008199819519e+01 1 0 1
3309 1 8.1552620478110285e+00 4.6280006760424151e+00 1.1161504230343892e+01 0 0 0
1659 1 4.2158916957121830e+00 8.0382822759034447e+00 1.3673481127639537e+01 0 -1 0
224 1 2.6676307818612495e+00 1.2773632891097206e+00 1.4503642188640466e+01 1 0 1
3542 1 8.2282571217752736e+00 5.4397792226588511e+00 1.3787371934218070e+01 1 0 0
4877 1 9.5523354607614741e-01 5.0523942698320043e+00 1.5730552817176035e+01 1 1 0
424 1 8.7207437919163553e+00 9.5864492968937345e+00 1.3365215753253599e+01 1 0 0
1814 1 6.4038066316439455e+00 7.2606504783979009e-01 1.1778519517813040e+01 0 1 0
2881 1 3.6591555171252428e+00 5.0962071295367588e+00 9.1120007398152545e+00 1 1 1
3657 1 2.7242595528512838e+00 2.9047933126747805e+00 1.6655399157286059e+01 1 1 0
1458 1 8.2379685654352919e+00 2.0409644144765218e+00 1.6696358624356623e+01 0 0 1
3397 1 4.6847624283388916e+00 4.9597786386991327e+00 1.6654794925130052e+01 0 0 1
2078 1 8.7564290575181012e+00 4.7050759669230731e+00 1.7940105612509704e+01 2 1 0
262 1 9.2996520353049061e-01 4.6225383051283711e+00 1.9189825136233345e+01 0 0 0
3533 1 3.5322763443609011e+00 8.2066735846466248e+00 1.8653312006163564e+01 1 1 0
1835 1 3.5344587946183523e+00 1.2154187168825528e+01 1.7767339080040337e+01 1 0 0
1279 1 1.3177094180141260e+00 1.0117552018410883e+01 1.7508775102751535e+01 0 1 1
1956 1 6.4152903406602428e+00 7.6298653278701947e+00 2.2745822547189686e+01 1 1 1
3444 1 8.1517897560916364e+00 1.0122027469961933e+01 1.8756029787917996e+01 1 1 0
442 1 5.1151704989831064e+00 7.8318738676105806e+00 1.6141690411983795e+01 0 0 0
3290 1 2.5677660102577327e+00 1.3639872290750561e+00 1.9276665484478180e+01 0 0 0
5291 1 6.7130516205927639e+00 1.1340804638009491e+01 2.0911848280968815e+01 1 0 0
163 1 2.4248165813990843e+00 8.9546955255291110e+00 2.2068195804065589e+01 0 0 0
1650 1 6.3974828159130661e+00 3.0164414718742019e+00 2.1304428376723774e+01 1 1 1
6183 1 5.9845487884277597e+00 4.9428598252897711e+00 1.9296246492605757e+01 0 1 1
5345 1 9.0151358657857088e+00 1.3838494704876767e+00 2.1281766003636466e+01 1 1 0
3133 1 3.0292645704853554e+00 6.4768569208862745e+00 2.0888636317228578e+01 1 0 1
113 1 3.2109293529244325e+00 3.6567668491423038e+00 2.1541732004982858e+01 1 0 0
3036 1 6.1642119345731636e+00 1.1254036019736482e+01 1.6772549731515433e+01 1 -1 0
61 1 6.4296848577945713e+00 7.7037924363034413e+00 1.9845298296213315e+01 0 0 0
3015 1 4.1450074409741582e+00 1.0517620573063994e+01 2.0214716114659989e+01 0 1 1
1330 1 8.1551793416188811e+00 2.1441017479245492e-01 1.9001280819504778e+01 0 1 1
496 1 5.1181853047773398e+00 5.2118768752685207e-01 2.0436882381665271e+01 1 0 1
1301 1 7.8776454239537825e+00 8.5901725348862570e+00 1.6083154847747419e+01 0 0 1
3600 1 9.5473413233845594e+00 6.3784033681331422e+00 1.6064330060432098e+01 0 0 0
5055 1 4.7020549132251127e-01 7.1776135487861525e+00 1.7834734422116707e+01 1 0 0
1663 1 9.4636643756743890e+00 8.0146289784547768e+00 2.0187256120268959e+01 2 0 0
181 1 8.8459279021073893e+00 5.4388573624802463e+00 2.1295515230321541e+01 1 0 0
660 2 6.1524999999999999e+00 9.2355835810918343e+00 2.6863868974520344e+01 0 0 0
3240 1 2.5864526991087464e+00 5.9433096468554347e-01 2.3695634676024483e+01 1 1 1
1683 1 6.7553287278129650e+00 3.5014668639874218e+00 2.4090403427733328e+01 1 1 1
1806 1 1.9939310071370719e+00 1.1981066605287339e+01 2.3977816079020080e+01 1 -1 0
333 1 1.2858405642503978e+00 6.6587625473998857e+00 2.4401662061036873e+01 1 -1 0
4929 1 3.7565380893808293e+00 8.0976344701101457e+00 2.4254794328428037e+01 0 -1 0
5022 1 4.0316840344055054e+00 2.9878049472211252e+00 2.4316840307847976e+01 1 0 1
6423 1 9.0021156444088248e+00 1.4309747370814636e+00 2.4279198633767212e+01 1 1 1
2005 1 7.9639704525359098e+00 5.7933957600607418e+00 2.3995632506374502e+01 0 0 0
746 2 8.6134999999999984e+00 1.0656442593567498e+01 2.6863868974520344e+01 0 0 0
306 1 7.1168616426019593e+00 1.0246196874172396e+01 2.3503589552280797e+01 1 0 0
4650 1 1.2407358544753184e+00 4.1377515342509819e+00 2.3766617097666956e+01 0 0 1
1688 1 4.5553588097932627e+00 1.1022328792649564e+01 2.4491069576082545e+01 1 1 0
572 2 0.0000000000000000e+00 2.8417180249513345e+00 2.6863868974520344e+01 0 0 0
574 2 0.0000000000000000e+00 0.0000000000000000e+00 2.6863868974520344e+01 0 0 0
576 2 1.2305000000000001e+00 7.1042950623783474e-01 2.6863868974520344e+01 0 0 0
583 2 1.2305000000000001e+00 2.1312885187134998e+00 2.6863868974520344e+01 0 0 0
585 2 2.4610000000000003e+00 2.8417180249513345e+00 2.6863868974520344e+01 0 0 0
587 2 2.4610000000000003e+00 0.0000000000000000e+00 2.6863868974520344e+01 0 0 0
589 2 3.6915000000000004e+00 7.1042950623783474e-01 2.6863868974520344e+01 0 0 0
604 2 3.6914999999999996e+00 2.1312885187134998e+00 2.6863868974520344e+01 0 0 0
606 2 4.9220000000000006e+00 2.8417180249513332e+00 2.6863868974520344e+01 0 0 0
608 2 4.9220000000000006e+00 0.0000000000000000e+00 2.6863868974520344e+01 0 0 0
610 2 6.1524999999999999e+00 7.1042950623783407e-01 2.6863868974520344e+01 0 0 0
633 2 6.1524999999999999e+00 2.1312885187134989e+00 2.6863868974520344e+01 0 0 0
635 2 7.3829999999999991e+00 2.8417180249513345e+00 2.6863868974520344e+01 0 0 0
637 2 7.3829999999999991e+00 0.0000000000000000e+00 2.6863868974520344e+01 0 0 0
639 2 8.6134999999999984e+00 7.1042950623783407e-01 2.6863868974520344e+01 0 0 0
670 2 8.6134999999999984e+00 2.1312885187135002e+00 2.6863868974520344e+01 0 0 0
579 2 0.0000000000000000e+00 4.2625770374269996e+00 2.6863868974520344e+01 0 0 0
581 2 1.2305000000000001e+00 4.9730065436648339e+00 2.6863868974520344e+01 0 0 0
596 2 1.2305000000000001e+00 6.3938655561404980e+00 2.6863868974520344e+01 0 0 0
600 2 2.4610000000000003e+00 4.2625770374269996e+00 2.6863868974520344e+01 0 0 0
602 2 3.6914999999999996e+00 4.9730065436648339e+00 2.6863868974520344e+01 0 0 0
625 2 3.6914999999999996e+00 6.3938655561404980e+00 2.6863868974520344e+01 0 0 0
577 2 0.0000000000000000e+00 7.1042950623783341e+00 2.6863868974520344e+01 0 0 0
598 2 2.4610000000000003e+00 7.1042950623783341e+00 2.6863868974520344e+01 0 0 0
629 2 4.9220000000000006e+00 4.2625770374269978e+00 2.6863868974520344e+01 0 0 0
631 2 6.1524999999999999e+00 4.9730065436648339e+00 2.6863868974520344e+01 0 0 0
662 2 6.1524999999999999e+00 6.3938655561404980e+00 2.6863868974520344e+01 0 0 0
666 2 7.3829999999999991e+00 4.2625770374269996e+00 2.6863868974520344e+01 0 0 0
668 2 8.6135000000000002e+00 4.9730065436648339e+00 2.6863868974520344e+01 0 0 0
707 2 8.6135000000000002e+00 6.3938655561404980e+00 2.6863868974520344e+01 0 0 0
627 2 4.9220000000000006e+00 7.1042950623783341e+00 2.6863868974520344e+01 0 0 0
664 2 7.3830000000000009e+00 7.1042950623783341e+00 2.6863868974520344e+01 0 0 0
592 2 0.0000000000000000e+00 8.5251540748539991e+00 2.6863868974520344e+01 0 0 0
594 2 1.2305000000000001e+00 9.2355835810918343e+00 2.6863868974520344e+01 0 0 0
621 2 2.4610000000000003e+00 8.5251540748539991e+00 2.6863868974520344e+01 0 0 0
623 2 3.6915000000000004e+00 9.2355835810918343e+00 2.6863868974520344e+01 0 0 0
590 2 0.0000000000000000e+00 1.1366872099805333e+01 2.6863868974520344e+01 0 0 0
617 2 1.2305000000000001e+00 1.0656442593567498e+01 2.6863868974520344e+01 0 0 0
619 2 2.4610000000000003e+00 1.1366872099805333e+01 2.6863868974520344e+01 0 0 0
654 2 3.6914999999999996e+00 1.0656442593567499e+01 2.6863868974520344e+01 0 0 0
656 2 4.9220000000000006e+00 1.1366872099805333e+01 2.6863868974520344e+01 0 0 0
703 2 7.3830000000000009e+00 8.5251540748539991e+00 2.6863868974520344e+01 0 0 0
658 2 4.9220000000000006e+00 8.5251540748539991e+00 2.6863868974520344e+01 0 0 0
705 2 8.6134999999999984e+00 9.2355835810918343e+00 2.6863868974520344e+01 0 0 0
699 2 6.1524999999999999e+00 1.0656442593567499e+01 2.6863868974520344e+01 0 0 0
701 2 7.3829999999999991e+00 1.1366872099805333e+01 2.6863868974520344e+01 0 0 0
573 2 0.0000000000000000e+00 1.4208590124756650e+00 3.0031000000000290e+01 0 0 0
575 2 0.0000000000000000e+00 0.0000000000000000e+00 3.0031000000000290e+01 0 0 0
584 2 1.2305000000000001e+00 2.1312885187134998e+00 3.0031000000000290e+01 0 0 0
586 2 2.4610000000000003e+00 1.4208590124756650e+00 3.0031000000000290e+01 0 0 0
588 2 2.4610000000000003e+00 0.0000000000000000e+00 3.0031000000000290e+01 0 0 0
605 2 3.6914999999999996e+00 2.1312885187134998e+00 3.0031000000000290e+01 0 0 0
582 2 1.2305000000000001e+00 3.5521475311891644e+00 3.0031000000000290e+01 0 0 0
603 2 3.6914999999999996e+00 3.5521475311891644e+00 3.0031000000000290e+01 0 0 0
901 2 0.0000000000000000e+00 2.8417180249513345e+00 3.3198131025476670e+01 0 0 0
902 2 0.0000000000000000e+00 0.0000000000000000e+00 3.3198131025476670e+01 0 0 0
903 2 1.2305000000000001e+00 7.1042950623783474e-01 3.3198131025476670e+01 0 0 0
907 2 1.2305000000000001e+00 2.1312885187134998e+00 3.3198131025476670e+01 0 0 0
908 2 2.4610000000000003e+00 2.8417180249513345e+00 3.3198131025476670e+01 0 0 0
909 2 2.4610000000000003e+00 0.0000000000000000e+00 3.3198131025476670e+01 0 0 0
910 2 3.6915000000000004e+00 7.1042950623783474e-01 3.3198131025476670e+01 0 0 0
918 2 3.6914999999999996e+00 2.1312885187134998e+00 3.3198131025476670e+01 0 0 0
607 2 4.9220000000000006e+00 1.4208590124756650e+00 3.0031000000000290e+01 0 0 0
609 2 4.9220000000000006e+00 0.0000000000000000e+00 3.0031000000000290e+01 0 0 0
634 2 6.1524999999999999e+00 2.1312885187134989e+00 3.0031000000000290e+01 0 0 0
636 2 7.3829999999999991e+00 1.4208590124756659e+00 3.0031000000000290e+01 0 0 0
638 2 7.3829999999999991e+00 0.0000000000000000e+00 3.0031000000000290e+01 0 0 0
671 2 8.6134999999999984e+00 2.1312885187135002e+00 3.0031000000000290e+01 0 0 0
632 2 6.1524999999999999e+00 3.5521475311891644e+00 3.0031000000000290e+01 0 0 0
669 2 8.6134999999999984e+00 3.5521475311891657e+00 3.0031000000000290e+01 0 0 0
919 2 4.9220000000000006e+00 2.8417180249513332e+00 3.3198131025476670e+01 0 0 0
920 2 4.9220000000000006e+00 0.0000000000000000e+00 3.3198131025476670e+01 0 0 0
921 2 6.1524999999999999e+00 7.1042950623783407e-01 3.3198131025476670e+01 0 0 0
933 2 6.1524999999999999e+00 2.1312885187134989e+00 3.3198131025476670e+01 0 0 0
934 2 7.3829999999999991e+00 2.8417180249513345e+00 3.3198131025476670e+01 0 0 0
935 2 7.3829999999999991e+00 0.0000000000000000e+00 3.3198131025476670e+01 0 0 0
936 2 8.6134999999999984e+00 7.1042950623783407e-01 3.3198131025476670e+01 0 0 0
952 2 8.6134999999999984e+00 2.1312885187135002e+00 3.3198131025476670e+01 0 0 0
578 2 0.0000000000000000e+00 5.6834360499026637e+00 3.0031000000000290e+01 0 0 0
580 2 0.0000000000000000e+00 4.2625770374269996e+00 3.0031000000000290e+01 0 0 0
597 2 1.2305000000000001e+00 6.3938655561404980e+00 3.0031000000000290e+01 0 0 0
599 2 2.4610000000000003e+00 5.6834360499026637e+00 3.0031000000000290e+01 0 0 0
601 2 2.4610000000000003e+00 4.2625770374269996e+00 3.0031000000000290e+01 0 0 0
626 2 3.6914999999999996e+00 6.3938655561404980e+00 3.0031000000000290e+01 0 0 0
595 2 1.2305000000000001e+00 7.8147245686161639e+00 3.0031000000000290e+01 0 0 0
624 2 3.6914999999999996e+00 7.8147245686161639e+00 3.0031000000000290e+01 0 0 0
905 2 0.0000000000000000e+00 4.2625770374269996e+00 3.3198131025476670e+01 0 0 0
906 2 1.2305000000000001e+00 4.9730065436648339e+00 3.3198131025476670e+01 0 0 0
914 2 1.2305000000000001e+00 6.3938655561404980e+00 3.3198131025476670e+01 0 0 0
916 2 2.4610000000000003e+00 4.2625770374269996e+00 3.3198131025476670e+01 0 0 0
917 2 3.6914999999999996e+00 4.9730065436648339e+00 3.3198131025476670e+01 0 0 0
929 2 3.6914999999999996e+00 6.3938655561404980e+00 3.3198131025476670e+01 0 0 0
904 2 0.0000000000000000e+00 7.1042950623783341e+00 3.3198131025476670e+01 0 0 0
915 2 2.4610000000000003e+00 7.1042950623783341e+00 3.3198131025476670e+01 0 0 0
628 2 4.9220000000000006e+00 5.6834360499026637e+00 3.0031000000000290e+01 0 0 0
630 2 4.9220000000000006e+00 4.2625770374269978e+00 3.0031000000000290e+01 0 0 0
663 2 6.1524999999999999e+00 6.3938655561404980e+00 3.0031000000000290e+01 0 0 0
665 2 7.3829999999999991e+00 5.6834360499026637e+00 3.0031000000000290e+01 0 0 0
667 2 7.3829999999999991e+00 4.2625770374269996e+00 3.0031000000000290e+01 0 0 0
708 2 8.6135000000000002e+00 6.3938655561404980e+00 3.0031000000000290e+01 0 0 0
661 2 6.1524999999999999e+00 7.8147245686161639e+00 3.0031000000000290e+01 0 0 0
706 2 8.6135000000000002e+00 7.8147245686161639e+00 3.0031000000000290e+01 0 0 0
931 2 4.9220000000000006e+00 4.2625770374269978e+00 3.3198131025476670e+01 0 0 0
932 2 6.1524999999999999e+00 4.9730065436648339e+00 3.3198131025476670e+01 0 0 0
948 2 6.1524999999999999e+00 6.3938655561404980e+00 3.3198131025476670e+01 0 0 0
950 2 7.3829999999999991e+00 4.2625770374269996e+00 3.3198131025476670e+01 0 0 0
951 2 8.6135000000000002e+00 4.9730065436648339e+00 3.3198131025476670e+01 0 0 0
971 2 8.6135000000000002e+00 6.3938655561404980e+00 3.3198131025476670e+01 0 0 0
930 2 4.9220000000000006e+00 7.1042950623783341e+00 3.3198131025476670e+01 0 0 0
949 2 7.3830000000000009e+00 7.1042950623783341e+00 3.3198131025476670e+01 0 0 0
591 2 0.0000000000000000e+00 9.9460130873296642e+00 3.0031000000000290e+01 0 0 0
593 2 0.0000000000000000e+00 8.5251540748539991e+00 3.0031000000000290e+01 0 0 0
620 2 2.4610000000000003e+00 9.9460130873296642e+00 3.0031000000000290e+01 0 0 0
622 2 2.4610000000000003e+00 8.5251540748539991e+00 3.0031000000000290e+01 0 0 0
616 2 1.2305000000000001e+00 1.2077301606043163e+01 3.0031000000000290e+01 0 0 0
618 2 1.2305000000000001e+00 1.0656442593567498e+01 3.0031000000000290e+01 0 0 0
653 2 3.6914999999999996e+00 1.2077301606043163e+01 3.0031000000000290e+01 0 0 0
655 2 3.6914999999999996e+00 1.0656442593567499e+01 3.0031000000000290e+01 0 0 0
912 2 0.0000000000000000e+00 8.5251540748539991e+00 3.3198131025476670e+01 0 0 0
913 2 1.2305000000000001e+00 9.2355835810918343e+00 3.3198131025476670e+01 0 0 0
927 2 2.4610000000000003e+00 8.5251540748539991e+00 3.3198131025476670e+01 0 0 0
928 2 3.6915000000000004e+00 9.2355835810918343e+00 3.3198131025476670e+01 0 0 0
911 2 0.0000000000000000e+00 1.1366872099805333e+01 3.3198131025476670e+01 0 0 0
925 2 1.2305000000000001e+00 1.0656442593567498e+01 3.3198131025476670e+01 0 0 0
926 2 2.4610000000000003e+00 1.1366872099805333e+01 3.3198131025476670e+01 0 0 0
944 2 3.6914999999999996e+00 1.0656442593567499e+01 3.3198131025476670e+01 0 0 0
657 2 4.9220000000000006e+00 9.9460130873296642e+00 3.0031000000000290e+01 0 0 0
659 2 4.9220000000000006e+00 8.5251540748539991e+00 3.0031000000000290e+01 0 0 0
702 2 7.3830000000000009e+00 9.9460130873296642e+00 3.0031000000000290e+01 0 0 0
704 2 7.3830000000000009e+00 8.5251540748539991e+00 3.0031000000000290e+01 0 0 0
698 2 6.1524999999999999e+00 1.2077301606043163e+01 3.0031000000000290e+01 0 0 0
700 2 6.1524999999999999e+00 1.0656442593567499e+01 3.0031000000000290e+01 0 0 0
745 2 8.6135000000000002e+00 1.2077301606043163e+01 3.0031000000000290e+01 0 0 0
747 2 8.6134999999999984e+00 1.0656442593567498e+01 3.0031000000000290e+01 0 0 0
946 2 4.9220000000000006e+00 8.5251540748539991e+00 3.3198131025476670e+01 0 0 0
947 2 6.1524999999999999e+00 9.2355835810918343e+00 3.3198131025476670e+01 0 0 0
969 2 7.3830000000000009e+00 8.5251540748539991e+00 3.3198131025476670e+01 0 0 0
970 2 8.6134999999999984e+00 9.2355835810918343e+00 3.3198131025476670e+01 0 0 0
945 2 4.9220000000000006e+00 1.1366872099805333e+01 3.3198131025476670e+01 0 0 0
967 2 6.1524999999999999e+00 1.0656442593567499e+01 3.3198131025476670e+01 0 0 0
968 2 7.3829999999999991e+00 1.1366872099805333e+01 3.3198131025476670e+01 0 0 0
991 2 8.6134999999999984e+00 1.0656442593567498e+01 3.3198131025476670e+01 0 0 0
1490 1 4.1182711516167370e+00 1.0262193626714706e+00 3.5757779965631087e+01 0 0 0
1629 1 1.7661025509613968e+00 2.4019432408213737e+00 3.6273381541198603e+01 1 1 0
2912 1 8.1770242777546827e+00 7.7239204037573854e+00 3.6431906044098469e+01 0 1 -1
1389 1 9.0876529080550785e+00 1.7436951806820749e+00 3.5861892573841629e+01 0 1 -1
6380 1 3.4378972854211272e+00 6.4610535092283596e+00 3.5542249487473583e+01 0 1 0
6180 1 5.0213993859728703e+00 3.8659613804045732e+00 3.5764823438521191e+01 0 1 0
3287 1 2.8576264001512963e+00 1.0958041086738096e+01 3.5531497853685423e+01 1 0 -1
5406 1 5.4380634019259313e+00 8.3969059135027102e+00 3.6463438808339987e+01 0 1 0
16 1 7.9193099862379421e+00 4.5808118257620976e+00 3.6304851894845996e+01 0 0 0
2180 1 1.4154296610977029e+00 8.6062590147475451e+00 3.5607350008095636e+01 0 1 -1
3785 1 5.9353246263808108e+00 1.1076406833418389e+01 3.5602955803390230e+01 1 0 0
6401 1 7.8735686416416673e-01 5.1832897846268118e+00 3.5536359279850629e+01 1 0 -1
6314 1 2.4542796337768422e+00 2.8345462418040901e+00 3.8743116177702035e+01 1 0 0
379 1 4.8669534437641726e+00 4.1095425228585869e+00 3.8500840855987988e+01 0 1 -1
4631 1 6.1328636828365655e+00 1.1524090376293930e+00 3.8144186341208638e+01 1 0 -1
6386 1 8.9980636043231783e+00 1.6472358231724129e+00 3.8697273462809207e+01 0 1 -1
5387 1 9.2403751095285376e+00 1.0214003773970456e+01 3.9647736311063809e+01 -2 1 -1
1452 1 3.1530812499661574e+00 7.8019210797759468e+00 3.9878274460781483e+01 1 1 0
4668 1 1.2411351941730460e+00 6.8698883688462500e+00 3.8114990489422127e+01 0 1 0
4582 1 5.3989110969317329e+00 6.8480219641628599e+00 3.8687395170751259e+01 -1 1 0
5125 1 8.6519245899720758e+00 9.6600670191032147e+00 4.3674877327738983e+01 0 0 -1
4669 1 8.0067772911608710e+00 4.1847948505001531e+00 3.9532752374304550e+01 0 0 0
1260 1 8.4785074399112510e+00 7.0428901020664387e+00 3.9036130942829303e+01 1 1 0
6339 1 2.3122582917862395e+00 9.4162738127450023e+00 4.3125605439591183e+01 1 0 -1
6368 1 1.7207167237093381e+00 1.5807714181687458e+00 4.3104825022690463e+01 0 0 0
3755 1 6.6280270892522897e-01 4.6426903338086305e+00 3.9801248405733361e+01 0 0 0
3515 1 4.3822945937129772e-02 1.1241727556776832e+01 4.2156429566438419e+01 1 0 -1
4588 1 3.8711779610371644e+00 1.0530806060196312e+01 3.8527492857236709e+01 1 1 0
1303 1 5.6393931766819283e-01 4.1412997953784769e+00 4.2448064045127850e+01 1 0 0
1290 1 4.5042868355355683e+00 1.2829466076384557e+00 4.2042093236722096e+01 -1 0 0
6392 1 5.8975814013593206e+00 7.5574944343138828e+00 4.3778304887323898e+01 0 1 0
5006 1 7.0073704230921319e+00 8.6391084420590065e+00 4.1190438290187387e+01 1 1 -1
2948 1 6.2585139683748263e+00 3.6350964356234141e+00 4.2019460035151809e+01 0 0 -1
3063 1 3.9550402133727345e+00 5.2304287399621541e-01 3.9533301352613805e+01 0 1 -1
358 1 4.7009958508218483e+00 1.0073553017176852e+01 4.1334279007534846e+01 0 -1 -1
2879 1 2.2271036319146043e+00 6.7149543696215259e+00 4.2403394633711287e+01 0 1 0
3035 1 4.4003177106841989e+00 5.2413665739593958e+00 4.3299989541717480e+01 0 0 0
1686 1 1.2521425906421060e+00 6.3973500897361646e-02 4.0621247603310749e+01 0 2 0
1552 1 7.9988163355661213e+00 3.2948191084592566e+00 4.4023492879048518e+01 0 0 0
4920 1 6.4532445332344857e+00 1.1336219410370354e+01 4.4446827325352785e+01 1 1 -1
6438 1 8.8254254117414863e+00 7.9470798340515802e+00 4.5910414773622549e+01 0 0 0
96 1 6.2236945135673425e+00 8.6613310807652084e+00 4.8557773554924822e+01 0 0 -1
376 1 4.0595715367273172e-01 2.3438944242680142e+00 4.6471501884084773e+01 2 1 -1
195 1 3.1932975265397103e+00 3.3900368963629677e+00 4.5050968906925903e+01 1 1 -1
3209 1 4.3504761272107970e+00 9.3969890898980495e+00 4.5015838300870143e+01 -1 1 0
6164 1 3.1049093208409646e+00 5.2625762184432077e+00 4.7412932909970792e+01 1 1 0
6426 1 1.8263619121750121e+00 9.8728754780168817e+00 4.8238672645660429e+01 0 1 -1
6444 1 7.2311479632924591e+00 5.7530792239196904e+00 4.5549288032898119e+01 -1 0 -1
1348 1 5.7635312710539690e+00 4.9060683920150172e+00 4.7999232886720250e+01 0 0 0
2864 1 3.9980166488685858e+00 6.5925170542566247e-01 4.5526678288738594e+01 -1 1 0
3000 1 8.2508981532834846e-01 1.0579916539104628e+01 4.5460024669899354e+01 1 1 0
4791 1 6.9910852660673104e+00 2.1967825133515766e+00 4.8560012515456393e+01 0 1 0
1794 1 8.2597532058522152e+00 1.0847146080481263e+01 4.6822976099604517e+01 1 1 -1
4522 1 1.3244543066250005e+00 1.9224569890547114e+00 4.8730590910623420e+01 0 1 0
1745 1 4.1992284400224138e+00 1.1719323105761570e+00 4.8448824875737643e+01 0 2 -1
477 1 9.4539711711957626e+00 1.1253657744792756e+01 4.9869315037924338e+01 0 0 -1
2941 1 2.7692386866388353e-02 5.0342984951297947e+00 4.6701053413634071e+01 0 0 0
570 1 3.1253532421017263e+00 1.1742710796264371e+01 4.9517659527727616e+01 0 1 0
4794 1 3.7432993966456372e+00 8.3131067371625118e+00 4.7305550581880169e+01 1 1 -1
1654 1 1.1875436949836722e+00 4.4091145481151459e+00 4.9949074769326970e+01 0 1 -1
4812 1 5.6289213567869973e+00 1.1624837345662973e+01 4.7952944915323584e+01 0 1 0
6439 1 8.9491521796411888e+00 7.9873937661978820e+00 4.8824447195588533e+01 1 1 -1
368 1 5.6470944174169295e+00 5.6998719789569652e+00 5.0637429927025948e+01 0 0 -1
5398 1 6.6321379944718890e+00 8.3511685122058665e-01 4.4770799743510807e+01 0 0 0
2877 1 5.1600692592759657e-02 1.1723909767019336e-01 4.4718580353104528e+01 0 1 0
3371 1 9.7720875278404886e+00 3.0290683230644353e+00 4.6951271404650157e+01 -1 1 0
2214 1 9.7912837559401940e+00 6.1464724530309187e+00 5.0518689229953850e+01 0 1 0
1329 1 4.9635916429756923e+00 2.4772493401358639e-01 5.7905998652179704e+01 0 0 0
285 1 3.1357840356359232e+00 5.2815821474744729e+00 5.1965645267927428e+01 0 2 -1
4922 1 8.3237816424169075e+00 1.5116904078646007e+00 5.4641192725118557e+01 0 1 0
5438 1 3.3208887890773089e+00 7.6307311077709477e+00 5.3462082404580116e+01 0 0 0
3767 1 4.4765273957837864e-01 7.4200147123803379e+00 5.4338956057510003e+01 0 0 -1
3299 1 3.5478910518995312e+00 2.8493385251995198e+00 5.3108135970063074e+01 0 1 -1
3500 1 3.5135087387297725e-01 1.1104851475032445e+01 5.6837743534446744e+01 1 0 -1
1699 1 3.6627296828934863e+00 1.0089868370124384e+01 5.2094246413154792e+01 0 1 -1
1405 1 7.9235398278975655e+00 5.0202087069419141e+00 5.2388602308062602e+01 -1 1 0
2053 1 4.6221767963441902e+00 7.1677854806203705e+00 5.5505708623088154e+01 1 0 -1
5162 1 1.9480351946648651e+00 7.3300963592627777e-02 5.1668576183463699e+01 1 1 -1
161 1 1.2073506299369168e+00 2.2972909088265996e+00 5.4289752072708737e+01 0 0 0
1778 1 4.4229433131833700e+00 2.9204093185116013e+00 5.6962955787410579e+01 1 0 0
6226 1 5.8255287138927381e+00 3.2870951290277781e+00 5.4697010826475989e+01 0 0 -1
3267 1 5.8845244545696920e+00 8.4805523429751890e+00 5.1393627490660961e+01 1 0 0
4754 1 7.9166553706771357e+00 8.3023946754020415e+00 5.3275908497376193e+01 0 0 0
2111 1 1.6769785719082346e+00 3.9824837262345847e+00 5.6553826206976453e+01 1 -1 0
6134 1 6.8780978786003706e+00 5.8026387943284075e+00 5.4883506282961207e+01 0 1 0
2866 1 4.5572958747634242e+00 9.9395781044109344e-01 5.1340226870039018e+01 0 1 0
3054 1 5.1840440006867432e+00 9.5814355887593141e+00 5.6763240592605797e+01 0 0 0
3409 1 9.0724084721024578e+00 1.2922190390510344e+00 5.7246062350901269e+01 1 0 -1
3714 1 2.7080627709514027e+00 6.3736453380356792e+00 5.7371132662476242e+01 0 0 0
1588 1 5.2364969223436275e-01 8.3153710806031373e+00 5.7205708993465279e+01 1 0 0
5216 1 5.9487892334032799e-01 1.0354049307506058e+01 5.4188404637114274e+01 1 0 -1
1730 1 6.7800240528010676e+00 1.0802484453793840e+01 5.5028885678319185e+01 0 1 0
4525 1 6.4192457341723221e+00 4.8445387782513016e+00 5.7847650220577947e+01 0 1 0
3436 1 5.4457793588096628e+00 1.1889942468256304e+01 5.3110762434034200e+01 2 -1 -1
7 1 9.2016846527969953e+00 3.9535478410181502e+00 5.8030713692527868e+01 0 0 0
4996 1 7.4722999100713370e+00 2.5604575149206021e+00 5.1563594742698385e+01 1 1 0
2157 1 5.2082187296221605e-02 8.0071177436765256e-02 5.6471279340131318e+01 1 2 0
1489 1 3.1641522668911461e+00 1.4778317839841897e+01 5.7410403012661195e+00 0 1 1
6105 1 8.2919689296414845e+00 2.0574113582373553e+01 2.3864692770494100e+00 -1 0 1
4893 1 9.0530035826205868e+00 1.4910151038064637e+01 6.7588098545822897e+00 1 0 0
6300 1 7.6738503726812690e-01 2.3968637183312133e+01 2.8885249687411969e+00 1 0 1
3684 1 9.6452229548638151e+00 2.1887836990556217e+01 4.5634168703720430e+00 0 0 1
3545 1 5.1051804142149706e+00 1.5752072808043899e+01 3.9691703401892413e+00 1 0 0
5004 1 2.3266632779659893e+00 1.2937489068812178e+01 4.2422255110460858e+00 1 0 1
5232 1 5.1951571839683632e+00 1.9995245891097511e+01 3.3777147342944494e+00 1 -1 0
3694 1 2.5626530563382044e+00 1.9403554885408433e+01 3.8703649752532954e+00 1 0 0
5093 1 3.0749362158227500e-01 2.2484668745455263e+01 5.4800345544800653e+00 -1 0 1
5028 1 6.1321835282782766e+00 1.7986872843377281e+01 4.9680522647968601e+00 0 -1 1
6296 1 2.9676939993499736e+00 2.2909620554710294e+01 6.3785649871982129e+00 1 1 1
3173 1 5.1794429713363925e+00 2.2898534610330625e+01 4.6256466630418700e+00 0 1 1
3280 1 7.7105989385584941e+00 2.3462310545636392e+01 5.8290409512594223e+00 0 0 1
516 1 7.1813254189775462e+00 1.4250069246883092e+01 4.8896350896403646e+00 0 0 1
319 1 2.7826331605935786e+00 1.8443489839539964e+01 8.1849956773257659e+00 0 1 1
5278 1 4.8805025864136846e+00 2.4188338505774919e+01 2.3880968970884755e+00 1 -1 1
4850 1 7.0456559874870939e+00 2.1913359629539627e+01 8.3560989511753192e+00 0 0 1
2947 1 4.0045235644311212e+00 1.4549775977945350e+01 8.2148422288778224e+00 0 1 0
2862 1 1.9628629225065313e+00 1.7414676084183665e+01 5.5859345556724547e+00 1 0 0
93 1 8.6377055447943434e+00 1.8356661817780086e+01 3.7358107933270968e+00 0 1 0
440 1 8.3609707999934777e+00 1.7670069072168346e+01 7.0553746362386400e+00 0 0 1
3549 1 8.6447466313803307e+00 1.3732834543666975e+01 2.4170210571074904e+00 0 1 0
3086 1 8.3518982074878401e-01 1.5566210983768654e+01 2.1553643661740072e+00 0 0 1
1631 1 5.8849983576729157e+00 1.7154932565002849e+01 8.8648316798331503e+00 0 0 1
1268 1 5.6214908697992803e+00 2.4077007988189180e+01 8.9329066101951025e+00 0 0 1
6138 1 9.6946987607526136e+00 2.1564134846696838e+01 8.8883752896324051e+00 1 1 1
1889 1 7.3292291724328358e+00 2.4249604240942851e+01 1.1118859909848553e+01 1 1 0