
# Create simulation box and atoms

read_data data.ML_graphite_m500atm_240K
  orthogonal box = (0 0 2.16312) to (49.22 49.0196 57.8989)
  5 by 4 by 8 MPI processor grid
  reading atoms ...
  6489 atoms
  reading velocities ...
  6489 velocities
group water type 1
3729 atoms in group water
group graphite type 2
2760 atoms in group graphite

# Define potential

pair_style sw
pair_coeff * * MLC_e.sw mW C


# Fix graphite atoms in place

fix 5 graphite setforce 0.0 0.0 0.0
velocity graphite set 0.0 0.0 0.0


# Equilibration of molecular water

# Add velocity/set timestep

velocity	    water create ${TEMP} ${SEED} rot yes dist gaussian
velocity	    water create 240 ${SEED} rot yes dist gaussian
velocity	    water create 240 14458 rot yes dist gaussian
timestep	    5.0

# Define output

compute			1 water msd
compute			3 water temp
thermo	    	50
thermo_style	custom step temp press vol etotal ke pe c_1[4] c_3

# Neighbor lists

neigh_modify    delay 0 every 1 check yes

# Set fixes

fix             1 water momentum 10 linear 1 1 1 rescale
fix             2 water nve
fix             3 water temp/csvr ${TEMP} ${TEMP} 500.0 ${SEED}
fix             3 water temp/csvr 240 ${TEMP} 500.0 ${SEED}
fix             3 water temp/csvr 240 240 500.0 ${SEED}
fix             3 water temp/csvr 240 240 500.0 14458
fix             4 water press/berendsen z ${PRES} ${PRES} 1000.0 modulus 20000
fix             4 water press/berendsen z -500 ${PRES} 1000.0 modulus 20000
fix             4 water press/berendsen z -500 -500 1000.0 modulus 20000

# Run 0.5 ns equilibration

dump		    1 all atom 2000 ${DIR}/eq.${NAME}-${TEMP}.dump
dump		    1 all atom 2000 run_23/eq.${NAME}-${TEMP}.dump
dump		    1 all atom 2000 run_23/eq.het_freeze_23-${TEMP}.dump
dump		    1 all atom 2000 run_23/eq.het_freeze_23-240.dump

reset_timestep  0

run	            100000
Neighbor list info ...
  update every 1 steps, delay 0 steps, check yes
  max neighbors/atom: 2000, page size: 100000
  master list distance cutoff = 6.67472
  ghost atom cutoff = 6.67472
  binsize = 3.33736, bins = 15 15 17
  1 neighbor lists, perpetual/occasional/extra = 1 0 0
  (1) pair sw, perpetual
      attributes: full, newton on
      pair build: full/bin/atomonly
      stencil: full/bin/3d
      bin: standard
Per MPI rank memory allocation (min/avg/max) = 4.067 | 4.175 | 4.485 Mbytes
Step Temp Press Volume TotEng KinEng PotEng c_1[4] c_3 
       0    137.90382   -585.46729    134476.24   -35583.071    2666.9904   -38250.061            0          240 
      50    138.81591   -582.31801    134538.29   -35548.371    2684.6297   -38233.001     0.519482    241.58735 
     100    141.78842   -472.19248    134667.18    -35499.79    2742.1165   -38241.907   0.83989661    246.76053 
     150    137.17375   -474.45995    134706.55   -35496.894    2652.8712   -38149.766    1.0841639    238.72943 
     200    142.05174   -440.21898    134726.45   -35486.028    2747.2089   -38233.237     1.313372    247.21879 
     250    141.99577   -416.58315     134828.8   -35472.367    2746.1265   -38218.494     1.554056    247.12139 
     300    141.96164   -506.71822    134909.16   -35505.368    2745.4665   -38250.834    1.7730636      247.062 
     350    140.26766   -497.48543    135003.39   -35564.769    2712.7058   -38277.475    2.0033448    244.11389 
     400    136.70051   -539.17863    135023.05   -35546.733    2643.7189   -38190.452    2.1879754    237.90582 
     450    140.24652   -574.61541    135074.55    -35527.31    2712.2969   -38239.607    2.3560585    244.07709 
     500    136.87798   -662.94352    135122.89   -35580.501     2647.151   -38227.652    2.5603974    238.21467 
     550    140.31216   -532.05128    135117.37    -35612.89    2713.5664   -38326.456    2.7651458    244.19134 
     600    136.89251   -521.32984    135144.64   -35644.369    2647.4321   -38291.801    2.9473333    238.23997 
     650    138.43133   -604.98886    135226.09   -35650.513    2677.1921   -38327.705    3.1617341    240.91804 
     700    137.43453   -692.47011     135318.3     -35709.3    2657.9145   -38367.214    3.3453479    239.18327 
     750    136.43466   -862.59257    135317.41    -35662.12    2638.5775   -38300.698    3.4684261    237.44315 
     800    134.50122   -548.52283    135288.58   -35689.913    2601.1858   -38291.099      3.63803    234.07831 
     850    135.86735   -844.83293    135229.93   -35708.103    2627.6061   -38335.709    3.7852926    236.45584 
     900    133.99177   -723.77635    135161.96   -35702.093    2591.3333   -38293.426    4.0041763    233.19169 
     950    136.10941   -614.26667    135306.69   -35694.162    2632.2874    -38326.45    4.2079382    236.87711 
    1000    139.21846   -580.56233       135352   -35680.002    2692.4147   -38372.417      4.38782    242.28791 
    1050     140.1448   -795.91762     135333.1   -35614.221    2710.3298   -38324.551    4.5385883    243.90008 
    1100    140.09598   -621.04369    135364.33   -35630.342    2709.3855   -38339.727     4.788182     243.8151 
    1150    137.46702    -736.7344    135345.13   -35682.227    2658.5428   -38340.769    5.0113204    239.23981 
    1200    140.14473   -826.87518    135278.79   -35682.427    2710.3283   -38392.755    5.1860494    243.89994 
    1250    139.00775   -584.38462    135254.55   -35690.131    2688.3397   -38378.471    5.3304717    241.92121 
    1300    135.60418    -714.2302    135263.73   -35665.475    2622.5165   -38287.992    5.5846781    235.99784 
    1350    141.31956   -628.13752    135276.25   -35638.407     2733.049   -38371.456    5.7342656    245.94455 
    1400    141.06046   -548.56541    135356.07   -35631.629    2728.0381   -38359.667    5.8719834    245.49363 
    1450    138.33746   -908.90161    135313.42   -35626.684    2675.3767   -38302.061    5.9433924    240.75468 
    1500    140.29399   -634.74743    135236.02   -35601.675    2713.2151    -38314.89    6.1050101    244.15972 
    1550    138.55346   -595.06207    135240.12   -35575.033     2679.554   -38254.587    6.2361664    241.13059 
    1600    140.77252   -720.75667    135292.79   -35555.625    2722.4695   -38278.094    6.3601689    244.99252 
    1650    140.87384   -825.65187     135257.8   -35575.431    2724.4289    -38299.86    6.4553515    245.16884 
    1700    141.62349   -873.37509    135304.13   -35570.777    2738.9268   -38309.704    6.6408208    246.47349 
    1750    138.36416   -851.57859    135207.98    -35620.56    2675.8931   -38296.453    6.7960883    240.80114 
    1800     138.0231   -851.44954    135144.57   -35658.041    2669.2971   -38327.338    6.9650304    240.20759 
    1850    134.42569   -1071.9274    135051.99   -35692.916     2599.725   -38292.641    7.0177282    233.94685 
    1900    136.07492   -763.34768     135065.6   -35638.669    2631.6203   -38270.289    7.0675804    236.81708 
    1950    138.55321   -909.27875    135065.79   -35622.502    2679.5492   -38302.051    7.3100773    241.13016 
    2000     139.5762   -750.57716    135027.34   -35664.121    2699.3334   -38363.454    7.5116645    242.91052 
    2050     140.9274   -703.65324    135024.43   -35615.164    2725.4648   -38340.629    7.6896518    245.26206 
    2100    137.61163   -819.52756    135026.08   -35638.602    2661.3395   -38299.941    7.7246777    239.49148 
    2150     138.7986   -754.50815    135055.03   -35650.376     2684.295   -38334.671    7.9262254    241.55722 
    2200    138.86076   -625.42419    135111.68   -35612.965    2685.4971   -38298.462    8.0730772     241.6654 
    2250    137.88207   -627.40306    135222.78   -35671.922    2666.5698   -38338.491     8.221759    239.96215 
    2300    137.98806   -655.97224    135218.68   -35707.227    2668.6195   -38375.847    8.3170177     240.1466 
    2350    136.63309   -842.01805    135229.81   -35767.065    2642.4151    -38409.48    8.4637915     237.7885 
    2400    136.87528   -527.78678    135257.87   -35769.364    2647.0988   -38416.462    8.6539103    238.20998 
    2450    139.53401    -520.0807    135284.59    -35747.51    2698.5173   -38446.027    8.8428356    242.83708 
    2500    138.24552   -627.51521    135322.86   -35719.466    2673.5986   -38393.065    8.9492388    240.59467 
    2550    137.76647   -581.38347    135336.72    -35721.97    2664.3341   -38386.304    9.0456904    239.76096 
    2600    139.56912    -558.3342    135380.44   -35679.478    2699.1964   -38378.674    9.1352941    242.89819 
    2650    139.95382   -662.76442    135420.31   -35671.341    2706.6362   -38377.977    9.2496224    243.56769 
    2700    141.19867   -695.08643    135444.17    -35665.95     2730.711   -38396.661     9.493072    245.73416 
    2750    138.56887   -815.27023    135468.41   -35657.179     2679.852   -38337.031    9.7154588    241.15741 
    2800    140.41621   -772.15234    135507.13   -35670.339    2715.5787   -38385.918    9.9167453    244.37242 
    2850    139.89949   -619.40816    135599.61   -35683.808    2705.5856   -38389.393    10.034187    243.47315 
    2900    138.69939   -718.14644    135628.64   -35729.946    2682.3763   -38412.322     10.25011    241.38456 
    2950    140.98526   -943.98088    135630.38   -35733.366    2726.5838    -38459.95    10.359542    245.36275 
    3000     137.4214   -777.78754    135602.74   -35676.015    2657.6605   -38333.676    10.493452    239.16042 
    3050    136.35078   -693.06003    135590.96   -35688.337    2636.9553   -38325.292    10.785571    237.29717 
    3100    138.22608   -672.11905    135576.09   -35688.524    2673.2226   -38361.747     10.83298    240.56084 
    3150    139.48091   -613.40297    135558.96   -35681.767    2697.4905   -38379.257     10.91786    242.74468 
    3200    141.91034   -566.96068    135574.02   -35642.535    2744.4745   -38387.009    11.096363    246.97272 
    3250    137.05264   -581.42031    135587.03   -35696.053    2650.5289   -38346.582    11.276311    238.51865 
    3300    137.06253   -928.90788    135466.32    -35777.64    2650.7202   -38428.361    11.419299    238.53586 
    3350    137.10577   -715.96638    135426.84   -35763.097    2651.5565   -38414.653    11.525232    238.61112 
    3400    138.87418   -593.31115     135378.8   -35765.651    2685.7567   -38451.408    11.614838    241.68876 
    3450    135.80867   -539.73275    135335.92   -35810.715    2626.4711   -38437.186    11.739684    236.35371 
    3500    134.02434   -664.57886    135343.64    -35819.79    2591.9632   -38411.753    11.826505    233.24837 
    3550    137.54551   -611.70767    135331.65   -35854.057    2660.0607   -38514.117    11.975371    239.37641 
    3600    135.48855   -625.64921    135393.65   -35864.649    2620.2801   -38484.929    12.130543    235.79659 
    3650    137.46949    -508.9013    135374.88   -35863.681    2658.5906   -38522.272    12.215091    239.24411 
    3700    134.89709   -329.06641    135338.08   -35895.161    2608.8418   -38504.003    12.373066    234.76726 
    3750    135.26584   -518.23833    135322.32    -35820.33    2615.9731   -38436.303    12.414756      235.409 
    3800    138.18689   -454.68049    135434.17   -35791.148    2672.4648   -38463.613    12.506542    240.49264 
    3850     137.4525   -953.38784    135497.17   -35832.396    2658.2621   -38490.658    12.662125    239.21455 
    3900    138.18667   -796.02129    135440.36   -35829.915    2672.4605   -38502.375    12.827195    240.49225 
    3950    139.23833   -448.86927    135456.38   -35762.124    2692.7991   -38454.923    12.906462     242.3225 
    4000    138.60656   -692.86234    135511.28   -35774.464     2680.581   -38455.045    13.104991    241.22301 
    4050    135.62418   -526.84462    135620.14   -35797.893    2622.9033   -38420.796    13.203973    236.03265 
    4100    136.45399   -780.80434    135648.95    -35827.93    2638.9514   -38466.881    13.370158     237.4768 
    4150    138.74534   -578.68225     135652.1   -35815.023    2683.2648   -38498.288    13.518404    241.46453 
    4200    137.37828   -780.33044     135673.2   -35793.973    2656.8266     -38450.8    13.736981    239.08537 
    4250    136.16505   -757.84937    135624.48   -35821.953    2633.3634   -38455.317    13.880171    236.97394 
    4300    135.69415     -876.208    135502.96   -35824.456    2624.2564   -38448.712    14.016772    236.15441 
    4350    138.38027   -909.44181    135442.28   -35817.367    2676.2047   -38493.572    14.073383    240.82919 
    4400    136.80455   -662.90582    135417.95   -35818.832    2645.7311   -38464.563    14.157847    238.08689 
    4450    136.23564   -708.40504    135384.32   -35827.902    2634.7285    -38462.63    14.337565    237.09679 
    4500    137.54063   -785.78171    135268.59   -35770.858    2659.9664   -38430.824    14.430642    239.36792 
    4550    138.43004   -909.04504    135277.36   -35760.935    2677.1671   -38438.102    14.538501     240.9158 
    4600    137.09511   -842.04425    135167.06   -35749.265    2651.3502   -38400.616    14.761882    238.59256 
    4650    136.67238   -775.04994    135244.25    -35751.15    2643.1749   -38394.325    14.973142    237.85687 
    4700    135.43936   -800.74132    135179.44   -35738.983     2619.329   -38358.312    15.130423      235.711 
    4750    136.94909   -773.08452    135287.39   -35751.641    2648.5264   -38400.167     15.38433    238.33844 
    4800    136.61711   -635.27577    135381.74   -35728.442    2642.1061   -38370.548    15.464357    237.76069 
    4850    135.53616    -842.0993    135395.58   -35751.413     2621.201   -38372.614     15.61081    235.87946 
    4900    134.81468   -703.95432    135372.03   -35780.277    2607.2479   -38387.525    15.687661    234.62383 
    4950    136.80896   -837.01244    135319.27   -35728.007    2645.8162   -38373.824    15.690727    238.09456 
    5000    138.62259   -547.41979    135330.93   -35716.141     2680.891   -38397.032    15.815712     241.2509 
    5050    140.35041   -875.11402    135298.59   -35703.254    2714.3061    -38417.56    16.059372     244.2579 
    5100    134.32174    -397.8377    135302.23   -35713.088    2597.7147   -38310.803    16.246153    233.76594 
    5150    139.65493    -604.4469    135378.18   -35674.046    2700.8558   -38374.902    16.295988    243.04752 
    5200    136.89485   -753.38581    135413.29    -35703.11    2647.4773   -38350.587    16.522315    238.24403 
    5250     137.2242   -681.06643    135459.24   -35680.112    2653.8469   -38333.959    16.760746    238.81723 
    5300    137.57726   -703.55798    135460.49   -35656.285    2660.6748    -38316.96    16.794905    239.43167 
    5350     138.2304   -807.45599    135434.26   -35655.853    2673.3063    -38329.16    16.939989    240.56836 
    5400    137.37202   -639.41588    135382.98   -35666.412    2656.7057   -38323.118    17.025381    239.07449 
    5450     136.5358   -831.77118    135367.16   -35691.598    2640.5335   -38332.131    17.144481    237.61917 
    5500    136.95244   -730.77498    135335.93   -35725.605    2648.5912   -38374.196    17.383282    238.34428 
    5550    139.55925   -445.20599    135402.86   -35653.076    2699.0056   -38352.082    17.566628    242.88102 
    5600    137.34278   -904.35408    135328.96   -35621.462      2656.14   -38277.602    17.715429    239.02359 
    5650    138.90886   -722.82993    135280.91   -35701.856    2686.4273   -38388.284    17.884758    241.74911 
    5700    136.97833   -525.44043    135276.97   -35708.642    2649.0917   -38357.734    18.063456    238.38932 
    5750    137.81557    -705.5145    135310.48   -35665.559    2665.2835   -38330.842    18.206044     239.8464 
    5800    138.64687   -594.65164    135353.57    -35653.71    2681.3606   -38335.071    18.464388    241.29316 
    5850    137.97118   -818.14288     135403.6   -35713.017     2668.293    -38381.31    18.772896    240.11722 
    5900     134.8563   -799.02687    135443.09   -35693.069    2608.0528   -38301.121    18.907487    234.69626 
    5950    139.77857   -748.02728    135390.16     -35643.6    2703.2471   -38346.847    19.064939    243.26271 
    6000    138.14693   -885.10409    135400.03   -35654.028     2671.692    -38325.72    19.347278    240.42309 
    6050    139.39313   -373.37296    135386.83   -35709.339    2695.7928   -38405.131    19.444727    242.59191 
    6100    139.01902   -772.18004    135422.16   -35742.882    2688.5577    -38431.44    19.641911    241.94082 
    6150    137.58453   -681.43075    135426.64   -35730.728    2660.8153   -38391.544      19.7443    239.44432 
    6200    138.44345   -712.90322     135500.1   -35732.272    2677.4265   -38409.698    19.907234    240.93914 
    6250    135.21414   -736.06679    135506.01   -35822.959    2614.9733   -38437.932    19.994719    235.31904 
    6300    134.83944   -683.94242     135552.6   -35828.831    2607.7267   -38436.558    20.157541    234.66692 
    6350    136.29182   -808.17016    135574.08   -35802.679     2635.815   -38438.494    20.243936    237.19456 
    6400    135.84618   -571.97556    135572.19    -35757.96    2627.1966   -38385.156    20.426388      236.419 
    6450    137.10264   -513.18102    135602.14   -35808.488    2651.4959   -38459.984    20.589065    238.60567 
    6500    135.82987   -647.06191    135667.07   -35802.135    2626.8812   -38429.016    20.863402    236.39062 
    6550     140.3062    -846.9078    135671.62   -35762.098    2713.4511   -38475.549    20.954364    244.18096 
    6600    135.33142   -769.42602    135650.85   -35820.712    2617.2415   -38437.953    20.969405    235.52314 
    6650    139.59652   -671.14656    135638.08   -35847.178    2699.7263   -38546.904    21.327869    242.94588 
    6700    138.72456   -647.33231    135669.33   -35794.742    2682.8629   -38477.605    21.572017    241.42836 
    6750     138.6666   -691.12858    135740.34   -35789.518    2681.7421    -38471.26     21.63469     241.3275 
    6800    136.59868   -734.56313    135714.83   -35786.251    2641.7496   -38428.001    21.816568     237.7286 
    6850     136.9982   -952.22491    135745.89   -35757.101    2649.4761   -38406.577    21.903605    238.42391 
    6900     137.8723   -894.13902    135726.18   -35704.856    2666.3807   -38371.236    22.021583    239.94513 
    6950    136.27656    -860.0651    135760.64   -35716.811    2635.5199   -38352.331    22.206039      237.168 
    7000    135.33722   -744.25316     135727.3   -35678.147    2617.3535     -38295.5    22.349475    235.53322 
    7050     140.3136   -795.67493    135635.39   -35682.205    2713.5943   -38395.799    22.493594    244.19385 
    7100    139.39779   -852.79429    135602.36   -35663.496    2695.8829   -38359.379    22.619271    242.60001 
    7150    138.32507   -598.55854    135655.55   -35712.695    2675.1371   -38387.832    22.786183    240.73312 
    7200    137.85581   -740.09356    135758.53   -35726.952    2666.0618   -38393.014    22.864999    239.91644 
    7250    137.57912   -757.11835    135804.14    -35728.16    2660.7107   -38388.871    22.931977     239.4349 
    7300    136.76317   -721.58613    135734.45   -35714.833    2644.9307   -38359.764    23.048948    238.01487 
    7350    138.32624   -831.29892    135734.94   -35722.572    2675.1598   -38397.732    23.219874    240.73516 
    7400    136.95509   -595.25114    135770.32   -35685.493    2648.6423   -38334.136    23.341384    238.34888 
    7450    138.15989    -741.6607    135822.89   -35718.067    2671.9425    -38390.01    23.570634    240.44564 
    7500    138.28342   -734.62273     135749.7    -35685.81    2674.3316   -38360.142    23.599346    240.66063 
    7550    135.77402   -652.60904    135649.31   -35740.967     2625.801   -38366.768    23.649678    236.29341 
    7600    136.78143   -925.03246    135714.82   -35694.984    2645.2839   -38340.268    23.867198    238.04665 
    7650    138.43776   -727.74147    135758.13   -35669.486    2677.3164   -38346.802    24.198419    240.92923 
    7700    135.93384   -1029.8317    135718.74   -35705.233     2628.892   -38334.125    24.449891    236.57156 
    7750    138.79532   -1205.8836    135641.89   -35757.737    2684.2315   -38441.968     24.65593    241.55151 
    7800    137.11593   -1202.8286    135619.94   -35748.463    2651.7529   -38400.215    24.883654    238.62879 
    7850       135.19   -791.81164    135535.84   -35737.475    2614.5064   -38351.982    24.983812    235.27701 
    7900    139.73418   -876.47409    135484.71   -35696.945    2702.3885   -38399.334    25.256449    243.18544 
    7950    136.38994   -752.99952    135485.11   -35708.738    2637.7126    -38346.45    25.404264    237.36532 
    8000    138.57786   -686.39134    135479.69   -35616.424     2680.026    -38296.45    25.636257    241.17306 
    8050    139.57958   -566.68857    135552.06   -35657.679    2699.3987   -38357.078    25.865888     242.9164 
    8100    136.58347   -1124.8264     135554.1   -35715.753    2641.4554   -38357.208    26.069118    237.70213 
    8150    140.96923   -543.51672    135576.46   -35689.434    2726.2738   -38415.707    26.245737    245.33486 
    8200    138.55411   -814.92108     135547.2   -35672.288    2679.5667   -38351.855    26.410273    241.13173 
    8250    138.41028   -978.12374    135415.75   -35695.103    2676.7849   -38371.887    26.571234     240.8814 
    8300    136.62862    -748.6073       135319     -35742.2    2642.3286   -38384.529    26.808306    237.78071 
    8350    136.61705   -577.93218    135351.91   -35782.663    2642.1049   -38424.767    27.140389    237.76058 
    8400    134.67232   -677.57636    135376.84   -35755.753    2604.4946   -38360.248    27.292559    234.37607 
    8450    136.90502    -568.8074    135340.67   -35799.565    2647.6741    -38447.24    27.449374    238.26174 
    8500    137.50808   -824.56373    135409.36   -35755.664    2659.3369   -38415.001     27.48443    239.31128 
    8550    135.95221   -939.38784    135371.93   -35805.129    2629.2472   -38434.376    27.701729    236.60352 
    8600    136.31328    -910.1079    135294.03   -35835.402    2636.2301   -38471.632    27.708929    237.23191 
    8650    135.16434   -806.48433    135283.12   -35803.718    2614.0101   -38417.728      27.8021    235.23236 
    8700    137.91356    -748.8157    135233.18   -35740.801    2667.1786    -38407.98    27.870373    240.01694 
    8750    139.61524   -728.18469    135258.66    -35720.11    2700.0884   -38420.198    27.829059    242.97846 
    8800    139.62983   -576.92839    135360.59   -35637.593    2700.3705   -38337.964     27.79843    243.00385 
    8850    139.34609   -790.48791    135304.47   -35626.636    2694.8832   -38321.519    27.741409    242.51005 
    8900    140.45492   -913.75825    135256.88    -35604.31    2716.3273   -38320.637     27.92779    244.43978 
    8950     140.6001   -999.87134    135163.88   -35567.643    2719.1351   -38286.778     28.05308    244.69245 
    9000     138.7659   -870.30532    135182.04   -35557.787    2683.6625    -38241.45    28.153225    241.50031 
    9050    142.25373   -868.02297    135196.93    -35592.98    2751.1154   -38344.095    28.203033    247.57033 
    9100    137.94301   -940.74999    135151.81   -35668.606    2667.7482   -38336.355    28.304639     240.0682 
    9150    137.47783   -995.50572    135127.35    -35719.32    2658.7519   -38378.072    28.358632    239.25863 
    9200    137.80793   -740.93606    135106.05   -35721.015    2665.1359   -38386.151    28.508858    239.83312 
    9250    137.12456   -458.41824    135104.22   -35713.864    2651.9199   -38365.784    28.657488    238.64382 
    9300    139.24632   -675.44086    135187.91   -35728.915    2692.9536   -38421.868    28.892238    242.33641 
    9350    137.45638   -590.07677    135203.71   -35699.117    2658.3371   -38357.455    29.195644     239.2213 
    9400    137.12003   -623.05697    135235.64    -35764.63    2651.8323   -38416.462    29.429392    238.63594 
    9450    138.03573   -692.67191    135192.03   -35708.558    2669.5414     -38378.1     29.87122    240.22957 
    9500    140.85883   -635.43818    135218.31   -35651.892    2724.1388   -38376.031    30.119445    245.14273 
    9550    138.98437   -762.43783    135203.85   -35674.438    2687.8876   -38362.326    30.221259    241.88052 
    9600    138.70755   -629.29053    135258.68   -35695.892     2682.534   -38378.426    30.434495    241.39875 
    9650    140.14465   -573.36932     135377.7   -35726.198    2710.3269   -38436.525    30.367568    243.89981 
    9700    140.58434   -877.06067    135464.79    -35750.13    2718.8303   -38468.961    30.455556    244.66503 
    9750    138.68984   -750.02907    135453.02   -35766.568    2682.1915   -38448.759    30.529236    241.36793 
    9800    138.70742    -583.8284    135433.22   -35760.717    2682.5316   -38443.249    30.671466    241.39854 
    9850     137.3947   -872.67483     135439.7   -35763.031    2657.1443   -38420.175     30.81027    239.11396 
    9900    135.41672   -902.06047    135399.08   -35752.842    2618.8911   -38371.733    30.835708    235.67159 
    9950    136.38949   -874.48059    135362.25   -35738.565     2637.704   -38376.269    31.108553    237.36455 
   10000    138.84078   -1076.7483    135308.93   -35770.197    2685.1106   -38455.308    31.242909    241.63062 
   10050    137.41752   -726.37944    135302.38   -35762.803    2657.5855   -38420.388    31.318554    239.15366 
   10100    138.20749    -737.7217    135274.02   -35771.969    2672.8631   -38444.832    31.302096    240.52848 
   10150    139.26205   -917.29168    135281.77   -35752.712    2693.2578    -38445.97    31.501799    242.36378 
   10200    136.96832   -733.59767    135265.64   -35759.933    2648.8983   -38408.831    31.568519    238.37191 
   10250    143.18426   -572.60764    135341.56   -35787.077    2769.1113   -38556.189    31.526344    249.18977 
   10300    136.64761    -774.3149    135339.25   -35818.642    2642.6958   -38461.338    31.629994    237.81376 
   10350     138.3643   -906.86951    135405.98   -35815.134    2675.8958    -38491.03    31.675386    240.80139 
   10400    137.81367   -572.40256     135456.4   -35810.087    2665.2469   -38475.334    31.983342    239.84311 
   10450    138.09367   -595.48155    135568.75   -35792.954     2670.662   -38463.616    32.127126     240.3304 
   10500    137.12522   -565.31196    135516.09   -35786.593    2651.9326   -38438.526    32.112892    238.64496 
   10550    138.19298   -525.10146     135517.7   -35778.973    2672.5825   -38451.556    32.295472    240.50323 
   10600     140.4279   -623.49288    135551.65    -35785.92    2715.8047   -38501.725      32.4521    244.39275 
   10650    139.98616   -847.75401    135511.95   -35757.779    2707.2618   -38465.041    32.628493    243.62399 
   10700    138.38377   -784.04675    135516.44   -35752.033    2676.2724   -38428.306    32.695053    240.83528 
   10750    142.39018   -639.76773     135470.8   -35728.246    2753.7543       -38482    33.022846    247.80781 
   10800    141.79957   -693.33999    135504.94   -35688.699    2742.3322   -38431.031    33.181734    246.77994 
   10850    140.69619   -853.14965    135490.15   -35702.876    2720.9933   -38423.869     33.39389    244.85967 
   10900    138.55847   -741.62334    135440.54   -35737.208     2679.651   -38416.859    33.518358    241.13932 
   10950    135.98642    -691.2568    135394.97   -35729.327    2629.9088   -38359.236    33.638906    236.66307 
   11000    138.14569   -848.07471    135371.64    -35760.95    2671.6679   -38432.618     33.76647    240.42093 
   11050    141.80353   -532.81102    135350.16   -35711.568    2742.4087   -38453.977    34.192266    246.78683 
   11100     140.5158   -559.55183    135490.67   -35749.424    2717.5047   -38466.929    34.365937    244.54574 
   11150    137.97427   -940.25994     135535.5    -35796.47    2668.3529   -38464.823    34.366708    240.12261 
   11200    138.22452   -649.26784    135537.06   -35744.004    2673.1926   -38417.196    34.664186    240.55813 
   11250     137.0789   -782.71331     135529.9   -35732.666    2651.0368   -38383.703    34.889399    238.56436 
   11300    138.23521   -403.11805    135616.53   -35769.888    2673.3992   -38443.287    35.115622    240.57673 
   11350     137.1977   -833.00243     135648.1    -35748.54    2653.3343   -38401.875    35.258595     238.7711 
   11400    140.76544   -739.06071    135664.03   -35730.985    2722.3325   -38453.318    35.197019    244.98019 
   11450    140.02803   -794.25673    135621.88   -35746.028    2708.0715   -38454.099    35.369994    243.69685 
   11500    141.57992   -751.36195    135688.32    -35745.17    2738.0843   -38483.254    35.415261    246.39767 
   11550    136.49769   -710.35454    135682.03   -35780.896    2639.7964   -38420.693    35.534239    237.55284 
   11600    141.80718   -662.73282    135760.45   -35743.455    2742.4794   -38485.934    35.714572    246.79319 
   11650    140.67386   -717.00225    135851.64    -35690.54    2720.5615   -38411.101    35.766801    244.82081 
   11700    142.61861   -1059.1974    135827.07   -35606.959     2758.172   -38365.131    35.990609    248.20535 
   11750    140.90095   -794.40218    135770.46   -35655.015    2724.9534   -38379.968    36.076109    245.21604 
   11800    138.88682   -692.92168    135742.99   -35697.723     2686.001   -38383.724    36.158811    241.71075 
   11850    139.38485   -655.07333    135675.67    -35629.87    2695.6327   -38325.502     36.12613     242.5775 
   11900    140.99793   -528.28647    135660.51   -35667.744    2726.8288   -38394.573    36.278202    245.38481 
   11950    137.12155   -789.87052    135641.33   -35642.495    2651.8616   -38294.357     36.50226    238.63857 
   12000    138.87807   -568.51621    135599.53   -35643.339    2685.8319   -38329.171    36.588181    241.69553 
   12050    140.03071   -552.59972    135639.45   -35658.996    2708.1233   -38367.119    36.691786    243.70151 
   12100    139.35096   -513.50583    135699.92   -35665.001    2694.9773   -38359.978    36.819946    242.51852 
   12150    138.42688   -740.45158    135728.91   -35678.399    2677.1059   -38355.505     37.10454    240.91029 
   12200    142.09154   -800.11953    135733.77   -35638.684    2747.9787   -38386.663    37.381768    247.28807 
   12250    138.39435   -692.80339    135727.54   -35688.024     2676.477   -38364.501    37.599072    240.85369 
   12300    138.76887   -833.74299    135786.62   -35692.057      2683.72   -38375.777    37.951449    241.50548 
   12350    140.59421   -725.39549    135678.28   -35670.344    2719.0212   -38389.365    38.161326     244.6822 
   12400    139.95232   -672.34501    135723.47   -35648.616    2706.6073   -38355.223    38.285876    243.56509 
   12450    140.29517   -681.75231     135831.8   -35668.798    2713.2378   -38382.035    38.580451    244.16176 
   12500    137.69896   -724.93965    135823.52    -35689.85    2663.0285   -38352.879    38.845039    239.64348 
   12550    138.66196   -838.04153    135878.09   -35703.921    2681.6524   -38385.573    39.109556    241.31942 
   12600    138.52097    -936.5061    135836.82   -35679.893    2678.9257   -38358.819    39.240538    241.07405 
   12650    140.35588   -718.22179    135724.11   -35650.968     2714.412    -38365.38    39.305514    244.26743 
   12700    136.28958   -1016.1143    135620.63   -35711.252    2635.7717   -38347.023    39.357515    237.19066 
   12750    137.00827   -744.29283    135587.49   -35759.872    2649.6708   -38409.543    39.577167    238.44143 
   12800    138.20655   -680.12668     135651.3   -35754.585     2672.845    -38427.43    39.654884    240.52685 
   12850    141.22117   -674.59438    135700.73   -35736.144    2731.1461   -38467.291    39.796852    245.77332 
   12900    136.61377   -666.02402     135708.3   -35749.088    2642.0414   -38391.129    39.787575    237.75487 
   12950    138.38138   -951.81559    135674.74   -35780.277    2676.2261   -38456.503    39.929709    240.83112 
   13000    137.93514   -710.93349    135594.21   -35731.037    2667.5961   -38398.633    40.056927    240.05451 
   13050    138.17188   -992.67623    135627.68   -35704.475    2672.1745   -38376.649    40.319763    240.46652 
   13100    136.77969   -754.91148    135626.33   -35618.697    2645.2503   -38263.947    40.382024    238.04363 
   13150    139.68744   -855.21483    135665.99    -35665.72    2701.4845   -38367.204    40.618967     243.1041 
   13200    138.80889   -572.87903    135791.36   -35611.505    2684.4939   -38295.999    40.851408    241.57513 
   13250    139.92169   -688.54854    135821.98   -35643.381    2706.0149   -38349.396    40.741048    243.51178 
   13300    138.66029   -569.47959    135777.43   -35661.855      2681.62   -38343.475    40.809333    241.31651 
   13350    141.18657   -608.00037    135812.31   -35627.708    2730.4771   -38358.185    40.907799    245.71311 
   13400    139.01541   -659.31718    135810.57   -35603.922     2688.488    -38292.41    41.289319    241.93455 
   13450    140.28746   -901.91319    135802.55   -35630.454    2713.0887   -38343.543    41.607359    244.14834 
   13500    136.96168   -778.40907    135761.55   -35650.102    2648.7699   -38298.872    41.846233    238.36035 
   13550     141.0662   -624.92643     135728.7   -35619.829    2728.1491   -38347.978    42.067278    245.50362 
   13600    139.76662   -532.17321     135817.6    -35607.14    2703.0159   -38310.156    42.172469    243.24191 
   13650    139.03588   -820.05865    135791.97   -35584.879    2688.8838   -38273.763    42.325545    241.97017 
   13700    140.52989   -685.40067    135765.27   -35631.712    2717.7771   -38349.489     42.44667    244.57025 
   13750    139.06915   -691.29298    135741.78   -35571.897    2689.5272   -38261.424    42.671452    242.02807 
   13800    140.49984   -781.87732    135621.17   -35596.231     2717.196   -38313.427    42.965606    244.51795 
   13850    138.45436   -655.22803    135559.83   -35593.924    2677.6375   -38271.561    43.097214    240.95812 
   13900    139.19124   -804.20315     135608.8    -35639.18    2691.8885   -38331.069    43.280358    242.24056 
   13950    137.86306   -719.12477    135603.48   -35672.346     2666.202   -38338.548     43.38909    239.92905 
   14000    136.32075   -812.85455    135544.46   -35671.479    2636.3745   -38307.853     43.56493     237.2449 
   14050     138.2227   -703.68144    135527.58   -35689.284    2673.1573   -38362.441    43.693268    240.55496 
   14100    140.74707   -829.52432    135532.59   -35660.145    2721.9774   -38382.122    43.755613    244.94823 
   14150    138.98565   -934.18993     135494.3   -35687.515    2687.9124   -38375.427    43.685743    241.88276 
   14200    137.24261   -763.73041    135463.76   -35695.103    2654.2028   -38349.306     43.75786    238.84926 
   14250     138.5824   -675.55195    135455.17   -35691.297    2680.1137   -38371.411    43.855992    241.18096 
   14300    135.95931   -809.27401    135454.56    -35658.76    2629.3845   -38288.145     44.02492    236.61588 
   14350    135.24339   -787.39154     135413.6   -35734.641    2615.5389    -38350.18    44.132617    235.36993 
   14400    137.54656   -776.02541    135394.22   -35744.121     2660.081   -38404.202    44.356133    239.37823 
   14450    136.09998    -537.0023    135426.08   -35744.115    2632.1049    -38376.22    44.559875    236.86069 
   14500    136.29517   -829.11186    135492.28   -35737.394    2635.8798   -38373.274    44.766765    237.20039 
   14550    136.46852   -1015.3823    135454.02   -35781.178    2639.2324    -38420.41    44.790026    237.50208 
   14600    134.98214   -798.53541    135484.72   -35831.135    2610.4865   -38441.622    44.870439    234.91527 
   14650     134.9184   -795.29294    135487.89   -35828.509    2609.2537   -38437.763    44.997394    234.80433 
   14700     134.8459   -683.04923    135516.15   -35785.045    2607.8518   -38392.896    45.013262    234.67817 
   14750    137.74425   -440.81821    135522.98   -35765.357    2663.9044   -38429.261    45.079105     239.7223 
   14800    136.32271    -582.8632    135546.38   -35760.492    2636.4125   -38396.905    45.229999    237.24833 
   14850    139.97132   -748.85016    135578.15   -35786.124    2706.9746   -38493.099    45.458443    243.59815 
   14900    137.33929    -1115.055    135569.01   -35810.822    2656.0727   -38466.895    45.650494    239.01753 
   14950    137.65534   -920.89971    135508.61   -35825.597    2662.1849   -38487.782     45.72176    239.56756 
   15000    139.39745    -816.1631    135493.13   -35859.488    2695.8764   -38555.364    45.745848    242.59942 
   15050    137.38027   -902.38518    135521.32    -35859.74    2656.8651   -38516.605    46.024522    239.08884 
   15100    138.75468   -809.79137    135515.15   -35815.291    2683.4456   -38498.736    46.120178    241.48079 
   15150    139.35774   -724.94853    135381.01   -35803.312    2695.1084    -38498.42    46.194386    242.53032 
   15200    139.82222    -556.8321    135392.81   -35785.786    2704.0913   -38489.877    46.279932    243.33868 
   15250    134.38921   -540.47398     135434.3   -35838.131    2599.0196    -38437.15    46.340757    233.88337 
   15300    139.42964    -673.6414     135499.8   -35796.453     2696.499   -38492.952     46.41321    242.65545 
   15350    139.77002   -828.09645    135589.36   -35715.367    2703.0816   -38418.449    46.744213    243.24782 
   15400    137.46599   -597.02793    135635.49    -35753.56    2658.5229   -38412.083    47.062949    239.23802 
   15450    136.61745   -661.18426    135668.27   -35780.931    2642.1126   -38423.044    47.237588    237.76127 
   15500    137.48046   -784.07104    135678.18   -35802.728    2658.8028   -38461.531    47.391654    239.26321 
   15550    139.04219   -768.06345    135764.66   -35835.497    2689.0059   -38524.503    47.603249    241.98116 
   15600    137.90141   -703.33896     135743.4   -35810.067    2666.9436    -38477.01    47.709886    239.99579 
   15650    136.25242   -746.25569     135740.5   -35790.789     2635.053   -38425.842    47.662415    237.12599 
   15700    140.42972    -578.8124    135710.77   -35722.042      2715.84   -38437.882    47.876099    244.39593 
   15750    135.63634    -675.7682    135795.56   -35785.473    2623.1385   -38408.611    48.083977    236.05381 
   15800    138.52982   -620.02892    135878.01   -35722.271    2679.0969   -38401.368    48.109061    241.08946 
   15850    139.14372   -624.36381    135915.05   -35745.675    2690.9693   -38436.645    48.365647    242.15784 
   15900    140.46445    -602.4287    135944.69   -35749.134    2716.5115   -38465.645    48.446404    244.45636 
   15950     137.3894   -715.60241    135986.87    -35781.86    2657.0418   -38438.902    48.707898    239.10474 
   16000    140.31874    -848.5682    135949.47   -35737.841    2713.6937   -38451.535    48.907438    244.20279 
   16050     139.7738   -896.01718    135891.29   -35701.778    2703.1548   -38404.933    48.977861    243.25441 
   16100    140.50439   -910.03902    135851.73   -35658.882     2717.284   -38376.166    49.199824    244.52588 
   16150    139.21805   -739.34676    135736.05   -35709.512    2692.4069   -38401.919    49.103934    242.28721 
   16200    139.10941   -544.78839    135739.92   -35693.303    2690.3059   -38383.609    49.162674    242.09814 
   16250    137.88192   -851.29717    135721.98   -35709.793    2666.5668    -38376.36    49.312967    239.96188 
   16300    137.75729   -796.61845    135767.42   -35693.974    2664.1565   -38358.131    49.663073    239.74498 
   16350    141.03221   -694.51427    135756.99   -35668.406    2727.4918   -38395.898    49.646867    245.44447 
   16400    139.88284   -696.56446    135679.64   -35671.677    2705.2636    -38376.94    49.817086    243.44417 
   16450      140.795   -638.57681    135620.27   -35648.747    2722.9043   -38371.652    49.817299    245.03165 
   16500    140.01365   -552.44454    135609.17   -35660.253    2707.7934   -38368.047    50.054585    243.67183 
   16550    137.28831   -701.16422    135604.01   -35679.634    2655.0867    -38334.72    50.077888     238.9288 
   16600    137.03832   -690.74977    135600.65   -35666.079     2650.252   -38316.331     50.18214    238.49373 
   16650    139.93078   -832.01548    135495.15   -35620.784    2706.1907   -38326.975    50.123689     243.5276 
   16700    138.82616   -871.84029     135456.7   -35650.363     2684.828   -38335.191    50.132952    241.60519 
   16750    139.28458   -729.09748     135456.7    -35694.41    2693.6936   -38388.103    50.410192      242.403 
   16800    137.16489   -812.51816    135460.32    -35775.82    2652.6998    -38428.52    50.540423    238.71401 
   16850     136.4748   -649.73443    135438.29   -35756.782    2639.3538   -38396.136    50.570683    237.51301 
   16900    136.22181   -586.07241    135432.08   -35771.677    2634.4612   -38406.138    50.571174    237.07273 
   16950    137.14802   -492.13868     135478.2   -35752.312    2652.3735   -38404.686    50.681529    238.68464 
   17000    135.85572   -848.62482    135478.52   -35726.397     2627.381   -38353.778     50.98634    236.43559 
   17050    134.32425   -637.43651     135391.4   -35777.952    2597.7633   -38375.716    51.247681    233.77032 
   17100    139.52797   -633.57422    135320.11   -35826.641    2698.4005   -38525.042    51.390113    242.82657 
   17150    139.02734   -618.63494    135366.77   -35838.931    2688.7186   -38527.649    51.665474     241.9553 
   17200    137.70486   -481.42784    135369.56   -35789.151    2663.1426   -38452.293    51.956622    239.65374 
   17250    135.43771   -745.43938    135326.64   -35802.525    2619.2969   -38421.822      52.0726    235.70811 
   17300    138.97883   -561.78446    135320.73   -35780.839    2687.7805    -38468.62     52.07969    241.87089 
   17350    136.54553   -762.52067    135323.84   -35793.944    2640.7217   -38434.666    52.215654    237.63611 
   17400    139.10072   -857.44424    135298.74   -35743.118    2690.1377   -38433.255    52.339953    242.08301 
   17450    137.44353   -545.48266    135254.08   -35688.418    2658.0886   -38346.506    52.400751    239.19894 
   17500    140.34927   -767.34201    135280.71   -35698.911    2714.2841   -38413.195    52.499929    244.25592 
   17550     141.6607   -461.20438    135316.59   -35703.718    2739.6466   -38443.365     52.61135    246.53827 
   17600    139.65826   -632.13607    135415.04   -35693.992    2700.9204   -38394.912    52.937946    243.05333 
   17650    138.69165   -766.90471    135438.72   -35671.631    2682.2266   -38353.858    53.119008    241.37109 
   17700     138.1501   -474.89585    135399.06   -35731.022    2671.7532   -38402.775    53.404988    240.42861 
   17750    135.49661   -586.33589    135542.11   -35736.807    2620.4361   -38357.243      53.5518    235.81063 
   17800    138.16879   -698.72916    135575.36   -35786.503    2672.1147   -38458.618    53.524038    240.46113 
   17850    136.09556   -448.27249    135617.15   -35788.603    2632.0195   -38420.622    53.872063      236.853 
   17900    135.09866   -813.13914    135504.79   -35752.216    2612.7399   -38364.956     53.93143    235.11805 
   17950    136.30459   -642.99122    135446.68   -35720.185    2636.0621   -38356.247    54.076017    237.21679 
   18000    137.69091   -879.23815    135446.66   -35732.253    2662.8727   -38395.126    54.120353    239.62946 
   18050    137.23109   -836.42225    135479.87   -35752.694    2653.9802   -38406.674    54.452868    238.82922 
   18100    134.52134   -768.85787    135507.79   -35785.325    2601.5748     -38386.9    54.741524    234.11331 
   18150    141.21176   -794.73973     135464.3   -35718.559    2730.9643   -38449.523    54.960447    245.75695 
   18200    137.59965   -803.90269    135383.79   -35741.878    2661.1078   -38402.986    54.878532    239.47063 
   18250    139.58974   -563.67074    135440.01   -35742.385    2699.5952    -38441.98    55.131714    242.93408 
   18300    136.23008   -857.50366    135441.08   -35768.935    2634.6211   -38403.557    55.222106    237.08712 
   18350    137.31623    -850.7844    135395.13   -35710.276    2655.6267   -38365.903    55.471463    238.97739 
   18400    140.61282   -544.82234    135452.06   -35689.717    2719.3811   -38409.098    55.738684    244.71459 
   18450    140.48333   -753.85114    135484.14   -35733.631    2716.8767   -38450.508    55.970311    244.48923 
   18500    137.42285   -609.56052    135512.43   -35740.923    2657.6886   -38398.612     56.04274    239.16294 
   18550    138.70151   -745.83896    135527.02   -35746.072    2682.4172   -38428.489    56.197061    241.38825 
   18600     139.5033   -358.69575    135551.62   -35706.608    2697.9235   -38404.532    56.322451    242.78364 
   18650    137.39823    -701.0402    135612.47   -35730.773    2657.2125   -38387.985    56.350309     239.1201 
   18700    136.15609   -787.51799     135630.2   -35747.726    2633.1901   -38380.916    56.570499    236.95835 
   18750    136.67501   -655.25926    135621.89   -35759.032    2643.2258   -38402.257    56.675399    237.86145 
   18800    137.56158   -738.91309    135633.23   -35787.863    2660.3715   -38448.234    56.655842    239.40438 
   18850    138.73875   -605.37523    135691.09   -35780.141    2683.1375   -38463.278    56.892929    241.45306 
   18900    136.76193    -807.0355    135685.87   -35754.984    2644.9068   -38399.891    57.125163    238.01272 
   18950    138.55245    -775.1675    135673.78   -35762.281    2679.5345   -38441.816     57.33212    241.12884 
   19000    133.39227   -790.80139    135646.33   -35766.866    2579.7392   -38346.605    57.394197    232.14835 
   19050    136.51084   -569.72936    135655.02   -35782.804    2640.0507   -38422.855    57.405171    237.57573 
   19100    136.86282   -739.57861    135664.35   -35769.334    2646.8579   -38416.192     57.61587     238.1883 
   19150    134.22158   -821.08993    135666.13   -35783.372    2595.7776    -38379.15    57.922753    233.59163 
   19200    136.98905   -880.30185    135612.89   -35756.355    2649.2992   -38405.655    58.020217    238.40799 
   19250    139.58729    -986.6762    135623.18   -35766.299    2699.5479   -38465.847    58.198227    242.92982 
   19300    135.36299   -939.68743    135627.07    -35769.02     2617.852   -38386.872    58.370423    235.57808 
   19350    136.90272   -996.91021    135576.06   -35744.207    2647.6295   -38391.836    58.519493    238.25773 
   19400    137.53017   -606.39975    135543.84    -35750.47    2659.7641   -38410.234    58.431045    239.34971 
   19450    138.77266   -802.15884    135564.97   -35761.215    2683.7932   -38445.009     58.32263    241.51207 
   19500    138.77074   -854.76748    135525.18   -35706.527    2683.7562   -38390.283    58.527828    241.50874 
   19550    137.67505   -607.47433    135478.38     -35735.6    2662.5661   -38398.166    58.706048    239.60186 
   19600     137.8828   -679.48295    135515.29   -35715.668    2666.5839   -38382.252    58.761222    239.96342 
   19650    138.84803   -683.78252    135585.71   -35687.771    2685.2508   -38373.022    58.780234    241.64324 
   19700    139.78923   -620.52596    135610.74   -35702.845    2703.4532   -38406.299    58.875811    243.28126 
   19750    141.38032   -1009.1988    135638.45   -35683.527    2734.2241   -38417.751    59.091761     246.0503 
   19800    138.73417   -781.78604    135611.97   -35711.384     2683.049   -38394.433    59.238163     241.4451 
   19850     136.7424   -857.48238    135644.55   -35719.767    2644.5291   -38364.296    59.455827    237.97873 
   19900     139.5922   -756.27601    135610.89   -35669.136    2699.6427   -38368.779    59.671899    242.93836 
   19950    136.55483   -852.86816    135527.63   -35729.664    2640.9015   -38370.566    59.711351    237.65228 
   20000    137.31196   -541.06796    135487.61   -35667.462    2655.5441   -38323.007    59.724243    238.96996 
   20050      141.811   -531.10879    135466.35   -35648.657    2742.5531    -38391.21    59.879398    246.79982 
   20100    136.07339   -721.89384    135380.78   -35721.388    2631.5906   -38352.979    60.178997    236.81441 
   20150    139.32824   -441.50239     135445.9   -35690.242    2694.5379    -38384.78    60.285722    242.47898 
   20200    136.29091   -376.15391    135521.99    -35722.57    2635.7975   -38358.367    60.553843    237.19298 
   20250    136.71776   -815.86876    135528.38   -35744.549    2644.0526   -38388.602    60.907677    237.93585 
   20300     140.2801   -525.52617    135519.47   -35695.815    2712.9464   -38408.761    61.063802    244.13554 
   20350    136.24432   -979.60735    135549.27   -35727.061    2634.8965   -38361.957    61.162282     237.1119 
   20400    136.09041   -933.95999    135477.24    -35767.43    2631.9199    -38399.35    61.381747    236.84404 
   20450    137.47352   -1165.2774    135443.32   -35731.345    2658.6686   -38390.014    61.516837    239.25113 
   20500    135.77771   -667.52414    135371.64   -35737.096    2625.8724   -38362.968     61.75002    236.29983 
   20550    135.69122   -733.67476     135347.6   -35712.584    2624.1998   -38336.784    61.889394    236.14931 
   20600    139.66394   -949.04881    135318.18   -35719.293    2701.0301   -38420.323    62.115596     243.0632 
   20650    140.10382   -630.81662     135326.9   -35727.598    2709.5373   -38437.135    62.385649    243.82876 
   20700      135.303   -889.50914     135328.9   -35767.773    2616.6917   -38384.465    62.679896    235.47367 
   20750    139.52212   -875.51818    135276.46   -35749.956    2698.2874   -38448.244    62.683187     242.8164 
   20800    138.71329   -898.86737    135253.86   -35719.168     2682.645   -38401.813    62.604279    241.40874 
   20850    140.25456   -744.12299    135247.05   -35756.836    2712.4525   -38469.289    62.541932    244.09109 
   20900    135.36917   -912.68669    135287.39   -35771.686    2617.9715   -38389.657    62.857838    235.58884 
   20950    135.64782   -709.17162    135252.96   -35761.197    2623.3604   -38384.557    63.028337    236.07378 
   21000    136.23285   -838.62329    135255.93   -35786.548    2634.6747   -38421.222    62.981198    237.09194 
   21050    138.06788   -635.31843    135331.41   -35757.788    2670.1631   -38427.952    63.097606    240.28551 
   21100    139.98443   -541.48652    135486.72    -35730.76    2707.2283   -38437.988    63.229434    243.62098 
   21150     138.7639   -878.31236    135433.69     -35730.9    2683.6238   -38414.524    63.325726    241.49683 
   21200    136.45034   -649.06795    135437.97   -35744.218    2638.8808   -38383.098    63.509867    237.47045 
   21250    137.44004   -755.15221    135417.67   -35747.822     2658.021   -38405.843    63.508099    239.19286 
   21300    137.94187    -655.7682    135407.43   -35736.797    2667.7262   -38404.523    63.886453    240.06622 
   21350      137.931   -850.30085    135480.61     -35688.2     2667.516   -38355.716    63.944372     240.0473 
   21400    136.80797   -744.40211    135424.97   -35676.814    2645.7971   -38322.611    63.938077    238.09284 
   21450    138.44812   -754.56253    135340.76   -35675.984    2677.5168   -38353.501    64.019337    240.94727 
   21500    135.70075   -719.04048    135286.53   -35695.198     2624.384   -38319.582    64.121311    236.16589 
   21550    138.13403     -664.103    135317.57    -35704.84    2671.4424   -38376.282    64.219579    240.40063 
   21600    140.24183   -778.15314     135361.9   -35727.835    2712.2062   -38440.041    64.160755    244.06893 
   21650    138.68091   -919.03233    135349.37   -35706.332    2682.0188   -38388.351    64.238762     241.3524 
   21700    137.51104   -718.55242    135376.21   -35740.185    2659.3942   -38399.579    64.459248    239.31643 
   21750    136.68951    -985.6686    135292.33    -35712.44    2643.5062   -38355.946    64.485441    237.88668 
   21800    139.22059   -817.10009    135249.66   -35720.998     2692.456   -38413.454    64.720533    242.29163 
   21850    136.69992   -685.03431    135136.85   -35743.459    2643.7075   -38387.166    64.860496     237.9048 
   21900    138.67634   -695.92158    135252.98   -35757.469    2681.9305     -38439.4     65.02444    241.34445 
   21950    136.28756   -829.06616    135251.55   -35771.986    2635.7328   -38407.719    65.368095    237.18716 
   22000    138.28198   -748.67236    135252.82   -35724.791    2674.3037   -38399.094    65.452146    240.65812 
   22050    139.64621   -651.62642    135359.15   -35720.176    2700.6873   -38420.863    65.773955    243.03235 
   22100    137.04095   -796.39227    135428.02   -35779.624    2650.3028   -38429.926    66.110823     238.4983 
   22150    135.31773   -579.59808    135435.17   -35742.707    2616.9765   -38359.684    66.428205     235.4993 
   22200    138.80227   -887.58698    135339.74   -35737.992    2684.3659   -38422.357    66.449133    241.56361 
   22250    137.55051   -733.89365    135351.11   -35698.591    2660.1575   -38358.749    66.724882    239.38511 
   22300    141.03151   -960.39849    135261.25   -35721.223    2727.4784   -38448.701    66.971345    245.44326 
   22350    136.84171   -932.98303    135225.62   -35745.772    2646.4497   -38392.222    67.262752    238.15156 
   22400    136.37859   -827.92641    135263.75   -35752.726    2637.4932   -38390.219    67.457256    237.34557 
   22450    137.47657   -881.97291    135167.52   -35795.947    2658.7275   -38454.674    67.395981    239.25643 
   22500    138.11791   -902.01597    135111.68   -35808.529    2671.1306   -38479.659     67.40386    240.37258 
   22550     136.7266   -938.55942    135063.31   -35770.151    2644.2235   -38414.375    67.502062    237.95123 
   22600    135.71999   -654.49079    135071.27   -35799.753    2624.7561   -38424.509    67.666387    236.19937 
   22650    136.52005    -467.4483    135129.63   -35771.073    2640.2289   -38411.302    67.896069    237.59176 
   22700    138.04592   -450.01174    135271.09   -35800.335    2669.7384   -38470.074    68.157872    240.24729 
   22750    136.18589   -683.59767    135328.25    -35846.75    2633.7665   -38480.517    68.246605    237.01022 
   22800    138.06805   -518.03135    135336.65   -35827.594    2670.1664   -38497.761    68.401053    240.28581 
   22850    136.29884   -666.63439    135356.11   -35823.637    2635.9508   -38459.588    68.667592    237.20677 
   22900    137.56003   -641.44647    135374.73   -35778.242    2660.3417   -38438.583    68.898291    239.40169 
   22950    137.64253   -834.04257    135377.31   -35727.649    2661.9371   -38389.587    69.061535    239.54526 
   23000    139.28766    -877.5639    135309.83   -35727.149     2693.753   -38420.902    69.269175    242.40835 
   23050    136.87722   -820.89619    135336.54   -35771.246    2647.1364   -38418.383    69.504407    238.21336 
   23100    139.65957   -646.26067    135311.53    -35735.82    2700.9457   -38436.766    69.689003    243.05561 
   23150    137.44475   -886.29876    135272.11   -35727.484    2658.1122   -38385.597    69.854342    239.20106 
   23200    140.59785   -812.53152    135234.41   -35681.149    2719.0916   -38400.241    69.965786    244.68854 
   23250    140.03174   -586.36109    135228.04   -35688.105    2708.1432   -38396.248    70.292716    243.70331 
   23300     139.0641   -682.33121    135283.19   -35684.337    2689.4296   -38373.767    70.360771    242.01929 
   23350    138.83076   -605.89398    135380.62   -35695.819     2684.917   -38380.736     70.70351     241.6132 
   23400    136.45262   -968.25078    135362.38   -35719.653    2638.9249   -38358.578    71.018708    237.47441 
   23450    137.96494   -827.87973    135331.34   -35659.108    2668.1724   -38327.281    71.257128    240.10637 
   23500     139.7915   -805.80709    135399.02   -35638.432    2703.4972   -38341.929    71.526559    243.28521 
   23550    140.72758   -594.43551    135442.91   -35602.854    2721.6004   -38324.454    71.638963    244.91431 
   23600    138.99343   -739.50491    135482.68   -35596.465    2688.0628   -38284.528    71.618742    241.89628 
   23650    141.95623   -651.63856     135446.5   -35644.176    2745.3618   -38389.538    71.726008    247.05257 
   23700    138.46499   -657.86219    135475.81   -35666.262     2677.843   -38344.105     71.74186    240.97662 
   23750    140.05544   -596.78878    135497.22   -35644.728    2708.6016   -38353.329     71.98072    243.74455 
   23800    142.10342   -718.62262    135447.26   -35660.447    2748.2085   -38408.656     72.10797    247.30875 
   23850    139.23879   -756.48638    135364.32   -35661.593    2692.8081   -38354.401    72.171953    242.32331 
   23900    138.94671    -759.6017    135386.69   -35704.681    2687.1593    -38391.84    72.251211    241.81498 
   23950    138.10489   -928.53064    135368.74    -35711.86     2670.879   -38382.739    72.479637    240.34993 
   24000    139.32264   -635.83659    135350.23    -35661.77    2694.4296   -38356.199    72.517041    242.46923 
   24050    139.58888   -620.22857    135344.72   -35662.632    2699.5786   -38362.211     72.81195    242.93259 
   24100    138.63594   -780.35011    135417.87   -35653.824    2681.1491   -38334.974     72.84379    241.27413 
   24150    138.26993   -673.46396     135499.2   -35667.403    2674.0708   -38341.474    73.266114    240.63716 
   24200     136.3169   -678.68328    135552.48   -35661.912       2636.3   -38298.212    73.585792     237.2382 
   24250    140.38491   -715.43681    135579.74   -35635.372    2714.9733   -38350.345    73.702493    244.31794 
   24300    138.32135   -975.30854    135534.14   -35653.392    2675.0651   -38328.457    74.092459    240.72664 
   24350     138.9197   -719.86809    135493.45   -35654.526    2686.6368   -38341.163    74.260367    241.76797 
   24400    140.21362   -557.55289    135469.14   -35679.288    2711.6606   -38390.949    74.440313    244.01983 
   24450    136.28049    -955.9796    135479.24   -35700.699     2635.596   -38336.295    74.498245    237.17485 
   24500    134.12324   -964.15817    135447.78   -35781.737    2593.8758   -38375.613    74.687687    233.42048 
   24550    138.91517   -1016.4214    135365.16   -35791.548    2686.5494   -38478.097    75.111237     241.7601 
   24600    138.97214   -1012.7262    135363.71   -35718.109     2687.651    -38405.76    75.252982    241.85923 
   24650    134.23335   -920.30287    135372.76   -35778.257    2596.0053   -38374.263    75.253458    233.61212 
   24700    137.13713   -957.87112    135363.13   -35747.345     2652.163   -38399.508    75.107819     238.6657 
   24750    135.59325   -1016.6222    135316.35   -35742.277    2622.3051   -38364.582    75.061945    235.97881 
   24800    134.91489   -941.77181    135279.31   -35765.165     2609.186   -38374.351    75.203062    234.79824 
   24850    137.59304    -1081.491    135176.11   -35796.979    2660.9799   -38457.959    75.257039    239.45912 
   24900    135.86859   -658.79325    135173.75   -35787.594    2627.6299   -38415.224    75.673532    236.45799 
   24950    139.38754   -806.19335    135167.52   -35727.169    2695.6848   -38422.854    75.623487    242.58219 
   25000    137.67167   -494.80077    135246.74   -35683.037    2662.5007   -38345.537    75.915064    239.59598 
   25050    136.49021   -717.00904    135309.57   -35685.445    2639.6518   -38325.096    75.944029    237.53983 
   25100    138.02429   -932.33309    135293.37   -35715.262    2669.3201   -38384.582    76.139403    240.20965 
   25150    138.46621   -519.62719    135288.32   -35660.848    2677.8666   -38338.715    76.315508    240.97874 
   25200    136.72324   -956.82369    135277.54   -35685.284    2644.1585   -38329.442    76.508858    237.94538 
   25250    139.19191    -946.6606    135219.44   -35721.575    2691.9013   -38413.477    76.612083    242.24171 
   25300    138.76398   -623.52427    135193.96   -35693.471    2683.6254   -38377.096    77.090532    241.49697 
   25350    139.13794   -664.59673    135169.84   -35648.859    2690.8575   -38339.717    77.217487    242.14778 
   25400    140.21513     -365.557    135229.98   -35609.258    2711.6899   -38320.948    77.359283    244.02247 
   25450    141.58533   -815.06467     135311.1   -35608.262     2738.189   -38346.451    77.801529     246.4071 
   25500    139.83609   -819.40898    135305.51   -35571.259    2704.3594   -38275.618    78.012443     243.3628 
   25550    139.29783   -799.41479    135341.35   -35550.315    2693.9498   -38244.265    78.459947    242.42605 
   25600    140.34457   -651.39666    135389.03   -35517.212    2714.1931   -38231.405    78.947543    244.24773 
   25650    138.88912    -962.9725    135290.82   -35536.225    2686.0454   -38222.271    79.214795    241.71475 
   25700    142.80895   -704.12157    135231.84   -35531.873     2761.853   -38293.726    79.336798     248.5366 
   25750     138.7468   -699.24883    135215.23   -35579.736    2683.2931   -38263.029    79.539743    241.46707 
   25800    138.50452   -916.80519    135156.37   -35585.604    2678.6075   -38264.212    79.644837    241.04541 
   25850    136.78059   -796.76952    135067.55   -35627.194    2645.2676   -38272.461    79.817861    238.04519 
   25900     138.2147    -945.6498    134985.91   -35624.929    2673.0026   -38297.931    79.843514    240.54104 
   25950    138.23733   -889.07425    134964.28   -35633.529    2673.4402   -38306.969    79.990308    240.58041 
   26000    137.41134   -449.25917     134981.7   -35650.737     2657.466   -38308.203    80.203673    239.14291 
   26050    139.41046   -644.81989    135029.11   -35637.059    2696.1279   -38333.186    80.397118    242.62206 
   26100    139.20999   -562.40493    135077.19   -35630.965     2692.251   -38323.216    80.554237    242.27318 
   26150    138.88677   -792.19963    135117.41   -35664.163    2686.0001   -38350.163    80.862374    241.71067 
   26200    141.30279   -475.09269    135216.94   -35623.308    2732.7247   -38356.032    80.987604    245.91537 
   26250    143.06573   -647.22626    135235.74   -35579.369    2766.8191   -38346.188    81.178966    248.98349 
   26300    140.49175    -627.7651    135247.62    -35603.56    2717.0395   -38320.599    81.137551    244.50388 
   26350    141.66156   -564.58226    135258.27    -35651.04    2739.6632   -38390.704    81.481694    246.53976 
   26400    139.31926   -536.31059    135328.74   -35607.657    2694.3643   -38302.022    81.797651    242.46335 
   26450    137.82406   -613.54173    135418.97   -35685.445    2665.4479   -38350.893    82.268889    239.86119 
   26500    136.46595   -672.07727       135449   -35695.955    2639.1827   -38335.138    82.510294    237.49762 
   26550    138.01898   -904.47767    135477.94    -35727.87    2669.2174   -38397.087     82.65476    240.20041 
   26600    138.07362   -885.44771    135446.73   -35725.247    2670.2742   -38395.521     82.82719    240.29551 
   26650    140.76005   -876.17511    135374.24   -35718.161    2722.2284   -38440.389    83.177315    244.97082 
   26700    138.45857   -936.12628    135376.65   -35736.246    2677.7188   -38413.965    83.239047    240.96544 
   26750    140.16745    -534.0567    135410.95   -35749.516    2710.7678   -38460.283    83.457919    243.93949 
   26800     138.4106   -800.53557    135487.12   -35730.465    2676.7913   -38407.256    83.775702    240.88198 
   26850    139.75941    -483.1539     135508.8   -35674.538    2702.8764   -38377.414    83.923302    243.22935 
   26900    139.23477   -612.66992    135588.31   -35633.138    2692.7302   -38325.868     84.05956    242.31631 
   26950    136.69626   -718.11691    135623.37   -35716.849    2643.6368   -38360.486    84.303288    237.89843 
   27000    140.02193   -626.25387    135562.52    -35628.41    2707.9535   -38336.364     84.20955    243.68623 
   27050    138.70693   -622.13041    135581.14   -35676.451    2682.5221   -38358.973    84.469081    241.39769 
   27100    139.26978   -744.43217    135546.51   -35640.424    2693.4073   -38333.831     84.78601    242.37723 
   27150    143.39944   -525.17083    135609.72   -35600.098    2773.2728   -38373.371    84.878175    249.56426 
   27200    139.95259   -698.27218    135650.28   -35627.792    2706.6124   -38334.404    85.015223    243.56555 
   27250    136.44765   -600.02744    135653.54   -35670.458    2638.8287   -38309.286    85.162046    237.46576 
   27300    137.85391   -715.32513    135625.61   -35712.583     2666.025   -38378.608    85.324193    239.91313 
   27350     138.7264   -840.67134    135594.65   -35700.491    2682.8986    -38383.39    85.489169    241.43157 
   27400    138.90434   -895.36252    135539.26   -35725.688    2686.3399   -38412.028    85.638578    241.74125 
   27450    138.09665   -642.85544    135521.39   -35755.861    2670.7195    -38426.58    86.028295    240.33558 
   27500    137.23747    -556.2512    135658.73   -35733.449    2654.1035   -38387.553     86.29526    238.84032 
   27550    139.13808   -737.69959    135627.95   -35679.436    2690.8604   -38370.297     86.51793    242.14804 
   27600    137.95887   -585.68034    135668.91   -35741.297     2668.055   -38409.352    86.698238     240.0958 
   27650      136.704    -918.4836    135730.22   -35746.185    2643.7865   -38389.971     87.31547     237.9119 
   27700    138.23916   -845.89522    135742.22   -35719.972    2673.4755   -38393.448    87.691975    240.58359 
   27750    136.98961    -778.0399    135652.04   -35728.433    2649.3099   -38377.743     88.07311    238.40895 
   27800    138.60891   -794.32349     135602.4   -35735.625    2680.6264   -38416.251    88.192718    241.22709 
   27850    139.58429   -672.66449    135523.42   -35751.126    2699.4897   -38450.616    88.482798    242.92459 
   27900    135.70498   -780.82682    135429.72   -35758.095    2624.4658   -38382.561    88.802551    236.17326 
   27950    139.51613   -596.67131    135373.61   -35708.783    2698.1716   -38406.954    89.014016    242.80597 
   28000    136.71359   -662.18816    135421.93   -35719.418     2643.972    -38363.39    89.113259     237.9286 
   28050    137.33614    -871.0171     135474.1   -35734.589    2656.0116     -38390.6    89.281081    239.01203 
   28100    138.40177   -942.56403    135399.93   -35676.318    2676.6205   -38352.938     89.31528    240.86661 
   28150    138.23926   -983.28182     135354.1   -35692.291    2673.4776   -38365.768    89.291647    240.58378 
   28200    136.79393   -638.77631    135337.48   -35699.598    2645.5256   -38345.123    89.275687    238.06841 
   28250    135.23257   -678.31626    135333.81   -35727.739    2615.3297   -38343.069    89.517509     235.3511 
   28300    137.03929   -864.33885    135240.79   -35698.357    2650.2708   -38348.628    89.767027    238.49542 
   28350    137.60916   -841.05506    135221.62   -35626.096    2661.2917   -38287.388     89.95028    239.48718 
   28400    139.95937   -743.19423    135143.47   -35644.602    2706.7435   -38351.346    90.225602    243.57735 
   28450    138.32859   -623.49845    135224.92   -35652.675    2675.2052    -38327.88    90.153961    240.73925 
   28500    137.41197   -588.72034    135287.16   -35646.665    2657.4782   -38304.143    90.250186    239.14401 
   28550    140.80189   -628.93284    135318.94   -35676.069    2723.0375   -38399.107    90.765872    245.04363 
   28600    137.92703   -820.97098    135362.48   -35727.418    2667.4391   -38394.857    91.033569    240.04038 
   28650    136.15454   -884.05726    135423.24   -35683.585    2633.1602   -38316.745    91.070108    236.95565 
   28700    139.08694   -773.10548    135382.16   -35692.028    2689.8712   -38381.899    91.088108    242.05903 
   28750     138.4276   -619.99352    135408.24   -35681.127      2677.12   -38358.247    91.290727    240.91156 
   28800    135.82798   -766.46398    135394.56    -35708.38    2626.8446   -38335.224    91.432261    236.38732 
   28850        133.6   -763.53039    135355.61   -35728.953    2583.7567   -38312.709    91.674333    232.50988 
   28900    137.69431   -860.14478     135374.5   -35702.373    2662.9385   -38365.311    91.643104    239.63537 
   28950    138.58556   -737.72033    135374.04   -35679.635    2680.1748    -38359.81    91.689644    241.18645 
   29000    139.29903   -875.76178    135321.44   -35655.805     2693.973   -38349.778    91.613629    242.42814 
   29050    136.99205   -800.96028    135338.47   -35666.259    2649.3572   -38315.616    91.846433    238.41321 
   29100    137.44922   -723.78735    135392.21   -35677.279    2658.1986   -38335.477    91.934331    239.20884 
   29150    140.00458   -1037.2264    135364.92   -35657.242    2707.6179   -38364.859    91.986367    243.65604 
   29200    137.83127    -646.1017    135316.77   -35707.687    2665.5873   -38373.275    92.196722    239.87374 
   29250    138.90755   -602.04377    135343.36   -35676.709    2686.4019   -38363.111     92.49608    241.74682 
   29300    135.82721   -727.94074    135330.37   -35742.733    2626.8298   -38369.563    92.511318    236.38599 
   29350    137.07503   -447.76457     135263.3   -35722.062     2650.962   -38373.024    92.846676    238.55762 
   29400    136.79423   -681.25296    135262.92   -35722.035    2645.5315   -38367.566    93.154501    238.06893 
   29450    136.42633   -830.04542    135202.67   -35760.465    2638.4164   -38398.881    93.417437    237.42866 
   29500    138.10231   -709.79202     135163.1   -35701.531    2670.8291    -38372.36     93.74467    240.34544 
   29550    135.89562   -957.09649       135112   -35750.335    2628.1527   -38378.488    93.978556    236.50503 
   29600    138.13521   -929.88613    135082.38   -35730.544    2671.4654    -38402.01    93.999699     240.4027 
   29650    139.84673   -755.33334    135127.63   -35670.326    2704.5652   -38374.891    93.856677    243.38132 
   29700    137.23328   -904.85078    135085.91   -35700.455    2654.0223   -38354.477      93.9546    238.83302 
   29750    138.73347   -722.93977    135132.65   -35634.327    2683.0352   -38317.362    94.406109    241.44386 
   29800    140.71226   -639.21777    135211.33   -35655.366    2721.3042    -38376.67    94.802853    244.88765 
   29850    138.00514   -827.68102    135183.94   -35625.635    2668.9499   -38294.585    95.110731    240.17633 
   29900    137.02359   -758.07242    135153.06   -35629.996    2649.9671   -38279.963    95.287756    238.46809 
   29950    139.55388    -581.7506    135196.95   -35620.297    2698.9016   -38319.199    95.246833    242.87167 
   30000    137.98247   -706.32916    135210.27   -35663.791    2668.5113   -38332.302    95.466481    240.13687 
   30050    137.59704   -926.32433    135106.75   -35671.664    2661.0573   -38332.721     95.48374    239.46609 
   30100    137.52953   -793.50184    135068.11   -35644.092    2659.7517   -38303.844    95.721478    239.34859 
   30150    137.24012   -652.61193     135089.9   -35673.687    2654.1546   -38327.841    95.790641    238.84492 
   30200    139.15306   -836.64128    135148.35   -35624.726      2691.15   -38315.876    95.998647    242.17411 
   30250    135.17569   -840.59504    135119.68   -35648.933    2614.2296   -38263.162    96.040987    235.25211 
   30300    137.73075   -901.04986    135113.01   -35633.333    2663.6432   -38296.976    96.214488    239.69879 
   30350    139.29297   -883.89355    135070.15   -35631.309    2693.8557   -38325.165    96.594688    242.41759 
   30400    135.60233    -647.8859    135060.15   -35638.112    2622.4807   -38260.593    96.838159    235.99462 
   30450    138.40169   -936.67005     135003.4   -35643.306     2676.619   -38319.925    97.109996    240.86647 
   30500    137.58327   -831.12307    135027.43   -35630.313     2660.791   -38291.103    97.138248    239.44212 
   30550    138.82992   -901.81544    135067.91   -35572.035    2684.9005   -38256.936    97.268148    241.61172 
   30600    140.87226   -754.73167    135061.81   -35550.915    2724.3984   -38275.314    97.153364     245.1661 
   30650    140.68706   -581.42328    135088.09   -35520.987    2720.8167   -38241.804    97.154181    244.84378 
   30700    140.41588   -856.98079    135142.13   -35477.387    2715.5722   -38192.959     97.33305    244.37183 
   30750    137.06229   -599.82084    135029.24   -35502.469    2650.7155   -38153.184    97.585702    238.53544 
   30800    140.03656   -864.43764    134976.53   -35555.609    2708.2364   -38263.846    98.049599    243.71169 
   30850    140.68488   -444.70573    134989.59   -35563.311    2720.7746   -38284.085    98.362698    244.83999 
   30900    142.21287   -582.96348    134934.28   -35541.348    2750.3252   -38291.673    98.503615    247.49923 
   30950    136.94921   -659.77297     134915.3   -35550.773    2648.5286   -38199.301    98.849489    238.33864 
   31000    138.89234   -619.07175    134911.77    -35538.22    2686.1077   -38224.328    99.136749    241.72035 
   31050    136.64659   -773.14332    134927.68   -35578.994    2642.6761    -38221.67    99.258585    237.81199 
   31100    138.62733   -734.86931    134871.61   -35581.939    2680.9826   -38262.922    99.279385    241.25915 
   31150    140.44497   -716.17854    134815.15   -35565.051    2716.1348   -38281.186    99.357606    244.42247 
   31200    139.24818   -488.18954    134772.83   -35523.048    2692.9895   -38216.038    99.508002    242.33964 
   31250    139.08085   -842.36259    134820.04   -35566.273    2689.7536   -38256.027     99.76615    242.04844 
   31300    138.68081   -807.88984    134833.33   -35583.074    2682.0169   -38265.091    99.931929    241.35222 
   31350    140.85117   -645.26751    134774.74   -35609.906    2723.9905   -38333.896     99.99125    245.12939 
   31400    138.40929   -535.69893    134803.32   -35623.382    2676.7659   -38300.148    100.15149    240.87969 
   31450    136.37014   -770.13181    134886.44    -35630.15    2637.3298   -38267.479    100.53879    237.33087 
   31500     136.0692   -789.50902    134958.19   -35637.125    2631.5096   -38268.635    101.02551    236.80712 
   31550     137.9672   -842.72196    134898.06   -35596.688     2668.216   -38264.904    101.07386    240.11029 
   31600    135.98215   -918.22534    134786.95   -35567.238    2629.8262   -38197.064    101.22716    236.65563 
   31650    139.32928    -733.8947    134775.97   -35540.322    2694.5579   -38234.879    101.24955    242.48078 
   31700    137.83315   -587.94827    134837.12   -35510.803    2665.6236   -38176.426     101.2997      239.877 
   31750     140.2359   -873.13461    134869.89   -35525.228    2712.0916    -38237.32    101.53347    244.05862 
   31800    138.67936   -589.72288    134868.93   -35522.745    2681.9888   -38204.734    101.80847     241.3497 
   31850    142.17385   -534.88139    134942.15   -35482.373    2749.5706   -38231.943    101.96676    247.43132 
   31900     139.7823   -788.25346    135031.77   -35470.171    2703.3193    -38173.49    102.16578     243.2692 
   31950    137.00105   -571.69618    135024.19   -35471.917    2649.5311   -38121.448    101.98957    238.42886 
   32000    135.10305   -686.05664    135062.49    -35526.01    2612.8248   -38138.834    102.36964    235.12569 
   32050    139.43401    -668.9688    135170.52   -35521.777    2696.5835    -38218.36    102.63196    242.66305 
   32100    140.33438   -677.91025    135355.78   -35509.122    2713.9961   -38223.118    102.71425    244.23001 
   32150    138.09386   -630.68329    135424.96   -35524.658    2670.6655   -38195.323    102.95466    240.33072 
   32200    141.68977   -756.63592    135423.91   -35513.966    2740.2087   -38254.175    103.09462    246.58885 
   32250    139.94339   -729.14405    135457.14   -35488.207    2706.4346   -38194.641    103.43611    243.54955 
   32300    138.34851   -852.35241    135436.99   -35524.818    2675.5905   -38200.408    103.64913    240.77391 
   32350    140.82254   -637.47056    135441.86   -35504.901    2723.4368   -38228.338    103.52253    245.07956 
   32400    138.56699    -768.3058    135478.54   -35543.564    2679.8158    -38223.38    103.44423    241.15415 
   32450    139.26797    -838.7094    135571.58   -35558.069    2693.3722   -38251.441    103.76393    242.37408 
   32500    139.05399   -1020.2217    135464.57   -35554.005    2689.2341   -38243.239    104.09837    242.00169 
   32550    141.12593   -921.91536    135321.12   -35460.198    2729.3042   -38189.502    104.40702    245.60757 
   32600    138.59919   -784.81611    135245.84   -35534.134    2680.4384   -38214.572    104.43968    241.21018 
   32650     138.7337   -960.42429    135175.19   -35541.842    2683.0398   -38224.882    104.53497    241.44428 
   32700    138.61379    -918.4195    135086.14   -35505.342    2680.7209   -38186.063    104.76485    241.23559 
   32750    140.54944   -863.52172    134995.22   -35490.245    2718.1553   -38208.401    104.90161    244.60429 
   32800    141.28938   -746.63921    135006.12   -35470.148    2732.4654   -38202.614    104.89873    245.89203 
   32850    139.25302   -703.51196    135050.46   -35498.379    2693.0832   -38191.462    104.67617    242.34807 
   32900     139.5072   -699.78298    134946.64    -35494.85    2697.9989   -38192.849    104.59134    242.79043 
   32950    140.41173   -585.54738    134954.14   -35556.722     2715.492   -38272.214    104.50869    244.36462 
   33000    142.25643   -802.04745    134942.86     -35513.2    2751.1675   -38264.368    104.53423    247.57502 
   33050    136.91516   -1016.2373    134849.53   -35524.224      2647.87   -38172.094     104.6192    238.27938 
   33100    139.46761   -830.19266    134647.54   -35552.664    2697.2331   -38249.897    104.90945    242.72152 
   33150     140.0733   -628.45173    134693.46   -35575.925    2708.9469   -38284.872    104.83839    243.77563 
   33200    136.38146   -906.32618    134714.89   -35639.311    2637.5486   -38276.859    105.20228    237.35057 
   33250    138.38211   -459.59692    134714.74   -35580.897    2676.2402   -38257.138    105.24247    240.83239 
   33300    137.16848   -915.75581    134750.84   -35573.432    2652.7692   -38226.201    105.33548    238.72025 
   33350     139.2432   -787.40351    134659.98   -35578.822    2692.8932   -38271.715      105.608    242.33097 
   33400    139.64885   -541.11113    134777.47   -35530.474    2700.7383   -38231.212    105.98795    243.03694 
   33450    138.74901   -888.02323    134921.66   -35547.469    2683.3359   -38230.805     106.1127    241.47092 
   33500    139.53399   -788.62129    134891.92    -35505.91     2698.517   -38204.427    106.41523    242.83705 
   33550    138.25532   -781.43049    134891.44   -35543.311    2673.7882   -38217.099    106.52775    240.61173 
   33600    136.00275   -935.30027    134834.55   -35533.402    2630.2246   -38163.627    106.62381    236.69148 
   33650    138.73296   -777.61597    134731.42    -35560.23    2683.0254   -38243.256    106.75692    241.44298 
   33700    136.31379   -822.99117    134719.73   -35618.172      2636.24   -38254.412    107.20773     237.2328 
   33750    135.44129   -436.73042    134702.83   -35618.198    2619.3662   -38237.565    107.44017    235.71434 
   33800    137.48335   -806.57074    134728.47   -35589.195    2658.8586   -38248.054    107.39609    239.26823 
   33850    139.71145   -780.27552    134727.92   -35548.386     2701.949   -38250.335     107.4753    243.14589 
   33900    138.99913   -931.88672    134664.59   -35510.399     2688.173   -38198.572    107.51756     241.9062 
   33950    139.69368   -819.42705    134716.37   -35464.329    2701.6054   -38165.934    107.97314    243.11497 
[...]
   92000    135.91957    -638.5726    135872.59   -35813.756    2628.6159   -38442.372    284.72389    236.54671 
   92050    137.26079   -790.18311    135838.52   -35829.963    2654.5544   -38484.517    284.78586     238.8809 
   92100     136.2799   -632.35536    135917.62   -35864.232    2635.5845   -38499.816    284.75738    237.17382 
   92150    137.19367    -925.0362    135855.54    -35806.32    2653.2565   -38459.577    285.01265     238.7641 
   92200    136.02274    -472.8575    135887.08   -35843.579    2630.6111   -38474.191    285.18486    236.72626 
   92250    133.47192   -537.70433    135866.67   -35844.685    2581.2796   -38425.965    285.23055    232.28697 
   92300    139.66638   -676.81898     135782.8   -35852.616    2701.0773   -38553.693    285.43192    243.06745 
   92350    138.79241   -555.45051    135901.91    -35867.49    2684.1752   -38551.665    285.50135    241.54644 
   92400    140.43052   -500.65377    135891.59   -35865.323    2715.8555   -38581.179    285.33987    244.39733 
   92450    137.34041   -631.87402    135915.49    -35853.44    2656.0942   -38509.534    285.79766    239.01946 
   92500    136.90662   -740.19837     135884.8   -35861.391    2647.7049   -38509.096    285.82532    238.26452 
   92550    136.12293   -915.04503    135820.61   -35859.408    2632.5487   -38491.957     286.0543    236.90063 
   92600    136.18408   -463.29305    135824.28   -35860.489    2633.7313   -38494.221    285.98385    237.00705 
   92650    136.44485   -639.81547    135875.14   -35835.392    2638.7747   -38474.167    286.22545    237.46089 
   92700    134.42471    -929.4249    135821.25   -35839.502    2599.7061   -38439.208    286.00923    233.94515 
   92750     136.2881   -813.06816     135825.2   -35813.572    2635.7431   -38449.315    286.23686    237.18808 
   92800    138.97157   -582.30057    135816.15   -35824.805    2687.6401   -38512.445    286.67459    241.85825 
   92850    138.32742   -405.50611    135889.53   -35789.206    2675.1825   -38464.389    286.67494     240.7372 
   92900    135.63052   -608.02003    135914.47   -35766.449    2623.0259   -38389.475     287.1956    236.04367 
   92950    136.89643   -858.81361     135786.2   -35759.684     2647.508   -38407.192    287.52672     238.2468 
   93000     138.8335   -826.45697    135699.01   -35735.446    2684.9698   -38420.416    287.53504    241.61795 
   93050    138.16496   -738.06991    135676.66   -35703.608    2672.0407   -38375.649    287.27103    240.45447 
   93100    144.67283    -537.0848    135757.17   -35682.007    2797.8996   -38479.906    287.27581     251.7804 
   93150     138.2174   -717.42032     135828.8   -35710.874    2673.0548   -38383.928    287.71696    240.54573 
   93200    139.73399   -760.03625    135801.05   -35696.106    2702.3849   -38398.491    288.32724    243.18512 
   93250    139.66954   -844.16772    135733.73   -35744.702    2701.1384    -38445.84    288.29509    243.07295 
   93300    140.77805   -1016.3917    135694.75   -35741.755    2722.5765   -38464.331    288.25851    245.00215 
   93350    140.75781    -580.2189    135680.78   -35750.906    2722.1851   -38473.091    288.17876    244.96692 
   93400    139.54709   -612.99142    135642.72   -35799.919    2698.7703    -38498.69    288.62709    242.85984 
   93450    138.91575   -800.09482    135634.75   -35743.513    2686.5606   -38430.074    288.61218     241.7611 
   93500    136.82358   -927.32989    135630.75   -35717.091     2646.099    -38363.19    289.34878    238.12001 
   93550    136.75817   -799.67155    135662.86   -35722.845    2644.8341   -38367.679    289.67325    238.00618 
   93600    137.73253   -565.63978    135725.25   -35726.584    2663.6776   -38390.262    289.83544    239.70189 
   93650     139.3182   -712.04267    135744.67   -35740.179    2694.3436   -38434.523    290.03004     242.4615 
   93700    138.03974   -704.13454    135704.38   -35766.275    2669.6189   -38435.894    290.35928    240.23654 
   93750    137.17487   -648.04547     135686.2   -35757.098    2652.8928   -38409.991     290.5451    238.73137 
   93800    142.28404   -976.53271    135684.67   -35766.328    2751.7015   -38518.029    290.74552    247.62308 
   93850    138.22543   -753.30291    135666.18   -35736.043    2673.2101   -38409.253    291.01365    240.55971 
   93900    136.02918   -1002.4101    135672.25   -35740.024    2630.7357    -38370.76    290.87158    236.73747 
   93950    140.32307   -989.10467    135638.93   -35671.775    2713.7774   -38385.553    290.60147    244.21032 
   94000    138.79237   -1045.4106    135543.83   -35677.911    2684.1745   -38362.085    290.92666    241.54638 
   94050    138.29995   -1084.1806    135423.48   -35651.343    2674.6512   -38325.995     290.7929    240.68939 
   94100    139.00519   -1002.9929    135269.01   -35648.172    2688.2903   -38336.463      290.835    241.91676 
   94150    139.99532   -950.32699    135237.95   -35646.533    2707.4389   -38353.972    290.87076    243.63993 
   94200    137.96956   -875.82862    135184.01   -35663.794    2668.2616   -38332.055    291.15916     240.1144 
   94250    141.35317   -851.23614    135123.43   -35647.762     2733.699   -38381.461    291.33401    246.00305 
   94300    138.06432   -870.60298    135089.56   -35694.499    2670.0943   -38364.593    291.61123    240.27932 
   94350    141.32811   -557.71813    135042.56   -35701.075    2733.2144   -38434.289    291.54536    245.95944 
   94400    136.34196   -866.99601    135081.14   -35728.235    2636.7847    -38365.02    291.90716    237.28182 
   94450    138.35955   -796.04233     135031.6   -35767.767    2675.8039   -38443.571    292.01845    240.79312 
   94500    138.36482   -699.68744     135016.3   -35718.363    2675.9058   -38394.269    292.08294    240.80229 
   94550     139.3967   -634.07196    135096.86   -35719.724    2695.8619   -38415.586    292.18616    242.59812 
   94600    139.72968   -573.15713    135144.68   -35689.326    2702.3015   -38391.627    292.52628    243.17762 
   94650    138.20901   -678.66565    135201.53   -35688.577    2672.8926    -38361.47    292.77144    240.53114 
   94700    139.96272   -623.82672    135189.82   -35722.298    2706.8085   -38429.106    292.76093     243.5832 
   94750    134.97951   -759.87353    135126.32   -35734.242    2610.4356   -38344.678    293.06017    234.91068 
   94800    138.42053   -628.44565    135176.42   -35700.111    2676.9833   -38377.094    293.18782    240.89925 
   94850    135.98552   -827.37862    135212.85   -35795.077    2629.8914   -38424.968    293.13089     236.6615 
   94900    137.54442   -885.16168    135179.98   -35772.855    2660.0398   -38432.895    292.85718    239.37452 
   94950    139.55837   -669.75783    135209.83   -35725.352    2698.9885    -38424.34    293.27367    242.87948 
   95000    135.49068   -465.34327    135283.15   -35732.061    2620.3215   -38352.383    293.89795    235.80031 
   95050    137.27459   -631.76224     135454.2    -35743.55    2654.8212   -38398.371    294.28068    238.90491 
   95100    136.65612   -766.03804    135409.72   -35742.339    2642.8605   -38385.199    293.87908    237.82857 
   95150    137.38692   -627.53119     135414.4   -35780.435    2656.9937   -38437.429    293.99661    239.10041 
   95200    137.87353   -804.54257    135376.01   -35753.501    2666.4046   -38419.905    294.23587    239.94729 
   95250    137.43422   -610.41629    135406.37   -35756.319    2657.9086   -38414.228    294.09669    239.18274 
   95300    137.45552   -602.27452    135362.57   -35711.197    2658.3205   -38369.518    294.23496    239.21981 
   95350     140.7246   -600.74793    135373.64   -35756.512    2721.5428   -38478.055    294.08595    244.90912 
   95400    137.52371    -664.0346    135416.09   -35724.656    2659.6391   -38384.295    294.54121    239.33847 
   95450    139.21311   -455.51295    135488.35   -35731.046    2692.3112   -38423.358    294.94213     242.2786 
   95500    136.94936   -582.13108    135520.42   -35776.566    2648.5315   -38425.098    295.06015     238.3389 
   95550    137.95364   -761.37196    135535.99   -35755.797    2667.9538   -38423.751     295.0121     240.0867 
   95600     138.7976   -998.96921    135471.27   -35764.869    2684.2756   -38449.145    294.71484    241.55548 
   95650    137.79145   -796.73764    135502.32   -35732.048    2664.8171   -38396.865    294.84697    239.80443 
   95700     133.3659   -707.54502    135497.67   -35756.719    2579.2293   -38335.948    294.67162    232.10246 
   95750    139.76856    -1026.314    135476.28   -35707.012    2703.0535   -38410.065    295.00832    243.24529 
   95800    138.46609   -991.70068    135319.91   -35692.758    2677.8643   -38370.622     294.9177    240.97853 
   95850    138.56066   -832.68465    135290.86   -35711.292    2679.6933   -38390.985    295.47363    241.14313 
   95900    138.55011   -865.60098    135224.92   -35704.692    2679.4893   -38384.181    295.42109    241.12477 
   95950    139.03007   -743.15005    135187.99   -35712.614    2688.7715   -38401.385    295.72452    241.96006 
   96000    138.04483   -516.32506    135113.96   -35672.901    2669.7174   -38342.618    295.66936     240.2454 
   96050    140.07222   -681.49132    135086.24   -35635.845     2708.926   -38344.771    296.11786    243.77375 
   96100    141.95712   -540.40452    135078.29   -35611.657    2745.3792   -38357.036    296.37327    247.05414 
   96150    141.27959   -394.26189    135029.91   -35651.078    2732.2759   -38383.354    296.87662    245.87499 
   96200     138.8121   -278.56872    135144.99   -35669.826     2684.556   -38354.382    297.24673    241.58071 
   96250    141.69446   -620.08886    135199.11   -35647.021    2740.2993   -38387.321    297.52467    246.59701 
   96300    135.06339   -629.62457    135245.35   -35721.605    2612.0579   -38333.662    297.70384    235.05668 
   96350    136.96561   -649.41209    135335.78   -35763.817    2648.8459   -38412.663    298.42705     238.3672 
   96400    134.42207   -756.84661    135457.69   -35770.067     2599.655   -38369.722        298.6    233.94056 
   96450    135.47635   -702.21857    135459.96   -35737.182    2620.0443   -38357.227    298.52695    235.77536 
   96500    136.81787   -685.12414    135499.71   -35728.213    2645.9886   -38374.201    298.44345    238.11007 
   96550    136.13548   -723.08967    135545.38   -35705.815    2632.7916   -38338.606    298.68496    236.92248 
   96600    139.13152   -837.94534    135528.89   -35700.991    2690.7334   -38391.725    298.94639    242.13661 
   96650    139.06452   -989.48233    135510.79   -35664.189    2689.4378   -38353.627    298.93926    242.02002 
   96700    136.55027   -763.19471    135428.51   -35672.991    2640.8133   -38313.805    298.90438    237.64435 
   96750    141.87101   -707.67951       135442   -35685.106    2743.7137   -38428.819     299.3577    246.90426 
   96800    141.08518   -750.01115     135450.2   -35711.084    2728.5163     -38439.6    299.76964    245.53666 
   96850    139.04365   -727.37463    135519.48   -35717.035    2689.0341   -38406.069    300.05546    241.98369 
   96900    140.27509   -790.94898    135523.51   -35687.393    2712.8494   -38400.243    300.42914    244.12681 
   96950    139.43784   -596.70657    135531.96   -35725.518    2696.6574   -38422.175    300.53768    242.66971 
   97000     135.5137   -757.49552    135560.46   -35746.172    2620.7665   -38366.939    300.67789    235.84036 
   97050    135.68689   -830.13388    135547.22   -35731.915     2624.116   -38356.031    300.88025    236.14177 
   97100    135.99953   -840.07937    135563.03   -35761.878    2630.1622    -38392.04    300.77018    236.68587 
   97150     134.3896   -699.39034    135627.18   -35748.613    2599.0271    -38347.64     301.1246    233.88405 
   97200    132.80769   -791.61236    135552.86   -35799.121    2568.4337   -38367.555    301.12299    231.13098 
   97250    137.15909   -770.45884    135531.81   -35784.001    2652.5875   -38436.589    301.35216     238.7039 
   97300    139.96854   -505.04672    135573.49   -35699.325     2706.921   -38406.246    301.41028    243.59332 
   97350    137.42394   -792.58168    135564.94   -35677.621    2657.7096    -38335.33    301.46833    239.16484 
   97400    139.10322   -632.40635    135488.52   -35654.047    2690.1862   -38344.233    301.62864    242.08737 
   97450    137.38814   -566.42563    135485.82   -35612.165    2657.0173   -38269.183    301.77104    239.10253 
   97500    136.56792   -709.18701    135370.17   -35667.289    2641.1546   -38308.444    302.13127    237.67506 
   97550    135.32868   -728.31488    135234.99   -35681.026    2617.1885   -38298.215    302.69989    235.51837 
   97600    135.87697   -547.41743    135176.79   -35709.534     2627.792   -38337.326    302.68579    236.47257 
   97650    137.38205   -675.97054    135140.19    -35718.95    2656.8996    -38375.85    302.61766    239.09194 
   97700    135.45944    -726.2612    135086.79   -35725.191    2619.7172   -38344.908     302.1344    235.74593 
   97750    137.31986   -856.42816    135166.94   -35691.263    2655.6968    -38346.96    302.48308    238.98371 
   97800    136.06685   -852.09315    135089.91    -35703.13    2631.4642   -38334.594    303.09718    236.80304 
   97850     137.9466   -766.03137    135074.79    -35703.36    2667.8176   -38371.177    303.36785    240.07444 
   97900    136.61161   -757.16509    135010.58   -35708.245    2641.9996   -38350.245    303.61402    237.75111 
   97950    136.58569   -694.03281    135021.23   -35674.086    2641.4984   -38315.584    303.95969      237.706 
   98000    138.77499   -597.58159    135068.58   -35656.882    2683.8383    -38340.72    304.24882    241.51613 
   98050    138.51411   -794.50832    135138.23   -35649.604    2678.7931   -38328.397    304.77198    241.06212 
   98100    134.28973   -645.37891    135135.27   -35685.438    2597.0957   -38282.533     304.8307    233.71024 
   98150    139.20149   -633.77107    135204.66   -35609.994    2692.0867   -38302.081    304.94517    242.25839 
   98200    135.63172   -643.30115    135264.66    -35694.32     2623.049   -38317.369    305.04007    236.04576 
   98250    136.07884   -979.08278    135350.34   -35721.647    2631.6961   -38353.343     305.3811     236.8239 
   98300    134.96655   -744.35927    135328.59   -35770.592    2610.1851   -38380.777    305.78396    234.88814 
   98350    136.46665   -997.82567    135302.28   -35775.748    2639.1962   -38414.944    305.89474    237.49882 
   98400    134.00516   -741.13789    135262.74   -35791.285    2591.5923   -38382.877     305.7384      233.215 
   98450    136.61439   -863.05396    135269.36   -35778.007    2642.0534   -38420.061    305.61966    237.75594 
   98500     138.4785   -889.55477    135291.56   -35768.539    2678.1043   -38446.643     306.0276    241.00013 
   98550    135.03435   -919.97852    135339.02   -35784.109    2611.4961   -38395.605    305.98655    235.00613 
   98600    139.25511   -794.54999    135377.91    -35730.91    2693.1236   -38424.034    305.61196    242.35171 
   98650    136.42275   -929.17058    135327.64   -35722.407    2638.3472   -38360.754    305.64354    237.42243 
   98700    135.69336   -673.29065    135333.78   -35743.765    2624.2412   -38368.006    306.26939    236.15304 
   98750    139.84057   -891.33748    135349.33   -35724.145    2704.4461   -38428.591    306.71896    243.37061 
   98800    136.22509   -1002.6963    135298.11   -35752.875    2634.5245     -38387.4      306.855    237.07842 
   98850    139.15857   -730.99368    135306.14   -35744.942    2691.2565   -38436.199    306.82543    242.18369 
   98900    137.11718   -732.33094    135273.85   -35743.041    2651.7771   -38394.818    306.58682    238.63098 
   98950    137.81899   -643.63903    135308.33   -35758.301    2665.3498   -38423.651    306.41599    239.85237 
   99000    136.32781   -661.56984    135441.65    -35721.34     2636.511   -38357.851    306.67338    237.25719 
   99050    140.92184    -949.4584    135447.44   -35668.926    2725.3574   -38394.283    307.15461    245.25239 
   99100    137.22192   -915.06453    135420.02   -35726.157    2653.8027    -38379.96    307.17257    238.81326 
   99150    138.73947   -749.64812    135400.77   -35664.912    2683.1513   -38348.063    307.34519    241.45431 
   99200    138.87492   -922.28694    135473.88    -35656.78     2685.771   -38342.551    307.55027    241.69005 
   99250    135.51912   -889.23203    135519.12   -35692.097    2620.8715   -38312.969    307.40678     235.8498 
   99300    137.77825    -818.1876    135579.64   -35724.355    2664.5619   -38388.917    307.40191    239.78146 
   99350    135.34627   -796.14567    135611.48   -35703.639    2617.5285   -38321.167    307.75496    235.54897 
   99400    134.80759   -820.80574    135636.11    -35731.14    2607.1107   -38338.251    307.85027    234.61149 
   99450    137.46702   -813.53912    135684.31   -35734.562    2658.5428   -38393.105    308.46362    239.23981 
   99500    132.98971   -1048.2469    135692.52   -35787.211    2571.9539   -38359.164    308.32204    231.44776 
   99550    136.06142   -907.38785    135607.94   -35797.536    2631.3592   -38428.895    308.65592    236.79358 
   99600    134.85776   -783.21604    135633.96   -35769.082    2608.0811   -38377.163    309.01649    234.69881 
   99650    135.24655   -864.34184     135606.1   -35747.442    2615.6001   -38363.042    308.86775    235.37544 
   99700    137.15271   -939.45887    135505.51   -35764.524    2652.4642   -38416.988    308.71305     238.6928 
   99750    136.27461   -950.43991    135453.15    -35737.03    2635.4822   -38372.512    309.01689    237.16461 
   99800    137.19243   -631.62342    135574.88   -35746.744    2653.2323   -38399.977    309.33239    238.76192 
   99850    138.54844   -728.30166    135564.82    -35683.44     2679.457   -38362.897    309.76491    241.12186 
   99900    140.14521   -748.81356    135568.78   -35691.517    2710.3377   -38401.855    309.87848    243.90079 
   99950    138.28399   -647.15234    135621.14   -35698.033    2674.3427   -38372.376    310.16585    240.66163 
  100000       137.24   -673.85269    135689.28   -35685.245    2654.1525   -38339.397    310.86567    238.84473 
Loop time of 124.354 on 160 procs for 100000 steps with 6489 atoms

Performance: 347.394 ns/day, 0.069 hours/ns, 804.154 timesteps/s
98.0% CPU use with 160 MPI tasks x no OpenMP threads

MPI task timing breakdown:
Section |  min time  |  avg time  |  max time  |%varavg| %total
---------------------------------------------------------------
Pair    | 14.81      | 34.39      | 91.81      | 522.1 | 27.65
Neigh   | 0.37489    | 0.77363    | 2.5121     |  78.9 |  0.62
Comm    | 9.5144     | 34.101     | 94.295     | 564.7 | 27.42
Output  | 0.20604    | 0.20878    | 0.3427     |   2.3 |  0.17
Modify  | 8.635      | 53.788     | 97.086     | 573.8 | 43.25
Other   |            | 1.093      |            |       |  0.88

Nlocal:    40.5562 ave 109 max 21 min
Histogram: 101 19 0 8 12 0 0 0 2 18
Nghost:    524.081 ave 883 max 347 min
Histogram: 80 0 1 39 0 0 0 0 18 22
Neighs:    0 ave 0 max 0 min
Histogram: 160 0 0 0 0 0 0 0 0 0
FullNghs:  3252.32 ave 13741 max 823 min
Histogram: 120 0 0 1 19 0 0 0 0 20

Total # of neighbors = 520372
Ave neighs/atom = 80.1929
Neighbor list builds = 6000
Dangerous builds = 0

write_data		${DIR}/data.eq-${NAME}-${TEMP}
write_data		run_23/data.eq-${NAME}-${TEMP}
write_data		run_23/data.eq-het_freeze_23-${TEMP}
write_data		run_23/data.eq-het_freeze_23-240
undump          1

reset_timestep  0

unfix           2
unfix           3
unfix           4


################################################
#######         Run Simulation         #########
################################################

log				${DIR}/log.run_${NAME}
log				run_23/log.run_${NAME}
log				run_23/log.run_het_freeze_23
