LAMMPS data file via write_data, version 29 Oct 2020, timestep = 100000

6768 atoms
2 atom types

0.3006535045980314 48.91934649540389 xlo xhi
0.2994296086264363 48.720206321785085 ylo yhi
-0.6590194093751549 60.72101940937564 zlo zhi

Masses

1 18.015
2 12.01

Atoms # atomic

4823 1 1.607515772191225 1.8560644230357692 2.756720283317367 1 0 1
5155 1 2.772962132732548 3.9190585787513603 1.9120099852665753 0 1 0
362 1 5.294509717278215 4.260862623691102 3.5716026964968552 1 1 0
3003 1 7.450927670759837 9.944512018128094 1.673730958100601 0 0 1
4929 1 10.677128472048556 1.8721527514897842 0.053926988843665535 1 -1 0
3549 1 11.176475439980795 3.55547009964856 2.145309606891914 1 1 0
5034 1 13.486161398396224 1.7985400178947069 2.312427523158539 0 -1 0
3257 1 17.50948741114355 1.58635915725804 2.1947743052922624 0 0 0
5438 1 19.247092075880875 2.595477936197215 5.197104235182583 1 -1 0
1470 1 15.64183739687686 2.7263365721587207 0.6647611112924017 -1 -1 1
6401 1 23.799417327121187 1.8121530807413224 1.4721150697625318 0 -1 1
5548 1 24.464061853351982 8.839536013841643 14.001315026103958 1 1 0
6564 1 23.980048955490382 9.079241233934804 3.059654720610166 0 1 1
2024 1 1.8106784245871532 6.466219415804333 2.437591957745782 1 0 0
1779 1 6.591863074922515 7.954579808517804 3.198852729399767 0 1 0
451 1 3.319675883245332 8.704133204555678 1.4492012862797283 1 0 0
1588 1 3.081276564634352 23.7604806457269 14.119633826079404 0 0 1
5097 1 23.08158476341047 17.603927736082493 5.638661007504441 0 0 1
1346 1 12.690767179720531 6.144889384353681 1.857765143446041 0 0 1
3074 1 10.009484795167037 10.248892282582522 2.713061036358081 0 1 1
3228 1 17.2117872160487 6.2074314851612025 1.9849338665134848 0 -1 0
1847 1 19.360620815226316 3.9845952327642573 2.5395269410125176 0 -1 1
4793 1 14.964600830863912 5.539757486823818 0.6190769056319205 -1 1 1
4853 1 15.186908837326047 22.26420007169518 17.396738690201786 0 0 1
3476 1 23.395516742620828 8.583638920766083 0.42192094539697056 0 0 1
2119 1 1.6531039176849067 11.726101346282613 5.322669591522734 0 1 0
3186 1 1.1913343225468704 9.81761281663786 0.3144993449997642 -1 0 1
3072 1 0.9397618372940018 16.014079447655973 19.786923586701334 1 0 1
5096 1 20.0360352098134 6.180091333532926 0.021591439234663667 2 0 0
3197 1 6.469942102004413 12.343034565106919 2.838913545426577 1 1 0
1531 1 1.2003302920041623 9.24728660361091 13.839900106699252 0 1 1
2161 1 4.265582302361642 9.645549026569414 3.875445424422895 1 1 0
1336 1 12.268518092452956 14.732048076699058 2.076876760757296 1 1 1
3672 1 10.28608127715503 12.977732592251215 1.874103909959651 1 0 1
3294 1 17.39987796347462 10.445655171067635 1.262559798093947 1 2 1
5179 1 18.12233784664567 8.453407910364353 3.2090434253028497 0 1 1
3146 1 20.49503526104244 8.08087236775852 1.9130090565868816 0 2 1
4867 1 19.78880287956566 12.132463600416312 0.574396225843848 0 -1 1
6759 1 19.107931368958056 12.750049097166691 3.524908633394408 0 0 1
1522 1 22.522530421526366 11.477714413642547 5.8511106056897075 1 0 0
1332 1 5.499610962107319 6.0604730329822685 -0.09682070957719002 1 0 0
5024 1 4.3191749142823985 16.080494419065765 1.3374924207531222 0 -1 1
4859 1 20.373557405901796 24.337881334562336 13.762352154173964 0 1 1
4764 1 8.610266785678535 13.63265282942219 3.865422803231432 1 -1 1
1635 1 8.628657034873081 16.44058090689691 1.7531405237991624 1 0 0
1807 1 13.010641279712116 13.017670311167473 4.302938731145688 0 1 0
3506 1 14.08191437507009 13.428624356730285 0.5370555886072574 1 0 0
6699 1 15.257193132558696 11.925383501645536 2.629279845838684 0 0 0
1712 1 17.590409489813787 18.405028451520632 1.748547223920545 1 -2 1
5210 1 17.976131614873278 16.015942721277572 5.029014892044027 0 1 1
5335 1 22.035296057023537 13.28922953910067 1.8418815127634693 0 1 0
2064 1 23.79392076183815 15.617780059614754 1.175570631887834 0 0 0
3771 1 10.213740492652292 15.728783711000725 16.388292667143812 0 -1 0
1821 1 7.371795427042434 3.3892784025931952 12.642781213476317 0 1 0
5338 1 2.143117764333407 17.717696852348443 3.8889657423606367 1 2 0
2177 1 9.369027076290761 20.15756596606052 -0.25171270963364106 0 -1 0
3884 1 5.715620703952279 14.018224730217948 0.5990721044139642 -1 0 1
1459 1 10.032447498295756 19.776451884672564 3.466988522064959 1 1 1
3983 1 10.594805830058402 17.694456142217955 0.6126189090933645 1 0 1
5150 1 9.192850975930446 16.700350325461255 4.4626063362084265 0 1 1
6467 1 13.158051231182633 17.480466996476 2.330669907109037 0 1 1
4893 1 12.377974983066617 20.286157717948964 2.7069597683879403 0 0 1
3713 1 15.31509876635285 17.554518515370184 0.5596906966693711 0 -1 0
1941 1 20.264993997716783 15.26189825814678 3.47945267131431 1 0 0
3237 1 22.40434478068586 19.100260178118035 3.5216503665188785 0 0 0
401 1 9.640020163205339 0.48813095050322913 19.72730836747676 1 -1 0
6373 1 1.9042794692627696 21.106359440692028 1.1974364627625498 2 2 0
178 1 4.343949070179481 21.29385987046542 2.5858098331824584 -1 0 0
349 1 13.672944155331635 14.690276293472362 19.24590643414881 0 -1 0
3628 1 5.647569810245131 22.14745619142482 -0.3072123701706222 0 0 0
4908 1 8.278059363754666 22.700668528179687 0.3799769082449489 0 0 1
153 1 11.358989143206871 24.259503343513305 3.629854468492984 0 0 0
507 1 12.883402150547285 9.753046052112996 -0.5228434855531834 1 0 0
2056 1 13.596534350309613 23.619525280097232 1.5443253347788182 0 1 0
5177 1 24.163412678223132 18.01597119777523 17.54083280098742 0 -1 1
1993 1 20.241539761236744 22.787730773915683 2.6790035746168686 0 0 0
5648 1 1.232370874734519 11.2332225893105 17.47163932850956 0 -1 1
2090 1 23.6010213724483 21.937750064245723 4.440912846579209 0 1 1
6697 1 1.242104848996832 23.488315734916664 -0.23864228014757216 1 -1 1
5004 1 5.5039050840385215 24.42863131928398 9.9482737852286 1 -1 1
5330 1 24.55009490601782 5.624043932362316 4.66638973386048 0 0 0
1759 1 3.7470051017141155 1.0356443449047696 6.204419000210798 1 1 0
6681 1 22.436822807066697 18.021138721236234 0.8762235578539768 -1 -1 1
3051 1 12.710895466301558 1.0183742691064244 19.28967961404184 0 1 1
245 1 11.481318298238646 6.571198165551651 5.547667942646079 0 0 0
3037 1 9.75240742089117 4.259701756699012 6.25839963372565 0 1 1
343 1 11.707192911811124 1.3625911766696908 6.938693515617162 1 2 0
5671 1 22.892556743244448 2.167674221908056 5.2858887288625365 0 1 1
3735 1 17.19584395212783 4.435293661008697 6.318240937651669 0 1 0
3468 1 16.219129549091193 1.806665182674 8.078030459130199 2 0 0
3962 1 20.091848800936663 5.009280445316448 7.4222358106863915 0 0 1
342 1 0.5480828873854372 22.403568667936952 17.685240868045547 3 -1 0
3887 1 2.4478057847077435 3.246708727392546 18.31201808061554 1 2 0
45 1 9.98972303777956 6.310775274820024 1.3125009911004888 -1 1 0
2182 1 4.894997791040588 5.527025145521648 5.70586622054797 1 -2 0
3540 1 6.826541803759417 6.618307886011505 8.865765659926598 1 -1 0
5300 1 9.61007401492144 7.53738053405319 3.7810415801599877 1 1 0
6667 1 15.91311324078655 4.095142721359176 3.734881172335217 1 1 0
2040 1 16.045708653314485 7.646495189148985 8.183099390007179 1 1 0
3247 1 13.788558072639788 6.77385225841515 4.245685366376197 0 1 1
6672 1 14.494398707219975 5.339385632045074 6.831017944522333 -1 0 0
3711 1 21.837272135804042 23.102235947860784 6.284017241904283 0 0 0
5008 1 21.522942522554175 8.78708858871024 6.489576428751119 1 0 1
2031 1 22.100203554827505 7.528876674049315 4.069479085488423 0 0 0
3335 1 0.5502146494648656 8.173890053944529 4.181031763317702 2 2 1
6705 1 5.841380301156141 8.863197526662034 -0.39993934373887996 0 0 1
480 1 3.5184611603507108 8.076285287690748 5.686960472660016 -1 1 1
1663 1 5.335630916750096 8.778861742398302 7.963026119146736 0 0 1
2315 1 5.564377684548145 13.684830713558434 5.921702477731839 1 1 1
5652 1 10.527865825073354 11.094678269286861 5.20424302288271 0 0 1
3059 1 11.744313944291168 8.139893571374678 7.8178003169708195 0 0 1
1527 1 8.685160815670924 13.096860207325149 6.403792244563002 0 -1 1
5476 1 12.427905596026212 9.274859093011791 1.8920479381357427 2 0 0
5015 1 14.029079942235038 9.592500895275085 4.215200060734279 1 0 0
5683 1 16.386509965665844 8.685804554716837 5.629425473874742 1 1 1
17 1 19.448511653272874 10.54505589300063 5.2404670998816725 0 0 0
286 1 22.73201983763423 8.063651745685629 8.979534790894556 1 0 0
485 1 14.061033086391069 10.254682190151918 19.191477764887146 0 1 0
5649 1 1.2120054199434103 14.616874497092253 5.455372746946247 1 2 1
369 1 17.580228834902503 16.612494877677754 18.257039407041795 0 1 0
3538 1 1.6724154944891576 16.225677756606814 7.639772207000341 1 1 0
2096 1 3.975995945973885 16.86569509008765 8.310950855855689 2 2 0
3404 1 3.7779457209435843 12.873042222798023 3.788814763440815 0 -2 1
3419 1 2.4217131869814756 14.93351682273755 2.897400872020624 1 2 0
371 1 10.218143040855455 14.849722147970878 7.866673921110378 0 1 0
1592 1 13.412627409883319 17.157346288299816 5.253884507710174 0 1 1
1494 1 16.61240998148997 13.249587687082329 4.682933262928351 0 1 1
5286 1 13.619606012947736 0.742016575108116 4.831373095618113 0 1 0
5597 1 17.650187042324127 18.76348842493669 4.65618154746994 0 -1 1
5465 1 19.154442116867852 15.738687759945662 7.328242438650636 0 0 0
1870 1 21.167062609889225 13.40123443726251 6.826821649564366 -1 0 0
189 1 7.094785385402871 5.41022126877229 1.785436929730944 1 -1 0
5458 1 1.5708401801335445 18.73514466453917 6.39375655385432 1 1 0
358 1 3.08431185079113 20.707266678361577 7.271269172574643 0 0 0
3811 1 6.293086474324926 17.949836239154173 2.332464133696935 -1 -1 0
3584 1 6.397180624515132 16.74874405414384 5.567183641473033 0 0 0
5240 1 4.353536822215676 19.159510188590087 4.035409798157347 1 1 0
3078 1 7.402839166635607 18.458853031540627 8.78088028328679 0 0 1
6607 1 10.247096132249947 18.59076728411251 7.913068791194316 2 0 1
6560 1 11.03776010203086 16.562375510887513 6.318180098074284 1 1 1
3710 1 9.998766520761057 20.422804602621667 6.13017526921525 -1 -1 0
2114 1 12.597334191501918 19.59099968361518 9.170157002640149 1 0 1
5321 1 15.123822816798805 19.321367422031624 5.6612997254069555 -1 1 0
2296 1 18.27868353660654 20.965944723967144 1.4253530776696355 0 0 1
5526 1 20.110601314044775 20.192325022490717 4.430002025884626 0 1 0
3331 1 22.261814449090455 15.240673173985563 5.06668009965686 1 1 0
5354 1 2.5112520146179387 22.68243278946612 5.8084864077273535 1 0 0
1719 1 4.101587698686027 23.477744257026867 3.532873730948036 0 0 0
146 1 7.36789416368926 21.35345468284817 6.787075489442585 1 -1 0
577 1 6.88797763183706 22.689687202101574 4.582903498939278 0 0 1
456 1 9.084776635433402 22.672728995525794 3.078939718050996 0 -1 0
1318 1 14.165385556295853 21.777853663564105 4.771966239201283 0 0 1
6646 1 16.342704554049213 23.169813313252437 2.2765382077431053 1 0 1
1687 1 12.073888586963609 22.14936859094643 6.843192972056237 0 1 1
5702 1 16.529990628244903 23.03717162991501 5.421075238764174 0 0 1
3227 1 20.033157837390203 20.861687178434774 6.735315085606642 1 -1 0
5262 1 24.56780962245343 20.487988627973696 1.4027190929470454 -1 -1 0
6479 1 14.927226693819636 0.6689739759756115 10.559044387024091 0 2 1
3018 1 1.3627008496307187 2.014441602219352 10.634993953422496 0 0 1
1820 1 23.244131061288787 23.339840532876547 1.98613915016219 1 2 1
1458 1 22.57997702851102 20.208278823230817 18.209302694294784 0 0 1
4826 1 7.41918080420314 1.6647570504396714 8.054110646906478 1 -1 1
3841 1 11.547090197862323 23.466215124279856 16.695330009523914 0 0 0
5356 1 6.010831128793337 3.832103776106173 8.885310464325 0 1 0
100 1 9.408991536721878 3.156428609205243 11.201272551933455 1 2 0
2113 1 9.770884136436676 5.11231193592519 9.087318381876397 0 1 0
3501 1 7.894303984672827 21.83883308458329 16.70662022821676 1 1 0
5464 1 13.724304778416727 3.1330038731920675 8.450742108938783 1 0 0
529 1 19.140334610648218 2.001953382610133 8.912727677391468 0 1 0
3025 1 19.01246238227489 3.6871685679789636 10.979186529376143 0 1 1
2186 1 21.26107291712902 1.1017265074813833 7.229498828784665 1 1 0
1461 1 22.90840731424791 2.0805898748076057 9.121131072759216 -1 -1 1
3284 1 8.171132652471204 12.24386863059288 19.512486266097135 0 0 1
298 1 1.7192397969151705 3.7860052786244878 8.401974799970416 1 1 0
5174 1 1.0975080527021044 6.08278329132991 9.754017543568114 0 1 1
304 1 3.2172388372798233 8.654948773121804 9.647969995294341 -1 0 0
352 1 4.08128558820539 3.622613483910684 7.220041614953823 1 0 0
1761 1 5.379106427845965 9.486856389307011 12.258077124942707 0 0 0
3384 1 7.771887856257444 6.221759647120613 5.818383004393162 0 0 0
119 1 6.299291469617861 7.018953847836203 11.483751948240686 0 1 0
6684 1 14.206886573658196 4.546029957419436 12.86643633193373 -1 0 1
5243 1 13.428474107652109 7.48929494883379 10.296044185686833 2 0 1
2206 1 14.305370570491563 4.804301468575773 10.259978270835964 0 0 0
3645 1 17.196139223710386 5.482672298958057 10.055396956165294 2 0 0
1612 1 19.01311138076977 7.564015628126149 7.952352276413745 -1 0 1
557 1 21.336626995549828 7.980283215768216 12.661927169577307 -1 1 1
88 1 22.092091910315172 5.361171298047674 9.06155144873021 -1 -1 1
3679 1 1.6883433236639245 10.47383743627645 11.313422179305869 1 0 0
504 1 6.483972818319767 11.275005794817766 10.414550997002445 1 0 0
5527 1 6.836626645363133 11.281330774450065 7.727982335462096 2 1 0
4981 1 8.477268000696087 9.062579875431403 6.494345253942638 1 0 1
4735 1 12.841176116849258 10.462765347862893 6.7322332079155265 -1 1 0
5044 1 15.516623583164382 10.154690873352035 9.255274504603058 0 3 0
2144 1 17.509365537214407 7.860221910720947 11.839316287173096 -1 1 0
289 1 15.684064530008314 10.295400260175708 12.219328948473073 0 1 0
5482 1 16.897937415138443 11.335857380781434 6.963586829140902 1 1 0
3401 1 20.077812840650964 8.619094985093053 10.269766133758871 2 0 1
1765 1 23.836124759704123 11.655435906089089 10.982824992471325 -1 2 1
337 1 2.898542627692333 12.806203725118946 12.34847801880959 -1 1 0
1929 1 0.7364676249142186 14.707208248806136 11.892658445127577 1 -1 0
3366 1 1.0589868630054688 17.515167591616297 11.751092870119965 0 0 0
4875 1 5.4088427553955505 19.370871162000743 6.778947318024772 0 0 1
3484 1 5.693755034050658 14.6380910141115 8.523152318547213 -1 1 0
1476 1 5.282607889073617 13.600478415871141 11.308573808406415 1 2 1
4915 1 9.849740731223477 15.157321957742752 11.130099522209102 0 0 1
3134 1 12.609438639221667 13.324224984134535 7.478946920906932 0 0 1
3174 1 14.547263759257959 14.897855858153084 5.780400268770962 0 1 1
1333 1 13.259884834224676 12.35453949267049 9.919915335892961 -1 -1 1
1839 1 16.123149391257478 15.210882019769127 8.04049894157385 -1 0 0
3818 1 18.99317131878172 12.960041174719263 8.836691584016775 0 1 0
1843 1 23.101396186446987 13.413689448483243 9.036667124309707 0 0 0
4974 1 0.5970288287812862 13.99010834062111 1.1472503311972688 0 0 0
3120 1 1.9885091216900108 20.591569660208823 9.78640273541298 1 0 1
3066 1 3.362187734277605 18.17840310358139 10.641628711843653 0 1 1
254 1 6.983461556258636 19.270806089929938 11.07299555587454 1 0 0
6702 1 7.722658596534381 15.97085827819842 9.072909958261558 0 0 1
71 1 12.963892765006552 18.03424249670322 11.523059725590056 0 1 0
6639 1 15.333314489420566 19.390768035589318 8.44401590840393 0 -1 1
2107 1 16.285036250090982 17.450465377173085 9.85919616409523 1 0 0
3317 1 19.936136160286992 18.491177136917994 8.195208852502873 0 0 0
1538 1 18.56258893881631 18.225655058280765 10.536705387574477 0 0 1
3727 1 23.448142475652965 20.363283007504712 9.742470545157321 1 -1 0
279 1 22.847676319541595 18.040514903868008 8.190551874359732 0 -1 0
1340 1 20.29840540141668 23.80585572718274 9.584626468314074 -1 0 1
3152 1 1.00924606547499 22.674685251302627 11.088937701159304 1 1 1
3097 1 7.507438316987751 23.52311709480223 8.620037015370464 0 1 1
3541 1 5.223897414154778 21.46222071142219 10.436706496183 2 -1 0
3712 1 10.080231409028952 22.67811715673223 10.44474765721565 0 -1 0
1977 1 12.49754104838914 22.172780830256883 9.477688208893955 0 0 0
2038 1 16.595600237758184 21.496322803480226 9.675029236551158 0 0 0
448 1 2.3106473903794456 24.2924353660518 16.863933707019 1 0 0
5611 1 1.5318142144093858 9.343481731807328 7.398647559857153 1 1 1
230 1 18.176027601074484 22.577270964764235 7.947464654198672 0 0 0
345 1 20.496362679911343 22.46048608566183 11.996193554343337 0 -1 0
4736 1 22.562415501329752 22.95965258454879 8.687513686820875 0 -1 1
4928 1 17.933209176575158 8.86856550230656 18.74970378941619 0 0 0
584 1 5.800834412750927 0.7740166972763988 0.19827107870617255 0 0 0
5707 1 4.936410818214372 3.9135593244688467 11.448690124590014 2 1 0
6509 1 4.619479366374138 1.148561616070793 14.964794353081812 1 -1 1
3731 1 7.233429297408877 0.7836510512424543 13.70603569722179 0 1 0
3925 1 12.505330126896526 1.20009240705284 10.63257082481822 1 0 1
1384 1 15.987127120225306 14.939965081067616 -0.4205163609166085 0 0 1
6670 1 11.735704567302703 3.11316732150557 12.631139537673615 2 -1 1
3265 1 16.444924232245075 2.9585202145217924 12.75200653839199 0 0 1
3974 1 17.44293274787692 4.047687726475353 14.807354001074982 0 0 1
2027 1 19.79062189566176 2.6864924232993417 16.089138727521206 0 0 0
3073 1 21.48715882639387 4.569443348660538 11.455787691418164 -1 1 1
4945 1 22.717026336184283 2.0651193508902717 12.697733733387693 1 2 1
2231 1 19.885406381439594 5.372182815235749 19.008924581013453 0 1 0
4706 1 3.5229956612091247 6.204758797763202 11.683290083405053 0 0 1
5687 1 2.8994194685474386 3.5896893333739133 15.590383042669014 1 0 1
5456 1 10.847526277142139 5.4942371242133765 14.444730931456453 1 0 1
3704 1 8.745844909654576 6.882673109062816 12.990525019846128 0 0 0
3193 1 8.816453246741286 9.494710588221487 14.27502613520649 2 0 1
109 1 13.118589026405965 8.915647975711677 12.792388766277197 0 -1 0
3088 1 10.477775752102916 7.403459053353708 10.678954355134188 -1 1 1
4950 1 13.29857081003123 6.695061311982746 14.588914583416974 0 1 1
1608 1 20.52095601551047 5.803508272817612 14.072639954282993 1 1 1
323 1 17.791239700440677 6.850724080483127 14.49444373419673 1 2 0
3636 1 24.34009563024564 10.34513265115023 7.7151895880569725 -1 -1 0
3510 1 2.8568590046906843 0.728130900782021 18.478672517427686 2 1 0
546 1 2.6004045740374764 5.938651735617323 14.277749242347248 1 1 1
3823 1 2.6391315508344264 11.943485083276844 15.286490658371706 1 1 0
5238 1 4.525420766933851 9.825798929572866 14.616095056788266 1 -1 0
3739 1 6.632345821400697 10.082408940902447 16.03768574883086 1 0 0
70 1 9.194475339359398 10.72103321006221 11.746716972794932 0 0 0
313 1 9.703336187632978 10.34008158116929 8.764419388021448 0 0 0
3753 1 11.564116487141728 11.375242276768544 12.13951801662873 0 1 0
4979 1 16.985507099489222 12.250420451739982 13.709068408694975 0 1 1
2263 1 20.291821944532277 12.168134265465326 12.755505043472128 0 1 0
3489 1 24.385123297835882 9.068239076233787 11.347647955485105 0 0 0
3329 1 22.34672701731734 10.16125115902065 15.474896955867546 -1 -1 0
1640 1 20.096646607973188 9.961272298361068 14.254493575284545 0 1 0
3647 1 8.981050851725549 17.752494169667518 18.463841514147024 1 0 0
1982 1 3.4398587413458386 14.60770746818992 15.5582463397025 0 2 1
1902 1 1.1420369047204912 15.867847598857217 14.679432184961865 1 1 1
1598 1 5.588526859099411 15.139733459200533 13.653950276224506 1 0 1
34 1 7.878088415598267 16.45295745308423 15.325842368334905 1 0 0
5274 1 8.27766450405732 13.430791043936791 12.685407256307395 0 1 0
3250 1 12.204406193784 12.332559724269583 14.404443832746496 0 1 1
5053 1 12.851906925156593 14.574328361772514 11.951633125259548 1 0 1
6719 1 15.837580214052167 13.623047245858777 10.402547414960871 1 0 1
6674 1 18.151125416411027 13.89703983073174 11.667769857514113 1 0 0
3206 1 20.633749845180514 11.408333510062002 10.329063283487377 0 0 1
1643 1 23.33604193910437 15.952258982114376 9.940414149629907 0 0 1
3734 1 21.95677004170483 13.934016008405273 14.053014310566974 0 1 0
5590 1 20.108678062935113 14.774280808480642 15.93075295954926 0 -1 1
1708 1 18.972732282492423 22.89222059304273 15.419757188139567 1 -1 1
5481 1 7.830732275104707 3.063110959789399 0.015076507621857194 0 -1 0
1587 1 3.994834207815347 19.384728740746315 14.713839897790262 0 0 1
5018 1 4.987620334493836 17.94539499396212 12.776687219251901 0 1 1
5503 1 8.605624068317727 17.066953108093454 12.554735971985709 2 0 0
331 1 10.352113696381457 20.065856365124628 14.196495527048999 1 -1 0
6692 1 10.99576590676821 17.646604824998448 13.730751737359741 2 -1 0
3220 1 14.769914300444036 18.62879639760044 13.902839007226111 1 -1 0
2006 1 15.078320677227348 15.934439627524814 11.678365258975113 0 1 0
3857 1 13.72969439646107 18.612553933130396 16.524783814875605 -1 0 0
5147 1 19.288192538142795 16.438971962130168 12.342055307232236 0 -1 0
3350 1 22.105490086681716 16.133704792449127 12.16905636448078 -1 1 0
4860 1 22.11943456795415 18.617079344359144 13.518419979552318 1 0 1
1682 1 6.460385734925174 4.957740404402319 18.98595791045768 0 1 1
613 1 17.086835646697747 1.288501270058426 19.276616381421483 -2 0 1
4809 1 4.74555391324511 21.814549019213462 13.292328067174747 0 0 1
2270 1 7.181312340040432 22.21726575223453 14.018214166102931 0 0 1
1595 1 8.78110069667208 20.7098149727296 12.086101250310373 0 0 1
3932 1 14.251480802158072 23.345612716440275 13.067428146173404 1 0 0
135 1 11.854733171615482 22.23256454159249 14.318254609405093 1 -1 0
3902 1 16.882258162825767 20.441795699596085 13.836796157711234 1 0 1
5299 1 15.974627308276844 22.86778037297114 14.995122781989826 1 2 0
4779 1 18.531296929113758 20.70598600552892 11.821219232652805 0 1 1
5054 1 18.35526316720089 19.573264061600053 15.899634620565731 0 -1 1
5149 1 21.25772386705258 19.091005894145958 15.855378539590895 1 0 0
6417 1 22.775033473713513 21.354533891819226 12.773345724673703 -1 -1 0
185 1 21.438867886963404 22.336517596811063 17.354244716230742 -1 0 0
5372 1 19.292465318642037 12.196904097345993 18.553618322623677 0 0 0
3878 1 3.368971801912079 5.94459223709426 18.824939229950974 0 0 1
3385 1 23.135671731654934 23.262931538504798 15.31962584738226 0 -2 0
285 1 0.6256333170473597 2.0059142422995446 14.918942202673815 1 1 0
5095 1 5.61250906898786 1.4705967292161732 17.83582348762226 1 0 1
5508 1 7.856588511528416 2.496134461268045 19.051246757346558 0 0 0
4952 1 7.4246474461856735 4.627208433210604 14.821199450870159 0 0 1
3053 1 12.141941978339224 1.1127961919368095 14.622567756443765 0 2 1
5089 1 14.231380426390833 0.8718679049030131 16.376473720420677 1 1 1
5110 1 16.017299405245865 3.022090426518181 17.245772468176234 1 1 1
2156 1 20.045612561251755 16.83658823447151 1.2655647992312007 -1 1 0
6441 1 19.655955265829537 2.645191826739497 18.941797156776804 -1 0 1
1913 1 22.360632116600414 2.1404062545822784 15.614309109537025 1 1 1
1475 1 23.49174677963487 4.384058925179808 16.725080442547917 -1 1 1
1865 1 4.656100976080515 16.86161303686622 19.77318747621166 1 0 0
1525 1 5.492881119589054 4.363126698790966 16.40362329442882 0 1 1
5256 1 8.961926691155705 2.981028592895858 16.534376976289693 0 0 0
1464 1 21.703664549699962 4.551597405339411 4.8945065833441435 1 0 1
4840 1 11.185357292174533 4.974877162115157 17.271084972346607 0 -1 1
3137 1 10.841706817280551 8.282677049524356 16.306216890181677 1 0 1
5534 1 15.609603622860464 5.882978258876029 18.298342937816805 1 1 0
4937 1 15.70909797712865 7.503944844459882 16.504332495634614 0 0 0
2076 1 22.272150986382602 8.516147784672597 17.530967527718413 0 1 0
3379 1 21.319867178933066 6.159004967550318 16.85135052067995 -1 -1 0
4799 1 2.495436629900855 9.121630056881996 18.443395996421327 1 0 1
5487 1 3.973885730879785 7.250736620404475 16.249874158849142 0 0 0
3852 1 6.762131588829041 8.060753570596091 17.78098241684836 0 1 0
3904 1 10.67784490256635 11.453229092999775 18.955717239331367 0 -2 0
6404 1 10.469745753791642 8.50855915950262 18.927033498325127 0 0 1
6457 1 10.268585640553251 11.311678752304912 15.915843574694929 0 0 1
452 1 9.09521939041265 6.098383024321073 19.101757521470816 0 0 1
389 1 14.673609699235616 11.830952155998549 15.395128521121602 0 -1 0
241 1 15.673723370163406 14.682730270383916 16.734929116165144 0 0 0
4976 1 13.306643744652172 3.758542965046297 18.25598462776019 0 2 1
2129 1 13.499953714916783 9.513537528596146 16.52623776549266 0 0 1
5564 1 18.104424543764388 9.78741565445694 15.980021895322288 0 -1 0
6665 1 0.41041261650226096 1.5287446908614954 5.587986872576467 0 1 0
3900 1 9.097510569347145 0.7003347232737258 9.724472832547622 1 1 0
1594 1 21.922941346805622 13.439280183397152 18.835654896320186 -1 -1 1
5413 1 6.7322418172239 12.471983484983452 17.38793402647894 1 -1 0
2312 1 4.725277224629668 14.394458012550068 18.118720181923077 0 0 1
2139 1 12.593504926549485 15.4622624764513 15.110291598144528 1 0 1
3906 1 8.35611532256563 13.16526280068534 15.453322609623822 0 1 1
3828 1 19.093016623152653 21.539550926297334 18.913137424106203 0 0 0
2209 1 16.03773655472349 16.293857632475714 14.39272188641075 0 0 0
6550 1 18.002774001492835 12.899116340532707 16.257065835101905 0 -1 1
6657 1 16.24926599843251 18.803133353869967 17.38527963926591 1 0 1
253 1 23.664283243230404 12.544476609885857 16.728612961179362 1 1 0
6736 1 1.114844382832548 19.957512046839692 17.558940752090887 1 1 1
5 1 1.4471073314125997 19.07111920677598 15.108730815454855 2 0 1
5355 1 5.849533273213113 19.84861912967294 16.805737106167022 2 1 1
3792 1 6.257474237266377 17.485656488921094 17.395286393434873 1 -1 0
2091 1 10.041900324768383 19.6809113285931 16.961742998432793 1 1 0
5606 1 12.553921058845203 20.812922930785128 17.696736856476097 1 0 1
1912 1 12.462581657990189 16.932500190107795 18.31290695726453 0 0 0
334 1 14.9269863174667 23.236025893243397 10.430976474730628 0 0 0
1557 1 18.528089776455946 16.865148392593664 14.81059352904772 -1 -1 1
5445 1 22.055995246847 16.324474474705283 17.638453281957833 0 1 1
4773 1 24.110692943747807 11.783483589808604 3.1296362043886674 0 -1 1
3667 1 6.03126355825454 1.6862601177052976 4.273271404342444 0 1 0
5424 1 4.179397026918338 23.49129824252305 18.36586974853877 1 1 0
6712 1 4.222546534328455 20.806318674561464 18.635136089039715 0 -1 0
4813 1 20.123719673914007 17.083024015618456 19.50306048962204 1 0 1
1613 1 3.6321566651806236 1.797866296703896 12.206379425258566 0 0 1
1867 1 21.14979093119783 2.6410823807659676 0.3859160616163575 0 -1 0
1918 1 22.059180276305373 24.023355091970632 19.147503270824043 1 0 0
4006 1 0.45881467126606357 23.157417693504772 13.939878448366725 0 0 1
462 1 8.533992126070606 1.7642173924258497 5.819628330222814 2 0 0
4784 1 20.451927090198947 9.770645691359242 18.99763349502109 1 1 1
3433 1 12.732475608508123 21.235284061377012 0.11327935276846557 1 1 0
5083 1 23.476726149309478 3.3450548347619615 19.4751331401948 1 0 0
2072 1 8.05174317804256 14.780907998416726 -0.2962811027543025 0 0 0
5069 1 6.812658245379513 19.15584387590917 -0.11488058689771774 1 1 1
2195 1 9.402082298364913 0.5555347990402834 15.271144050982858 0 0 0
5343 1 4.094986184011283 0.3397957444052925 2.569865424059009 1 1 0
1337 1 15.514305842699105 9.477637807833474 -0.6279832743163283 -1 2 1
3293 1 21.846959095227906 23.358418669934487 -0.6306710607791004 -1 0 1
3440 1 20.523559588101634 19.487998526473135 20.605414000008246 1 1 0
6641 1 2.436951424296452 4.16913578833368 23.756770352035133 1 0 0
2004 1 4.97362802439678 5.482646766527803 21.28584330672703 0 1 0
5428 1 4.901536899349761 3.7125687837839694 23.530637402010022 0 1 0
4016 1 7.40799165941386 2.613624137071957 21.911054320878037 1 0 1
1322 1 13.160311425920042 3.9056529942933347 23.9315870434527 2 2 1
5105 1 11.327301925983509 0.4824652978472094 36.09251741761146 1 -1 -1
3782 1 17.716348103104657 18.333938408373395 36.51082636928221 1 -1 0
2190 1 24.062075406064046 23.275083898806074 20.44106877261461 0 -1 1
2247 1 17.174075243820752 3.6884000335146956 21.41870670322939 0 1 1
4906 1 21.499135525076372 2.0163043727717582 22.808689790623962 0 0 1
1347 1 0.7666746997745397 13.98774569110485 22.503126802764296 1 -1 1
3201 1 21.651783265114304 1.5354066038776826 20.268548134241282 -1 0 1
6630 1 2.1040277881969756 6.862064463691353 23.026504166560144 1 1 1
3941 1 12.532076833102751 8.140484104985745 20.815746202975692 0 1 0
3552 1 22.301994046902855 20.74363665832937 35.757428405498146 1 0 -1
3259 1 2.94984951374424 13.257248395556026 20.479657560074926 1 2 1
5294 1 2.882701286080693 23.644830685772988 20.812898919976064 1 1 0
3447 1 9.941386402716489 6.571224645886006 39.97011235332828 0 0 0
209 1 6.3930452768008905 7.746281693434938 22.42247096977562 0 0 0
3160 1 4.18574678284587 8.204729612322105 23.98051638263046 0 1 1
3224 1 10.651533374834555 5.9366471833890095 21.495828829971465 -1 2 1
249 1 8.958248012257004 7.789182694191557 23.329891210307157 2 0 0
4975 1 14.550737714834211 6.33433030038857 20.913036529810903 1 0 1
21 1 13.945877798703329 8.235577049261035 23.836677756579707 -1 1 0
4810 1 17.575872305504486 6.238205828222412 20.0647118822337 2 0 1
6377 1 9.832069500103554 0.3906113642414384 24.11397268961039 0 2 1
242 1 17.57748512959022 7.614436220057178 22.69156819592559 0 0 0
4972 1 20.516538303593787 7.905634075581901 23.44518789355507 1 1 0
1858 1 21.897522679747336 5.244606604056685 20.8319328195977 -1 1 0
2123 1 15.465336526945228 22.066672106576096 20.578758195627344 0 1 0
468 1 3.908287470622076 10.525184860461644 20.547559381780786 1 0 0
6738 1 1.415312383846498 11.701164165136321 24.092235392352766 0 1 0
2193 1 6.641972876031197 9.738090155767992 20.38559571591508 1 1 0
554 1 9.408274405334023 10.323003048958034 21.884855486386993 0 0 1
6515 1 5.884943961288659 12.45036088807456 24.39320087942314 0 0 0
150 1 8.443868414176293 12.581185357764694 23.26716026311761 0 1 0
3989 1 21.719933238420676 23.693717318216738 39.15190910520226 -1 -1 0
5444 1 11.577197811081431 9.710532193684848 23.839478096170918 2 0 0
4865 1 16.690619960417834 10.619250121251012 20.49351063112593 1 0 1
1949 1 16.320479077069226 15.214891780055266 20.462224721063894 0 1 0
5082 1 22.962044217826403 11.864766708480634 23.839414133278378 1 -1 1