LAMMPS data file via write_data, version 16 Mar 2018, timestep = 100000

6736 atoms
2 atom types

0.0000000000000000e+00 4.9219999999999999e+01 xlo xhi
0.0000000000000000e+00 4.9019635930410494e+01 ylo yhi
8.7431779160670686e-01 5.9187682208393610e+01 zlo zhi

Masses

1 18.015
2 12.01

Atoms # atomic

2472 1 6.0671346454868891e+00 3.8127211295463468e+00 6.0420783329753744e+00 -1 1 0
4440 1 1.8800217918030169e+00 3.2880361200779085e+00 7.4748337687698143e+00 0 1 1
334 1 7.9407625812088014e+00 7.6424782540189105e+00 4.7774228358690163e+00 1 1 0
5931 1 4.4364353273764463e+00 8.0444090084737879e-02 6.4084452915058625e+00 1 1 1
3723 1 1.1509933094488192e+01 7.7282913774681221e+00 6.9304868646386319e+00 1 1 0
6283 1 1.0584812022945981e+01 3.1483950253078148e+00 5.5384637088004212e+00 1 0 1
3501 1 3.2132470893884368e-01 7.5537307070734760e+00 8.6087808172208824e+00 0 1 1
4437 1 1.5928065969146641e+00 1.3659764587186654e+00 1.0647636301701864e+01 1 0 1
83 1 4.4398725021751817e+00 6.8363774994062059e+00 2.8144285961406696e+00 0 0 0
1052 1 1.0014219596168575e+01 8.4208543610141735e+00 9.4583104796365114e-01 0 -1 1
6241 1 7.1508048302014258e+00 5.9386829456583463e+00 2.8471576304436148e+00 0 1 1
930 1 9.9300177345007459e+00 6.0199873329977285e+00 5.2074927409129366e+00 -1 1 1
5839 1 4.0955244610159571e+00 1.2078527570963793e+01 3.7488313451827699e+00 1 0 0
4121 1 1.3686992561573050e+00 1.1544299499493624e+01 8.8386584781998110e+00 0 -1 1
1954 1 8.5050731282491192e+00 2.5763420057554480e+00 7.2974254284913611e+00 0 -1 0
3520 1 2.9821924870146321e+00 1.1621000683115952e+01 1.3373548916043156e+01 -1 0 0
4599 1 1.1760930501144895e+01 2.1762832134525900e+00 9.9220500198108184e+00 0 0 0
286 1 1.1299840327092879e+01 1.0296964951669230e+01 6.1077585034817519e+00 0 -1 0
3426 1 1.4798116798921994e+00 9.0824824484908486e+00 4.5333939883344359e+00 2 -1 0
1166 1 1.1582946138769076e+01 6.0979821717878409e+00 1.3579492168888331e+01 1 1 1
1753 1 1.0344004049570909e+01 1.0973245574396953e+01 9.1993502852043800e+00 1 0 0
1741 1 4.7436486879459352e+00 9.1358665269792496e+00 4.6780032312244355e+00 0 -1 1
5255 1 8.3000505705801277e+00 9.6354270695393431e+00 2.9402809340483800e+00 1 2 0
5167 1 2.1831114580015902e+00 4.4500697267971034e-01 2.6985418533949881e+00 2 0 1
1154 1 3.4183886266977668e+00 4.3537123990849511e-02 1.4543588318057582e+01 0 1 1
247 1 1.0488428403152854e+01 1.1128343739194520e+01 3.3600235767305753e+00 2 0 1
1041 1 5.6375305736598955e+00 1.1777147885065665e+01 1.2321134581040484e+01 1 0 1
6230 1 5.8414011295099932e+00 9.8860724814218837e-01 1.4231789127871648e+01 0 0 1
121 1 3.9161626028859597e+00 4.9438284575546767e+00 1.1296304639476075e+01 -1 1 1
5154 1 1.1501042739153127e+00 9.6009938262970707e+00 1.3356960138068256e+01 1 1 1
3582 1 4.5357037220130048e+00 2.3007846629878594e+00 7.4698644941236019e+00 0 2 0
1067 1 9.6204585988466818e-02 2.4334457560402081e+00 3.9081128877378850e+00 0 1 1
4309 1 6.3687101829165043e+00 5.9709701713336454e+00 1.1378752290217532e+01 2 -1 1
3869 1 1.0889936489280378e+00 4.6857438408002299e+00 5.4448535955788380e+00 0 0 0
1145 1 9.5809669079881914e+00 4.1768514175166480e+00 9.3494545132411844e+00 -1 1 1
6043 1 1.1770247892812984e+01 7.0962642688299127e+00 3.4588997606124847e+00 -1 1 1
2454 1 8.1833877337707472e-01 3.8895350962737281e+00 1.4499288541333025e+01 -1 1 1
6225 1 3.4820566213253152e+00 4.7238287096553444e+00 4.6130244656148083e+00 1 1 1
5880 1 2.2403415321468838e+00 5.2344715843968181e+00 8.9753443364539418e+00 1 1 0
5088 1 6.6939674543636913e+00 7.6870318276524552e+00 9.3582692446738704e+00 1 1 1
1999 1 5.7560503769181182e+00 6.5757060231815760e+00 6.6426601694249099e+00 1 0 0
1942 1 9.0682917073738345e+00 4.0683671263705161e+00 1.3792623468931657e+01 0 2 0
2806 1 3.2988356429260106e+00 2.7261012501578277e+00 2.6391510757770149e+00 -1 1 0
982 1 3.4064119372756796e+00 1.0001546179886420e+01 8.6099313788451042e+00 1 0 0
2450 1 3.1705185671471932e+00 7.6209446707461463e+00 6.9182122027905093e+00 1 1 1
922 1 5.5217829291696203e+00 1.1227065015019136e+01 7.1568181257085630e+00 1 0 1
1788 1 4.9153251118395920e+00 9.3982083025829901e+00 1.0903552889185530e+01 2 0 0
1193 1 1.1950954711356785e+00 1.2364408934636666e+00 1.3997391715059075e+01 0 0 0
245 1 1.1770938366422216e+01 1.0150943780291595e+01 1.3341484265918531e+01 1 0 0
997 1 7.9979425786437988e+00 9.5399377144589881e+00 6.9564999188679488e+00 1 -1 1
2605 1 1.1977503394918299e+01 2.9955193303121597e+00 3.0379851631221486e+00 2 1 1
939 1 1.8059286357532605e+00 5.5243249662677574e+00 1.2698572674103342e+01 1 -1 1
4562 1 7.7186279762394872e+00 3.9411158855512336e+00 1.1281739935500925e+01 1 1 0
1944 1 6.3302717275361298e+00 1.5416315968040120e+00 1.1635558312792545e+01 -1 1 0
949 1 1.1323980623252433e+01 2.1094463628168625e+00 1.3447717690342461e+01 0 0 1
3367 1 9.3048637862165755e+00 8.6881168480315285e+00 1.0104600431390070e+01 1 1 1
1130 1 7.8789029053114845e+00 3.0616361943848225e+00 3.6018589351318484e+00 0 0 1
4287 1 8.0038110792399841e+00 1.0559572318274400e+01 1.2986042224268616e+01 0 1 1
5522 1 1.4140203711757928e+00 4.3189013526072380e+00 1.1157497447908162e+00 1 0 0
3478 1 3.9616843209036388e+00 2.3409658670710782e+00 1.0303699106058225e+01 0 -1 0
4518 1 3.5582012918673200e+00 7.8534998227618242e+00 1.3068266041900767e+01 1 2 1
2754 1 7.2676040821778400e+00 7.0252066820883829e+00 1.4073928459250149e+01 2 1 1
308 1 8.2982181815986777e+00 2.8702073706169218e-01 4.2511233641442168e+00 1 1 0
1098 1 9.6448923338302599e+00 8.1725953831578337e+00 1.2725178785885072e+01 0 0 1
5435 1 9.1194894900593670e+00 7.4588401268051885e-01 1.0254293591509310e+01 0 0 0
4370 1 1.1027137561640332e+01 6.8381352638211510e+00 9.5737965496287956e+00 0 1 1
4586 1 1.0237106659460042e+00 8.9559336879626752e+00 2.0425523212462595e+00 1 1 0
5978 1 1.4659910456713738e+00 1.2082890123576188e+01 4.3248536622739202e+00 0 1 1
4319 1 8.1152849102094962e+00 3.0458031858780701e+00 9.6023171443815158e-01 0 1 1
790 1 1.1708240592170309e+01 5.0803663703116161e-02 9.6069861816639701e-01 1 0 0
5936 1 1.0574411592676634e+00 1.4508389747962218e+00 2.0666563999992256e+01 2 1 1
2568 1 1.1727155714328530e+01 2.7261056358000952e+00 1.6308152246332781e+01 -1 0 1
234 1 7.9167724713881862e+00 1.0463184433741418e+01 1.5599282770011691e+01 -2 0 1
6306 1 5.4791616925200222e+00 1.3695381919710135e+00 1.8793587849792779e+01 1 -1 1
2683 1 7.8494185369574270e+00 6.1871880168420268e-01 1.9897389304517326e+01 1 1 1
6160 1 1.0604175555031610e+01 7.0342983816030129e+00 2.1776391038909008e+01 1 0 1
5304 1 1.1866842678116145e+01 9.1754187696938665e+00 1.9961267244591188e+01 1 1 0
3508 1 8.3508270270772762e+00 5.3407554179022014e+00 2.0942176593235466e+01 1 2 0
602 2 9.8440000000000012e+00 1.1366872099805333e+01 2.6817280045339832e+01 0 0 0
5113 1 9.3485636962811558e-01 4.8936400234890867e+00 1.7118547118441413e+01 0 0 1
4268 1 3.5951490982685042e+00 5.6162000405081534e+00 1.7068983132499824e+01 0 -1 1
4519 1 2.9300569789083863e+00 9.5236607538445988e+00 1.6771843683622883e+01 0 1 1
1072 1 2.7459383689845018e+00 9.3644161511684736e+00 1.9286558366211050e+01 1 1 1
2916 1 5.7454263420291047e+00 4.2951407317960504e+00 1.7906253473501849e+01 0 0 1
6065 1 8.8230581375483457e+00 6.0176338007120371e+00 1.6547079354316189e+01 1 1 1
170 1 1.0116871893788311e+01 8.5540217995823600e+00 1.5885866036163065e+01 0 0 0
5407 1 1.0812726044246933e+01 1.0502702932822812e+01 2.3883335140030514e+01 2 0 0
465 1 1.1649373368604648e+01 5.4376631900608601e+00 1.6240115016139764e+01 0 0 0
4459 1 1.1913575160745580e+01 5.1050337686388811e+00 1.9508694220755395e+01 0 1 1
580 2 8.6134999999999984e+00 9.2355835810918343e+00 2.6817280045339832e+01 0 0 0
2478 1 1.0055912393587235e+01 7.5805865474339154e+00 2.4413127383231046e+01 0 1 1
2674 1 2.7452508857100882e-01 2.5102332508434402e+00 1.8181598991746515e+01 1 1 1
601 2 8.6134999999999984e+00 1.0656442593567498e+01 2.6817280045339832e+01 0 0 0
1030 1 9.5078297958208591e+00 2.8183725407327205e+00 2.0480323719424021e+01 0 0 1
466 1 1.0913733209800782e+01 3.3947553856504924e+00 2.4689085055832535e+01 1 0 0
2071 1 8.3284467517785750e+00 8.9711268589716369e+00 2.0688873768145683e+01 0 1 0
3644 1 1.0842352720859660e+01 1.0393155181656709e+01 1.7821936389584899e+01 1 2 0
5478 1 1.1326371068977437e+01 1.5330286007604679e+00 1.8620031114863036e+01 1 0 0
5334 1 8.6282479826386744e+00 1.1640820676526619e+01 1.9555677956302837e+01 1 0 0
3850 1 4.0584908771535870e+00 2.0480906706291475e+00 2.0949478363691309e+01 -1 0 0
5933 1 4.5480359337939973e+00 1.1017205397905148e+00 2.3256045790078343e+01 -1 0 1
2027 1 6.7974349444394386e+00 5.0593872904085202e-01 2.4022764925264511e+01 1 1 0
129 1 6.9642046052009956e+00 2.6087069384293051e+00 1.6047994766049257e+01 0 0 1
1065 1 8.8654748444236660e+00 2.2227521467514890e+00 2.3370006844807744e+01 0 1 1
626 2 1.2304999999999998e+01 1.1366872099805333e+01 2.6817280045339832e+01 0 0 0
5811 1 1.1551159851449528e+00 4.7072572177254095e+00 2.1093835453706571e+01 1 1 1
4276 1 1.8202328912718568e+00 5.0312605199202070e+00 2.3571297486301223e+01 2 -1 1
2007 1 4.5114544761399857e+00 3.8769018647202134e+00 2.4092239364479354e+01 0 1 0
5507 1 6.6293738159916171e-01 7.4030606966745358e+00 2.3811509061090764e+01 1 1 0
4422 1 4.7436810569518926e+00 4.6681925989409034e+00 2.0529164283787139e+01 1 0 1
2579 1 2.4458231508240043e+00 6.4888351590550668e+00 1.9666433074895608e+01 3 0 1
4266 1 5.2886426919193736e+00 8.0175979477993451e+00 2.3044424117676034e+01 1 2 1
5115 1 6.4682482991539088e+00 5.3762440511751066e+00 2.3051722407228993e+01 1 1 0
2732 1 8.7057016962990676e+00 5.3229846029564705e+00 2.4786263118035958e+01 0 1 1
1931 1 3.8350110472254570e+00 1.1910947515236613e+01 1.9851467205986950e+01 1 2 0
459 1 2.9656545707776378e+00 9.1102283880913486e+00 2.3350702402563254e+01 0 0 0
54 1 7.0441861142511486e-01 9.0682732652022242e+00 2.1195183062629873e+01 -1 0 1
625 2 1.1074500000000002e+01 1.0656442593567498e+01 2.6817280045339832e+01 0 0 0
3734 1 1.8117348180915316e-01 9.4619598791915429e+00 1.5816108390285825e+01 1 0 0
5491 1 5.0960538990944384e+00 8.4498287388407967e+00 2.0543075872321214e+01 1 0 0
40 1 3.2699163522256298e+00 1.1980131432709724e+01 2.2941632076696870e+01 2 0 1
603 2 9.8440000000000012e+00 8.5251540748539956e+00 2.6817280045339832e+01 0 0 0
4442 1 7.3170455217917718e+00 6.8219691526787045e+00 1.8931379109470296e+01 1 1 1
2905 1 7.7320838406916508e+00 9.4096862224081068e+00 2.4033616080448081e+01 0 1 1
511 2 0.0000000000000000e+00 2.8417180249513345e+00 2.6817280045339832e+01 0 0 0
512 2 0.0000000000000000e+00 0.0000000000000000e+00 2.6817280045339832e+01 0 0 0
513 2 1.2305000000000001e+00 7.1042950623783474e-01 2.6817280045339832e+01 0 0 0
517 2 1.2305000000000001e+00 2.1312885187134998e+00 2.6817280045339832e+01 0 0 0
518 2 2.4610000000000003e+00 2.8417180249513345e+00 2.6817280045339832e+01 0 0 0
519 2 2.4610000000000003e+00 0.0000000000000000e+00 2.6817280045339832e+01 0 0 0
520 2 3.6915000000000004e+00 7.1042950623783474e-01 2.6817280045339832e+01 0 0 0
528 2 3.6914999999999996e+00 2.1312885187134998e+00 2.6817280045339832e+01 0 0 0
529 2 4.9220000000000006e+00 2.8417180249513332e+00 2.6817280045339832e+01 0 0 0
530 2 4.9220000000000006e+00 0.0000000000000000e+00 2.6817280045339832e+01 0 0 0
531 2 6.1524999999999999e+00 7.1042950623783407e-01 2.6817280045339832e+01 0 0 0
543 2 6.1524999999999999e+00 2.1312885187134989e+00 2.6817280045339832e+01 0 0 0
544 2 7.3829999999999991e+00 2.8417180249513345e+00 2.6817280045339832e+01 0 0 0
545 2 7.3829999999999991e+00 0.0000000000000000e+00 2.6817280045339832e+01 0 0 0
546 2 8.6134999999999984e+00 7.1042950623783407e-01 2.6817280045339832e+01 0 0 0
562 2 8.6134999999999984e+00 2.1312885187135002e+00 2.6817280045339832e+01 0 0 0
563 2 9.8440000000000012e+00 2.8417180249513332e+00 2.6817280045339832e+01 0 0 0
564 2 9.8440000000000012e+00 0.0000000000000000e+00 2.6817280045339832e+01 0 0 0
565 2 1.1074500000000002e+01 7.1042950623783330e-01 2.6817280045339832e+01 0 0 0
585 2 1.1074500000000002e+01 2.1312885187135002e+00 2.6817280045339832e+01 0 0 0
514 2 0.0000000000000000e+00 7.1042950623783341e+00 2.6817280045339832e+01 0 0 0
515 2 0.0000000000000000e+00 4.2625770374269996e+00 2.6817280045339832e+01 0 0 0
516 2 1.2305000000000001e+00 4.9730065436648339e+00 2.6817280045339832e+01 0 0 0
524 2 1.2305000000000001e+00 6.3938655561404980e+00 2.6817280045339832e+01 0 0 0
525 2 2.4610000000000003e+00 7.1042950623783341e+00 2.6817280045339832e+01 0 0 0
526 2 2.4610000000000003e+00 4.2625770374269996e+00 2.6817280045339832e+01 0 0 0
527 2 3.6914999999999996e+00 4.9730065436648339e+00 2.6817280045339832e+01 0 0 0
539 2 3.6914999999999996e+00 6.3938655561404980e+00 2.6817280045339832e+01 0 0 0
540 2 4.9220000000000006e+00 7.1042950623783341e+00 2.6817280045339832e+01 0 0 0
541 2 4.9220000000000006e+00 4.2625770374269978e+00 2.6817280045339832e+01 0 0 0
542 2 6.1524999999999999e+00 4.9730065436648339e+00 2.6817280045339832e+01 0 0 0
558 2 6.1524999999999999e+00 6.3938655561404980e+00 2.6817280045339832e+01 0 0 0
559 2 7.3830000000000009e+00 7.1042950623783341e+00 2.6817280045339832e+01 0 0 0
560 2 7.3829999999999991e+00 4.2625770374269996e+00 2.6817280045339832e+01 0 0 0
561 2 8.6135000000000002e+00 4.9730065436648339e+00 2.6817280045339832e+01 0 0 0
581 2 8.6135000000000002e+00 6.3938655561404980e+00 2.6817280045339832e+01 0 0 0
582 2 9.8440000000000012e+00 7.1042950623783341e+00 2.6817280045339832e+01 0 0 0
583 2 9.8440000000000012e+00 4.2625770374270004e+00 2.6817280045339832e+01 0 0 0
584 2 1.1074500000000002e+01 4.9730065436648339e+00 2.6817280045339832e+01 0 0 0
605 2 1.1074500000000002e+01 6.3938655561404980e+00 2.6817280045339832e+01 0 0 0
554 2 3.6914999999999996e+00 1.0656442593567499e+01 2.6817280045339832e+01 0 0 0
521 2 0.0000000000000000e+00 1.1366872099805333e+01 2.6817280045339832e+01 0 0 0
522 2 0.0000000000000000e+00 8.5251540748539991e+00 2.6817280045339832e+01 0 0 0
523 2 1.2305000000000001e+00 9.2355835810918343e+00 2.6817280045339832e+01 0 0 0
535 2 1.2305000000000001e+00 1.0656442593567498e+01 2.6817280045339832e+01 0 0 0
536 2 2.4610000000000003e+00 1.1366872099805333e+01 2.6817280045339832e+01 0 0 0
537 2 2.4610000000000003e+00 8.5251540748539991e+00 2.6817280045339832e+01 0 0 0
538 2 3.6915000000000004e+00 9.2355835810918343e+00 2.6817280045339832e+01 0 0 0
557 2 6.1524999999999999e+00 9.2355835810918343e+00 2.6817280045339832e+01 0 0 0
578 2 7.3829999999999991e+00 1.1366872099805333e+01 2.6817280045339832e+01 0 0 0
577 2 6.1524999999999999e+00 1.0656442593567499e+01 2.6817280045339832e+01 0 0 0
555 2 4.9220000000000006e+00 1.1366872099805333e+01 2.6817280045339832e+01 0 0 0
579 2 7.3830000000000009e+00 8.5251540748539991e+00 2.6817280045339832e+01 0 0 0
556 2 4.9220000000000006e+00 8.5251540748539991e+00 2.6817280045339832e+01 0 0 0
604 2 1.1074500000000002e+01 9.2355835810918343e+00 2.6817280045339832e+01 0 0 0
5292 1 7.4530322518051770e+00 1.2126522414156788e+01 2.3521396971449313e+01 2 0 1
2856 1 8.7804098857924053e+00 8.0021855534640562e-01 1.7056526823715295e+01 0 2 1
2037 1 1.0727359626616481e+01 8.8715044068194970e-02 2.3521354724411882e+01 0 1 0
740 1 4.7928993950432304e+00 7.6598551277638665e+00 1.5620158596841192e+01 0 0 1
1250 2 0.0000000000000000e+00 1.4208590124756650e+00 3.0031000000000326e+01 0 0 0
1251 2 0.0000000000000000e+00 0.0000000000000000e+00 3.0031000000000326e+01 0 0 0
1254 2 1.2305000000000001e+00 3.5521475311891644e+00 3.0031000000000326e+01 0 0 0
1255 2 1.2305000000000001e+00 2.1312885187134998e+00 3.0031000000000326e+01 0 0 0
1256 2 2.4610000000000003e+00 1.4208590124756650e+00 3.0031000000000326e+01 0 0 0
1257 2 2.4610000000000003e+00 0.0000000000000000e+00 3.0031000000000326e+01 0 0 0
1264 2 3.6914999999999996e+00 3.5521475311891644e+00 3.0031000000000326e+01 0 0 0
1265 2 3.6914999999999996e+00 2.1312885187134998e+00 3.0031000000000326e+01 0 0 0
1411 2 0.0000000000000000e+00 2.8417180249513345e+00 3.3244719954661470e+01 0 0 0
1412 2 0.0000000000000000e+00 0.0000000000000000e+00 3.3244719954661470e+01 0 0 0
1413 2 1.2305000000000001e+00 7.1042950623783474e-01 3.3244719954661470e+01 0 0 0
1417 2 1.2305000000000001e+00 2.1312885187134998e+00 3.3244719954661470e+01 0 0 0
1418 2 2.4610000000000003e+00 2.8417180249513345e+00 3.3244719954661470e+01 0 0 0
1419 2 2.4610000000000003e+00 0.0000000000000000e+00 3.3244719954661470e+01 0 0 0
1420 2 3.6915000000000004e+00 7.1042950623783474e-01 3.3244719954661470e+01 0 0 0
1428 2 3.6914999999999996e+00 2.1312885187134998e+00 3.3244719954661470e+01 0 0 0
1266 2 4.9220000000000006e+00 1.4208590124756650e+00 3.0031000000000326e+01 0 0 0
1267 2 4.9220000000000006e+00 0.0000000000000000e+00 3.0031000000000326e+01 0 0 0
1278 2 6.1524999999999999e+00 3.5521475311891644e+00 3.0031000000000326e+01 0 0 0
1279 2 6.1524999999999999e+00 2.1312885187134989e+00 3.0031000000000326e+01 0 0 0
1280 2 7.3829999999999991e+00 1.4208590124756659e+00 3.0031000000000326e+01 0 0 0
1281 2 7.3829999999999991e+00 0.0000000000000000e+00 3.0031000000000326e+01 0 0 0
1429 2 4.9220000000000006e+00 2.8417180249513332e+00 3.3244719954661470e+01 0 0 0
1430 2 4.9220000000000006e+00 0.0000000000000000e+00 3.3244719954661470e+01 0 0 0
1431 2 6.1524999999999999e+00 7.1042950623783407e-01 3.3244719954661470e+01 0 0 0
1443 2 6.1524999999999999e+00 2.1312885187134989e+00 3.3244719954661470e+01 0 0 0
1444 2 7.3829999999999991e+00 2.8417180249513345e+00 3.3244719954661470e+01 0 0 0
1445 2 7.3829999999999991e+00 0.0000000000000000e+00 3.3244719954661470e+01 0 0 0
1296 2 8.6134999999999984e+00 3.5521475311891657e+00 3.0031000000000326e+01 0 0 0
1297 2 8.6134999999999984e+00 2.1312885187135002e+00 3.0031000000000326e+01 0 0 0
1298 2 9.8440000000000012e+00 1.4208590124756659e+00 3.0031000000000326e+01 0 0 0
1299 2 9.8440000000000012e+00 0.0000000000000000e+00 3.0031000000000326e+01 0 0 0
1318 2 1.1074500000000002e+01 3.5521475311891644e+00 3.0031000000000326e+01 0 0 0
1319 2 1.1074500000000002e+01 2.1312885187135002e+00 3.0031000000000326e+01 0 0 0
1446 2 8.6134999999999984e+00 7.1042950623783407e-01 3.3244719954661470e+01 0 0 0
1462 2 8.6134999999999984e+00 2.1312885187135002e+00 3.3244719954661470e+01 0 0 0
1463 2 9.8440000000000012e+00 2.8417180249513332e+00 3.3244719954661470e+01 0 0 0
1464 2 9.8440000000000012e+00 0.0000000000000000e+00 3.3244719954661470e+01 0 0 0
1465 2 1.1074500000000002e+01 7.1042950623783330e-01 3.3244719954661470e+01 0 0 0
1485 2 1.1074500000000002e+01 2.1312885187135002e+00 3.3244719954661470e+01 0 0 0
1252 2 0.0000000000000000e+00 5.6834360499026637e+00 3.0031000000000326e+01 0 0 0
1253 2 0.0000000000000000e+00 4.2625770374269996e+00 3.0031000000000326e+01 0 0 0
1260 2 1.2305000000000001e+00 7.8147245686161639e+00 3.0031000000000326e+01 0 0 0
1261 2 1.2305000000000001e+00 6.3938655561404980e+00 3.0031000000000326e+01 0 0 0
1262 2 2.4610000000000003e+00 5.6834360499026637e+00 3.0031000000000326e+01 0 0 0
1263 2 2.4610000000000003e+00 4.2625770374269996e+00 3.0031000000000326e+01 0 0 0
1274 2 3.6914999999999996e+00 7.8147245686161639e+00 3.0031000000000326e+01 0 0 0
1275 2 3.6914999999999996e+00 6.3938655561404980e+00 3.0031000000000326e+01 0 0 0
1414 2 0.0000000000000000e+00 7.1042950623783341e+00 3.3244719954661470e+01 0 0 0
1415 2 0.0000000000000000e+00 4.2625770374269996e+00 3.3244719954661470e+01 0 0 0
1416 2 1.2305000000000001e+00 4.9730065436648339e+00 3.3244719954661470e+01 0 0 0
1424 2 1.2305000000000001e+00 6.3938655561404980e+00 3.3244719954661470e+01 0 0 0
1425 2 2.4610000000000003e+00 7.1042950623783341e+00 3.3244719954661470e+01 0 0 0
1426 2 2.4610000000000003e+00 4.2625770374269996e+00 3.3244719954661470e+01 0 0 0
1427 2 3.6914999999999996e+00 4.9730065436648339e+00 3.3244719954661470e+01 0 0 0
1439 2 3.6914999999999996e+00 6.3938655561404980e+00 3.3244719954661470e+01 0 0 0
1276 2 4.9220000000000006e+00 5.6834360499026637e+00 3.0031000000000326e+01 0 0 0
1277 2 4.9220000000000006e+00 4.2625770374269978e+00 3.0031000000000326e+01 0 0 0
1292 2 6.1524999999999999e+00 7.8147245686161639e+00 3.0031000000000326e+01 0 0 0
1293 2 6.1524999999999999e+00 6.3938655561404980e+00 3.0031000000000326e+01 0 0 0
1294 2 7.3829999999999991e+00 5.6834360499026637e+00 3.0031000000000326e+01 0 0 0
1295 2 7.3829999999999991e+00 4.2625770374269996e+00 3.0031000000000326e+01 0 0 0
1440 2 4.9220000000000006e+00 7.1042950623783341e+00 3.3244719954661470e+01 0 0 0
1441 2 4.9220000000000006e+00 4.2625770374269978e+00 3.3244719954661470e+01 0 0 0
1442 2 6.1524999999999999e+00 4.9730065436648339e+00 3.3244719954661470e+01 0 0 0
1458 2 6.1524999999999999e+00 6.3938655561404980e+00 3.3244719954661470e+01 0 0 0
1459 2 7.3830000000000009e+00 7.1042950623783341e+00 3.3244719954661470e+01 0 0 0
1460 2 7.3829999999999991e+00 4.2625770374269996e+00 3.3244719954661470e+01 0 0 0
1314 2 8.6135000000000002e+00 7.8147245686161639e+00 3.0031000000000326e+01 0 0 0
1315 2 8.6135000000000002e+00 6.3938655561404980e+00 3.0031000000000326e+01 0 0 0
1316 2 9.8440000000000012e+00 5.6834360499026637e+00 3.0031000000000326e+01 0 0 0
1317 2 9.8440000000000012e+00 4.2625770374270004e+00 3.0031000000000326e+01 0 0 0
1337 2 1.1074500000000002e+01 7.8147245686161639e+00 3.0031000000000326e+01 0 0 0
1338 2 1.1074500000000002e+01 6.3938655561404980e+00 3.0031000000000326e+01 0 0 0
1461 2 8.6135000000000002e+00 4.9730065436648339e+00 3.3244719954661470e+01 0 0 0
1481 2 8.6135000000000002e+00 6.3938655561404980e+00 3.3244719954661470e+01 0 0 0
1482 2 9.8440000000000012e+00 7.1042950623783341e+00 3.3244719954661470e+01 0 0 0
1483 2 9.8440000000000012e+00 4.2625770374270004e+00 3.3244719954661470e+01 0 0 0
1484 2 1.1074500000000002e+01 4.9730065436648339e+00 3.3244719954661470e+01 0 0 0
1505 2 1.1074500000000002e+01 6.3938655561404980e+00 3.3244719954661470e+01 0 0 0
1258 2 0.0000000000000000e+00 9.9460130873296642e+00 3.0031000000000326e+01 0 0 0
1259 2 0.0000000000000000e+00 8.5251540748539991e+00 3.0031000000000326e+01 0 0 0
1270 2 1.2305000000000001e+00 1.2077301606043163e+01 3.0031000000000326e+01 0 0 0
1271 2 1.2305000000000001e+00 1.0656442593567498e+01 3.0031000000000326e+01 0 0 0
1272 2 2.4610000000000003e+00 9.9460130873296642e+00 3.0031000000000326e+01 0 0 0
1273 2 2.4610000000000003e+00 8.5251540748539991e+00 3.0031000000000326e+01 0 0 0
1288 2 3.6914999999999996e+00 1.2077301606043163e+01 3.0031000000000326e+01 0 0 0
1289 2 3.6914999999999996e+00 1.0656442593567499e+01 3.0031000000000326e+01 0 0 0
1421 2 0.0000000000000000e+00 1.1366872099805333e+01 3.3244719954661470e+01 0 0 0
1422 2 0.0000000000000000e+00 8.5251540748539991e+00 3.3244719954661470e+01 0 0 0
1423 2 1.2305000000000001e+00 9.2355835810918343e+00 3.3244719954661470e+01 0 0 0
1435 2 1.2305000000000001e+00 1.0656442593567498e+01 3.3244719954661470e+01 0 0 0
1436 2 2.4610000000000003e+00 1.1366872099805333e+01 3.3244719954661470e+01 0 0 0
1437 2 2.4610000000000003e+00 8.5251540748539991e+00 3.3244719954661470e+01 0 0 0
1438 2 3.6915000000000004e+00 9.2355835810918343e+00 3.3244719954661470e+01 0 0 0
1454 2 3.6914999999999996e+00 1.0656442593567499e+01 3.3244719954661470e+01 0 0 0
1290 2 4.9220000000000006e+00 9.9460130873296642e+00 3.0031000000000326e+01 0 0 0
1291 2 4.9220000000000006e+00 8.5251540748539991e+00 3.0031000000000326e+01 0 0 0
1310 2 6.1524999999999999e+00 1.2077301606043163e+01 3.0031000000000326e+01 0 0 0
1311 2 6.1524999999999999e+00 1.0656442593567499e+01 3.0031000000000326e+01 0 0 0
1312 2 7.3830000000000009e+00 9.9460130873296642e+00 3.0031000000000326e+01 0 0 0
1313 2 7.3830000000000009e+00 8.5251540748539991e+00 3.0031000000000326e+01 0 0 0
1455 2 4.9220000000000006e+00 1.1366872099805333e+01 3.3244719954661470e+01 0 0 0
1456 2 4.9220000000000006e+00 8.5251540748539991e+00 3.3244719954661470e+01 0 0 0
1457 2 6.1524999999999999e+00 9.2355835810918343e+00 3.3244719954661470e+01 0 0 0
1477 2 6.1524999999999999e+00 1.0656442593567499e+01 3.3244719954661470e+01 0 0 0
1478 2 7.3829999999999991e+00 1.1366872099805333e+01 3.3244719954661470e+01 0 0 0
1479 2 7.3830000000000009e+00 8.5251540748539991e+00 3.3244719954661470e+01 0 0 0
1333 2 8.6135000000000002e+00 1.2077301606043163e+01 3.0031000000000326e+01 0 0 0
1334 2 8.6134999999999984e+00 1.0656442593567498e+01 3.0031000000000326e+01 0 0 0
1335 2 9.8440000000000012e+00 9.9460130873296642e+00 3.0031000000000326e+01 0 0 0
1336 2 9.8440000000000012e+00 8.5251540748539956e+00 3.0031000000000326e+01 0 0 0
1356 2 1.1074500000000002e+01 1.2077301606043163e+01 3.0031000000000326e+01 0 0 0
1357 2 1.1074500000000002e+01 1.0656442593567498e+01 3.0031000000000326e+01 0 0 0
1480 2 8.6134999999999984e+00 9.2355835810918343e+00 3.3244719954661470e+01 0 0 0
1501 2 8.6134999999999984e+00 1.0656442593567498e+01 3.3244719954661470e+01 0 0 0
1502 2 9.8440000000000012e+00 1.1366872099805333e+01 3.3244719954661470e+01 0 0 0
1503 2 9.8440000000000012e+00 8.5251540748539956e+00 3.3244719954661470e+01 0 0 0
1504 2 1.1074500000000002e+01 9.2355835810918343e+00 3.3244719954661470e+01 0 0 0
1525 2 1.1074500000000002e+01 1.0656442593567498e+01 3.3244719954661470e+01 0 0 0
1526 2 1.2304999999999998e+01 1.1366872099805333e+01 3.3244719954661470e+01 0 0 0
4575 1 1.2005749423531769e+01 2.1813426064167829e+00 3.6149891967184622e+01 2 1 0
5469 1 8.6768044087958229e-01 1.4747187744983192e+00 3.9409765781865701e+01 0 0 0
2782 1 2.5381326397584019e+00 1.1147022386914113e+01 3.9692450263465325e+01 1 1 -1
4295 1 2.6249494704349421e+00 4.4835465886802206e+00 3.6462641579167745e+01 0 1 0
46 1 4.5961952316840886e+00 5.5859923799453899e+00 3.8183993800533933e+01 0 1 -1
5307 1 3.9171267391430589e+00 2.2256929239202736e+00 3.5885479977166760e+01 2 -1 0
98 1 1.1005818759998501e+01 3.9880191484765466e+00 3.9879598404851784e+01 0 0 -1
2724 1 6.4177106722950708e+00 1.5660450926533902e+00 3.6976452991235661e+01 1 1 0
3491 1 7.8387757122468891e+00 3.7945912201255374e+00 3.6262108840922522e+01 1 0 -1
4261 1 1.0385986445929051e+01 4.1115472835040077e+00 3.6993273478056828e+01 1 0 0
952 1 1.1021795881769568e-01 3.7665884627242976e+00 3.6563595798843338e+01 1 0 0
4579 1 1.1897942384741521e-01 8.8549410535321975e+00 3.6173067365109347e+01 0 0 -1
317 1 5.2403108655089214e-01 6.5310043187604983e+00 4.0216140889671429e+01 0 -1 -1
5412 1 3.2525774187899374e+00 6.5596738142980495e+00 4.0204282626539204e+01 1 1 -1
4396 1 3.5084275062654768e+00 1.0323244727021061e+00 3.9513612439284621e+01 0 1 0
2772 1 2.6424500745052311e+00 7.5636712373575001e+00 3.5575819286216372e+01 -1 1 0
3611 1 5.2370706731694403e+00 7.5872451156017355e+00 3.6043648158985881e+01 0 -1 -1
1206 1 9.8569723280172852e+00 8.2386773086111589e+00 3.9198269421712432e+01 1 -1 -1
4173 1 1.0123291205115224e+01 7.9432009779846275e+00 3.6390628950997517e+01 3 0 -1
1235 1 8.1102980613827782e+00 4.2198430781177949e+00 3.9966412039978152e+01 -1 1 0
2778 1 7.5621077138019679e+00 6.5355156402668166e+00 3.6365510714945636e+01 0 1 -1
5827 1 8.4022312695833978e+00 3.3165796679715381e-01 4.3842063435471083e+01 0 0 0
1997 1 4.4563453271117544e+00 3.6333592467943399e-01 4.1933068363041102e+01 1 0 -1
761 1 8.7562776886748690e+00 1.0929842370863287e+00 4.0117550814930404e+01 -1 0 0
2074 1 2.5652355074719586e+00 1.0607720763096591e+01 3.6734987020131015e+01 0 1 -1
869 1 6.4323564695739766e+00 9.6896418914919167e+00 3.9217420045363554e+01 2 -1 0
818 1 5.6862743569106309e+00 1.0571168966117876e+01 3.6566889820521219e+01 0 -1 -1
508 1 1.1397578337208838e+01 1.2292675328947245e+00 3.9538509475401646e+01 0 2 0
5401 1 8.4948975453357853e+00 1.1637960744329943e+01 3.6024715360524816e+01 0 0 -1
1730 1 7.5795017415832460e+00 4.5989086371395675e+00 4.2629083885415703e+01 1 0 -1
3479 1 8.2374945642843556e-01 2.5802056077869651e+00 4.2267290209959086e+01 0 0 -1
1872 1 2.7531413513701981e+00 4.7314134768925831e+00 4.2159922115409117e+01 2 0 -1
2052 1 5.2442437685196310e+00 3.2450532420154383e+00 4.2127446078452877e+01 1 1 0
4157 1 1.1216265989516906e+01 1.0457618232193532e+01 3.5808626718219344e+01 -1 -1 0
2105 1 5.7445401715543065e+00 3.1654497948981608e+00 3.9193190155930601e+01 0 2 -1
1153 1 1.0908265456347500e+01 3.6077829939661328e+00 4.2686883611429366e+01 1 1 0
5440 1 9.2488455029206627e+00 7.6689580361149448e+00 4.3530946738159400e+01 1 1 -1
4484 1 1.2150099668883142e+01 6.0438278149352156e+00 3.6667810619901587e+01 0 2 0
3796 1 2.7552570005796745e-01 9.9690019401323893e-01 3.6358293904717613e+01 0 0 -1
5889 1 1.1180658080693576e+01 1.0729712811755343e+01 4.0314118686546578e+01 1 0 0
2476 1 1.0299919351711466e+01 9.9585902332711349e+00 4.2900784568575226e+01 0 0 0
17 1 3.8903423130741479e+00 9.1366463646855074e+00 4.1072580926612964e+01 -1 -1 -1
6100 1 5.7840503117933979e+00 1.0047933805415781e+01 4.3146123461718048e+01 1 1 0
5284 1 6.7250594044884355e+00 6.9473616171490349e+00 4.3054726130119079e+01 1 1 -1
6227 1 1.8949699607537522e+00 9.6822665600514597e+00 4.3462659248755322e+01 1 0 0
2474 1 7.5256437980357820e+00 6.7246850319972875e+00 3.9367698812636789e+01 0 1 0
263 1 1.0634258918107747e+01 6.4446328855509014e+00 4.1842520001712167e+01 1 0 -1
5311 1 4.4709973639017636e-01 1.2243493540248739e+01 3.6177028250670901e+01 0 0 -1
2040 1 8.8993060203271650e+00 1.2160942188982370e+01 4.4188861439556540e+01 0 0 -1
6274 1 9.7691193207612184e+00 1.1918459717091897e+01 3.8485363367976376e+01 0 0 0
5270 1 7.1835810008429952e+00 1.2233632702709668e+01 3.9517978923090801e+01 0 0 -1
2622 1 1.8705840898257919e+00 1.1972324407333361e+00 4.4374548803367098e+01 2 0 0
4199 1 1.1834069133102556e+01 6.2372295307335914e+00 5.5111812402132919e+01 0 1 0
4241 1 3.0050053780573416e+00 5.6478472607239141e+00 4.4734996087407424e+01 0 -1 0
1185 1 1.0469173887623585e+01 4.3248222096586622e+00 4.6578473274340176e+01 0 1 -1
357 1 4.1424381498460274e+00 1.6258904917434120e+00 5.1798226026496458e+01 0 0 -1
5097 1 1.0732119584510964e-01 1.0480121996159646e+01 4.8565125651205051e+01 1 0 -1
3793 1 9.2753864962812091e+00 1.1362843317653823e+01 5.8393399692314816e+01 1 1 -1