
# Create simulation box and atoms

read_data data.graphite_substrate
  orthogonal box = (0 0 -0.0398667) to (49.22 49.0196 60.1019)
  4 by 4 by 4 MPI processor grid
  reading atoms ...
  6736 atoms
  reading velocities ...
  6736 velocities
group water type 1
3976 atoms in group water
group graphite type 2
2760 atoms in group graphite

# Define potential

pair_style sw
pair_coeff * * mWC.sw mW C
Reading potential file mWC.sw with DATE: 2019-02-27


# Fix graphite atoms in place

fix 5 graphite setforce 0.0 0.0 0.0
velocity graphite set 0.0 0.0 0.0


# Equilibration of molecular water

# Add velocity/set timestep

velocity	    water create ${TEMP} ${SEED} rot yes dist gaussian
velocity	    water create 225 ${SEED} rot yes dist gaussian
velocity	    water create 225 17991 rot yes dist gaussian
timestep	    5.0

# Define output

compute			1 water msd
compute			3 water temp
thermo	    	50
thermo_style	custom step temp press vol etotal ke pe c_1[4] c_3

# Neighbor lists

neigh_modify    delay 0 every 1 check yes

# Set fixes

fix             1 water momentum 10 linear 1 1 1 rescale
fix             2 water nve
fix             3 water temp/csvr ${TEMP} ${TEMP} 500.0 ${SEED}
fix             3 water temp/csvr 225 ${TEMP} 500.0 ${SEED}
fix             3 water temp/csvr 225 225 500.0 ${SEED}
fix             3 water temp/csvr 225 225 500.0 17991
fix             4 water press/berendsen z ${PRES} ${PRES} 1000.0 modulus 20000
fix             4 water press/berendsen z 1 ${PRES} 1000.0 modulus 20000
fix             4 water press/berendsen z 1 1 1000.0 modulus 20000

# Run 0.5 ns equilibration

dump		    1 all atom 2000 ${DIR}/eq.${NAME}-${TEMP}.dump
dump		    1 all atom 2000 run_13/eq.${NAME}-${TEMP}.dump
dump		    1 all atom 2000 run_13/eq.het_freeze_13-${TEMP}.dump
dump		    1 all atom 2000 run_13/eq.het_freeze_13-225.dump

reset_timestep  0

run	            100000
Neighbor list info ...
  update every 1 steps, delay 0 steps, check yes
  max neighbors/atom: 2000, page size: 100000
  master list distance cutoff = 7.76
  ghost atom cutoff = 7.76
  binsize = 3.88, bins = 13 13 16
  1 neighbor lists, perpetual/occasional/extra = 1 0 0
  (1) pair sw, perpetual
      attributes: full, newton on
      pair build: full/bin/atomonly
      stencil: full/bin/3d
      bin: standard
Per MPI rank memory allocation (min/avg/max) = 4.084 | 4.203 | 4.509 Mbytes
Step Temp Press Volume TotEng KinEng PotEng c_1[4] c_3 
       0     132.7951   -1147.9579    145106.76   -36018.829     2665.962   -38684.791            0          225 
      50    172.21262   -1009.1481     144446.9   -36380.942    3457.2984    -39838.24   0.84012683    291.78666 
     100    166.98915   -1028.5692    144005.14   -36781.683    3352.4334   -40134.117    1.8660559    282.93634 
     150    159.47152   -762.00887     143586.7   -37123.138    3201.5114   -40324.649    2.7074277    270.19892 
     200     155.1653   -749.48688       143264   -37341.683    3115.0607   -40456.744    3.4033699    262.90272 
     250    151.56409   -874.50384    142882.36   -37630.615    3042.7637   -40673.379    4.0307758    256.80105 
     300    150.65826   -883.29907     142491.6   -37818.427    3024.5784   -40843.006    4.7654964    255.26626 
     350    148.41669   -541.61872     142192.7   -37907.076    2979.5773   -40886.653    5.4351867    251.46829 
     400    149.57572   -496.05617    141913.01   -38074.652    3002.8457   -41077.498    6.0873534    253.43208 
     450    144.17018   -793.75737    141607.67   -38258.305    2894.3253    -41152.63    6.7551106    244.27325 
     500    145.64072   -489.76397    141405.09     -38344.4    2923.8475   -41268.247    7.2944976    246.76484 
     550     141.9712    -387.9704    141169.82   -38438.915    2850.1791   -41289.094    7.7982277    240.54742 
     600     143.3372   -432.88619    140948.01   -38510.955    2877.6025   -41388.558     8.304661    242.86189 
     650    139.86577    -286.2425    140814.63   -38625.718    2807.9111   -41433.629     8.836656    236.98012 
     700    143.04943   -430.74619    140660.85   -38708.823    2871.8254   -41580.648    9.3026957    242.37432 
     750    139.18129   -323.73562    140569.69   -38809.825    2794.1697   -41603.995    9.7657361    235.82038 
     800    138.48596     -16.6004    140488.64   -38859.644    2780.2104   -41639.854    10.157721    234.64226 
     850    135.11761   -129.57178    140499.62   -38881.664    2712.5882   -41594.252    10.516776    228.93513 
     900     135.0966   -273.57786    140490.19   -38948.718    2712.1663   -41660.884    10.892357    228.89952 
     950    136.29805   -282.54898    140480.34   -38990.083    2736.2863   -41726.369    11.224583    230.93518 
    1000     134.5083   -293.97187    140447.08   -39050.488    2700.3557   -41750.844     11.63332    227.90274 
    1050    135.37078   -252.35641    140355.56   -39088.066    2717.6708   -41805.737    12.050295    229.36408 
    1100    136.64004  -0.24845178    140341.64   -39025.908    2743.1521    -41769.06    12.458898    231.51464 
    1150    137.29375   -117.54867    140400.75   -39007.391    2756.2758   -41763.667    12.824367    232.62224 
    1200    135.18784   -300.59261    140321.03   -39034.739    2713.9981   -41748.737    13.207211    229.05412 
    1250    135.11932   -399.43382    140244.03   -39033.148    2712.6225    -41745.77    13.785731    228.93802 
    1300    136.67387   -68.520592    140195.26   -39043.429    2743.8311    -41787.26     14.21654    231.57195 
    1350    135.60958   -139.13761    140233.12   -39040.187    2722.4648   -41762.652    14.589265    229.76869 
    1400    131.68327    74.613199    140328.71   -39093.271    2643.6411   -41736.912    14.871738    223.11618 
    1450    134.78428    -551.0767    140353.51    -39116.08    2705.8963   -41821.976    15.190447    228.37035 
    1500    133.40837   -335.13205    140262.97   -39165.958    2678.2738   -41844.232    15.604977    226.03909 
    1550    131.59111   -250.15937    140228.87   -39214.813     2641.791   -41856.604      15.9796    222.96004 
    1600    132.92473   -72.222609    140278.08   -39288.476    2668.5645    -41957.04    16.218684    225.21964 
    1650    130.26927   -135.13819    140296.48   -39257.002     2615.254   -41872.256    16.378148    220.72038 
    1700    131.84727   -198.40077     140227.2   -39260.959    2646.9336   -41907.892      16.5705    223.39405 
    1750    130.15751   -192.78169    140168.48   -39275.995    2613.0104   -41889.006     16.78638    220.53103 
    1800     133.0567   -379.76235    140123.63   -39270.943    2671.2137   -41942.157    17.101306    225.44323 
    1850    133.47686   -222.39188    140044.91   -39199.298    2679.6489   -41878.947    17.393041    226.15514 
    1900    132.92451   -206.57537    140090.88   -39201.377    2668.5601   -41869.937    17.655666    225.21927 
    1950    133.97919   -115.98997    140185.24   -39199.611    2689.7334   -41889.344    17.884258    227.00624 
    2000    134.48108    79.076435    140234.18   -39205.823    2699.8094   -41905.632    18.036434    227.85663 
    2050    134.80303  -0.15668273    140328.98   -39215.266    2706.2726   -41921.539    18.197783    228.40211 
    2100    133.13807     27.79353    140408.99   -39197.536    2672.8474   -41870.383      18.5417    225.58111 
    2150    134.87997   -107.80836    140414.69   -39236.416    2707.8173   -41944.234    18.966374    228.53247 
    2200    135.13833   -187.78697    140384.77   -39212.763    2713.0041   -41925.767    19.318362    228.97022 
    2250    133.94901   -133.67867    140391.85   -39173.977    2689.1276   -41863.104    19.709116    226.95511 
    2300    134.66875    65.680548    140461.23   -39218.755     2703.577   -41922.332    20.068695     228.1746 
    2350    133.26594    15.040882    140500.12   -39255.412    2675.4145   -41930.827    20.338993    225.79777 
    2400    129.96673   -142.09524    140661.17   -39267.478    2609.1804   -41876.658    20.697853    220.20779 
    2450    134.11902   -291.68683    140597.51   -39269.054    2692.5407   -41961.595    21.041637    227.24317 
    2500    133.24525   -249.94609    140512.98   -39292.955    2674.9991   -41967.954    21.352591    225.76271 
    2550    133.22396   -229.71667    140516.49    -39289.11    2674.5717   -41963.681    21.428872    225.72664 
    2600    133.55343   -15.229734    140572.87   -39243.339     2681.186   -41924.525     21.57485    226.28487 
    2650    135.05121   -337.66212    140613.89   -39272.741     2711.255   -41983.996    21.737776    228.82261 
    2700    134.30733   -280.18443    140569.63   -39285.372    2696.3211   -41981.693    21.828886    227.56223 
    2750    133.82124   -316.68188    140576.77   -39280.137    2686.5625   -41966.699    22.024889    226.73863 
    2800    134.19004   -210.16859    140612.48   -39286.299    2693.9664   -41980.265    22.188813     227.3635 
    2850    132.48186   -306.82815    140569.83   -39263.122    2659.6735   -41922.796    22.445509    224.46927 
    2900    132.57897   -401.53181    140556.71   -39246.475     2661.623   -41908.098    22.616271     224.6338 
    2950     132.0866    -142.9949    140415.87   -39276.439    2651.7383   -41928.177    22.984977    223.79956 
    3000    132.18266   -74.994893    140441.53   -39323.552    2653.6668   -41977.219    23.120915    223.96232 
    3050    130.14744   -137.70057    140464.83   -39349.914    2612.8081   -41962.722     23.31556    220.51396 
    3100    134.26313   -134.30255    140476.72    -39381.25    2695.4339   -42076.684    23.456968    227.48735 
    3150    130.14914   -321.68337    140388.21   -39425.812    2612.8424   -42038.654    23.893456    220.51685 
    3200    130.96126   -374.48228    140306.31   -39487.025    2629.1464   -42116.171    24.149524    221.89286 
    3250    129.31672   -61.377383     140275.5   -39458.057    2596.1309   -42054.187    24.445633    219.10645 
    3300    129.95624   -301.65625    140336.26   -39416.344    2608.9698   -42025.313    24.597874    220.19001 
    3350    132.61285   -245.41637    140360.41   -39354.537    2662.3032    -42016.84    24.905011    224.69121 
    3400    134.69549   -390.44134       140306   -39288.534    2704.1137   -41992.648    25.229603     228.2199 
    3450    133.24022   -274.73915    140248.98   -39274.095    2674.8981   -41948.993    25.632975    225.75419 
    3500    133.69213   -445.97502    140256.63   -39246.711    2683.9705   -41930.682    25.770816    226.51987 
    3550    133.46563    -160.9131    140258.82    -39216.78    2679.4234   -41896.204     26.10293    226.13611 
    3600    131.99669   -161.21952    140304.42   -39282.248    2649.9333   -41932.181    26.310696    223.64722 
    3650    131.06793   -209.19643    140340.55   -39255.477    2631.2878   -41886.764    26.436496    222.07359 
    3700     133.8328   -123.77974    140299.84   -39249.074    2686.7946   -41935.868    26.512729    226.75822 
    3750    132.75291   -59.392462    140339.08   -39243.564    2665.1149   -41908.679    26.614346    224.92851 
    3800    134.59623   -133.88217    140362.09   -39232.822    2702.1211   -41934.943    26.998536    228.05173 
    3850    133.16664   0.97153696    140434.39   -39260.217     2673.421   -41933.638    27.284409    225.62952 
    3900    133.03876   -198.60562    140440.56   -39289.473    2670.8536   -41960.327    27.379876    225.41284 
    3950     134.8708   -278.12256    140472.77   -39324.048    2707.6332   -42031.681    27.723323    228.51693 
    4000    133.81278   -390.24495    140364.33   -39284.666    2686.3926   -41971.059    28.019459    226.72429 
    4050    133.31584   -218.59396    140354.89   -39359.822    2676.4163   -42036.239    28.218666    225.88232 
    4100    130.95148    -238.6602    140341.57    -39368.76      2628.95    -41997.71    28.232488    221.87628 
    4150    133.67248   -67.883568    140382.47   -39341.028     2683.576   -42024.604    28.346991    226.48658 
    4200    130.94173    -124.0148    140442.17   -39419.573    2628.7541   -42048.327    28.464552    221.85975 
    4250    131.55807   -217.46045    140518.16   -39428.305    2641.1276   -42069.432    28.557125    222.90405 
    4300    130.11396   -184.88453    140526.48   -39450.004    2612.1361    -42062.14    28.718852    220.45724 
    4350    130.15804   -318.38539    140599.96   -39427.706    2613.0211   -42040.727     28.96845    220.53193 
    4400    132.17616   -246.05068    140516.88   -39424.501    2653.5362   -42078.037    29.223769     223.9513 
    4450    129.22351   -191.57978    140515.16   -39494.899    2594.2596   -42089.159     29.31585    218.94851 
    4500    130.92488   -257.35394    140546.01   -39461.506    2628.4158   -42089.922    29.510697    221.83121 
    4550    128.62525    -199.7925    140555.17   -39465.428    2582.2492   -42047.677    29.796443    217.93486 
    4600    132.41807   -253.67712    140561.72   -39453.458    2658.3928   -42111.851    30.080935    224.36118 
    4650    132.76206   -170.79166    140621.22   -39456.356    2665.2987   -42121.655    30.214273    224.94402 
    4700     131.0788   -51.011308    140609.68   -39465.911     2631.506   -42097.417    30.438667      222.092 
    4750    132.84224   -337.29008    140618.15    -39489.25    2666.9084   -42156.158    30.594563    225.07988 
    4800    130.88667   -293.08282    140570.68   -39504.726    2627.6487   -42132.375    30.904955    221.76646 
    4850    132.17082   -178.25031    140568.05   -39492.053    2653.4291   -42145.483    31.159734    223.94225 
    4900      131.222   -151.06043     140618.9   -39440.939    2634.3808    -42075.32    31.543913    222.33463 
    4950    133.71936   -38.258275    140698.86   -39369.796    2684.5172   -42054.313    31.743925    226.56601 
    5000    132.39381   -167.98429       140651   -39325.479    2657.9058   -41983.385     32.05921    224.32008 
    5050    133.63156   -43.553257    140613.28   -39306.052    2682.7546   -41988.806    32.437238    226.41725 
    5100    135.80702   -409.81924    140610.12   -39340.119    2726.4285   -42066.547    32.709575    230.10321 
    5150    133.73089   -134.38226    140582.98   -39302.917    2684.7486   -41987.666     32.81089    226.58554 
    5200    134.43904   -163.51312    140491.25   -39317.445    2698.9652    -42016.41    33.046093    227.78538 
    5250    131.97818   -133.45235    140539.53   -39413.422    2649.5617   -42062.984    33.342333    223.61586 
    5300    134.03997   -109.57114    140512.19   -39363.471    2690.9538   -42054.424    33.657851    227.10924 
    5350    134.14155   -180.54395    140567.07   -39336.728     2692.993   -42029.721    33.763976    227.28134 
    5400    133.34736   -260.29375    140605.79   -39345.771     2677.049    -42022.82    33.929864    225.93571 
    5450    135.66533   -179.15124    140510.59   -39344.624    2723.5841   -42068.208     34.14592    229.86315 
    5500    133.53616   -198.40611    140577.05   -39320.256    2680.8393   -42001.095    34.248094    226.25561 
    5550    132.13871   -45.312105    140582.93   -39329.116    2652.7844     -41981.9    34.456818    223.88785 
    5600    136.39736    51.043987    140631.97   -39289.945      2738.28   -42028.225    34.740052    231.10345 
    5650    132.58012   -187.23105    140692.47   -39326.493    2661.6461    -41988.14    34.861184    224.63575 
    5700    133.33114   -437.10188    140644.74   -39363.273    2676.7233   -42039.996    35.163012    225.90823 
    5750    132.82247   -157.74864    140665.91   -39350.957    2666.5115   -42017.469    35.416399    225.04638 
    5800    131.04762   -35.402697    140664.23   -39409.012    2630.8801   -42039.892    35.783671    222.03918 
    5850    133.48222   -85.752533    140691.88   -39381.456    2679.7565   -42061.213    36.109337    226.16422 
    5900    134.95712   -145.49771    140612.78   -39403.622    2709.3663   -42112.988    36.444392     228.6632 
    5950    133.15643   -133.71511    140729.51   -39452.612    2673.2159   -42125.828    36.831009    225.61221 
    6000    131.86157    -277.9735    140736.17   -39434.504    2647.2206   -42081.725     37.11388    223.41828 
    6050    128.86266   -80.852529    140685.48   -39416.459    2587.0154   -42003.475    37.308324    218.33712 
    6100    135.64108   -37.205694    140642.76   -39407.428    2723.0971   -42130.525    37.400343    229.82205 
    6150    134.56844   -2.8087521    140744.64    -39401.32    2701.5632   -42102.883    37.551046    228.00465 
    6200    134.60714   -204.65367    140726.98   -39381.741    2702.3401   -42084.081    37.815228    228.07021 
    6250     133.3779   -69.555538    140752.62   -39422.213     2677.662   -42099.875    38.112233    225.98745 
    6300    131.66844   -101.69123    140858.67   -39488.718    2643.3435   -42132.062    38.201183    223.09106 
    6350    131.58914   -313.12106    140916.72   -39499.153    2641.7515   -42140.905    38.292808     222.9567 
    6400    131.61675   -232.74052    140909.77   -39527.022    2642.3058   -42169.328    38.313896    223.00348 
    6450    132.61106   -87.392765    140950.69   -39505.337    2662.2673   -42167.604    38.440558    224.68818 
    6500    127.34332   -189.79691    140907.04   -39510.664    2556.5134   -42067.177    38.554258    215.76284 
    6550    134.19761   -131.05548    140957.56   -39474.605    2694.1184   -42168.723    38.798039    227.37633 
    6600      134.779   -11.163736    141065.38   -39455.338    2705.7903   -42161.128    38.923479     228.3614 
    6650    133.18983   -196.62664     141176.5   -39479.248    2673.8865   -42153.135    39.004689    225.66881 
    6700    132.85121   -206.67582    141216.26   -39463.182    2667.0883   -42130.271    39.245031    225.09506 
    6750    135.32921   -188.15997    141183.14   -39428.748    2716.8361   -42145.584    39.439842    229.29364 
    6800    132.76489   -400.46053     141157.8   -39463.204    2665.3555    -42128.56    39.706555    224.94882 
    6850    134.46281   -424.74845    141094.77   -39482.584    2699.4426   -42182.027    39.815646    227.82567 
    6900    134.14309   -292.36855     140988.6    -39467.51     2693.024   -42160.534    40.124051    227.28396 
    6950    131.45658    -229.6122    140946.07   -39515.449    2639.0901    -42154.54    40.308314    222.73209 
    7000    133.72311    52.993903     140979.4   -39538.483    2684.5925   -42223.075    40.430725    226.57237 
    7050    131.96915    -141.9488    141045.38   -39579.611    2649.3804   -42228.991    40.599722    223.60056 
    7100    131.34888   -128.86982    141114.78   -39519.621     2636.928   -42156.549    40.679711    222.54961 
    7150    134.28899   -421.99751    141104.05   -39514.399    2695.9529   -42210.352    40.820305    227.53116 
    7200    132.65712   -119.51356    141058.19    -39534.59    2663.1919   -42197.782    40.875087    224.76622 
    7250    133.37181    -263.1958    141045.61   -39495.334    2677.5398   -42172.874    40.955324    225.97714 
    7300      135.157   -242.96598    141036.91   -39458.547     2713.379   -42171.926    41.182355    229.00186 
    7350    130.85415   -49.906421    141044.24   -39456.525    2626.9959   -42083.521    41.333485    221.71136 
    7400    131.73947   -139.89064    141102.14   -39463.565    2644.7693   -42108.334      41.3214     223.2114 
    7450    133.56859   -398.27526    141089.35   -39430.306    2681.4903   -42111.796    41.230108    226.31055 
    7500    132.97089   -405.84119    141011.54   -39459.572    2669.4912   -42129.063    41.321199    225.29785 
    7550     132.3968   -226.78573    141013.12   -39520.944    2657.9658    -42178.91    41.376788    224.32515 
    7600     131.4429   -374.73309    140929.51   -39563.862    2638.8155   -42202.678    41.691119    222.70891 
    7650    130.01364   -414.03798    140917.42   -39542.802    2610.1221   -42152.925    41.982351    220.28726 
    7700    131.47693   -222.98601    140893.49   -39475.776    2639.4988   -42115.275    42.288286    222.76658 
    7750    133.65405   -467.45849    140886.97    -39468.81    2683.2062   -42152.016    42.565599    226.45536 
    7800    135.34973   -304.29786    140847.33   -39477.111     2717.248   -42194.359    42.816925     229.3284 
    7850    132.18252   -279.72991    140857.91   -39492.099     2653.664   -42145.763    43.099538    223.96208 
    7900    130.38251   -361.22339    140828.03   -39503.966    2617.5274   -42121.493    43.125957    220.91225 
    7950    130.60122   -181.19259    140846.76    -39469.81    2621.9182   -42091.729    43.483215    221.28283 
    8000     130.9947   -129.29307    140922.13   -39498.046    2629.8175   -42127.864    43.621997    221.94951 
    8050    130.23162   -275.99812    140906.61     -39529.6    2614.4981   -42144.098    43.843261    220.65659 
    8100    132.38902    -235.5157    140879.53   -39451.445    2657.8097   -42109.254    44.190838    224.31197 
    8150    132.14459     -252.659    140931.17   -39459.066    2652.9026   -42111.969    44.314467    223.89782 
    8200    131.36546   -306.68178    140963.71   -39439.181    2637.2609   -42076.442    44.319933     222.5777 
    8250    130.67906   -384.36343    140961.62   -39503.079    2623.4808    -42126.56     44.43633    221.41471 
    8300    129.11891   -195.22484    140984.96   -39519.663    2592.1596   -42111.823    44.556422    218.77128 
    8350     133.1098   -197.30501    141010.06    -39518.96    2672.2798   -42191.239    44.874425    225.53321 
    8400    132.14606   -301.56509    140948.42   -39519.646    2652.9321   -42172.578    45.133367    223.90031 
    8450    132.98198    21.034812    141019.25   -39517.694    2669.7137   -42187.408    45.284965    225.31664 
    8500    132.32915    9.5250654     141049.6   -39505.632    2656.6078    -42162.24      45.3261    224.21053 
    8550    131.85523   -279.27646     141164.9   -39470.639    2647.0934   -42117.732    45.420291    223.40754 
    8600      132.456   -412.81832    141120.17   -39479.369    2659.1543   -42138.523    45.740911    224.42545 
    8650    134.86789   -230.87074    141180.15    -39411.26    2707.5747   -42118.835    45.985913      228.512 
    8700    130.71626   -265.70916    141139.33   -39389.265    2624.2277   -42013.492    46.188796    221.47774 
    8750    134.18528   -81.453838    141112.28   -39405.774    2693.8708   -42099.645    46.344949    227.35543 
    8800    132.88904   -206.00462    141174.16   -39373.781     2667.848   -42041.629    46.328405    225.15917 
    8850    132.18182    -353.7341    141071.32   -39451.192    2653.6498   -42104.842    46.699563    223.96089 
    8900     129.2835   -321.56585     141020.4   -39456.588    2595.4639   -42052.052    46.732815    219.05015 
    8950    132.44953   -329.18558    140905.47   -39424.984    2659.0245   -42084.009    47.015117    224.41449 
    9000    130.22997   -238.63063    140855.73   -39421.303     2614.465   -42035.768    47.382306    220.65379 
    9050    131.12016    -368.3299    140799.77   -39454.655    2632.3364   -42086.992    47.700276    222.16209 
    9100    131.49576   -181.64757    140800.41   -39458.881    2639.8768   -42098.758    47.967772    222.79848 
    9150    132.21228   -220.78641    140813.88   -39436.548    2654.2615    -42090.81    48.157949    224.01251 
    9200     133.5927   -200.58374    140839.44   -39423.394    2681.9744   -42105.368    48.384973    226.35141 
    9250    130.68721   -362.36728    140873.23   -39499.004    2623.6445   -42122.648    48.732419    221.42852 
    9300    129.95174   -356.50683    140860.21   -39481.508    2608.8794   -42090.387     48.99346    220.18238 
    9350    131.96377   -31.486886    140900.65   -39442.489    2649.2725   -42091.761     49.21155    223.59145 
    9400    131.52959   -370.64299    140954.58   -39468.573     2640.556   -42109.129    49.437974     222.8558 
    9450    130.92245   -197.27553    140945.67   -39437.307    2628.3672   -42065.674    49.788554     221.8271 
    9500    131.14713     -241.807    140986.23   -39413.353    2632.8778   -42046.231    50.122461    222.20779 
    9550    131.81582   -311.70534    141010.51   -39423.966    2646.3021   -42070.268    50.361361    223.34076 
    9600    133.27077   -325.52186    140969.98    -39341.93    2675.5115   -42017.442    50.463195    225.80595 
    9650    131.35967    -423.0066    140964.09    -39347.34    2637.1446   -41984.484     50.78659    222.56789 
    9700    133.72029   -242.22114    140923.34   -39299.157    2684.5359   -41983.693    51.039787    226.56759 
    9750    134.16344   -203.29939    140905.14   -39297.861    2693.4325   -41991.294    51.213176    227.31844 
    9800    134.17696   -143.62997    140919.69    -39309.98    2693.7038   -42003.683    51.386578    227.34133 
    9850    132.36335   -212.07352    140913.33    -39283.87    2657.2942   -41941.164    51.701435    224.26846 
    9900    133.42225   -177.30792    140900.34   -39313.094    2678.5524   -41991.646    51.929241     226.0626 
    9950    131.61819    -231.2616    140888.75   -39304.803    2642.3346   -41947.138    52.330299    223.00591 
   10000     132.9775   -352.71451    140848.93   -39277.686    2669.6237    -41947.31    52.596627    225.30904 
   10050    133.43023   -387.56236     140820.8   -39323.264    2678.7126   -42001.977    52.781945    226.07612 
   10100        133.2   -229.46999    140853.74   -39289.498    2674.0907   -41963.589    53.029638    225.68604 
   10150     134.4083   -245.91552    140822.98   -39326.246    2698.3482   -42024.594    53.407775    227.73331 
   10200    132.61976   -269.49696    140796.94   -39308.462     2662.442   -41970.904    53.646547    224.70292 
   10250    131.67773    -335.1288    140730.84   -39351.038    2643.5299   -41994.568    53.964431    223.10679 
   10300    130.79324    -399.5239    140708.24   -39342.149    2625.7731   -41967.922    54.279762    221.60817 
   10350    133.23693   -258.72304    140621.06   -39290.928    2674.8321    -41965.76     54.68654    225.74861 
   10400    133.46055   -323.12215    140566.96   -39301.083    2679.3213   -41980.405    54.933681    226.12749 
   10450     133.5144   -62.262423    140633.33   -39261.029    2680.4024   -41941.431    55.327805    226.21873 
   10500    132.71064   -68.026707    140650.44   -39255.484    2664.2663   -41919.751    55.682957    224.85689 
   10550    131.91113   -212.66368    140645.27   -39265.498    2648.2155   -41913.713    55.948467    223.50225 
   10600    132.31746   -250.38248    140663.33   -39241.661    2656.3731   -41898.035    55.991999    224.19072 
   10650    134.22032   -95.857559    140643.07   -39250.695    2694.5743    -41945.27    56.164462     227.4148 
   10700    136.16221   -173.04445    140680.55   -39291.729    2733.5592   -42025.288    56.373462    230.70502 
   10750    133.93961   -245.87293    140623.29   -39342.832     2688.939   -42031.771    56.745683    226.93919 
   10800    133.06959   -187.21379    140563.96   -39377.049    2671.4726   -42048.522    57.088558    225.46508 
   10850    131.33112   -107.45215    140589.72   -39404.385    2636.5716   -42040.957    57.518783    222.51953 
   10900    132.91853   -86.235596    140636.94   -39375.341    2668.4399   -42043.781    57.773924    225.20913 
   10950    132.81028   -293.99333    140677.41   -39335.598    2666.2668   -42001.865    58.090696    225.02573 
   11000     133.1958   -212.69879    140678.56   -39304.914    2674.0064    -41978.92    58.377559    225.67892 
   11050    130.86952   -267.82764    140666.06   -39390.457    2627.3046   -42017.761    58.608187    221.73742 
   11100    133.79474   -153.25212    140661.45   -39355.393    2686.0306   -42041.424    58.964467    226.69373 
   11150    132.37481   -143.05066    140683.61   -39359.004    2657.5243   -42016.528    59.237251    224.28788 
   11200    134.42619   -86.245163    140664.99   -39326.153    2698.7073    -42024.86     59.30644    227.76362 
   11250    133.06642   -179.40858    140631.33   -39335.226     2671.409   -42006.635    59.583954    225.45971 
   11300    131.90616   -257.69549    140629.32   -39390.833    2648.1159   -42038.949    59.675207    223.49384 
   11350    129.53851   -163.29336    140663.19   -39402.456    2600.5835   -42003.039    59.940943    219.48223 
   11400    133.79947   -259.15097    140664.94   -39315.852    2686.1254   -42001.977    60.251081    226.70174 
   11450    135.21574    -288.3027    140662.79   -39312.643    2714.5581   -42027.201    60.615472    229.10138 
   11500    131.65553   -72.063324    140695.74   -39328.435    2643.0842   -41971.519    60.944172    223.06918 
   11550    132.90954   -166.46131     140651.3   -39358.918    2668.2594   -42027.177    61.252346    225.19389 
   11600    133.10874   -61.286219    140657.46   -39405.052    2672.2585    -42077.31    61.353812    225.53141 
   11650    131.03395   -106.85639    140669.98   -39406.407    2630.6056   -42037.012    61.458542    222.01601 
   11700    131.41956   -186.23424    140707.15    -39392.81    2638.3469   -42031.157    61.839963    222.66936 
   11750    131.62484   -9.3649702    140732.01   -39391.898     2642.468   -42034.367    61.971066    223.01717 
   11800    133.88629   -129.57503    140732.16   -39351.364    2687.8684   -42039.232    62.195028    226.84884 
   11850    132.07634   -88.042529    140756.89    -39347.01    2651.5323   -41998.542    62.355129    223.78217 
   11900    133.16257   -104.78499    140771.39   -39407.147    2673.3392   -42080.486    62.736474    225.62262 
   11950    133.08135   -261.33438       140830   -39398.001    2671.7086    -42069.71    63.086063      225.485 
   12000    132.95896   -481.53941    140755.97   -39400.798    2669.2516   -42070.049    63.489935    225.27763 
   12050    130.79585   -194.57564    140727.58    -39393.58    2625.8255   -42019.405    63.756983    221.61259 
   12100    127.43378    2.5600956    140802.07   -39405.202    2558.3295   -41963.531    63.919373    215.91611 
   12150    134.08807   -319.34538    140798.36   -39378.331    2691.9194    -42070.25     63.99962    227.19074 
   12200    135.78755   -134.81744    140795.62   -39374.302    2726.0376    -42100.34    64.163867    230.07022 
   12250     131.4727   -158.83594    140766.12   -39408.629    2639.4137   -42048.043    64.400792     222.7594 
   12300    128.07185   -385.94997    140663.56   -39424.467    2571.1391   -41995.606     64.68484    216.99721 
   12350    132.35572   -115.48436    140669.86   -39414.727    2657.1412   -42071.868    64.783424    224.25555 
   12400    130.90044    78.959365    140745.15   -39395.259    2627.9253   -42023.184     64.98019    221.78981 
   12450    132.04533   -258.54996    140764.15   -39388.417    2650.9097   -42039.327    65.166778    223.72963 
   12500    132.67301   -324.97919    140782.11   -39394.453    2663.5109   -42057.964    65.262056    224.79314 
   12550    131.98585   -313.92215    140688.61   -39384.234    2649.7157   -42033.949     65.37034    223.62886 
   12600    133.86542   -245.27612    140610.31   -39390.806    2687.4495   -42078.256    65.654163    226.81349 
   12650    132.48646   -260.76737    140644.53   -39403.893    2659.7659   -42063.659    65.863503    224.47706 
   12700    132.60434   -285.98771    140654.28   -39381.493    2662.1323   -42043.625    66.001651    224.67679 
   12750    130.34275    -142.5385     140640.2   -39390.601    2616.7293    -42007.33    65.970415    220.84489 
   12800    133.47306   -425.92582    140571.94   -39363.617    2679.5726    -42043.19    65.956163     226.1487 
   12850    135.68683   -161.79766    140547.95   -39350.297    2724.0156   -42074.312    66.242278    229.89957 
   12900    131.54411    -270.9469    140481.82   -39416.005    2640.8475   -42056.852    66.684499     222.8804 
   12950    131.77455   -93.883935    140427.46   -39418.475    2645.4737   -42063.949    67.070952    223.27085 
   13000    132.77411   -149.98424    140435.23   -39455.907    2665.5406   -42121.448    67.317873    224.96443 
   13050    132.18137    -236.6781    140482.32    -39453.11     2653.641   -42106.751    67.825829    223.96014 
   13100    131.76269   -25.320517    140533.94   -39418.766    2645.2356   -42064.001    68.019609    223.25075 
   13150    132.77659    -37.85986    140575.53   -39361.876    2665.5903   -42027.466    68.180519    224.96863 
   13200    130.48013   -95.427783    140623.34   -39350.551    2619.4872   -41970.039    68.418789    221.07766 
   13250    135.76371   -87.677995    140653.13   -39331.391     2725.559    -42056.95    68.384767    230.02983 
   13300    132.96361   -318.80529    140689.28   -39372.204     2669.345   -42041.549    68.603046    225.28552 
   13350    132.82844   -219.05538    140720.06   -39363.747    2666.6312   -42030.378    69.066504    225.05648 
   13400    135.41393   -205.84026    140719.75    -39350.21    2718.5369   -42068.747    69.239974    229.43718 
   13450     134.2481   -114.53196    140682.26   -39390.953    2695.1321   -42086.085    69.508852    227.46188 
   13500    132.88216    15.331616    140683.24   -39408.963    2667.7099   -42076.673    69.779474    225.14752 
   13550    132.93198   -149.11824    140722.91   -39389.786    2668.7099   -42058.496    70.054399    225.23192 
   13600    131.41913    -271.2164    140687.47   -39397.948    2638.3383   -42036.286    70.204265    222.66864 
   13650    134.11682   -239.11946     140682.5   -39361.432    2692.4965   -42053.929    70.457181    227.23944 
   13700    132.87596    55.041695    140750.48   -39349.593    2667.5853   -42017.178    70.856086    225.13701 
   13750    133.16299    -100.2861    140820.79   -39378.787    2673.3477   -42052.135     70.89204    225.62334 
   13800    133.96987   -386.05946    140880.52   -39400.674    2689.5464   -42090.221    71.226837    226.99046 
   13850    133.40654   -300.58518     140835.7   -39395.301    2678.2372   -42073.539    71.523161    226.03599 
   13900    131.01615   -149.90881    140827.08   -39421.531    2630.2482    -42051.78    71.833107    221.98585 
   13950    133.18844   -90.884282    140754.96   -39378.935    2673.8587   -42052.794    72.073404    225.66646 
   14000    133.82596   -151.89817    140751.58    -39326.53    2686.6573   -42013.187     72.40648    226.74663 
   14050    134.78081    33.882344    140763.55   -39285.194    2705.8266   -41991.021    72.521882    228.36446 
   14100    132.80521     9.721418    140838.08   -39273.813    2666.1649   -41939.978    72.552148    225.01712 
   14150    133.70886   -230.19795    140833.69   -39278.474    2684.3064    -41962.78    72.829607    226.54822 
   14200    134.61619   -88.139002    140881.84    -39309.65    2702.5218   -42012.171    73.086183    228.08555 
   14250    133.59107   -18.808631    140889.14   -39328.224    2681.9417   -42010.166    73.233089    226.34864 
   14300    132.14207   -230.30232    140930.29   -39375.032    2652.8519   -42027.884    73.380075    223.89354 
   14350    130.77415    -255.5156    140895.28   -39406.252      2625.39   -42031.642    73.576292    221.57583 
   14400    134.01982   -212.41993    140934.74   -39403.033    2690.5491   -42093.582    73.661773    227.07509 
   14450    133.35154   -360.83139    140920.76    -39430.03     2677.133   -42107.163    73.964202     225.9428 
   14500    136.29095   -193.08372     140898.3   -39348.419    2736.1438   -42084.563    74.172139    230.92315 
   14550    133.29573   -125.15796    140900.82   -39358.808    2676.0125    -42034.82    74.426538    225.84824 
   14600    136.36798   -190.74693    140955.61   -39310.872    2737.6903   -42048.562    74.884864    231.05367 
   14650    134.52347   -200.75795    140922.95   -39375.228    2700.6604   -42075.888    75.065647    227.92845 
   14700    130.49617    -264.0776    140888.33   -39393.207    2619.8093   -42013.016     75.47655    221.10483 
   14750    132.33263   -288.72863    140879.27   -39437.836    2656.6775   -42094.514    75.584336    224.21642 
   14800    131.57581   -248.35709    140922.74   -39436.529    2641.4839   -42078.013    75.813523    222.93411 
   14850    135.96276   -512.31838    140908.66   -39400.059    2729.5552   -42129.615    76.007433     230.3671 
   14900    133.55806   -65.754656    140867.38   -39380.197     2681.279   -42061.476    76.123712    226.29271 
   14950    133.90812   -323.82976    140823.42   -39396.955    2688.3068   -42085.261    76.450845    226.88584 
   15000    133.83702   -296.96891    140813.94   -39418.902    2686.8793   -42105.782    76.922391    226.76537 
   15050    131.45613     -240.454    140786.53   -39432.583    2639.0811   -42071.664    77.395875    222.73132 
   15100    129.96845   -249.96134    140836.99   -39467.987    2609.2149   -42077.202    77.651543     220.2107 
   15150    130.90513   -316.89396    140816.77   -39439.013    2628.0195   -42067.032    77.972655    221.79776 
   15200    133.77949   -392.73987    140744.43   -39499.719    2685.7243   -42185.443    78.290154    226.66789 
   15250    132.00631   -51.475307    140686.85   -39463.954    2650.1264    -42114.08    78.529169    223.66352 
   15300    129.84589   -86.646254    140673.73   -39465.163    2606.7544   -42071.917    78.998488    220.00304 
   15350    132.25032   -93.434145    140661.51   -39487.216    2655.0252   -42142.241    79.157312    224.07696 
   15400    130.40671   -287.77676    140662.07   -39477.561    2618.0133   -42095.575    79.226084    220.95326 
   15450    129.06249   -250.57675    140661.61   -39535.857    2591.0269   -42126.884    79.178377    218.67568 
   15500     128.9284   -347.17656    140696.15   -39529.232    2588.3351   -42117.567    79.155044     218.4485 
   15550    131.17529   -94.700521    140655.26   -39499.322    2633.4431   -42132.765    79.386484    222.25549 
   15600    133.43701   -61.701462    140734.59   -39452.758    2678.8487   -42131.607    79.544196    226.08761 
   15650    131.67283   -263.59069    140771.21   -39493.436    2643.4315   -42136.867    79.756708    223.09849 
   15700    131.24216    -217.0125    140793.04   -39510.951    2634.7855   -42145.736     79.94808    222.36879 
   15750    132.96013   -80.767584     140839.8   -39436.845    2669.2751    -42106.12    79.839446    225.27962 
   15800    135.79783   -350.00942    140751.45   -39397.947    2726.2441   -42124.191    79.999825    230.08765 
   15850     131.5195    67.297071    140767.03   -39393.817    2640.3534    -42034.17    80.136442     222.8387 
   15900    134.59307    -30.46258    140767.69   -39357.075    2702.0577   -42059.133    80.507121    228.04638 
   15950    132.43285    24.540147    140754.43   -39371.723    2658.6895   -42030.413    80.661154    224.38622 
   16000    132.85845   -160.98253     140731.6   -39313.849    2667.2338   -41981.083    80.918715    225.10734 
   16050    133.48299   -153.24143    140731.12   -39375.459    2679.7719   -42055.231    81.199317    226.16552 
   16100    133.50903    40.612986    140751.39   -39406.331    2680.2947   -42086.625    81.504057    226.20964 
   16150    134.07376   -321.88672    140750.08    -39442.09     2691.632   -42133.722    81.952583    227.16648 
   16200    133.41274   -111.56812    140692.98   -39441.019    2678.3615   -42119.381    82.329478    226.04648 
   16250    130.83913    -168.4757    140683.91   -39423.902    2626.6945   -42050.597    82.579434    221.68593 
   16300    133.17836    63.180025    140672.24   -39452.448    2673.6562   -42126.104     82.81742    225.64937 
   16350    131.35217   -298.39526    140677.24   -39485.141    2636.9941   -42122.135    82.621369    222.55519 
   16400    132.44653    -28.93933     140710.1   -39500.161    2658.9642   -42159.125    82.619094    224.40941 
   16450    131.95937   -176.13916    140771.01   -39555.626    2649.1841    -42204.81    82.879533    223.58399 
   16500    131.56097    -52.25894    140739.41   -39552.207     2641.186   -42193.393     82.89126    222.90897 
   16550    130.79254    81.327671    140758.11   -39574.265     2625.759   -42200.024     83.23067    221.60697 
   16600    129.73245   -184.83894    140854.11   -39557.661    2604.4769   -42162.138    83.810593    219.81083 
   16650    131.16839   -306.07677    140780.24   -39558.824    2633.3046   -42192.129    84.236619    222.24381 
   16700    130.85476   -64.506915    140741.39   -39582.895    2627.0082   -42209.904    84.679321    221.71241 
   16750    129.79678   -54.797294    140781.94   -39563.814    2605.7684   -42169.582    85.080684    219.91982 
   16800    129.61075   -109.94762    140812.56   -39580.095    2602.0337   -42182.128    85.479348    219.60463 
   16850    131.00112   -27.040462    140929.26   -39598.322    2629.9464   -42228.269    85.856256    221.96038 
   16900    132.30108     -81.8687    141063.71   -39587.852    2656.0441   -42243.896    85.627229    224.16296 
   16950    132.24729   -232.30646    141072.38    -39607.55    2654.9643   -42262.514    85.582753    224.07183 
   17000     130.9152   -75.296968     141073.2   -39555.228    2628.2216    -42183.45    85.695136    221.81481 
   17050    130.82587   -247.47819    141093.42   -39585.884    2626.4282   -42212.313    85.798487    221.66345 
   17100    131.24709   -291.20926    141037.34   -39624.424    2634.8845   -42259.308    86.012303    222.37714 
   17150    132.25443   -164.82951    141038.66   -39608.721    2655.1076   -42263.829    86.260454    224.08392 
   17200    130.49856   -380.79648    141046.71     -39560.2    2619.8573   -42180.057    86.480889    221.10889 
   17250    131.75484    -191.2324    141021.53   -39533.833     2645.078   -42178.911    86.769279    223.23745 
   17300    131.31331   -201.49835    140982.81   -39546.153    2636.2139   -42182.367    87.107333    222.48934 
   17350    130.06645    -103.9578    140923.45   -39559.887    2611.1823   -42171.069    87.386292    220.37675 
   17400    129.41864    -215.6522    140972.05   -39591.664    2598.1769   -42189.841      87.4343    219.27912 
   17450    132.26793   -133.69746    140968.25   -39511.883    2655.3787   -42167.262     87.93107     224.1068 
   17500    130.90974   -331.57399    140941.63   -39593.484    2628.1119   -42221.596    88.185756    221.80556 
   17550     131.5324   -309.34169    140931.43   -39561.015    2640.6123   -42201.627    88.283352    222.86056 
   17600    134.05994   -167.35113    140938.91   -39506.538    2691.3546   -42197.892    88.437713    227.14307 
   17650    132.56182   -350.23124    140866.51   -39483.778    2661.2786   -42145.057    88.777157    224.60474 
   17700    133.78721   -478.66925    140853.51   -39510.149    2685.8794   -42196.029    88.948614    226.68098 
   17750    132.26835   -149.41067    140792.52   -39501.691     2655.387   -42157.078    89.067035     224.1075 
   17800    131.07192   -303.53065    140706.44   -39540.608    2631.3678   -42171.976    89.190283    222.08034 
   17850    132.68512   -491.28709    140706.97   -39481.819    2663.7541   -42145.573    89.311379    224.81366 
   17900    133.54161   -58.065055    140746.04    -39483.75    2680.9487   -42164.699    89.433654    226.26484 
   17950    134.64498   -51.960352    140859.18   -39458.348    2703.0997   -42161.448    89.579864    228.13432 
   18000    132.90018   -262.10035    140869.16   -39501.075    2668.0716   -42169.147    89.815521    225.17804 
   18050    132.32598    -82.64865    140883.96   -39536.492    2656.5441   -42193.036    90.079484    224.20516 
   18100    133.98812   -277.27352    140858.77   -39495.223    2689.9127   -42185.135      90.4257    227.02138 
   18150    132.39554   -294.80388    140814.75   -39538.367    2657.9404   -42196.307    90.695203      224.323 
   18200    130.67003   -395.80078    140726.75   -39492.939    2623.2995   -42116.238    90.836721     221.3994 
   18250    130.10299   -294.05839    140659.74   -39487.368    2611.9159   -42099.284    91.226424    220.43866 
   18300    131.84044    69.089973    140642.66   -39469.354    2646.7965   -42116.151    91.301384    223.38248 
   18350    132.34367   -13.852951    140654.25   -39431.887    2656.8991   -42088.786    91.573703    224.23512 
   18400    130.64239   -122.42251    140658.56   -39489.014    2622.7447   -42111.759    91.829814    221.35258 
   18450    131.43128   -284.72605    140637.07   -39500.947    2638.5823   -42139.529    91.908997    222.68923 
   18500    132.48401   -13.483519    140611.76   -39474.819    2659.7166   -42134.536    92.213373    224.47291 
   18550    133.17792    -248.1396    140622.48   -39448.751    2673.6473   -42122.399    92.294117    225.64862 
   18600    134.37409   -362.15597    140603.06   -39467.743    2697.6614   -42165.405    92.469928    227.67535 
   18650    133.37403    -16.38465     140661.6   -39490.989    2677.5845   -42168.573    92.687105    225.98091 
   18700    133.77097     46.76719    140712.27   -39447.897    2685.5534    -42133.45    92.914345    226.65346 
   18750    133.46948   -119.69569    140706.58   -39445.901    2679.5007   -42125.402    93.243335    226.14263 
   18800    132.55228    44.409383    140713.82   -39526.056    2661.0872   -42187.144    93.299267    224.58858 
   18850    132.88802   -154.75866    140763.83   -39495.074    2667.8274   -42162.902    93.299649    225.15744 
   18900    129.25491   -300.33976    140742.79   -39520.136      2594.89   -42115.027    93.550432    219.00172 
   18950    133.77152   -26.972458    140747.36   -39536.158    2685.5643   -42221.723     93.65903    226.65438 
   19000    131.22137    30.139692    140778.37   -39520.486    2634.3681   -42154.854    94.109032    222.33356 
   19050    131.32949    -278.7714    140791.02   -39503.583    2636.5387   -42140.121    94.590183    222.51675 
   19100     134.2132    75.886118    140765.37   -39441.547    2694.4315   -42135.978    94.596864    227.40275 
   19150    136.57172   -132.96724     140789.4   -39390.391    2741.7806   -42132.171    94.757377    231.39888 
   19200    134.19311   -270.61621    140861.54   -39399.569    2694.0281   -42093.597    94.930073     227.3687 
   19250    135.37566   -103.67597    140821.51   -39407.975    2717.7686   -42125.743    94.900461    229.37234 
   19300    134.73529   -169.37707     140956.1   -39379.877    2704.9128   -42084.789     94.88328    228.28734 
   19350    135.51298    22.840581    141058.71   -39353.928    2720.5255   -42074.454    94.963994    229.60502 
   19400    133.05933   -269.64853     141125.3   -39364.154    2671.2667   -42035.421    95.434531     225.4477 
   19450    133.91711   -115.63693    141087.78   -39366.691    2688.4873   -42055.178    95.710216    226.90107 
   19500    129.30258   -201.58012    141103.63   -39422.029     2595.847   -42017.876    96.298899    219.08249 
   19550    131.81319   -310.81839    141074.58    -39408.26    2646.2493    -42054.51    96.336692    223.33631 
   19600    134.23945    -232.5463    141038.05   -39412.773    2694.9584   -42107.731    96.412914    227.44722 
   19650    132.32687   -170.03279    140951.39   -39416.486    2656.5618   -42073.048    96.467978    224.20665 
   19700    130.11256   -249.97546     140901.5     -39440.4    2612.1079   -42052.508    96.483688    220.45486 
   19750    131.60482   -218.95406    140793.08    -39398.01    2642.0662   -42040.076    96.852727    222.98326 
   19800    131.70765   -257.01463    140671.24   -39352.858    2644.1306   -41996.988    97.191142    223.15749 
   19850    135.15215   -182.35298    140656.47   -39381.619    2713.2816     -42094.9    97.565035    228.99365 
   19900    133.88273   -165.91178     140675.7   -39374.699    2687.7969   -42062.496    97.841172    226.84281 
   19950    134.49921   -49.286433    140773.86   -39395.386    2700.1733   -42095.559    98.084244    227.88734 
   20000    134.54186   -171.61587    140788.34   -39409.761    2701.0295   -42110.791    98.435632    227.95961 
   20050    135.86502   -292.24314    140765.67   -39411.524     2727.593   -42139.117    98.651438    230.20149 
   20100     136.0227   -478.68468    140782.98   -39405.592    2730.7584    -42136.35    99.013757    230.46864 
   20150    132.54163   -224.67236    140702.05   -39469.147    2660.8734    -42130.02    99.159316    224.57053 
   20200    132.54237     61.49905    140693.51   -39453.543    2660.8882   -42114.431    99.424618    224.57179 
   20250    134.66033   -82.783228    140706.17   -39455.118    2703.4079   -42158.526    99.816936    228.16034 
   20300    132.77394   -156.81876    140718.25    -39450.62    2665.5372   -42116.158    100.19381    224.96415 
   20350    134.05458   -24.488709    140839.45   -39454.483     2691.247    -42145.73     100.1642    227.13398 
   20400    131.96904   -214.64551    140868.05   -39462.753    2649.3782   -42112.131    100.37514    223.60038 
   20450    131.05624   -11.839704    140894.93   -39452.284     2631.053   -42083.337    100.59935    222.05377 
   20500    131.69064   -3.7430829    140944.19    -39469.88    2643.7892    -42113.67     100.6401    223.12867 
   20550    132.77243   -222.89387     141076.1   -39505.553    2665.5069    -42171.06    100.82009    224.96159 
   20600    128.72497   -194.46545     141044.7   -39559.669     2584.251    -42143.92    101.20234    218.10382 
   20650    128.76686   -68.065318    141028.06   -39557.378     2585.092    -42142.47    101.48185    218.17479 
   20700     132.9746   -384.75954     141028.1   -39558.973    2669.5656   -42228.538    101.58661    225.30414 
   20750     132.2993   -244.58657    141004.39   -39495.472    2656.0084    -42151.48    101.73021    224.15995 
   20800    131.58399   -182.93367       141007   -39531.564    2641.6479   -42173.212    101.90817    222.94796 
   20850    131.11575   -405.39886    140949.33   -39546.549    2632.2477   -42178.797    102.13298    222.15461 
   20900    132.01026   -268.99114    140878.57   -39515.925    2650.2058   -42166.131    102.20299    223.67022 
   20950    131.40872   -159.94648    140862.88   -39486.208    2638.1293   -42124.338    102.37247      222.651 
   21000    132.04537   -248.80816    140842.43   -39475.307    2650.9105   -42126.218    102.64317     223.7297 
   21050    130.17087   -367.92527    140665.48   -39466.722    2613.2786   -42080.001    103.24896    220.55366 
   21100    134.86372   -189.93516    140624.28   -39456.367    2707.4911   -42163.859    103.57011    228.50494 
   21150    130.47873   -122.84912    140609.22    -39494.96    2619.4592   -42114.419    104.03059    221.07529 
   21200    129.47267   -184.39185    140677.14   -39536.028    2599.2616   -42135.289    104.56782    219.37067 
   21250    130.29679   -17.665123    140726.62   -39507.158    2615.8064   -42122.965    104.73013    220.76701 
   21300    133.11597   -235.51649    140768.66   -39457.432    2672.4037   -42129.836    104.80909    225.54366 
   21350    132.34539     29.98893     140764.7   -39453.213    2656.9337   -42110.147    105.26421    224.23804 
   21400    132.85019    8.6009689    140821.93    -39454.12     2667.068   -42121.188    105.58293    225.09335 
   21450    130.95575   -310.40174     140809.1   -39497.975    2629.0356   -42127.011    106.06332    221.88352 
   21500    132.18562   -102.09076    140840.83    -39468.54    2653.7263   -42122.267    106.57583    223.96734 
   21550      132.262   -230.49521    140846.44   -39482.775    2655.2597   -42138.035    106.74052    224.09675 
   21600    131.53978   -44.581635    140874.97   -39453.961    2640.7606   -42094.721    106.95257    222.87307 
   21650    134.59579   -122.94383    140904.68   -39428.693    2702.1122   -42130.805    107.35583    228.05098 
   21700    133.44576     109.6073    140933.77   -39409.291    2679.0244   -42088.316    107.66845    226.10243 
   21750    133.53746   -169.77222    141019.43   -39413.331    2680.8654   -42094.196    108.05706    226.25781 
   21800    135.44239   -173.86915    141072.81   -39380.547    2719.1084   -42099.655    108.18634    229.48541 
   21850    133.66678   -103.93383    141117.83   -39405.891    2683.4616   -42089.353    108.16214    226.47692 
   21900    133.99687   -133.81086    141144.86   -39432.494    2690.0884   -42122.582    108.09537     227.0362 
   21950     132.4285   -286.23816    141174.26   -39410.383    2658.6021   -42068.985    108.46366    224.37885 
   22000    133.99084   -129.50517    141131.37   -39412.898    2689.9673   -42102.865    108.63497    227.02598 
   22050     134.4724   -165.93819    141164.82   -39381.071     2699.635   -42080.706    108.73673    227.84191 
   22100    135.68069    -293.7933    141215.27    -39385.68    2723.8924   -42109.572    108.83524    229.88917 
   22150    136.80121   -235.54365     141199.8   -39350.099    2746.3877   -42096.487    108.96913    231.78772 
   22200    132.22901   -113.79535    141233.45   -39343.998    2654.5973   -41998.596    109.21359    224.04085 
   22250    131.28146   -318.50916    141210.99   -39402.304    2635.5744   -42037.879    109.58415    222.43537 
   22300    138.30376   -133.56242    141248.37    -39370.51    2776.5525   -42147.063    109.85584    234.33354 
   22350    133.20817   -179.95606    141372.32   -39414.026    2674.2546   -42088.281    110.05822    225.69988 
   22400    131.60425   -489.95784     141331.5   -39412.346    2642.0547   -42054.401    110.06113    222.98229 
   22450    137.15088   -116.64776    141209.91   -39394.139    2753.4076   -42147.547    110.24404    232.38017 
   22500    131.72783   -55.862901    141174.47   -39409.065    2644.5358   -42053.601    110.16566    223.19169 
   22550    133.44141   -256.76527    141136.15   -39411.028    2678.9371   -42089.965    110.28132    226.09507 
   22600    135.15771     6.721906    141178.21   -39357.158    2713.3931   -42070.551    110.31121    229.00306 
   22650    134.28548    -298.4063    141175.66   -39338.691    2695.8825   -42034.573    110.21765    227.52521 
   22700     132.3423    -362.1337    141166.28   -39371.554    2656.8717   -42028.425    110.32135     224.2328 
   22750    133.72185   -496.58448     141108.1   -39354.766    2684.5673   -42039.334    110.39454    226.57024 
   22800    135.56251   -221.83837    141117.08   -39369.589    2721.5198   -42091.109    110.58725    229.68893 
   22850    133.45371   -76.884289     141207.2   -39423.283    2679.1841   -42102.467    110.80383    226.11591 
   22900    134.08914   -120.08991    141259.97   -39413.006    2691.9408   -42104.947    111.02944    227.19255 
   22950    136.94971    -331.5448    141242.39   -39369.631    2749.3689       -42119    111.16532    232.03932 
   23000    137.05055   -45.996588    141256.79   -39356.007    2751.3934   -42107.401    111.53914    232.21018 
   23050    133.93982   -214.87274    141279.74   -39348.525    2688.9432   -42037.468    112.06872    226.93955 
   23100    135.28687   -442.13342     141231.1   -39398.764    2715.9861    -42114.75    112.28237     229.2219 
   23150    134.45324   -160.42571    141228.68   -39425.768    2699.2504   -42125.019    112.26733    227.80946 
   23200    131.93335   -22.409115    141289.81   -39369.461    2648.6617   -42018.122    112.47326     223.5399 
   23250     133.9907   -353.47859    141318.18   -39414.996    2689.9647   -42104.961    112.58944    227.02576 
   23300    133.93623   -191.16426    141267.14   -39384.873    2688.8711   -42073.744    112.95992    226.93347 
   23350    132.90391   -245.87332    141268.71   -39407.151    2668.1465   -42075.297    113.22415    225.18437 
   23400    135.21418   -147.16716    141126.82   -39422.615    2714.5269   -42137.142    113.57154    229.09875 
   23450     132.6025   -242.90743    141035.75   -39394.247    2662.0955   -42056.343    113.71617    224.67368 
   23500    135.89238   -318.57658    141029.98   -39410.325    2728.1422   -42138.467    113.81317    230.24785 
   23550    132.03854   -119.28498    140906.96    -39424.66    2650.7734   -42075.433    113.91956    223.71812 
   23600    134.58504   -82.409345    140971.76   -39422.934    2701.8964    -42124.83    114.19686    228.03277 
   23650    133.34942   -337.59731    140909.93   -39322.993    2677.0903   -42000.083    114.54644     225.9392 
   23700    136.06426   -345.76124    140808.09   -39326.783    2731.5929   -42058.376    114.82755    230.53907 
   23750    133.82008   -251.84872     140689.1   -39382.731    2686.5392    -42069.27    115.00208    226.73666 
   23800    136.01382   -133.88226    140714.91   -39360.912    2730.5803   -42091.492    115.47774    230.45361 
   23850    138.11734   -159.15441    140717.02    -39352.76      2772.81    -42125.57    115.61379    234.01769 
   23900    135.14878   -138.22288     140719.6   -39398.988    2713.2138   -42112.202    116.13532    228.98793 
   23950    134.54849   -157.64526    140702.17   -39397.411    2701.1626   -42098.573    116.17591    227.97084 
   24000    132.51036   -283.76088    140788.66   -39379.355    2660.2457   -42039.601    116.23874    224.51756 
   24050    132.10795   -261.47098    140736.78   -39433.046    2652.1669   -42085.213    116.25134    223.83573 
   24100    132.18383   -272.85573    140798.77   -39433.331    2653.6903   -42087.021    116.66024     223.9643 
   24150    130.00451   -359.11008    140780.34    -39465.33    2609.9387   -42075.269    116.86485    220.27178 
   24200    131.28359   -377.62119    140675.97   -39493.072    2635.6172   -42128.689    117.05598    222.43898 
   24250    130.94873    57.751152    140693.18   -39466.055    2628.8947    -42094.95    117.48337    221.87162 
   24300    130.92564   -218.86002    140773.39    -39431.62    2628.4311   -42060.052    117.60287    221.83249 
   24350    131.43361   -410.78092    140769.42   -39396.346     2638.629   -42034.975    117.84181    222.69317 
   24400    130.95034   -151.10458    140730.33   -39398.607     2628.927   -42027.534    117.97632    221.87435 
   24450    133.70881   -230.57738    140646.48   -39363.125    2684.3054    -42047.43    118.31649    226.54814 
   24500    134.38095   -335.66966    140574.64   -39416.234    2697.7991   -42114.033    118.40999    227.68697 
   24550    135.55127   -329.89524    140512.85   -39401.932    2721.2941   -42123.226    118.51128    229.66988 
   24600     132.7642   -62.368529    140471.75   -39438.009    2665.3416    -42103.35    118.44384    224.94764 
   24650    133.81587   -159.38829    140441.58   -39439.594    2686.4548   -42126.049    118.49101    226.72953 
   24700    133.01003   -211.33811    140454.46    -39423.41    2670.2768   -42093.687    118.92693    225.36416 
   24750    134.26627   -90.607142    140492.16   -39402.561    2695.4969   -42098.058      118.917    227.49267 
   24800    135.60288   -367.82512    140506.92   -39390.484    2722.3303   -42112.814    119.22566    229.75733 
   24850     132.7499   -346.88033    140440.66   -39402.425    2665.0546   -42067.479    119.39553    224.92342 
   24900    134.20233   -306.64397    140527.52   -39379.919    2694.2132   -42074.133     119.9546    227.38433 
   24950    132.38126   -417.33026    140505.38   -39404.543    2657.6538   -42062.197    120.20865    224.29881 
   25000    136.25905    -149.8351    140515.62   -39375.261    2735.5035   -42110.765    120.74093    230.86911 
   25050    130.14486   -416.15947    140549.34   -39395.546    2612.7565   -42008.303    120.91716     220.5096 
   25100    134.14593   -407.26901    140511.57   -39363.351    2693.0808   -42056.431    121.17679    227.28876 
   25150    132.37137   -190.59565    140520.38   -39392.988    2657.4552   -42050.443    121.51197    224.28205 
   25200    131.91981    52.291342     140625.4   -39417.854      2648.39   -42066.244    121.74957    223.51697 
   25250     132.0871   -288.09705    140680.71   -39396.166    2651.7483   -42047.914    121.63856     223.8004 
   25300     132.4233   -445.34734    140689.16   -39367.018    2658.4979   -42025.516    121.97082    224.37005 
   25350    134.11626   -367.17877    140615.82   -39370.744    2692.4853   -42063.229    121.94592    227.23849 
   25400     135.6104   -133.47013    140564.05   -39377.686    2722.4812   -42100.167    122.33724    229.77007 
   25450    129.20109   -346.28913    140556.68   -39398.992    2593.8095   -41992.802    122.45119    218.91053 
   25500    131.85957   -148.51763    140531.15   -39405.778    2647.1806   -42052.958    122.51113     223.4149 
   25550    131.38655   -228.84071    140571.05   -39393.508    2637.6843   -42031.193    122.52484    222.61344 
   25600    136.73627    49.466936    140703.29   -39339.209     2745.084   -42084.293    122.59963    231.67769 
   25650    131.82556   -308.68748    140733.17   -39358.269    2646.4977   -42004.767    122.97237    223.35727 
   25700    129.86293   -366.13572     140703.1   -39330.938    2607.0965   -41938.034    122.98793    220.03191 
   25750    131.71242   -114.04937    140706.03   -39342.416    2644.2263   -41986.642    123.12948    223.16556 
   25800    132.22845    57.258697    140812.82   -39314.062    2654.5861   -41968.648    123.31901    224.03991 
   25850    132.00252   -177.70441    140870.47   -39326.528    2650.0503   -41976.578    123.60994     223.6571 
   25900    132.15776   -231.34655    140834.74   -39307.329    2653.1669   -41960.496    124.12221    223.92013 
   25950    135.71131   -283.33798    140822.54   -39267.413     2724.507    -41991.92    124.60121    229.94104 
   26000    135.01941   -232.00545    140761.26    -39252.15    2710.6167   -41962.766    124.85793    228.76874 
   26050    133.31118   -309.22571    140696.57   -39280.162    2676.3227   -41956.484    125.07055    225.87442 
   26100    133.81999   -173.73756    140685.13   -39314.646    2686.5374   -42001.184    125.57805    226.73651 
   26150    133.80993   -375.53916    140697.12   -39338.294    2686.3355    -42024.63    125.70701    226.71947 
   26200    131.15201   -304.72552    140703.57   -39368.519    2632.9756   -42001.494    125.80712    222.21604 
   26250    133.65558    -195.8611    140735.55   -39400.267    2683.2368   -42083.503    126.06599    226.45795 
   26300    131.37685   -454.40274    140695.19   -39412.305    2637.4896   -42049.795    126.45192    222.59701 
   26350    134.05589   -238.47954    140683.04   -39399.128    2691.2734   -42090.401    126.64523    227.13621 
   26400    132.89666   -225.12829       140667   -39388.323    2668.0009   -42056.324    126.91454    225.17208 
   26450    133.66687   -210.88249    140643.97   -39393.365    2683.4634   -42076.828    126.85097    226.47707 
   26500    133.80679   -334.77969    140536.72   -39430.991    2686.2725   -42117.263    126.93845    226.71415 
   26550    133.23092   -328.84971    140526.08   -39487.259    2674.7113    -42161.97    126.95163    225.73842 
   26600    132.79835   -274.49175    140554.77   -39448.461    2666.0272   -42114.488    127.09633    225.00551 
   26650     134.3431   -216.35504    140609.38   -39428.485    2697.0393   -42125.524    127.34232    227.62284 
   26700     134.0049   -277.41175    140511.75   -39457.533    2690.2496   -42147.782    127.71858    227.04981 
   26750    131.28133   -111.38677    140488.05   -39454.586     2635.572   -42090.158     127.7407    222.43517 
   26800    130.57962   -35.683184    140502.15   -39463.959    2621.4845   -42085.443    127.92841    221.24622 
   26850     130.1198   -330.49217     140530.4   -39460.529    2612.2534   -42072.782    127.96191    220.46714 
   26900    133.25503   -161.57453    140531.13    -39438.29    2675.1954   -42113.485    128.25159    225.77927 
   26950    132.90259    -203.5464    140524.78   -39438.737    2668.1199   -42106.857    128.47662    225.18213 
   27000    134.48662   -53.387164    140545.09   -39369.976    2699.9206   -42069.896    128.73901    227.86601 
   27050     134.1297   -403.41267    140567.68   -39355.474    2692.7551    -42048.23    129.11989    227.26127 
   27100    131.61275     -300.006    140452.41   -39403.034    2642.2255   -42045.259    129.32786    222.99671 
   27150    135.07474   -144.14054    140463.01   -39397.905    2711.7274   -42109.633    129.47308    228.86248 
   27200    132.74163   -65.722686    140515.95   -39371.412    2664.8885   -42036.301    129.74643     224.9094 
   27250    130.95495    44.994664    140546.04   -39377.779    2629.0195   -42006.798    129.93513    221.88215 
   27300    133.30521   -204.44457     140610.7   -39366.211    2676.2028   -42042.414    129.95084     225.8643 
   27350    135.29393   -20.212356    140637.71   -39349.225    2716.1278   -42065.353    130.04978    229.23386 
   27400    133.79209    24.507689    140645.98   -39339.332    2685.9774   -42025.309    130.39152    226.68925 
   27450    132.62046    51.514081    140656.17   -39317.855     2662.456   -41980.311    130.47219     224.7041 
   27500    131.68166   -124.35728    140672.35   -39391.914    2643.6087   -42035.523    130.69757    223.11345 
   27550    130.92735   -153.67953    140628.25   -39367.377    2628.4654   -41995.842    130.71377    221.83539 
   27600      132.128   -405.80907    140657.75   -39398.352    2652.5695   -42050.922    130.91039    223.86971 
   27650    129.11228    -182.2779    140651.76   -39448.044    2592.0267    -42040.07    131.26497    218.76006 
   27700    129.69508   -42.822275    140631.59   -39447.704    2603.7268   -42051.431    131.22047    219.74751 
   27750    133.18835   -68.448542    140609.11   -39376.931    2673.8567   -42050.788    131.21213    225.66629 
   27800    129.98567    -269.9272    140618.07   -39417.651    2609.5605   -42027.212    131.06917    220.23986 
   27850    130.78098   -180.84902    140587.98   -39403.523    2625.5269    -42029.05    130.84009    221.58739 
   27900    130.41035   -10.315907    140589.89   -39472.223    2618.0862   -42090.309    130.86554    220.95942 
   27950    132.37385   -275.54997    140609.26    -39446.99    2657.5052   -42104.495      131.039    224.28627 
   28000    130.44196   -256.80339    140565.75   -39457.779    2618.7209   -42076.499    131.15864    221.01298 
   28050    128.51214   -180.85324    140518.58   -39450.184    2579.9784   -42030.162    131.56249    217.74321 
   28100      130.362    -133.9409    140487.49   -39494.297    2617.1157   -42111.412    131.86923     220.8775 
   28150    129.96083   -113.70693    140489.28   -39450.891    2609.0619   -42059.953    132.24605    220.19778 
   28200    132.72862    31.620775    140546.86   -39438.997    2664.6274   -42103.624    132.37775    224.88736 
   28250    130.55416    17.106491     140663.6   -39496.356    2620.9733   -42117.329    132.29394    221.20308 
   28300    134.65894     -22.2454    140676.35   -39521.612      2703.38   -42224.992    132.32622    228.15798 
   28350    131.24331   -267.84022    140743.72   -39504.536    2634.8087   -42139.345    132.79228    222.37075 
   28400     131.6929   -311.17922    140730.43   -39522.815    2643.8345    -42166.65    132.62975     223.1325 
   28450    129.46524   -172.43022    140760.94   -39533.077    2599.1125    -42132.19    133.01256    219.35808 
   28500    131.95988   -102.37831    140873.35   -39557.092    2649.1943   -42206.287    133.31562    223.58485 
   28550    130.58882   -182.75193    140923.15   -39575.204    2621.6693   -42196.873    133.30979    221.26182 
   28600    132.03944   -81.706209    140981.84   -39560.767    2650.7914   -42211.558     133.5988    223.71965 
   28650    132.87175   -129.02003    141072.75   -39530.288    2667.5008   -42197.788    133.98527    225.12987 
   28700    130.03856   -222.49335    141144.07   -39561.136    2610.6223   -42171.759    134.36525    220.32948 
   28750    131.21776   -262.16336    141220.92   -39529.263    2634.2957   -42163.558    134.53265    222.32745 
   28800    132.93529    -292.6021    141180.96   -39547.068    2668.7765   -42215.844    134.40669    225.23753 
   28850    132.17441   -77.319869    141176.16   -39540.816    2653.5012   -42194.318    134.56709    223.94834 
   28900    131.46315   -254.58099    141239.11   -39515.134     2639.222   -42154.356     134.8034    222.74322 
   28950    132.90064   -259.17668    141189.49   -39529.455    2668.0808   -42197.535    135.06102    225.17882 
   29000    131.78926   -300.83459    141100.21   -39540.381     2645.769    -42186.15    135.17827    223.29576 
   29050     133.8709   -290.19991    141113.82   -39554.656    2687.5594   -42242.215    135.44675    226.82277 
   29100    130.53567   -228.42992    141071.89   -39549.779    2620.6023   -42170.382    136.03107    221.17176 
   29150    131.60569   -151.18274    141094.42   -39565.805    2642.0836   -42207.889    135.83564    222.98473 
   29200    132.29307   -138.62471    141004.54   -39564.628    2655.8833   -42220.511    136.00769    224.14939 
   29250    133.53842   -83.203186    140978.57   -39547.489    2680.8846   -42228.373    135.90494    226.25943 
   29300    132.49355   -140.70433    141000.56   -39551.731    2659.9081   -42211.639    136.22235    224.48907 
   29350     133.0135   -164.45557    140960.49   -39533.574    2670.3466   -42203.921    136.64955    225.37005 
   29400    135.11522    -185.2642    140902.03   -39465.622    2712.5402   -42178.162    136.65783    228.93108 
   29450     134.9289   -113.21985    140969.28   -39473.267    2708.7996   -42182.067    136.59823    228.61538 
   29500    134.16323   -365.09625     141057.6    -39469.13    2693.4283   -42162.558    136.82056    227.31808 
   29550    132.57787   -250.47323    141052.53   -39495.878     2661.601   -42157.479    136.82194    224.63194 
   29600    128.87435   -177.40046    141016.11   -39533.948      2587.25   -42121.198    137.08567    218.35692 
   29650    132.77593   -336.34755    140953.99   -39539.252    2665.5772   -42204.829    137.23643    224.96753 
   29700    132.54929   -263.84404    140818.65   -39490.554    2661.0271   -42151.581    137.14919    224.58351 
   29750    131.84021   -199.36346    140752.99   -39492.489    2646.7918   -42139.281     137.2597    223.38209 
   29800    132.51363   -125.18722    140640.27   -39556.899    2660.3112    -42217.21    137.72457    224.52309 
   29850    131.09272   -260.28755    140665.74   -39528.353    2631.7854   -42160.139    138.20464    222.11559 
   29900     130.7957   -148.96687    140667.47   -39553.367    2625.8225   -42179.189    138.29308    221.61234 
   29950    130.64288   -136.01486    140621.62   -39553.228    2622.7545   -42175.983    138.62701     221.3534 
   30000    132.78315   -179.39166    140684.16   -39522.012    2665.7222   -42187.734     138.8442    224.97976 
   30050    130.62601   -249.27886    140659.78   -39540.829    2622.4159   -42163.245    139.02292    221.32482 
   30100    128.84534   -357.29033    140674.58   -39559.097    2586.6676   -42145.765    138.99063    218.30777 
   30150    130.83036    -217.2874    140719.09   -39548.456    2626.5183   -42174.975    139.31435    221.67106 
   30200    130.43514   -322.93659    140781.68    -39566.32     2618.584   -42184.905    139.32121    221.00143 
   30250    131.22183    8.1675155    140773.01   -39558.846    2634.3775   -42193.224    139.31663    222.33435 
   30300    130.25632   -292.21473    140807.16   -39509.512    2614.9942   -42124.506    139.41634    220.69845 
   30350    131.61835   -177.41729    140789.07    -39546.83    2642.3378   -42189.168    139.91153    223.00618 
   30400    131.94555   -251.52161    140796.94   -39489.297    2648.9065   -42138.204    140.14584    223.56057 
   30450    131.62364   -72.179138    140750.77   -39506.641     2642.444   -42149.085    140.50138    223.01515 
   30500     133.6301    65.818272    140817.78   -39563.695    2682.7252    -42246.42    140.74387    226.41477 
   30550    130.30898   -13.554033     140892.6   -39594.038    2616.0512   -42210.089    140.99555    220.78766 
   30600    131.58656    -165.0145    140899.47    -39564.26    2641.6996    -42205.96     141.1396    222.95232 
   30650    132.68927   -154.35858    140940.92    -39531.16    2663.8374   -42194.997    141.34795    224.82069 
   30700    133.92904   -427.60235     140976.7   -39522.516    2688.7266   -42211.242    141.27017    226.92127 
   30750    131.11108   -242.24646    140913.59   -39524.389    2632.1541   -42156.543    141.90926    222.14671 
   30800    131.05674   -316.82704    140847.71   -39547.742    2631.0631   -42178.805    142.03737    222.05463 
   30850    132.11996   -170.88582     140752.9   -39557.839    2652.4081   -42210.247    142.30564    223.85608 
   30900    131.22646    46.280242    140756.42   -39573.174    2634.4703   -42207.644    142.67605    222.34219 
   30950    134.85847   -284.30233    140831.34   -39509.503    2707.3857   -42216.889    142.90364    228.49605 
   31000    132.20752   -219.85059    140735.86   -39598.617    2654.1658   -42252.783    142.97327    224.00444 
   31050    131.08717   -195.33928    140706.83   -39577.636    2631.6739    -42209.31     142.9498    222.10618 
   31100    133.59688   -103.40981     140716.9   -39559.693    2682.0583   -42241.751    142.79203    226.35849 
   31150    129.84684   -221.27869     140736.2   -39558.292    2606.7734   -42165.065    143.21364    220.00464 
   31200    133.72127   -221.73437    140714.54   -39515.357    2684.5556   -42199.912    143.38609    226.56925 
   31250    132.90135   -125.02978    140666.15   -39533.784    2668.0951   -42201.879    143.40982    225.18003 
   31300    132.04219   -167.57047    140750.91   -39552.387    2650.8468   -42203.234    144.04792    223.72432 
   31350    131.17953   -380.02662    140720.86   -39547.255    2633.5282   -42180.783    144.17005    222.26267 
   31400    129.85709   -313.82718    140669.37   -39570.578    2606.9791   -42177.558    144.34997    220.02201 
   31450    132.09516   -237.16563    140590.99   -39533.644    2651.9101   -42185.554    144.25683    223.81406 
   31500     130.6399   -211.99185    140651.64   -39475.844    2622.6948   -42098.538    144.22172    221.34837 
   31550    132.58981   -187.74041     140603.8   -39464.393    2661.8406   -42126.234    144.38094    224.65216 
   31600    132.41514   -163.33894    140583.02   -39476.488     2658.334   -42134.822     144.7672    224.35622 
   31650     132.9818   -273.15149    140561.27    -39448.55    2669.7101    -42118.26    145.22387    225.31633 
   31700    135.45953   -256.13682    140590.08   -39421.946    2719.4525   -42141.398    145.65962    229.51445 
   31750    132.27861    38.041426    140638.86    -39487.71     2655.593   -42143.303    145.88032    224.12488 
   31800    133.72476   -10.853437    140658.18   -39484.071    2684.6257   -42168.697     146.1822    226.57516 
   31850     133.9004   -91.894811    140757.02   -39497.251    2688.1517   -42185.402    146.23619    226.87275 
   31900    134.08656   -99.656276    140864.75   -39494.095     2691.889   -42185.984    146.21168    227.18817 
   31950    134.39332   -268.58893    140920.47    -39445.64    2698.0474   -42143.688    146.27586    227.70793 
   32000    136.11257   -187.17768    140945.39    -39438.17    2732.5628   -42170.733    146.21353    230.62092 
   32050    133.62305   -345.20998    140867.53   -39504.305    2682.5837   -42186.889     146.4668    226.40282 
   32100    134.02842   -158.35563    140840.63   -39530.015    2690.7218   -42220.737    146.29829    227.08966 
   32150     132.5179   -12.665697    140959.65   -39488.782    2660.3969   -42149.179    146.28179    224.53032 
   32200    135.13453   -21.583562    141068.77   -39503.229    2712.9279   -42216.157    146.40248    228.96379 
   32250     131.3584   -2.9214619    141105.55   -39574.858    2637.1192   -42211.978    146.53263    222.56575 
   32300    130.48275   -266.66083    141106.95   -39576.935    2619.5397   -42196.475    146.67315    221.08209 
   32350    131.25236   -232.22571    141064.11   -39545.994    2634.9902   -42180.984    146.83936    222.38607 
   32400    135.03541   -252.03403    141073.51   -39460.653    2710.9379   -42171.591    147.02059    228.79584 
   32450    131.91596   -305.27892    141016.82   -39498.994    2648.3127   -42147.307    147.01412    223.51045 
   32500    131.39322   -24.520916    140972.52   -39494.866    2637.8182   -42132.685    147.14716    222.62474 
   32550    133.02795    -214.1732    141006.81     -39452.3    2670.6366   -42122.937    146.98765    225.39453 
   32600    133.28331    -275.3305    140985.88   -39496.695    2675.7631   -42172.458    147.01244    225.82719 
   32650    131.45463   -353.38675    140915.75    -39552.18     2639.051   -42191.231    147.50377    222.72878 
   32700    131.84014   -169.14272    140880.95   -39539.174    2646.7904   -42185.964    147.83056    223.38197 
   32750    131.63964   -267.01071    140866.48   -39567.131    2642.7653   -42209.897    147.78249    223.04226 
   32800     132.8894   -336.41008    140824.64   -39597.054    2667.8551   -42264.909     147.8708    225.15977 
   32850    133.96345   -139.39813    140753.96   -39564.933    2689.4176   -42254.351    148.20312    226.97959 
   32900    132.56955   -297.30904    140722.24    -39550.33    2661.4338   -42211.764    148.48166    224.61783 
   32950    134.19472    124.54517     140820.4   -39510.219    2694.0603   -42204.279    148.27341    227.37142 
   33000     133.9155   -141.01746    140911.71    -39525.71    2688.4549   -42214.165    148.58372    226.89834 
   33050    133.43821   -176.15232    140907.03   -39513.944    2678.8729   -42192.817    148.72166    226.08965 
   33100     131.7189   -132.31643     140890.5   -39546.267    2644.3565   -42190.623    148.82234    223.17656 
   33150    129.71071   -262.38004    140842.25   -39592.322    2604.0404   -42196.363    148.76299    219.77399 
   33200    129.87443    -109.8548    140775.77   -39581.132    2607.3274   -42188.459    149.05516     220.0514 
   33250     131.9887   -5.0944151    140839.28   -39572.922    2649.7729   -42222.695    149.13237    223.63368 
   33300    129.52284   -174.79168    140818.26   -39541.148    2600.2689   -42141.417    149.44397    219.45568 
   33350    131.87987   -194.40442    140798.04   -39553.817     2647.588   -42201.405    149.52811    223.44928 
   33400    131.29328   -103.38098    140737.74   -39538.049    2635.8119   -42173.861     150.0409    222.45541 
   33450    130.69441   -383.70458    140630.73   -39552.301     2623.789    -42176.09    150.34533    221.44071 
   33500    132.28317   -246.96306       140553   -39504.713    2655.6846   -42160.397    150.47275    224.13262 
   33550    131.63805   -106.61971    140557.34   -39464.146    2642.7333    -42106.88    150.40885    223.03956 
   33600    133.47105   -131.06454    140566.56   -39471.101    2679.5322   -42150.633     150.5606    226.14529 
   33650    131.63683   -349.93731    140548.09   -39505.949    2642.7088   -42148.657    151.04586    223.03749 
   33700    131.87741   -271.03307    140482.76   -39505.345    2647.5386   -42152.884     151.6413    223.44512 
   33750    131.58946   -63.610655    140520.62   -39497.213    2641.7578   -42138.971    151.93489    222.95723 
   33800    133.97484   -178.81954    140502.77   -39503.001    2689.6462   -42192.647    152.14959    226.99889 
   33850    130.57603   -226.19388     140506.7   -39503.334    2621.4125   -42124.747    152.43323    221.24014 
   33900    132.70178    22.088057    140511.76   -39404.866    2664.0886   -42068.955    152.34797    224.84189 
   33950    134.37626   -101.97187    140563.42   -39364.707     2697.705   -42062.412    152.58705    227.67903 
[...]
   92000    133.84832   -70.988664    140543.41   -39401.047    2687.1062   -42088.153    387.67173    226.78451 
   92050    132.49904   -47.456628    140563.23   -39445.642    2660.0183   -42105.661    388.00018    224.49837 
   92100    135.79679    -76.60306    140549.31   -39408.477    2726.2233     -42134.7     388.2495    230.08589 
   92150    131.63178    149.82181    140634.89   -39418.397    2642.6075   -42061.004    388.43475    223.02894 
   92200    131.94316   -225.61864    140669.21   -39458.481    2648.8586   -42107.339    388.46188    223.55652 
   92250    131.60531    -319.3556     140657.2   -39520.644     2642.076    -42162.72     388.9615    222.98409 
   92300    130.07984   -234.92241    140638.91   -39520.155    2611.4511   -42131.606    389.01371    220.39943 
   92350    128.91409   -106.32004     140635.5   -39536.747    2588.0478   -42124.795     389.4858    218.42425 
   92400    134.03933   -173.61925    140602.27   -39478.927    2690.9409   -42169.868    389.75631    227.10815 
   92450       130.74   -168.59921    140582.17   -39489.544    2624.7043   -42114.248    390.07904    221.51797 
   92500    134.02537    37.991169    140648.42   -39415.382    2690.6606   -42106.043    390.48898     227.0845 
   92550    130.99973    36.861458     140706.5   -39379.224    2629.9185   -42009.142    390.96081    221.95803 
   92600     129.9831   -283.08909    140703.56   -39411.012    2609.5089    -42020.52    392.12872    220.23551 
   92650     128.8588   -291.49566    140721.52   -39452.871    2586.9377   -42039.809    392.06971    218.33057 
   92700    133.45057   -165.48359    140788.75    -39418.59     2679.121   -42097.711    392.22982    226.11059 
   92750      131.912    -175.8255    140865.84   -39391.367    2648.2331     -42039.6     392.2896    223.50373 
   92800    129.40113   -129.85815    140942.87   -39418.558    2597.8255   -42016.384    392.69259    219.24947 
   92850    133.21874   -167.53849    140987.85   -39386.762    2674.4669   -42061.229     392.4424    225.71779 
   92900    131.40171   -425.99351    140958.31   -39426.956    2637.9886   -42064.945     392.5618    222.63913 
   92950    131.26102   -143.14856    140896.02   -39448.495    2635.1641   -42083.659    392.93554    222.40074 
   93000    131.60886   -52.738922    140874.33   -39426.681    2642.1473   -42068.829      392.695    222.99011 
   93050     131.8976   -162.85963    140850.67   -39400.056     2647.944       -42048    393.09821    223.47933 
   93100    133.71773   -481.65359    140837.31     -39385.5    2684.4845   -42069.985    392.97885    226.56325 
   93150    132.14156   -333.65894    140748.45   -39467.731    2652.8416   -42120.572    393.21204    223.89267 
   93200     133.1675   -211.94689    140766.34   -39394.556    2673.4382   -42067.994    393.47072    225.63097 
   93250    131.09992   -231.99916    140739.78   -39371.453      2631.93   -42003.383    393.87334    222.12779 
   93300    133.32121   -218.77993    140658.91   -39424.595    2676.5241   -42101.119    393.99197    225.89141 
   93350    129.86069   -215.85315    140632.76   -39395.852    2607.0514   -42002.903    394.09459    220.02811 
   93400    131.39282   -156.84086    140548.29   -39440.551    2637.8101   -42078.361    394.31785    222.62406 
   93450    132.37208   -124.73591    140551.16    -39399.13    2657.4695   -42056.599    394.61064    224.28326 
   93500    133.06365   -138.96621    140586.33   -39346.278    2671.3532   -42017.632    395.27763    225.45501 
   93550    134.16469   -165.79736    140557.52    -39376.21    2693.4575   -42069.667    395.49673    227.32055 
   93600    132.65883    72.922453    140609.12   -39371.178    2663.2262   -42034.405      395.428     224.7691 
   93650    133.54542   -71.317683    140726.89   -39344.615    2681.0253   -42025.641    395.43322     226.2713 
   93700     131.6316   -387.23609    140724.36   -39359.726    2642.6039    -42002.33     395.3143    223.02864 
   93750    133.22429   -86.766723    140684.28   -39340.284    2674.5782   -42014.862    395.40046    225.72719 
   93800    133.73551   -207.30626    140651.84   -39383.515    2684.8414   -42068.356    395.99623    226.59337 
   93850    133.46301   -247.49252    140573.39   -39385.349    2679.3708    -42064.72    396.34207    226.13167 
   93900    134.36024   -140.07368    140616.15   -39376.396    2697.3834   -42073.779    396.40573    227.65188 
   93950    133.41416   -237.61939    140674.09   -39394.764    2678.3901   -42073.154    396.41376     226.0489 
   94000    130.65787   -104.02917    140708.78   -39457.862    2623.0555   -42080.918    396.10698    221.37881 
   94050    131.07434    -281.9837    140635.78   -39420.346    2631.4163   -42051.762    396.58329    222.08444 
   94100    131.62714   -102.95879    140596.22   -39443.441    2642.5143   -42085.955    396.11243    223.02108 
   94150     131.6111   -23.519501    140678.42   -39428.704    2642.1924   -42070.897     396.1997    222.99391 
   94200    132.01621   -279.36966    140722.44    -39437.29    2650.3252   -42087.615    396.95484     223.6803 
   94250    131.92449   -14.800837    140735.18   -39467.734    2648.4838   -42116.218    397.20588    223.52489 
   94300    131.75936   -10.912871    140763.64   -39460.359    2645.1687   -42105.528    397.43187     223.2451 
   94350     133.6505   -55.487922    140795.75   -39476.922    2683.1348   -42160.056    397.53505    226.44933 
   94400    131.99597   -274.95603    140865.84   -39497.492    2649.9189   -42147.411    397.75258    223.64601 
   94450    133.81091   -113.41381    140885.04   -39504.607    2686.3552   -42190.963    397.74584    226.72113 
   94500    134.65988    -170.5831    140981.49   -39494.696    2703.3989   -42198.095    397.67825    228.15957 
   94550    131.39176   -450.44489     141009.6   -39550.728    2637.7889   -42188.517    397.81722    222.62227 
   94600    132.05244   -95.970308    140980.25   -39542.978    2651.0525    -42194.03    397.61567    223.74168 
   94650    132.30586   -177.77745    140999.34   -39540.101      2656.14   -42196.241    398.18142    224.17105 
   94700     130.5621   -243.45571    140931.73   -39494.884    2621.1329   -42116.017    398.74071    221.21655 
   94750    134.53963   -347.07076    140901.35   -39529.544    2700.9848   -42230.528    398.91726    227.95583 
   94800    130.45089   -159.01435    140847.54   -39507.341    2618.9001   -42126.241    399.05867    221.02811 
   94850    132.68594   -92.011908    140880.79    -39523.66    2663.7705    -42187.43    399.10218    224.81505 
   94900    133.86012   -149.57622    140843.63   -39476.705     2687.343   -42164.048    399.75963     226.8045 
   94950    132.50727   -88.433693    140843.22   -39446.402    2660.1836   -42106.585    399.63867    224.51232 
   95000    132.77787    61.282934    140895.58   -39424.354    2665.6161    -42089.97    399.57559    224.97081 
   95050    133.37579   -383.54931    140923.56   -39425.836    2677.6197   -42103.456    400.23824    225.98388 
   95100    134.80851   -217.07644    140970.47   -39400.617    2706.3827       -42107    400.77946     228.4114 
   95150    136.37213   -80.726219     140935.9   -39318.445    2737.7735   -42056.219    400.90928     231.0607 
   95200    131.71057   -270.37104    140918.58   -39359.876    2644.1892   -42004.065     400.8443    223.16244 
   95250    133.73947   -261.35486    140929.08   -39319.313     2684.921   -42004.234    401.43999    226.60009 
   95300    131.99021   -83.797802    140942.86   -39359.616    2649.8033   -42009.419    402.11691    223.63625 
   95350    132.98049   -248.92219    140953.04   -39353.257    2669.6837   -42022.941    402.32329    225.31411 
   95400    132.74834   -233.14332    140968.44   -39440.353    2665.0233   -42105.376    402.33339    224.92078 
   95450    131.95012   -166.61159    140991.37   -39411.873    2648.9984   -42060.871    402.50653    223.56832 
   95500     132.2041   -354.55848    140886.22   -39408.986    2654.0973   -42063.083    402.98026    223.99865 
   95550    130.45336   -179.36839    140863.86   -39410.825    2618.9499   -42029.775    402.78489     221.0323 
   95600    133.30794    -139.0972    140840.72    -39373.75    2676.2577   -42050.007    402.81749    225.86893 
   95650    132.94507   -237.56774    140797.81   -39391.044    2668.9728   -42060.017    402.53204    225.25411 
   95700    130.53927   -170.44783    140793.19   -39408.718    2620.6745   -42029.392    402.66112    221.17786 
   95750    132.87809   -24.676782    140787.94   -39385.866     2667.628   -42053.494    402.65743    225.14061 
   95800     131.7589   -236.47593    140809.77   -39395.368    2645.1596   -42040.528    402.94809    223.24433 
   95850    134.34603   -132.53714     140865.7   -39411.503     2697.098   -42108.601    403.11697    227.62779 
   95900    133.36276   -378.71454    140876.02   -39443.053    2677.3582   -42120.411    403.86458    225.96181 
   95950    132.97715    -377.6279    140887.79   -39442.487    2669.6167   -42112.104    404.00019    225.30845 
   96000    132.17022   -299.38418    140898.15   -39400.108     2653.417   -42053.525    403.66483    223.94123 
   96050    132.19965   -273.03686    140848.99   -39415.102    2654.0079    -42069.11    403.88616    223.99111 
   96100    133.58493   -174.38148    140854.84   -39418.909    2681.8184   -42100.727    404.12291    226.33824 
   96150    131.01099   -152.59404    140942.68   -39414.531    2630.1446   -42044.675    404.04635    221.97711 
   96200    132.23978   -184.28399    141005.18   -39434.944    2654.8135   -42089.757    403.91569     224.0591 
   96250    132.90802   -296.62589    140967.09   -39416.436     2668.229   -42084.665    404.05302    225.19133 
   96300    133.06383    -438.4035    140826.95   -39443.905     2671.357   -42115.262     404.1945    225.45532 
   96350    131.63705   -105.15559    140779.63   -39433.747    2642.7133    -42076.46    404.15538    223.03787 
   96400    132.24541   -210.46672    140684.46   -39434.604    2654.9265    -42089.53    404.42258    224.06863 
   96450    132.11338   -25.965662    140689.87   -39471.504    2652.2759    -42123.78    404.74062    223.84493 
   96500    131.13959   -91.185835    140728.02   -39462.037    2632.7263   -42094.764     404.8476      222.195 
   96550    129.75385   -221.94984    140753.38   -39493.744    2604.9067   -42098.651    404.98952     219.8471 
   96600    130.00583   -101.42086    140730.29    -39503.79    2609.9654   -42113.756    405.47038    220.27404 
   96650    131.67161   -225.86365    140751.19   -39469.185    2643.4071   -42112.592    405.60069    223.09643 
   96700    133.10883   -144.79294    140734.67   -39452.535    2672.2604   -42124.796    405.68137    225.53157 
   96750    134.27927   -172.58633    140810.08   -39415.553    2695.7579   -42111.311    405.83628    227.51469 
   96800    133.60055   -176.66482    140835.64    -39405.07    2682.1321   -42087.202    405.79395    226.36471 
   96850    132.30908   -164.20062    140743.26   -39405.992    2656.2048   -42062.197    405.46921    224.17652 
   96900      133.065   -81.656585    140908.53   -39382.999    2671.3804    -42054.38    405.77919     225.4573 
   96950    133.01526   -281.08813    140875.96   -39407.437    2670.3819   -42077.819    405.81073    225.37303 
   97000    133.10018   -171.87044    140788.37   -39414.313    2672.0867     -42086.4    406.07484    225.51691 
   97050    133.01273   -177.42584    140868.07   -39416.948     2670.331   -42087.279     406.1294    225.36873 
   97100    134.10984   -405.82279     140833.5   -39427.674    2692.3563    -42120.03    406.39704    227.22761 
   97150    133.44101   -461.45394    140796.05   -39383.004    2678.9291   -42061.933     406.5378    226.09439 
   97200    131.56381   -141.19226    140785.44    -39399.77     2641.243   -42041.013     406.7417    222.91378 
   97250    134.53562   -447.34151    140854.89   -39419.847    2700.9042   -42120.752    407.21456    227.94903 
   97300    133.83372   -201.77999    140780.18   -39384.645     2686.813   -42071.458    407.79758    226.75977 
   97350    133.64578   -225.00184    140812.26    -39369.34      2683.04    -42052.38    408.21489    226.44134 
   97400    132.95523   -198.55991    140783.32   -39374.312    2669.1767   -42043.489    408.18619    225.27131 
   97450    132.35486   -267.58965    140743.16   -39396.155    2657.1239   -42053.279    408.28585    224.25409 
   97500    134.27527   -389.49412    140772.01   -39406.987    2695.6776   -42102.665    408.51072    227.50792 
   97550    130.64868   -321.92068     140790.2   -39408.492     2622.871   -42031.363    408.60398    221.36324 
   97600    133.19239   -279.65332    140794.14   -39422.889    2673.9379   -42096.827    408.83003    225.67315 
   97650    132.53897   -384.43586    140804.05    -39477.86      2660.82    -42138.68    409.03598    224.56603 
   97700    130.29266   -349.47302    140722.82   -39460.344    2615.7237   -42076.068    409.23844    220.76002 
   97750    130.98151   -197.48514    140721.44   -39391.745    2629.5528   -42021.297    409.72129    221.92716 
   97800    135.28057   -284.57777    140738.42   -39317.409    2715.8596   -42033.269    410.03898    229.21123 
   97850    135.74548   -464.82212    140705.53   -39289.746     2725.193    -42014.94    410.08151    229.99894 
   97900    134.45458   -182.31201    140694.04   -39269.081    2699.2772   -41968.358    409.95244    227.81171 
   97950    136.44431    27.415101    140769.77   -39310.552    2739.2225   -42049.774    409.99243    231.18299 
   98000    133.15035   -230.14517    140844.81   -39363.874    2673.0939   -42036.968    410.38003    225.60191 
   98050    134.44635   -219.57888    140831.68   -39384.357     2699.112   -42083.469    410.81662    227.79778 
   98100    133.77128   -229.25042    140876.05   -39356.666    2685.5596   -42042.226    410.70418    226.65399 
   98150    134.95284   -246.84545    140878.96   -39311.229    2709.2803    -42020.51    410.74672    228.65595 
   98200     134.6852   -111.34793    140914.67   -39370.519    2703.9073   -42074.426    411.15994    228.20248 
   98250    134.08815   -204.51797    140914.32   -39312.457     2691.921   -42004.378    411.38749    227.19087 
   98300    135.45949   -219.31207    140821.47   -39339.939    2719.4517   -42059.391    411.73424    229.51439 
   98350    135.37502   -296.98988    140771.87   -39311.113    2717.7558   -42028.869    411.86299    229.37126 
   98400    135.56334   -308.75661    140752.42   -39375.085    2721.5365   -42096.622    412.09421    229.69034 
   98450     135.9312   -142.66629    140702.04   -39393.236    2728.9215   -42122.158    411.51431    230.31361 
   98500     134.8782   -185.88088    140715.67    -39404.31    2707.7817   -42112.092    411.56394    228.52947 
   98550     134.0851   -167.06033    140659.27   -39373.956    2691.8596   -42065.815    411.67826    227.18569 
   98600    135.02646   -380.37546    140625.58   -39416.021    2710.7581   -42126.779    411.41488    228.78067 
   98650    134.10385   -59.016706    140645.39   -39408.096    2692.2361   -42100.332    411.30885    227.21746 
   98700    132.23071   -207.66245    140708.19   -39472.848    2654.6315   -42127.479    411.74338    224.04374 
   98750    133.12164   -227.52833    140789.14   -39482.262    2672.5175   -42154.779    412.16274    225.55327 
   98800    135.32673    -168.9976    140814.26   -39471.224    2716.7864    -42188.01    412.62685    229.28944 
   98850    132.07009   -419.13207    140798.49   -39503.966    2651.4068   -42155.372    413.08323    223.77158 
   98900    130.73535   -134.69419    140852.97   -39520.725     2624.611   -42145.336    412.79455    221.51009 
   98950    133.02465    -276.9804    140886.41   -39530.317    2670.5704   -42200.887    413.05266    225.38893 
   99000    131.57694   -349.52145    140821.11   -39527.666    2641.5066   -42169.173    413.24233    222.93603 
   99050    132.12062   -239.49373    140872.18   -39530.593    2652.4213   -42183.014    413.31957     223.8572 
   99100    132.24192   -265.03482    140791.37   -39516.727    2654.8565   -42171.583    413.56752    224.06273 
   99150    133.02863   -106.02397    140726.28    -39505.04    2670.6503   -42175.691    413.60825    225.39568 
   99200    135.57009   -275.01415    140808.08   -39475.131     2721.672   -42196.803    413.82917    229.70178 
   99250    133.68384   -114.74436    140946.36   -39480.299     2683.804   -42164.103    414.18095    226.50582 
   99300    133.31179   -196.37176    140977.07   -39508.735    2676.3349    -42185.07    414.48158    225.87545 
   99350    133.45146   -351.50212    140949.73   -39491.782     2679.139   -42170.921    414.27455     226.1121 
   99400    133.04051   -159.21011    140953.57   -39478.068    2670.8888   -42148.957     414.7038    225.41581 
   99450    131.93048   -199.78887     140935.6   -39480.217    2648.6041   -42128.821    414.74938    223.53504 
   99500    131.91963   -164.29424    140900.16   -39492.354    2648.3862    -42140.74    414.91825    223.51665 
   99550    129.96139   -237.05578    140861.26   -39573.902    2609.0731   -42182.975    415.68041    220.19873 
   99600    131.93962   -137.24469    140898.56   -39575.507    2648.7876   -42224.294    415.79626    223.55053 
   99650    129.88744   -286.39589    140901.87   -39569.367    2607.5885   -42176.955    415.49139    220.07343 
   99700    131.81766   -62.491255    140854.19   -39519.485    2646.3392   -42165.825    415.43121    223.34389 
   99750    131.69017   -203.95528    140824.62   -39523.859    2643.7797   -42167.639    415.23719    223.12787 
   99800    129.48564   -232.03113    140809.31   -39556.533    2599.5221   -42156.055    415.30164    219.39265 
   99850    130.92086   -216.38458    140796.06   -39510.169    2628.3353   -42138.504    415.81289    221.82441 
   99900    132.16859     -365.812    140750.77   -39525.453    2653.3843   -42178.837    416.19831    223.93848 
   99950    133.95209   -266.32773    140697.16    -39524.07    2689.1895   -42213.259    416.13804    226.96034 
  100000    131.07704   -99.847967    140695.36   -39495.995    2631.4706   -42127.465    416.73074    222.08902 
Loop time of 196.044 on 64 procs for 100000 steps with 6736 atoms

Performance: 220.358 ns/day, 0.109 hours/ns, 510.089 timesteps/s
99.9% CPU use with 64 MPI tasks x no OpenMP threads

MPI task timing breakdown:
Section |  min time  |  avg time  |  max time  |%varavg| %total
---------------------------------------------------------------
Pair    | 36.646     | 92.676     | 155.37     | 573.3 | 47.27
Neigh   | 1.2953     | 2.6287     | 4.908      |  87.6 |  1.34
Comm    | 26.094     | 87.432     | 146.21     | 570.6 | 44.60
Output  | 0.12522    | 0.12938    | 0.23037    |   3.5 |  0.07
Modify  | 7.7819     | 12.333     | 20.873     | 129.5 |  6.29
Other   |            | 0.8441     |            |       |  0.43

Nlocal:    105.25 ave 175 max 65 min
Histogram: 22 10 0 10 6 0 0 0 6 10
Nghost:    998.062 ave 1346 max 675 min
Histogram: 32 0 0 0 0 0 0 0 8 24
Neighs:    0 ave 0 max 0 min
Histogram: 64 0 0 0 0 0 0 0 0 0
FullNghs:  12662 ave 27933 max 4141 min
Histogram: 32 0 0 0 16 0 0 0 5 11

Total # of neighbors = 810366
Ave neighs/atom = 120.304
Neighbor list builds = 6140
Dangerous builds = 0

write_data		${DIR}/data.eq-${NAME}-${TEMP}
write_data		run_13/data.eq-${NAME}-${TEMP}
write_data		run_13/data.eq-het_freeze_13-${TEMP}
write_data		run_13/data.eq-het_freeze_13-225
undump          1

reset_timestep  0

unfix           2
unfix           3
unfix           4


################################################
#######         Run Simulation         #########
################################################

log				${DIR}/log.run_${NAME}
log				run_13/log.run_${NAME}
log				run_13/log.run_het_freeze_13
