LAMMPS data file via write_data, version 16 Mar 2018, timestep = 100000

4545 atoms
2 atom types

0.0000000000000000e+00 4.9219999999999999e+01 xlo xhi
0.0000000000000000e+00 4.9019635930410494e+01 ylo yhi
1.6979728921683623e+00 3.1937366894353186e+01 zlo zhi

Masses

1 18.015
2 12.01

Atoms # atomic

91 2 0.0000000000000000e+00 2.8417180249513345e+00 3.2056568954674503e+00 0 0 0
93 2 0.0000000000000000e+00 0.0000000000000000e+00 3.2056568954674503e+00 0 0 0
95 2 1.2305000000000001e+00 7.1042950623783474e-01 3.2056568954674503e+00 0 0 0
102 2 1.2305000000000001e+00 2.1312885187134998e+00 3.2056568954674503e+00 0 0 0
104 2 2.4610000000000003e+00 2.8417180249513345e+00 3.2056568954674503e+00 0 0 0
106 2 2.4610000000000003e+00 0.0000000000000000e+00 3.2056568954674503e+00 0 0 0
108 2 3.6915000000000004e+00 7.1042950623783474e-01 3.2056568954674503e+00 0 0 0
123 2 3.6914999999999996e+00 2.1312885187134998e+00 3.2056568954674503e+00 0 0 0
125 2 4.9220000000000006e+00 2.8417180249513332e+00 3.2056568954674503e+00 0 0 0
127 2 4.9220000000000006e+00 0.0000000000000000e+00 3.2056568954674503e+00 0 0 0
98 2 0.0000000000000000e+00 4.2625770374269996e+00 3.2056568954674503e+00 0 0 0
100 2 1.2305000000000001e+00 4.9730065436648339e+00 3.2056568954674503e+00 0 0 0
115 2 1.2305000000000001e+00 6.3938655561404980e+00 3.2056568954674503e+00 0 0 0
119 2 2.4610000000000003e+00 4.2625770374269996e+00 3.2056568954674503e+00 0 0 0
121 2 3.6914999999999996e+00 4.9730065436648339e+00 3.2056568954674503e+00 0 0 0
144 2 3.6914999999999996e+00 6.3938655561404980e+00 3.2056568954674503e+00 0 0 0
148 2 4.9220000000000006e+00 4.2625770374269978e+00 3.2056568954674503e+00 0 0 0
96 2 0.0000000000000000e+00 7.1042950623783341e+00 3.2056568954674503e+00 0 0 0
117 2 2.4610000000000003e+00 7.1042950623783341e+00 3.2056568954674503e+00 0 0 0
146 2 4.9220000000000006e+00 7.1042950623783341e+00 3.2056568954674503e+00 0 0 0
111 2 0.0000000000000000e+00 8.5251540748539991e+00 3.2056568954674503e+00 0 0 0
113 2 1.2305000000000001e+00 9.2355835810918343e+00 3.2056568954674503e+00 0 0 0
140 2 2.4610000000000003e+00 8.5251540748539991e+00 3.2056568954674503e+00 0 0 0
142 2 3.6915000000000004e+00 9.2355835810918343e+00 3.2056568954674503e+00 0 0 0
177 2 4.9220000000000006e+00 8.5251540748539991e+00 3.2056568954674503e+00 0 0 0
109 2 0.0000000000000000e+00 1.1366872099805333e+01 3.2056568954674503e+00 0 0 0
136 2 1.2305000000000001e+00 1.0656442593567498e+01 3.2056568954674503e+00 0 0 0
138 2 2.4610000000000003e+00 1.1366872099805333e+01 3.2056568954674503e+00 0 0 0
173 2 3.6914999999999996e+00 1.0656442593567499e+01 3.2056568954674503e+00 0 0 0
175 2 4.9220000000000006e+00 1.1366872099805333e+01 3.2056568954674503e+00 0 0 0
92 2 0.0000000000000000e+00 1.4208590124756650e+00 6.2210249020652819e+00 0 0 0
94 2 0.0000000000000000e+00 0.0000000000000000e+00 6.2210249020652819e+00 0 0 0
103 2 1.2305000000000001e+00 2.1312885187134998e+00 6.2210249020652819e+00 0 0 0
105 2 2.4610000000000003e+00 1.4208590124756650e+00 6.2210249020652819e+00 0 0 0
107 2 2.4610000000000003e+00 0.0000000000000000e+00 6.2210249020652819e+00 0 0 0
124 2 3.6914999999999996e+00 2.1312885187134998e+00 6.2210249020652819e+00 0 0 0
420 2 0.0000000000000000e+00 2.8417180249513345e+00 9.2363929086640724e+00 0 0 0
421 2 0.0000000000000000e+00 0.0000000000000000e+00 9.2363929086640724e+00 0 0 0
422 2 1.2305000000000001e+00 7.1042950623783474e-01 9.2363929086640724e+00 0 0 0
426 2 1.2305000000000001e+00 2.1312885187134998e+00 9.2363929086640724e+00 0 0 0
427 2 2.4610000000000003e+00 2.8417180249513345e+00 9.2363929086640724e+00 0 0 0
428 2 2.4610000000000003e+00 0.0000000000000000e+00 9.2363929086640724e+00 0 0 0
429 2 3.6915000000000004e+00 7.1042950623783474e-01 9.2363929086640724e+00 0 0 0
437 2 3.6914999999999996e+00 2.1312885187134998e+00 9.2363929086640724e+00 0 0 0
126 2 4.9220000000000006e+00 1.4208590124756650e+00 6.2210249020652819e+00 0 0 0
128 2 4.9220000000000006e+00 0.0000000000000000e+00 6.2210249020652819e+00 0 0 0
438 2 4.9220000000000006e+00 2.8417180249513332e+00 9.2363929086640724e+00 0 0 0
439 2 4.9220000000000006e+00 0.0000000000000000e+00 9.2363929086640724e+00 0 0 0
101 2 1.2305000000000001e+00 3.5521475311891644e+00 6.2210249020652819e+00 0 0 0
122 2 3.6914999999999996e+00 3.5521475311891644e+00 6.2210249020652819e+00 0 0 0
97 2 0.0000000000000000e+00 5.6834360499026637e+00 6.2210249020652819e+00 0 0 0
99 2 0.0000000000000000e+00 4.2625770374269996e+00 6.2210249020652819e+00 0 0 0
116 2 1.2305000000000001e+00 6.3938655561404980e+00 6.2210249020652819e+00 0 0 0
118 2 2.4610000000000003e+00 5.6834360499026637e+00 6.2210249020652819e+00 0 0 0
120 2 2.4610000000000003e+00 4.2625770374269996e+00 6.2210249020652819e+00 0 0 0
145 2 3.6914999999999996e+00 6.3938655561404980e+00 6.2210249020652819e+00 0 0 0
424 2 0.0000000000000000e+00 4.2625770374269996e+00 9.2363929086640724e+00 0 0 0
425 2 1.2305000000000001e+00 4.9730065436648339e+00 9.2363929086640724e+00 0 0 0
433 2 1.2305000000000001e+00 6.3938655561404980e+00 9.2363929086640724e+00 0 0 0
435 2 2.4610000000000003e+00 4.2625770374269996e+00 9.2363929086640724e+00 0 0 0
436 2 3.6914999999999996e+00 4.9730065436648339e+00 9.2363929086640724e+00 0 0 0
448 2 3.6914999999999996e+00 6.3938655561404980e+00 9.2363929086640724e+00 0 0 0
147 2 4.9220000000000006e+00 5.6834360499026637e+00 6.2210249020652819e+00 0 0 0
149 2 4.9220000000000006e+00 4.2625770374269978e+00 6.2210249020652819e+00 0 0 0
450 2 4.9220000000000006e+00 4.2625770374269978e+00 9.2363929086640724e+00 0 0 0
114 2 1.2305000000000001e+00 7.8147245686161639e+00 6.2210249020652819e+00 0 0 0
143 2 3.6914999999999996e+00 7.8147245686161639e+00 6.2210249020652819e+00 0 0 0
423 2 0.0000000000000000e+00 7.1042950623783341e+00 9.2363929086640724e+00 0 0 0
434 2 2.4610000000000003e+00 7.1042950623783341e+00 9.2363929086640724e+00 0 0 0
449 2 4.9220000000000006e+00 7.1042950623783341e+00 9.2363929086640724e+00 0 0 0
110 2 0.0000000000000000e+00 9.9460130873296642e+00 6.2210249020652819e+00 0 0 0
112 2 0.0000000000000000e+00 8.5251540748539991e+00 6.2210249020652819e+00 0 0 0
139 2 2.4610000000000003e+00 9.9460130873296642e+00 6.2210249020652819e+00 0 0 0
141 2 2.4610000000000003e+00 8.5251540748539991e+00 6.2210249020652819e+00 0 0 0
431 2 0.0000000000000000e+00 8.5251540748539991e+00 9.2363929086640724e+00 0 0 0
432 2 1.2305000000000001e+00 9.2355835810918343e+00 9.2363929086640724e+00 0 0 0
446 2 2.4610000000000003e+00 8.5251540748539991e+00 9.2363929086640724e+00 0 0 0
447 2 3.6915000000000004e+00 9.2355835810918343e+00 9.2363929086640724e+00 0 0 0
176 2 4.9220000000000006e+00 9.9460130873296642e+00 6.2210249020652819e+00 0 0 0
178 2 4.9220000000000006e+00 8.5251540748539991e+00 6.2210249020652819e+00 0 0 0
465 2 4.9220000000000006e+00 8.5251540748539991e+00 9.2363929086640724e+00 0 0 0
135 2 1.2305000000000001e+00 1.2077301606043163e+01 6.2210249020652819e+00 0 0 0
137 2 1.2305000000000001e+00 1.0656442593567498e+01 6.2210249020652819e+00 0 0 0
172 2 3.6914999999999996e+00 1.2077301606043163e+01 6.2210249020652819e+00 0 0 0
174 2 3.6914999999999996e+00 1.0656442593567499e+01 6.2210249020652819e+00 0 0 0
430 2 0.0000000000000000e+00 1.1366872099805333e+01 9.2363929086640724e+00 0 0 0
444 2 1.2305000000000001e+00 1.0656442593567498e+01 9.2363929086640724e+00 0 0 0
445 2 2.4610000000000003e+00 1.1366872099805333e+01 9.2363929086640724e+00 0 0 0
463 2 3.6914999999999996e+00 1.0656442593567499e+01 9.2363929086640724e+00 0 0 0
464 2 4.9220000000000006e+00 1.1366872099805333e+01 9.2363929086640724e+00 0 0 0
1617 1 7.3410510274800167e-01 3.1612177941073032e+00 1.1794680285694906e+01 1 1 1
4526 1 3.5810773147027519e+00 3.4153494642500348e+00 1.1963256011355886e+01 1 1 0
1445 1 4.4982605079890172e+00 6.2089476081154675e+00 1.1686706925853763e+01 1 0 0
3837 1 1.9630717343692252e+00 7.6933315126940185e+00 1.1841213907548610e+01 0 1 -1
1475 1 4.3188912239861352e+00 1.1903923248289793e+01 1.1648944695491906e+01 0 0 0
4403 1 2.0714951823221672e+00 1.0622642687668362e+01 1.2319146759615382e+01 0 -1 -1
2974 1 2.6410930867605740e+00 2.4068762269973465e-01 1.6732251745027423e+01 0 1 -1
3090 1 3.1961339923580838e+00 4.8648452208392268e+00 1.5791380990899659e+01 0 1 0
813 1 4.1729300063811650e+00 6.8890919075415189e+00 1.4395614840959846e+01 1 0 0
623 1 4.7792693163941307e+00 2.9817132640951742e+00 1.4592956665110705e+01 1 1 0
4498 1 1.9255896552088627e+00 1.1120981357907059e+01 1.5082355420720779e+01 1 0 -1
4424 1 2.6511047400071566e+00 8.7368861969629190e+00 1.5889571843493126e+01 0 1 1
2994 1 5.6213171308468890e-01 5.1636523728040613e+00 1.4969087210713399e+01 0 0 0
602 1 5.1207441303970356e+00 1.1353307799276355e+00 1.1824025241842911e+01 0 0 -1
2943 1 3.2516398698123911e-01 7.3890455442010490e+00 1.6703195652373445e+01 1 -1 -1
2318 1 5.6886146579374923e+00 1.1947637075550967e+01 1.4589215482713509e+01 0 -1 0
871 1 4.3239270762188049e+00 1.1678515965731644e+00 1.8801636876064858e+01 1 0 1
2865 1 4.7187218717293673e+00 1.6577669399674941e+00 2.4359969963863829e+01 0 1 -1
3668 1 5.9930046637346068e+00 1.0263761599232627e+01 2.3971267484887939e+01 1 1 -1
4382 1 3.2750311473536917e+00 3.6836930467821576e+00 1.9918664385043055e+01 1 1 0
1370 1 3.9272734768623012e+00 6.0361078309345428e+00 1.8664347081639644e+01 0 -1 -1
2167 1 5.0234305039449394e+00 6.5800887345359031e+00 2.1595404002727459e+01 1 1 -1
2842 1 2.3070886842074572e+00 1.0189461210096976e+01 1.9457943165107221e+01 0 0 -1
2928 1 7.6062854175576555e-01 1.0311909976672331e+01 2.2931362687839851e+01 0 0 0
2985 1 4.3639218519792591e+00 8.8748997770631011e+00 1.8000736182809231e+01 0 0 0
1624 1 2.8217510571134716e+00 8.4927049613804773e+00 2.1590749926727653e+01 0 0 1
2365 1 8.8810822695781200e-01 3.8952462567390920e+00 2.1586580306580998e+01 0 0 0
4351 1 1.5633251548441993e+00 2.9787310934447535e+00 1.7482599654779428e+01 0 1 0
4396 1 4.8785651882851155e+00 3.9407647503820500e+00 2.2257519831199232e+01 0 0 -1
2336 1 5.6367849501577725e+00 1.0035154034669144e+01 2.1405482290570266e+01 2 1 0
3143 1 1.1732746556055673e-01 1.2564877108452359e+00 2.2024923630691905e+01 1 0 0
1453 1 2.3438666027826742e+00 6.8350984646365021e-02 2.1024814040015222e+01 0 1 -1
4527 1 1.3297974471826657e+00 7.6203147731261103e+00 2.4331932643750783e+01 1 1 1
1627 1 5.1884516349810594e-01 4.9051643447428672e+00 2.4177264538867952e+01 1 1 0
2163 1 5.3742204396211637e+00 1.2025693475827522e+01 2.7893734294852809e+01 -2 0 0
2254 1 5.6187123705224948e+00 5.9066200978741890e+00 2.5608745227432312e+01 0 0 0
4503 1 9.5718718062718522e-01 2.4799069785586241e+00 2.9656508096090793e+01 1 0 -1
2386 1 3.4039599163170853e+00 2.4482203023248723e+00 2.6822874865666495e+01 1 0 0
3840 1 5.3319426360560991e+00 3.7432167379315264e+00 2.7967892844261673e+01 1 -1 1
2888 1 6.2669773026488740e-01 3.6393461253877848e+00 2.6781434168070177e+01 1 1 0
4472 1 3.9926350042693670e+00 6.6108949997373028e+00 3.0817689399358663e+01 1 -1 0
2146 1 4.0219278676919545e+00 6.6323336154399168e+00 2.8098688313488832e+01 1 1 0
626 1 8.5123839878169003e-02 9.9053650001499971e+00 3.0506041469697255e+01 0 1 0
2296 1 1.0697431133834521e+00 6.0501494787475520e+00 2.8145484875700873e+01 0 1 -1
1550 1 3.9706511698000431e+00 9.5850672321700117e+00 2.7079973575225665e+01 0 0 0
704 1 1.1126347209777214e+00 1.0386660121118750e+01 2.7991474530753724e+01 1 1 -1
4428 1 2.9162983159937670e+00 1.1576452741522074e+00 3.1004466850273936e+01 1 0 -1
2963 1 4.2859143354061340e+00 8.2086990389335632e+00 2.4610597502356317e+01 1 0 -1
4487 1 9.3328256115706754e-01 7.2597307420212092e+00 3.1003076359691491e+01 1 0 0
2229 1 4.2115674863371844e+00 3.4294715480059335e+00 3.0503018357608841e+01 1 1 -1
15 1 4.1379759788209909e-02 7.9326237218138438e+00 2.6749853923597176e+01 1 1 -1
1534 1 2.2807219770309606e-01 1.2149617378814691e+01 2.5574941017194377e+01 0 1 1
3759 1 1.7638244499230227e+00 2.0755002556746674e-01 2.7890608928241832e+01 1 0 0
132 2 0.0000000000000000e+00 1.2787731112280996e+01 3.2056568954674503e+00 0 0 0
134 2 1.2305000000000001e+00 1.3498160618518829e+01 3.2056568954674503e+00 0 0 0
169 2 2.4610000000000003e+00 1.2787731112280996e+01 3.2056568954674503e+00 0 0 0
171 2 3.6915000000000004e+00 1.3498160618518829e+01 3.2056568954674503e+00 0 0 0
214 2 4.9220000000000006e+00 1.2787731112280996e+01 3.2056568954674503e+00 0 0 0
216 2 6.1524999999999990e+00 1.3498160618518829e+01 3.2056568954674503e+00 0 0 0
130 2 0.0000000000000000e+00 1.5629449137232333e+01 3.2056568954674503e+00 0 0 0
165 2 1.2305000000000001e+00 1.4919019630994494e+01 3.2056568954674503e+00 0 0 0
167 2 2.4610000000000003e+00 1.5629449137232328e+01 3.2056568954674503e+00 0 0 0
210 2 3.6915000000000004e+00 1.4919019630994494e+01 3.2056568954674503e+00 0 0 0
212 2 4.9220000000000006e+00 1.5629449137232333e+01 3.2056568954674503e+00 0 0 0
257 2 6.1524999999999990e+00 1.4919019630994494e+01 3.2056568954674503e+00 0 0 0
161 2 0.0000000000000000e+00 1.7050308149707998e+01 3.2056568954674503e+00 0 0 0
206 2 2.4610000000000003e+00 1.7050308149707998e+01 3.2056568954674503e+00 0 0 0
253 2 4.9220000000000006e+00 1.7050308149707998e+01 3.2056568954674503e+00 0 0 0
159 2 0.0000000000000000e+00 1.9892026174659328e+01 3.2056568954674503e+00 0 0 0
163 2 1.2305000000000001e+00 1.7760737655945832e+01 3.2056568954674503e+00 0 0 0
202 2 1.2305000000000001e+00 1.9181596668421495e+01 3.2056568954674503e+00 0 0 0
204 2 2.4610000000000003e+00 1.9892026174659328e+01 3.2056568954674503e+00 0 0 0
208 2 3.6914999999999996e+00 1.7760737655945832e+01 3.2056568954674503e+00 0 0 0
249 2 3.6914999999999996e+00 1.9181596668421495e+01 3.2056568954674503e+00 0 0 0
251 2 4.9220000000000006e+00 1.9892026174659328e+01 3.2056568954674503e+00 0 0 0
196 2 0.0000000000000000e+00 2.4154603212086325e+01 3.2056568954674503e+00 0 0 0
198 2 0.0000000000000000e+00 2.1312885187134999e+01 3.2056568954674503e+00 0 0 0
200 2 1.2304999999999993e+00 2.2023314693372832e+01 3.2056568954674503e+00 0 0 0
241 2 1.2304999999999993e+00 2.3444173705848499e+01 3.2056568954674503e+00 0 0 0
243 2 2.4610000000000003e+00 2.4154603212086325e+01 3.2056568954674503e+00 0 0 0
245 2 2.4610000000000003e+00 2.1312885187134995e+01 3.2056568954674503e+00 0 0 0
247 2 3.6914999999999996e+00 2.2023314693372832e+01 3.2056568954674503e+00 0 0 0
288 2 3.6915000000000004e+00 2.3444173705848499e+01 3.2056568954674503e+00 0 0 0
290 2 4.9220000000000006e+00 2.4154603212086325e+01 3.2056568954674503e+00 0 0 0
292 2 4.9220000000000006e+00 2.1312885187134995e+01 3.2056568954674503e+00 0 0 0
294 2 6.1524999999999990e+00 2.2023314693372832e+01 3.2056568954674503e+00 0 0 0
133 2 0.0000000000000000e+00 1.2787731112280996e+01 6.2210249020652819e+00 0 0 0
170 2 2.4610000000000003e+00 1.2787731112280996e+01 6.2210249020652819e+00 0 0 0
442 2 0.0000000000000000e+00 1.2787731112280996e+01 9.2363929086640724e+00 0 0 0
443 2 1.2305000000000001e+00 1.3498160618518829e+01 9.2363929086640724e+00 0 0 0
461 2 2.4610000000000003e+00 1.2787731112280996e+01 9.2363929086640724e+00 0 0 0
462 2 3.6915000000000004e+00 1.3498160618518829e+01 9.2363929086640724e+00 0 0 0
215 2 4.9220000000000006e+00 1.2787731112280996e+01 6.2210249020652819e+00 0 0 0
484 2 4.9220000000000006e+00 1.2787731112280996e+01 9.2363929086640724e+00 0 0 0
485 2 6.1524999999999990e+00 1.3498160618518829e+01 9.2363929086640724e+00 0 0 0
131 2 0.0000000000000000e+00 1.4208590124756663e+01 6.2210249020652819e+00 0 0 0
166 2 1.2305000000000001e+00 1.4919019630994494e+01 6.2210249020652819e+00 0 0 0
168 2 2.4610000000000003e+00 1.4208590124756663e+01 6.2210249020652819e+00 0 0 0
211 2 3.6915000000000004e+00 1.4919019630994494e+01 6.2210249020652819e+00 0 0 0
441 2 0.0000000000000000e+00 1.5629449137232333e+01 9.2363929086640724e+00 0 0 0
459 2 1.2305000000000001e+00 1.4919019630994494e+01 9.2363929086640724e+00 0 0 0
460 2 2.4610000000000003e+00 1.5629449137232328e+01 9.2363929086640724e+00 0 0 0
482 2 3.6915000000000004e+00 1.4919019630994494e+01 9.2363929086640724e+00 0 0 0
213 2 4.9220000000000006e+00 1.4208590124756663e+01 6.2210249020652819e+00 0 0 0
258 2 6.1524999999999990e+00 1.4919019630994494e+01 6.2210249020652819e+00 0 0 0
483 2 4.9220000000000006e+00 1.5629449137232333e+01 9.2363929086640724e+00 0 0 0
506 2 6.1524999999999990e+00 1.4919019630994494e+01 9.2363929086640724e+00 0 0 0
162 2 0.0000000000000000e+00 1.7050308149707998e+01 6.2210249020652819e+00 0 0 0
164 2 1.2305000000000001e+00 1.6339878643470165e+01 6.2210249020652819e+00 0 0 0
207 2 2.4610000000000003e+00 1.7050308149707998e+01 6.2210249020652819e+00 0 0 0
209 2 3.6915000000000004e+00 1.6339878643470165e+01 6.2210249020652819e+00 0 0 0
457 2 0.0000000000000000e+00 1.7050308149707998e+01 9.2363929086640724e+00 0 0 0
480 2 2.4610000000000003e+00 1.7050308149707998e+01 9.2363929086640724e+00 0 0 0
254 2 4.9220000000000006e+00 1.7050308149707998e+01 6.2210249020652819e+00 0 0 0
504 2 4.9220000000000006e+00 1.7050308149707998e+01 9.2363929086640724e+00 0 0 0
160 2 0.0000000000000000e+00 1.8471167162183658e+01 6.2210249020652819e+00 0 0 0
203 2 1.2305000000000001e+00 1.9181596668421495e+01 6.2210249020652819e+00 0 0 0
205 2 2.4610000000000003e+00 1.8471167162183658e+01 6.2210249020652819e+00 0 0 0
250 2 3.6914999999999996e+00 1.9181596668421495e+01 6.2210249020652819e+00 0 0 0
456 2 0.0000000000000000e+00 1.9892026174659328e+01 9.2363929086640724e+00 0 0 0
458 2 1.2305000000000001e+00 1.7760737655945832e+01 9.2363929086640724e+00 0 0 0
478 2 1.2305000000000001e+00 1.9181596668421495e+01 9.2363929086640724e+00 0 0 0
479 2 2.4610000000000003e+00 1.9892026174659328e+01 9.2363929086640724e+00 0 0 0
481 2 3.6914999999999996e+00 1.7760737655945832e+01 9.2363929086640724e+00 0 0 0
502 2 3.6914999999999996e+00 1.9181596668421495e+01 9.2363929086640724e+00 0 0 0
252 2 4.9220000000000006e+00 1.8471167162183658e+01 6.2210249020652819e+00 0 0 0
503 2 4.9220000000000006e+00 1.9892026174659328e+01 9.2363929086640724e+00 0 0 0
201 2 1.2305000000000001e+00 2.0602455680897162e+01 6.2210249020652819e+00 0 0 0
248 2 3.6915000000000004e+00 2.0602455680897162e+01 6.2210249020652819e+00 0 0 0
197 2 0.0000000000000000e+00 2.2733744199610655e+01 6.2210249020652819e+00 0 0 0
199 2 0.0000000000000000e+00 2.1312885187134999e+01 6.2210249020652819e+00 0 0 0
242 2 1.2304999999999993e+00 2.3444173705848499e+01 6.2210249020652819e+00 0 0 0
244 2 2.4610000000000003e+00 2.2733744199610655e+01 6.2210249020652819e+00 0 0 0
246 2 2.4610000000000003e+00 2.1312885187134995e+01 6.2210249020652819e+00 0 0 0
289 2 3.6915000000000004e+00 2.3444173705848499e+01 6.2210249020652819e+00 0 0 0
475 2 0.0000000000000000e+00 2.4154603212086325e+01 9.2363929086640724e+00 0 0 0
476 2 0.0000000000000000e+00 2.1312885187134999e+01 9.2363929086640724e+00 0 0 0
477 2 1.2304999999999993e+00 2.2023314693372832e+01 9.2363929086640724e+00 0 0 0
498 2 1.2304999999999993e+00 2.3444173705848499e+01 9.2363929086640724e+00 0 0 0
499 2 2.4610000000000003e+00 2.4154603212086325e+01 9.2363929086640724e+00 0 0 0
500 2 2.4610000000000003e+00 2.1312885187134995e+01 9.2363929086640724e+00 0 0 0
501 2 3.6914999999999996e+00 2.2023314693372832e+01 9.2363929086640724e+00 0 0 0
522 2 3.6915000000000004e+00 2.3444173705848499e+01 9.2363929086640724e+00 0 0 0
291 2 4.9220000000000006e+00 2.2733744199610655e+01 6.2210249020652819e+00 0 0 0
293 2 4.9220000000000006e+00 2.1312885187134995e+01 6.2210249020652819e+00 0 0 0
523 2 4.9220000000000006e+00 2.4154603212086325e+01 9.2363929086640724e+00 0 0 0
524 2 4.9220000000000006e+00 2.1312885187134995e+01 9.2363929086640724e+00 0 0 0
525 2 6.1524999999999990e+00 2.2023314693372832e+01 9.2363929086640724e+00 0 0 0
3799 1 3.7195637022600705e+00 1.4687984572664805e+01 1.1854195991475558e+01 1 0 0
3647 1 4.4411105763073158e+00 1.7847370091965249e+01 1.4680765286058827e+01 1 0 1
3791 1 2.8254247935002030e-01 1.8618173998945412e+01 1.1969213486957852e+01 -1 0 -1
2352 1 3.3849982477498370e+00 1.8178503600141362e+01 1.2080826700234150e+01 0 0 0
1540 1 3.9528976923713994e+00 2.1041219933914480e+01 1.5076563758881917e+01 0 0 -1
607 1 3.8701137058938055e+00 2.1335128947781250e+01 1.2106416317581017e+01 0 -1 -1
718 1 6.6311978863209819e-01 2.1598069739152759e+01 1.2313344568821504e+01 0 0 -1
4356 1 5.9213781432537704e+00 1.6645538932674082e+01 1.1663862442283904e+01 1 0 -1
3046 1 3.0638253769162532e-01 1.9730499324440977e+01 1.4716170167413621e+01 1 -1 0
3112 1 1.4342404969200486e+00 1.5948732150632672e+01 1.5137188657436310e+01 -1 0 0
2954 1 4.7849228208255816e+00 1.5159946942469718e+01 1.4462749369489529e+01 0 1 0
3663 1 1.0412458459881628e+00 1.5876591824451456e+01 1.2505468507590502e+01 -1 0 0
3881 1 2.3989199998386188e+00 1.8543521717329792e+01 1.6272825555890492e+01 2 0 1
1416 1 3.0008400689754784e+00 1.3631619791086361e+01 1.6077425962217774e+01 1 0 -1
1635 1 2.8159286366754519e+00 2.4214833366478342e+01 1.1706256011820686e+01 0 0 0
1410 1 2.9689879861809438e+00 2.3226089378384152e+01 1.6637041475827694e+01 1 1 0
3792 1 3.0021104840427566e+00 1.5850372851834109e+01 1.9770976729051771e+01 0 1 0
3075 1 4.6717099491067993e+00 1.4075193653662106e+01 1.8385444353372836e+01 1 0 1
2133 1 5.6588321853310610e+00 1.7917184880596945e+01 2.2648139029029370e+01 0 -1 0
2288 1 5.1360745222096815e+00 2.1648576138938243e+01 2.2080715696059613e+01 1 1 0
3611 1 5.7414998680648823e+00 1.3575284067024974e+01 2.2295414824384512e+01 1 -1 0
1555 1 3.5880624668752499e+00 1.2406840187221015e+01 2.0813808858024395e+01 0 1 0
3746 1 2.3964045887855850e-01 1.5673237325444227e+01 1.9175215529762081e+01 1 1 0
604 1 3.5977670380415701e+00 1.8166025582640362e+01 1.8618761663859406e+01 2 0 0
2883 1 2.2695709889765472e+00 2.3751270917196052e+01 1.9943176408151160e+01 1 0 -1
3015 1 2.8970288296198214e+00 1.9872546973415304e+01 2.3153769689151737e+01 1 1 0
2211 1 3.5142792514530821e+00 2.1149122962901657e+01 1.8848046523343530e+01 0 0 0
3740 1 3.8370849015234434e+00 1.5617199528157766e+01 2.2256964173383668e+01 0 0 1
3864 1 5.0325616352720202e+00 2.3619152007612875e+01 2.0326815123855035e+01 -1 0 1
2118 1 1.2747205592242676e+00 1.3150159594941551e+01 2.2551704913976913e+01 0 0 0
4481 1 1.5645466366905141e+00 1.9973647566687060e+01 2.0623776621248140e+01 0 0 0
3778 1 6.1287329666473243e+00 2.0299075481402038e+01 1.9747703561827464e+01 1 0 -1
879 1 5.4762024763379165e+00 2.0096386185913701e+01 2.8066114881749780e+01 0 2 0
2240 1 5.6781168344873256e+00 1.7035898624618969e+01 2.8261526437131224e+01 0 0 0
2869 1 2.3761728674231350e+00 1.7477038761297916e+01 2.7778723730472763e+01 -1 1 0
2143 1 1.3419594090905536e+00 2.0777511110221447e+01 3.0388687608055349e+01 0 -1 -1
2173 1 4.2840025100756524e-01 1.7706406056396190e+01 3.0428237110485806e+01 0 1 0
3683 1 2.6042073075569729e+00 2.1324011451319951e+01 2.5198581169274238e+01 1 -1 1
1495 1 2.3415281645181234e+00 2.0271710674489690e+01 2.7790902177938474e+01 0 0 0
3815 1 3.3744290183159831e-02 1.3425971281382296e+01 2.8287591606201225e+01 1 0 0
4540 1 2.9871806755664307e+00 2.3119822460150736e+01 3.0899037213634902e+01 1 0 0
701 1 3.9198820708158642e+00 1.4678920744043047e+01 2.7927850693097319e+01 0 1 0
3649 1 4.5961382449636536e+00 1.9912611705347949e+01 3.0880635099995825e+01 0 0 0
1518 1 3.1224341733002632e+00 1.7518408969928160e+01 3.0786953405575222e+01 0 1 0
3703 1 3.7648209200616338e+00 1.4659529048084137e+01 3.0715660817405826e+01 0 -1 0
1351 1 5.8573766448695661e+00 2.2957804070400023e+01 3.0884784134137561e+01 1 -1 0
3097 1 5.8574929279095560e+00 1.2311929645732802e+01 3.0832173018642596e+01 1 1 0
2874 1 4.8844151798086681e+00 2.3037800580162834e+01 2.5273804213265564e+01 0 0 -1
4362 1 2.8635100591419351e+00 2.3770137956441939e+01 2.8116550884049701e+01 1 0 0
669 1 5.0767376740090073e+00 1.2471495472105639e+01 2.4974990893029936e+01 0 1 1
4350 1 2.5788735955524347e+00 1.4054148731349404e+01 2.4850996236810996e+01 1 -2 0
3118 1 2.8168398470436357e-01 2.3092013315652430e+01 2.5123771480069710e+01 1 -1 1
2198 1 1.4706172483671305e+00 1.2572268051717845e+01 3.0928512424947808e+01 1 0 0
3699 1 2.6381307283071367e+00 1.7334593308020072e+01 2.4514390697436731e+01 0 0 0
841 1 5.6418558057551911e+00 2.2892987364777543e+01 2.8036207896978471e+01 -1 -1 0
757 1 5.8337863938886212e+00 1.8337739173957726e+01 2.5478452178246261e+01 0 0 -1
891 2 0.0000000000000000e+00 2.5575462224561992e+01 3.2056568954674503e+00 0 0 0
893 2 1.2305000000000001e+00 2.6285891730799833e+01 3.2056568954674503e+00 0 0 0
901 2 1.2305000000000010e+00 2.7706750743275496e+01 3.2056568954674503e+00 0 0 0
905 2 2.4610000000000003e+00 2.5575462224561992e+01 3.2056568954674503e+00 0 0 0
907 2 3.6914999999999991e+00 2.6285891730799833e+01 3.2056568954674503e+00 0 0 0
923 2 3.6914999999999996e+00 2.7706750743275496e+01 3.2056568954674503e+00 0 0 0
927 2 4.9220000000000006e+00 2.5575462224561992e+01 3.2056568954674503e+00 0 0 0
953 2 6.1524999999999990e+00 2.7706750743275496e+01 3.2056568954674503e+00 0 0 0
889 2 0.0000000000000000e+00 2.8417180249513333e+01 3.2056568954674503e+00 0 0 0
903 2 2.4610000000000003e+00 2.8417180249513326e+01 3.2056568954674503e+00 0 0 0
925 2 4.9220000000000006e+00 2.8417180249513336e+01 3.2056568954674503e+00 0 0 0
897 2 0.0000000000000000e+00 2.9838039261988989e+01 3.2056568954674503e+00 0 0 0
899 2 1.2304999999999993e+00 3.0548468768226829e+01 3.2056568954674503e+00 0 0 0
919 2 2.4610000000000003e+00 2.9838039261988989e+01 3.2056568954674503e+00 0 0 0
921 2 3.6915000000000004e+00 3.0548468768226829e+01 3.2056568954674503e+00 0 0 0
949 2 4.9220000000000006e+00 2.9838039261988989e+01 3.2056568954674503e+00 0 0 0
895 2 0.0000000000000000e+00 3.2679757286940330e+01 3.2056568954674503e+00 0 0 0
915 2 1.2304999999999993e+00 3.1969327780702493e+01 3.2056568954674503e+00 0 0 0
945 2 3.6914999999999996e+00 3.1969327780702493e+01 3.2056568954674503e+00 0 0 0
911 2 0.0000000000000000e+00 3.4100616299415996e+01 3.2056568954674503e+00 0 0 0
913 2 1.2305000000000010e+00 3.4811045805653833e+01 3.2056568954674503e+00 0 0 0
917 2 2.4610000000000003e+00 3.2679757286940337e+01 3.2056568954674503e+00 0 0 0
941 2 2.4609999999999985e+00 3.4100616299415996e+01 3.2056568954674503e+00 0 0 0
943 2 3.6915000000000018e+00 3.4811045805653833e+01 3.2056568954674503e+00 0 0 0
947 2 4.9220000000000015e+00 3.2679757286940337e+01 3.2056568954674503e+00 0 0 0
979 2 4.9220000000000006e+00 3.4100616299415996e+01 3.2056568954674503e+00 0 0 0
937 2 1.2304999999999993e+00 3.6231904818129486e+01 3.2056568954674503e+00 0 0 0
975 2 3.6914999999999996e+00 3.6231904818129486e+01 3.2056568954674503e+00 0 0 0
890 2 0.0000000000000000e+00 2.6996321237037659e+01 6.2210249020652819e+00 0 0 0
892 2 0.0000000000000000e+00 2.5575462224561992e+01 6.2210249020652819e+00 0 0 0
894 2 1.2305000000000001e+00 2.4865032718324155e+01 6.2210249020652819e+00 0 0 0
902 2 1.2305000000000010e+00 2.7706750743275496e+01 6.2210249020652819e+00 0 0 0
904 2 2.4610000000000003e+00 2.6996321237037659e+01 6.2210249020652819e+00 0 0 0
906 2 2.4610000000000003e+00 2.5575462224561992e+01 6.2210249020652819e+00 0 0 0
908 2 3.6914999999999996e+00 2.4865032718324166e+01 6.2210249020652819e+00 0 0 0
924 2 3.6914999999999996e+00 2.7706750743275496e+01 6.2210249020652819e+00 0 0 0
1205 2 0.0000000000000000e+00 2.5575462224561992e+01 9.2363929086640724e+00 0 0 0
1206 2 1.2305000000000001e+00 2.6285891730799833e+01 9.2363929086640724e+00 0 0 0
1210 2 1.2305000000000010e+00 2.7706750743275496e+01 9.2363929086640724e+00 0 0 0
1212 2 2.4610000000000003e+00 2.5575462224561992e+01 9.2363929086640724e+00 0 0 0
1213 2 3.6914999999999991e+00 2.6285891730799833e+01 9.2363929086640724e+00 0 0 0
1221 2 3.6914999999999996e+00 2.7706750743275496e+01 9.2363929086640724e+00 0 0 0
926 2 4.9220000000000006e+00 2.6996321237037659e+01 6.2210249020652819e+00 0 0 0
928 2 4.9220000000000006e+00 2.5575462224561992e+01 6.2210249020652819e+00 0 0 0
930 2 6.1524999999999990e+00 2.4865032718324155e+01 6.2210249020652819e+00 0 0 0
954 2 6.1524999999999990e+00 2.7706750743275496e+01 6.2210249020652819e+00 0 0 0
1223 2 4.9220000000000006e+00 2.5575462224561992e+01 9.2363929086640724e+00 0 0 0
1236 2 6.1524999999999990e+00 2.7706750743275496e+01 9.2363929086640724e+00 0 0 0
1204 2 0.0000000000000000e+00 2.8417180249513333e+01 9.2363929086640724e+00 0 0 0
1211 2 2.4610000000000003e+00 2.8417180249513326e+01 9.2363929086640724e+00 0 0 0
1222 2 4.9220000000000006e+00 2.8417180249513336e+01 9.2363929086640724e+00 0 0 0
896 2 0.0000000000000000e+00 3.1258898274464656e+01 6.2210249020652819e+00 0 0 0
898 2 0.0000000000000000e+00 2.9838039261988989e+01 6.2210249020652819e+00 0 0 0
900 2 1.2304999999999993e+00 2.9127609755751163e+01 6.2210249020652819e+00 0 0 0
918 2 2.4609999999999985e+00 3.1258898274464656e+01 6.2210249020652819e+00 0 0 0
920 2 2.4610000000000003e+00 2.9838039261988989e+01 6.2210249020652819e+00 0 0 0
922 2 3.6914999999999991e+00 2.9127609755751152e+01 6.2210249020652819e+00 0 0 0
1208 2 0.0000000000000000e+00 2.9838039261988989e+01 9.2363929086640724e+00 0 0 0
1209 2 1.2304999999999993e+00 3.0548468768226829e+01 9.2363929086640724e+00 0 0 0
1219 2 2.4610000000000003e+00 2.9838039261988989e+01 9.2363929086640724e+00 0 0 0
1220 2 3.6915000000000004e+00 3.0548468768226829e+01 9.2363929086640724e+00 0 0 0
948 2 4.9219999999999979e+00 3.1258898274464656e+01 6.2210249020652819e+00 0 0 0
950 2 4.9220000000000006e+00 2.9838039261988989e+01 6.2210249020652819e+00 0 0 0
952 2 6.1524999999999981e+00 2.9127609755751152e+01 6.2210249020652819e+00 0 0 0
1234 2 4.9220000000000006e+00 2.9838039261988989e+01 9.2363929086640724e+00 0 0 0
916 2 1.2304999999999993e+00 3.1969327780702493e+01 6.2210249020652819e+00 0 0 0
946 2 3.6914999999999996e+00 3.1969327780702493e+01 6.2210249020652819e+00 0 0 0
1207 2 0.0000000000000000e+00 3.2679757286940330e+01 9.2363929086640724e+00 0 0 0
1217 2 1.2304999999999993e+00 3.1969327780702493e+01 9.2363929086640724e+00 0 0 0
1232 2 3.6914999999999996e+00 3.1969327780702493e+01 9.2363929086640724e+00 0 0 0