LAMMPS data file via write_data, version 16 Mar 2018, timestep = 8000000

4545 atoms
2 atom types

0.0000000000000000e+00 4.9219999999999999e+01 xlo xhi
0.0000000000000000e+00 4.9019635930410494e+01 ylo yhi
5.8430298038903317e-01 3.3051036806136985e+01 zlo zhi

Masses

1 18.015
2 12.01

Atoms # atomic

91 2 0.0000000000000000e+00 2.8417180249513345e+00 2.2030383037534156e+00 0 0 0
93 2 0.0000000000000000e+00 0.0000000000000000e+00 2.2030383037534156e+00 0 0 0
95 2 1.2305000000000001e+00 7.1042950623783474e-01 2.2030383037534156e+00 0 0 0
102 2 1.2305000000000001e+00 2.1312885187134998e+00 2.2030383037534156e+00 0 0 0
104 2 2.4610000000000003e+00 2.8417180249513345e+00 2.2030383037534156e+00 0 0 0
106 2 2.4610000000000003e+00 0.0000000000000000e+00 2.2030383037534156e+00 0 0 0
108 2 3.6915000000000004e+00 7.1042950623783474e-01 2.2030383037534156e+00 0 0 0
123 2 3.6914999999999996e+00 2.1312885187134998e+00 2.2030383037534156e+00 0 0 0
125 2 4.9220000000000006e+00 2.8417180249513332e+00 2.2030383037534156e+00 0 0 0
127 2 4.9220000000000006e+00 0.0000000000000000e+00 2.2030383037534156e+00 0 0 0
98 2 0.0000000000000000e+00 4.2625770374269996e+00 2.2030383037534156e+00 0 0 0
100 2 1.2305000000000001e+00 4.9730065436648339e+00 2.2030383037534156e+00 0 0 0
115 2 1.2305000000000001e+00 6.3938655561404980e+00 2.2030383037534156e+00 0 0 0
119 2 2.4610000000000003e+00 4.2625770374269996e+00 2.2030383037534156e+00 0 0 0
121 2 3.6914999999999996e+00 4.9730065436648339e+00 2.2030383037534156e+00 0 0 0
144 2 3.6914999999999996e+00 6.3938655561404980e+00 2.2030383037534156e+00 0 0 0
148 2 4.9220000000000006e+00 4.2625770374269978e+00 2.2030383037534156e+00 0 0 0
96 2 0.0000000000000000e+00 7.1042950623783341e+00 2.2030383037534156e+00 0 0 0
117 2 2.4610000000000003e+00 7.1042950623783341e+00 2.2030383037534156e+00 0 0 0
146 2 4.9220000000000006e+00 7.1042950623783341e+00 2.2030383037534156e+00 0 0 0
111 2 0.0000000000000000e+00 8.5251540748539991e+00 2.2030383037534156e+00 0 0 0
113 2 1.2305000000000001e+00 9.2355835810918343e+00 2.2030383037534156e+00 0 0 0
140 2 2.4610000000000003e+00 8.5251540748539991e+00 2.2030383037534156e+00 0 0 0
142 2 3.6915000000000004e+00 9.2355835810918343e+00 2.2030383037534156e+00 0 0 0
177 2 4.9220000000000006e+00 8.5251540748539991e+00 2.2030383037534156e+00 0 0 0
109 2 0.0000000000000000e+00 1.1366872099805333e+01 2.2030383037534156e+00 0 0 0
136 2 1.2305000000000001e+00 1.0656442593567498e+01 2.2030383037534156e+00 0 0 0
138 2 2.4610000000000003e+00 1.1366872099805333e+01 2.2030383037534156e+00 0 0 0
173 2 3.6914999999999996e+00 1.0656442593567499e+01 2.2030383037534156e+00 0 0 0
175 2 4.9220000000000006e+00 1.1366872099805333e+01 2.2030383037534156e+00 0 0 0
92 2 0.0000000000000000e+00 1.4208590124756650e+00 5.4405089504797477e+00 0 0 0
94 2 0.0000000000000000e+00 0.0000000000000000e+00 5.4405089504797477e+00 0 0 0
103 2 1.2305000000000001e+00 2.1312885187134998e+00 5.4405089504797477e+00 0 0 0
105 2 2.4610000000000003e+00 1.4208590124756650e+00 5.4405089504797477e+00 0 0 0
107 2 2.4610000000000003e+00 0.0000000000000000e+00 5.4405089504797477e+00 0 0 0
124 2 3.6914999999999996e+00 2.1312885187134998e+00 5.4405089504797477e+00 0 0 0
420 2 0.0000000000000000e+00 2.8417180249513345e+00 8.6779795972055158e+00 0 0 0
421 2 0.0000000000000000e+00 0.0000000000000000e+00 8.6779795972055158e+00 0 0 0
422 2 1.2305000000000001e+00 7.1042950623783474e-01 8.6779795972055158e+00 0 0 0
426 2 1.2305000000000001e+00 2.1312885187134998e+00 8.6779795972055158e+00 0 0 0
427 2 2.4610000000000003e+00 2.8417180249513345e+00 8.6779795972055158e+00 0 0 0
428 2 2.4610000000000003e+00 0.0000000000000000e+00 8.6779795972055158e+00 0 0 0
429 2 3.6915000000000004e+00 7.1042950623783474e-01 8.6779795972055158e+00 0 0 0
437 2 3.6914999999999996e+00 2.1312885187134998e+00 8.6779795972055158e+00 0 0 0
126 2 4.9220000000000006e+00 1.4208590124756650e+00 5.4405089504797477e+00 0 0 0
128 2 4.9220000000000006e+00 0.0000000000000000e+00 5.4405089504797477e+00 0 0 0
438 2 4.9220000000000006e+00 2.8417180249513332e+00 8.6779795972055158e+00 0 0 0
439 2 4.9220000000000006e+00 0.0000000000000000e+00 8.6779795972055158e+00 0 0 0
101 2 1.2305000000000001e+00 3.5521475311891644e+00 5.4405089504797477e+00 0 0 0
122 2 3.6914999999999996e+00 3.5521475311891644e+00 5.4405089504797477e+00 0 0 0
97 2 0.0000000000000000e+00 5.6834360499026637e+00 5.4405089504797477e+00 0 0 0
99 2 0.0000000000000000e+00 4.2625770374269996e+00 5.4405089504797477e+00 0 0 0
116 2 1.2305000000000001e+00 6.3938655561404980e+00 5.4405089504797477e+00 0 0 0
118 2 2.4610000000000003e+00 5.6834360499026637e+00 5.4405089504797477e+00 0 0 0
120 2 2.4610000000000003e+00 4.2625770374269996e+00 5.4405089504797477e+00 0 0 0
145 2 3.6914999999999996e+00 6.3938655561404980e+00 5.4405089504797477e+00 0 0 0
424 2 0.0000000000000000e+00 4.2625770374269996e+00 8.6779795972055158e+00 0 0 0
425 2 1.2305000000000001e+00 4.9730065436648339e+00 8.6779795972055158e+00 0 0 0
433 2 1.2305000000000001e+00 6.3938655561404980e+00 8.6779795972055158e+00 0 0 0
435 2 2.4610000000000003e+00 4.2625770374269996e+00 8.6779795972055158e+00 0 0 0
436 2 3.6914999999999996e+00 4.9730065436648339e+00 8.6779795972055158e+00 0 0 0
448 2 3.6914999999999996e+00 6.3938655561404980e+00 8.6779795972055158e+00 0 0 0
147 2 4.9220000000000006e+00 5.6834360499026637e+00 5.4405089504797477e+00 0 0 0
149 2 4.9220000000000006e+00 4.2625770374269978e+00 5.4405089504797477e+00 0 0 0
450 2 4.9220000000000006e+00 4.2625770374269978e+00 8.6779795972055158e+00 0 0 0
114 2 1.2305000000000001e+00 7.8147245686161639e+00 5.4405089504797477e+00 0 0 0
143 2 3.6914999999999996e+00 7.8147245686161639e+00 5.4405089504797477e+00 0 0 0
423 2 0.0000000000000000e+00 7.1042950623783341e+00 8.6779795972055158e+00 0 0 0
434 2 2.4610000000000003e+00 7.1042950623783341e+00 8.6779795972055158e+00 0 0 0
449 2 4.9220000000000006e+00 7.1042950623783341e+00 8.6779795972055158e+00 0 0 0
110 2 0.0000000000000000e+00 9.9460130873296642e+00 5.4405089504797477e+00 0 0 0
112 2 0.0000000000000000e+00 8.5251540748539991e+00 5.4405089504797477e+00 0 0 0
139 2 2.4610000000000003e+00 9.9460130873296642e+00 5.4405089504797477e+00 0 0 0
141 2 2.4610000000000003e+00 8.5251540748539991e+00 5.4405089504797477e+00 0 0 0
431 2 0.0000000000000000e+00 8.5251540748539991e+00 8.6779795972055158e+00 0 0 0
432 2 1.2305000000000001e+00 9.2355835810918343e+00 8.6779795972055158e+00 0 0 0
446 2 2.4610000000000003e+00 8.5251540748539991e+00 8.6779795972055158e+00 0 0 0
447 2 3.6915000000000004e+00 9.2355835810918343e+00 8.6779795972055158e+00 0 0 0
176 2 4.9220000000000006e+00 9.9460130873296642e+00 5.4405089504797477e+00 0 0 0
178 2 4.9220000000000006e+00 8.5251540748539991e+00 5.4405089504797477e+00 0 0 0
465 2 4.9220000000000006e+00 8.5251540748539991e+00 8.6779795972055158e+00 0 0 0
135 2 1.2305000000000001e+00 1.2077301606043163e+01 5.4405089504797477e+00 0 0 0
137 2 1.2305000000000001e+00 1.0656442593567498e+01 5.4405089504797477e+00 0 0 0
172 2 3.6914999999999996e+00 1.2077301606043163e+01 5.4405089504797477e+00 0 0 0
174 2 3.6914999999999996e+00 1.0656442593567499e+01 5.4405089504797477e+00 0 0 0
430 2 0.0000000000000000e+00 1.1366872099805333e+01 8.6779795972055158e+00 0 0 0
444 2 1.2305000000000001e+00 1.0656442593567498e+01 8.6779795972055158e+00 0 0 0
445 2 2.4610000000000003e+00 1.1366872099805333e+01 8.6779795972055158e+00 0 0 0
463 2 3.6914999999999996e+00 1.0656442593567499e+01 8.6779795972055158e+00 0 0 0
464 2 4.9220000000000006e+00 1.1366872099805333e+01 8.6779795972055158e+00 0 0 0
3085 1 4.8717760480131265e+00 2.5110393010656189e+00 1.1380740557221813e+01 0 1 0
2167 1 2.5717550267911338e+00 4.0207630080497196e+00 1.1261472931199014e+01 2 -1 -1
2871 1 1.1660881762663290e-01 2.3975393856597957e+00 1.1501146309088387e+01 3 -3 0
2233 1 3.1256484296777227e+00 6.5916973407241359e+00 1.1182824144682680e+01 1 -1 0
610 1 5.8162958138044027e+00 7.6775533402178544e+00 1.1740947616988221e+01 -3 -2 0
2221 1 7.6596365875276795e-01 8.0255137978386379e+00 1.1830399868287126e+01 -1 0 0
815 1 6.0113274115447339e+00 1.0405390427303901e+01 1.0967244873655043e+01 1 -2 0
3676 1 1.3234985932502823e+00 1.0545036254030641e+01 1.1518984285542393e+01 5 -1 0
1451 1 3.5793699091393467e+00 1.1665839630975777e+01 1.2032888269117270e+01 -1 -1 0
3017 1 5.0054229765561260e+00 2.4707611275214001e+00 1.4896408850777236e+01 1 -1 -1
4458 1 2.6003764342631253e+00 3.7866789146430611e+00 1.3948959220330247e+01 0 -2 0
3038 1 4.3459689141803765e-01 2.6578809226578155e+00 1.5451266277425498e+01 2 3 0
3126 1 5.5816740853742273e+00 7.7060146210811098e+00 1.4606002074076239e+01 -1 5 -1
2168 1 2.9799015566156486e+00 6.4491829436494710e+00 1.4918889538449484e+01 0 3 -1
2145 1 5.9987798439934119e+00 1.0292976217782408e+01 1.5556337780703089e+01 6 4 -1
2211 1 3.7987947786528178e+00 1.1704509778927390e+01 1.4786178080074295e+01 -3 1 0
1413 1 1.1485179195896995e+00 8.2284127887908962e+00 1.4502447357204694e+01 6 5 1
691 1 1.1144962953067983e+00 1.1034244411740580e+01 1.5439972428702740e+01 -1 4 0
3781 1 2.3801137650521160e+00 9.6227436243766806e-01 1.8658269079389282e+01 0 1 0
3855 1 4.6470085665674832e+00 2.4029505384602579e+00 1.7773229340613007e+01 0 3 0
1605 1 3.5418008433146175e-01 2.7906863312408787e+00 1.8190863170116248e+01 2 0 0
713 1 5.2266048607965159e+00 5.1477278524770416e+00 1.8648050394372778e+01 4 -1 -1
3001 1 3.0676950266408354e+00 6.5002540797866022e+00 1.8010973316165998e+01 3 2 0
749 1 6.6413996853580159e-01 5.3421658405641406e+00 1.9019631281138111e+01 0 1 0
2982 1 5.6076424195820733e+00 1.0545056778376653e+01 1.8296482686749943e+01 1 2 0
718 1 8.9023082754818361e-01 1.0721433592219508e+01 1.8075906988088807e+01 3 -3 -1
4363 1 3.1301558227229758e+00 9.2919958025503888e+00 1.8842246345137649e+01 -2 -2 0
3614 1 2.5739721568807803e+00 7.6400177618841814e-01 2.1428172858545320e+01 -1 -2 -1
4509 1 2.6421855631023075e+00 3.4777201583382626e+00 2.2344044010844545e+01 -1 5 -1
3090 1 7.3743052419355126e-01 5.3608061979654282e+00 2.1837488768965819e+01 -4 2 0
1548 1 5.1714944083620376e+00 7.7734824941234679e+00 2.2126472336564387e+01 -2 6 0
1549 1 5.0540773686336209e+00 4.8286572612018954e+00 2.1607147275849520e+01 1 0 -1
1519 1 3.1842862969389425e+00 1.2072560815440934e+01 2.2106764498778695e+01 5 1 0
3887 1 7.6770239501886628e-01 8.2234719560961924e+00 2.2023214751546902e+01 -1 -4 0
1512 1 3.1098359708729935e+00 9.4556050705552845e+00 2.1307421087854578e+01 3 4 -2
3864 1 3.2462848285459982e+00 1.1738274312327851e+01 2.4836829225396862e+01 -1 2 1
3877 1 3.6939683649748467e-01 8.2082360887473858e+00 2.4677211113857322e+01 -1 -1 0
3101 1 2.3246533343585138e+00 9.1678410955694833e-01 2.8556973854499137e+01 0 5 0
2197 1 1.9036614795559363e+00 9.6760612956431102e-01 2.5962060351418714e+01 -2 -1 -1
693 1 2.7638144379926626e+00 3.5502383680039800e+00 2.5079368416259669e+01 -1 4 0
3063 1 4.9201368057784984e+00 4.8847701756496171e+00 2.8251586244800933e+01 -6 -2 0
1534 1 5.0343989828053868e+00 4.8581660944455702e+00 2.5679476213900198e+01 3 -2 1
3845 1 6.2695563549994027e-01 5.3688905072997395e+00 2.5353359860252095e+01 0 3 0
3685 1 5.1202470887807268e+00 7.7833736637547206e+00 2.4999393743176871e+01 0 -1 -1
2280 1 6.6889776048029681e-01 5.2596189338803621e+00 2.8099005802126229e+01 -2 0 0
2984 1 3.2599257611409973e+00 1.1820639001266791e+01 2.8752883923104601e+01 0 3 0
1511 1 2.9507241373836868e+00 9.2426322160334937e+00 2.8057492714427241e+01 1 2 -1
2962 1 2.8085288786868294e+00 9.1979963135239959e+00 2.5495731260798227e+01 0 -3 0
1348 1 2.2895446245354445e+00 7.7915152845896851e-01 3.2478023817747065e+01 -1 -2 0
3810 1 2.6623585366294318e+00 3.7693037168442460e+00 2.9109066679615331e+01 -1 1 0
3653 1 2.7324901882433235e+00 3.5194290218794473e+00 3.2154323080153802e+01 0 -1 -1
1465 1 4.7857615742462896e+00 4.9806799308097185e+00 3.2339328749559485e+01 -3 0 0
1580 1 1.5258522765581000e+00 7.9155426117296086e+00 3.2071820450828241e+01 2 -1 0
4443 1 4.4551182934393836e+00 7.7375632985774718e+00 3.1939705970454799e+01 2 -4 0
3044 1 4.8917898679637783e+00 7.5510182767362632e+00 2.9148235370522485e+01 2 -1 0
3677 1 7.5188426837512490e-01 7.9717644182946925e+00 2.9203088498874536e+01 3 -3 0
3791 1 7.3489040776009984e-01 5.2910478885375580e+00 3.2321056197221878e+01 -5 1 -1
19 1 3.0836424696580904e+00 1.1871711892719267e+01 3.1683655483109646e+01 1 -2 0
132 2 0.0000000000000000e+00 1.2787731112280996e+01 2.2030383037534156e+00 0 0 0
134 2 1.2305000000000001e+00 1.3498160618518829e+01 2.2030383037534156e+00 0 0 0
169 2 2.4610000000000003e+00 1.2787731112280996e+01 2.2030383037534156e+00 0 0 0
171 2 3.6915000000000004e+00 1.3498160618518829e+01 2.2030383037534156e+00 0 0 0
214 2 4.9220000000000006e+00 1.2787731112280996e+01 2.2030383037534156e+00 0 0 0
216 2 6.1524999999999990e+00 1.3498160618518829e+01 2.2030383037534156e+00 0 0 0
130 2 0.0000000000000000e+00 1.5629449137232333e+01 2.2030383037534156e+00 0 0 0
165 2 1.2305000000000001e+00 1.4919019630994494e+01 2.2030383037534156e+00 0 0 0
167 2 2.4610000000000003e+00 1.5629449137232328e+01 2.2030383037534156e+00 0 0 0
210 2 3.6915000000000004e+00 1.4919019630994494e+01 2.2030383037534156e+00 0 0 0
212 2 4.9220000000000006e+00 1.5629449137232333e+01 2.2030383037534156e+00 0 0 0
257 2 6.1524999999999990e+00 1.4919019630994494e+01 2.2030383037534156e+00 0 0 0
161 2 0.0000000000000000e+00 1.7050308149707998e+01 2.2030383037534156e+00 0 0 0
206 2 2.4610000000000003e+00 1.7050308149707998e+01 2.2030383037534156e+00 0 0 0
253 2 4.9220000000000006e+00 1.7050308149707998e+01 2.2030383037534156e+00 0 0 0
159 2 0.0000000000000000e+00 1.9892026174659328e+01 2.2030383037534156e+00 0 0 0
163 2 1.2305000000000001e+00 1.7760737655945832e+01 2.2030383037534156e+00 0 0 0
202 2 1.2305000000000001e+00 1.9181596668421495e+01 2.2030383037534156e+00 0 0 0
204 2 2.4610000000000003e+00 1.9892026174659328e+01 2.2030383037534156e+00 0 0 0
208 2 3.6914999999999996e+00 1.7760737655945832e+01 2.2030383037534156e+00 0 0 0
249 2 3.6914999999999996e+00 1.9181596668421495e+01 2.2030383037534156e+00 0 0 0
251 2 4.9220000000000006e+00 1.9892026174659328e+01 2.2030383037534156e+00 0 0 0
196 2 0.0000000000000000e+00 2.4154603212086325e+01 2.2030383037534156e+00 0 0 0
198 2 0.0000000000000000e+00 2.1312885187134999e+01 2.2030383037534156e+00 0 0 0
200 2 1.2304999999999993e+00 2.2023314693372832e+01 2.2030383037534156e+00 0 0 0
241 2 1.2304999999999993e+00 2.3444173705848499e+01 2.2030383037534156e+00 0 0 0
243 2 2.4610000000000003e+00 2.4154603212086325e+01 2.2030383037534156e+00 0 0 0
245 2 2.4610000000000003e+00 2.1312885187134995e+01 2.2030383037534156e+00 0 0 0
247 2 3.6914999999999996e+00 2.2023314693372832e+01 2.2030383037534156e+00 0 0 0
288 2 3.6915000000000004e+00 2.3444173705848499e+01 2.2030383037534156e+00 0 0 0
290 2 4.9220000000000006e+00 2.4154603212086325e+01 2.2030383037534156e+00 0 0 0
292 2 4.9220000000000006e+00 2.1312885187134995e+01 2.2030383037534156e+00 0 0 0
294 2 6.1524999999999990e+00 2.2023314693372832e+01 2.2030383037534156e+00 0 0 0
133 2 0.0000000000000000e+00 1.2787731112280996e+01 5.4405089504797477e+00 0 0 0
170 2 2.4610000000000003e+00 1.2787731112280996e+01 5.4405089504797477e+00 0 0 0
442 2 0.0000000000000000e+00 1.2787731112280996e+01 8.6779795972055158e+00 0 0 0
443 2 1.2305000000000001e+00 1.3498160618518829e+01 8.6779795972055158e+00 0 0 0
461 2 2.4610000000000003e+00 1.2787731112280996e+01 8.6779795972055158e+00 0 0 0
462 2 3.6915000000000004e+00 1.3498160618518829e+01 8.6779795972055158e+00 0 0 0
215 2 4.9220000000000006e+00 1.2787731112280996e+01 5.4405089504797477e+00 0 0 0
484 2 4.9220000000000006e+00 1.2787731112280996e+01 8.6779795972055158e+00 0 0 0
485 2 6.1524999999999990e+00 1.3498160618518829e+01 8.6779795972055158e+00 0 0 0
131 2 0.0000000000000000e+00 1.4208590124756663e+01 5.4405089504797477e+00 0 0 0
166 2 1.2305000000000001e+00 1.4919019630994494e+01 5.4405089504797477e+00 0 0 0
168 2 2.4610000000000003e+00 1.4208590124756663e+01 5.4405089504797477e+00 0 0 0
211 2 3.6915000000000004e+00 1.4919019630994494e+01 5.4405089504797477e+00 0 0 0
441 2 0.0000000000000000e+00 1.5629449137232333e+01 8.6779795972055158e+00 0 0 0
459 2 1.2305000000000001e+00 1.4919019630994494e+01 8.6779795972055158e+00 0 0 0
460 2 2.4610000000000003e+00 1.5629449137232328e+01 8.6779795972055158e+00 0 0 0
482 2 3.6915000000000004e+00 1.4919019630994494e+01 8.6779795972055158e+00 0 0 0
213 2 4.9220000000000006e+00 1.4208590124756663e+01 5.4405089504797477e+00 0 0 0
258 2 6.1524999999999990e+00 1.4919019630994494e+01 5.4405089504797477e+00 0 0 0
483 2 4.9220000000000006e+00 1.5629449137232333e+01 8.6779795972055158e+00 0 0 0
506 2 6.1524999999999990e+00 1.4919019630994494e+01 8.6779795972055158e+00 0 0 0
162 2 0.0000000000000000e+00 1.7050308149707998e+01 5.4405089504797477e+00 0 0 0
164 2 1.2305000000000001e+00 1.6339878643470165e+01 5.4405089504797477e+00 0 0 0
207 2 2.4610000000000003e+00 1.7050308149707998e+01 5.4405089504797477e+00 0 0 0
209 2 3.6915000000000004e+00 1.6339878643470165e+01 5.4405089504797477e+00 0 0 0
457 2 0.0000000000000000e+00 1.7050308149707998e+01 8.6779795972055158e+00 0 0 0
480 2 2.4610000000000003e+00 1.7050308149707998e+01 8.6779795972055158e+00 0 0 0
254 2 4.9220000000000006e+00 1.7050308149707998e+01 5.4405089504797477e+00 0 0 0
504 2 4.9220000000000006e+00 1.7050308149707998e+01 8.6779795972055158e+00 0 0 0
160 2 0.0000000000000000e+00 1.8471167162183658e+01 5.4405089504797477e+00 0 0 0
203 2 1.2305000000000001e+00 1.9181596668421495e+01 5.4405089504797477e+00 0 0 0
205 2 2.4610000000000003e+00 1.8471167162183658e+01 5.4405089504797477e+00 0 0 0
250 2 3.6914999999999996e+00 1.9181596668421495e+01 5.4405089504797477e+00 0 0 0
456 2 0.0000000000000000e+00 1.9892026174659328e+01 8.6779795972055158e+00 0 0 0
458 2 1.2305000000000001e+00 1.7760737655945832e+01 8.6779795972055158e+00 0 0 0
478 2 1.2305000000000001e+00 1.9181596668421495e+01 8.6779795972055158e+00 0 0 0
479 2 2.4610000000000003e+00 1.9892026174659328e+01 8.6779795972055158e+00 0 0 0
481 2 3.6914999999999996e+00 1.7760737655945832e+01 8.6779795972055158e+00 0 0 0
502 2 3.6914999999999996e+00 1.9181596668421495e+01 8.6779795972055158e+00 0 0 0
252 2 4.9220000000000006e+00 1.8471167162183658e+01 5.4405089504797477e+00 0 0 0
503 2 4.9220000000000006e+00 1.9892026174659328e+01 8.6779795972055158e+00 0 0 0
201 2 1.2305000000000001e+00 2.0602455680897162e+01 5.4405089504797477e+00 0 0 0
248 2 3.6915000000000004e+00 2.0602455680897162e+01 5.4405089504797477e+00 0 0 0
197 2 0.0000000000000000e+00 2.2733744199610655e+01 5.4405089504797477e+00 0 0 0
199 2 0.0000000000000000e+00 2.1312885187134999e+01 5.4405089504797477e+00 0 0 0
242 2 1.2304999999999993e+00 2.3444173705848499e+01 5.4405089504797477e+00 0 0 0
244 2 2.4610000000000003e+00 2.2733744199610655e+01 5.4405089504797477e+00 0 0 0
246 2 2.4610000000000003e+00 2.1312885187134995e+01 5.4405089504797477e+00 0 0 0
289 2 3.6915000000000004e+00 2.3444173705848499e+01 5.4405089504797477e+00 0 0 0
475 2 0.0000000000000000e+00 2.4154603212086325e+01 8.6779795972055158e+00 0 0 0
476 2 0.0000000000000000e+00 2.1312885187134999e+01 8.6779795972055158e+00 0 0 0
477 2 1.2304999999999993e+00 2.2023314693372832e+01 8.6779795972055158e+00 0 0 0
498 2 1.2304999999999993e+00 2.3444173705848499e+01 8.6779795972055158e+00 0 0 0
499 2 2.4610000000000003e+00 2.4154603212086325e+01 8.6779795972055158e+00 0 0 0
500 2 2.4610000000000003e+00 2.1312885187134995e+01 8.6779795972055158e+00 0 0 0
501 2 3.6914999999999996e+00 2.2023314693372832e+01 8.6779795972055158e+00 0 0 0
522 2 3.6915000000000004e+00 2.3444173705848499e+01 8.6779795972055158e+00 0 0 0
291 2 4.9220000000000006e+00 2.2733744199610655e+01 5.4405089504797477e+00 0 0 0
293 2 4.9220000000000006e+00 2.1312885187134995e+01 5.4405089504797477e+00 0 0 0
523 2 4.9220000000000006e+00 2.4154603212086325e+01 8.6779795972055158e+00 0 0 0
524 2 4.9220000000000006e+00 2.1312885187134995e+01 8.6779795972055158e+00 0 0 0
525 2 6.1524999999999990e+00 2.2023314693372832e+01 8.6779795972055158e+00 0 0 0
2934 1 3.8490971698704031e+00 1.4499632072314222e+01 1.1344535042370149e+01 6 -1 0
4482 1 1.5464022956625887e+00 1.6143772840856315e+01 1.1804087790195304e+01 -5 1 0
2899 1 1.8344053014840644e+00 1.8876794927625436e+01 1.0969261637064742e+01 -2 -3 0
1479 1 4.0059835959106316e+00 1.9998373898884179e+01 1.1960282516836958e+01 0 2 0
79 1 2.0143318384111391e+00 2.4344603407670199e+01 1.1743147573359455e+01 1 3 0
3626 1 3.9917641430296578e+00 2.2659956825011626e+01 1.1281667623693787e+01 2 -2 -1
10 1 3.7841068496168018e+00 1.4467667400521840e+01 1.4990072046102433e+01 2 -2 0
3787 1 1.3157064791189292e+00 1.5828339873100562e+01 1.4380793944536643e+01 -4 -3 0
3111 1 1.6835025643412058e+00 1.8388268547149607e+01 1.5045996949283788e+01 0 -4 -1
635 1 3.9338169911285337e+00 1.9867452038642032e+01 1.4418023187276113e+01 4 0 0
724 1 6.0881265982801027e+00 1.8466318614368511e+01 1.5151077377666290e+01 -2 3 -1
2258 1 3.8675066940629317e+00 2.2568540492404725e+01 1.5030532185852158e+01 1 6 0
3724 1 1.8807816656412113e+00 2.4437311282078255e+01 1.4919803935249666e+01 0 -1 0
762 1 3.5823589692948614e+00 1.4405256573605090e+01 1.7654502414889478e+01 5 6 0
4525 1 1.1427621569859030e+00 1.3320006816676816e+01 1.8526980070958434e+01 -4 -6 0
717 1 5.8441308453497047e+00 1.3096968354776628e+01 1.8550781281939781e+01 0 0 -1
3819 1 3.9706884146262151e+00 1.6791607984896718e+01 1.8652563949478687e+01 -4 2 0
651 1 1.9437730529986581e+00 1.8167366317589277e+01 1.7792207663934100e+01 1 -3 0
3788 1 3.9943642823690864e+00 2.1969638260556067e+01 1.7678835093934811e+01 4 4 0
3049 1 1.5831567261373405e+00 2.0822395803927304e+01 1.8529124029236907e+01 1 3 -1
18 1 7.5335391041237876e-01 1.3222284082189100e+01 2.1291997201054457e+01 -4 -4 -1
3798 1 1.2331385844748448e+00 1.5637995266957315e+01 2.2140252248391523e+01 0 -2 -1
2905 1 5.5220760801121695e+00 1.3221896525909964e+01 2.1328704201879699e+01 3 2 0
67 1 5.9843548151678441e+00 1.5796327699487620e+01 2.1992357425366514e+01 3 -2 0
822 1 1.6004755866317986e+00 1.6298893390722931e+01 2.4914367529781885e+01 3 1 1
4489 1 4.0363905525858526e+00 1.9471719881662892e+01 2.2108537488687126e+01 1 -3 0
4463 1 3.6645951029974446e+00 1.6872736731788716e+01 2.1299403389111660e+01 -1 3 0
4492 1 4.4535351004774091e+00 2.0063934035930846e+01 2.4774873270024187e+01 2 -5 -1
2159 1 1.9785330557691756e+00 2.1122272379565036e+01 2.1209088746446447e+01 -1 -1 1
1 1 2.3240274733674640e+00 2.3875408559160388e+01 2.2025900246737539e+01 -1 -1 0
2234 1 2.3954566469536491e+00 2.4235791830066688e+01 2.4628230092495890e+01 2 2 0
52 1 1.1604779278942974e+00 1.3357652503394030e+01 2.7977492307697982e+01 -2 2 1
1577 1 1.0929164252113919e+00 1.3221323713403418e+01 2.5349756519774260e+01 3 -1 0
58 1 1.6223946215892056e+00 1.5968389985594815e+01 2.8856078699771473e+01 0 0 1
2359 1 5.4123477024952571e+00 1.3383117221375803e+01 2.8561394256684071e+01 -1 -1 -1
3141 1 5.7409699809432402e+00 1.2887145643934534e+01 2.5619830500998503e+01 1 2 1
2229 1 4.0761045992845677e+00 1.7318403238590228e+01 2.5559670723856378e+01 1 4 -1
1404 1 3.8422635469111270e+00 1.7505601257361828e+01 2.8270249962898593e+01 -2 -1 0
706 1 2.1498979050762741e+00 2.1560991511067019e+01 2.5744688068812991e+01 -2 2 0
4470 1 1.9823770061514676e+00 2.4490837652240216e+01 2.8852064931178251e+01 1 0 -1
1640 1 2.1540967666668585e+00 2.1851619526015782e+01 2.8411953873281902e+01 -3 6 0
4496 1 1.5042016929980020e+00 1.6167310962200602e+01 3.1552155309494292e+01 3 2 -1
2357 1 1.1561713058859924e+00 1.3690987684490882e+01 3.2391184966188838e+01 -2 1 1
3825 1 5.5070797032222334e+00 1.3469377811930771e+01 3.1695626132962932e+01 -2 -4 1
2860 1 6.0737426268806534e+00 1.6183224696451340e+01 3.1676030580087037e+01 2 1 0
2342 1 4.3081957861574836e+00 2.0216376121306677e+01 2.9212927286067149e+01 -3 0 0
3151 1 3.9966278540504918e+00 2.0238247596974031e+01 3.1661343256745333e+01 -3 3 0
3025 1 3.8348100509443723e+00 1.7653143386959243e+01 3.2129157806291921e+01 -1 -1 1
2977 1 1.9221648786937890e+00 2.2020738904132404e+01 3.2437358450631720e+01 3 0 0
891 2 0.0000000000000000e+00 2.5575462224561992e+01 2.2030383037534156e+00 0 0 0
893 2 1.2305000000000001e+00 2.6285891730799833e+01 2.2030383037534156e+00 0 0 0
901 2 1.2305000000000010e+00 2.7706750743275496e+01 2.2030383037534156e+00 0 0 0
905 2 2.4610000000000003e+00 2.5575462224561992e+01 2.2030383037534156e+00 0 0 0
907 2 3.6914999999999991e+00 2.6285891730799833e+01 2.2030383037534156e+00 0 0 0
923 2 3.6914999999999996e+00 2.7706750743275496e+01 2.2030383037534156e+00 0 0 0
927 2 4.9220000000000006e+00 2.5575462224561992e+01 2.2030383037534156e+00 0 0 0
953 2 6.1524999999999990e+00 2.7706750743275496e+01 2.2030383037534156e+00 0 0 0
889 2 0.0000000000000000e+00 2.8417180249513333e+01 2.2030383037534156e+00 0 0 0
903 2 2.4610000000000003e+00 2.8417180249513326e+01 2.2030383037534156e+00 0 0 0
925 2 4.9220000000000006e+00 2.8417180249513336e+01 2.2030383037534156e+00 0 0 0
897 2 0.0000000000000000e+00 2.9838039261988989e+01 2.2030383037534156e+00 0 0 0
899 2 1.2304999999999993e+00 3.0548468768226829e+01 2.2030383037534156e+00 0 0 0
919 2 2.4610000000000003e+00 2.9838039261988989e+01 2.2030383037534156e+00 0 0 0
921 2 3.6915000000000004e+00 3.0548468768226829e+01 2.2030383037534156e+00 0 0 0
949 2 4.9220000000000006e+00 2.9838039261988989e+01 2.2030383037534156e+00 0 0 0
895 2 0.0000000000000000e+00 3.2679757286940330e+01 2.2030383037534156e+00 0 0 0
915 2 1.2304999999999993e+00 3.1969327780702493e+01 2.2030383037534156e+00 0 0 0
945 2 3.6914999999999996e+00 3.1969327780702493e+01 2.2030383037534156e+00 0 0 0
911 2 0.0000000000000000e+00 3.4100616299415996e+01 2.2030383037534156e+00 0 0 0
913 2 1.2305000000000010e+00 3.4811045805653833e+01 2.2030383037534156e+00 0 0 0
917 2 2.4610000000000003e+00 3.2679757286940337e+01 2.2030383037534156e+00 0 0 0
941 2 2.4609999999999985e+00 3.4100616299415996e+01 2.2030383037534156e+00 0 0 0
943 2 3.6915000000000018e+00 3.4811045805653833e+01 2.2030383037534156e+00 0 0 0
947 2 4.9220000000000015e+00 3.2679757286940337e+01 2.2030383037534156e+00 0 0 0
979 2 4.9220000000000006e+00 3.4100616299415996e+01 2.2030383037534156e+00 0 0 0
937 2 1.2304999999999993e+00 3.6231904818129486e+01 2.2030383037534156e+00 0 0 0
975 2 3.6914999999999996e+00 3.6231904818129486e+01 2.2030383037534156e+00 0 0 0
890 2 0.0000000000000000e+00 2.6996321237037659e+01 5.4405089504797477e+00 0 0 0
892 2 0.0000000000000000e+00 2.5575462224561992e+01 5.4405089504797477e+00 0 0 0
894 2 1.2305000000000001e+00 2.4865032718324155e+01 5.4405089504797477e+00 0 0 0
902 2 1.2305000000000010e+00 2.7706750743275496e+01 5.4405089504797477e+00 0 0 0
904 2 2.4610000000000003e+00 2.6996321237037659e+01 5.4405089504797477e+00 0 0 0
906 2 2.4610000000000003e+00 2.5575462224561992e+01 5.4405089504797477e+00 0 0 0
908 2 3.6914999999999996e+00 2.4865032718324166e+01 5.4405089504797477e+00 0 0 0
924 2 3.6914999999999996e+00 2.7706750743275496e+01 5.4405089504797477e+00 0 0 0
1205 2 0.0000000000000000e+00 2.5575462224561992e+01 8.6779795972055158e+00 0 0 0
1206 2 1.2305000000000001e+00 2.6285891730799833e+01 8.6779795972055158e+00 0 0 0
1210 2 1.2305000000000010e+00 2.7706750743275496e+01 8.6779795972055158e+00 0 0 0
1212 2 2.4610000000000003e+00 2.5575462224561992e+01 8.6779795972055158e+00 0 0 0
1213 2 3.6914999999999991e+00 2.6285891730799833e+01 8.6779795972055158e+00 0 0 0
1221 2 3.6914999999999996e+00 2.7706750743275496e+01 8.6779795972055158e+00 0 0 0
926 2 4.9220000000000006e+00 2.6996321237037659e+01 5.4405089504797477e+00 0 0 0
928 2 4.9220000000000006e+00 2.5575462224561992e+01 5.4405089504797477e+00 0 0 0
930 2 6.1524999999999990e+00 2.4865032718324155e+01 5.4405089504797477e+00 0 0 0
954 2 6.1524999999999990e+00 2.7706750743275496e+01 5.4405089504797477e+00 0 0 0
1223 2 4.9220000000000006e+00 2.5575462224561992e+01 8.6779795972055158e+00 0 0 0
1236 2 6.1524999999999990e+00 2.7706750743275496e+01 8.6779795972055158e+00 0 0 0
1204 2 0.0000000000000000e+00 2.8417180249513333e+01 8.6779795972055158e+00 0 0 0
1211 2 2.4610000000000003e+00 2.8417180249513326e+01 8.6779795972055158e+00 0 0 0
1222 2 4.9220000000000006e+00 2.8417180249513336e+01 8.6779795972055158e+00 0 0 0
896 2 0.0000000000000000e+00 3.1258898274464656e+01 5.4405089504797477e+00 0 0 0
898 2 0.0000000000000000e+00 2.9838039261988989e+01 5.4405089504797477e+00 0 0 0
900 2 1.2304999999999993e+00 2.9127609755751163e+01 5.4405089504797477e+00 0 0 0
918 2 2.4609999999999985e+00 3.1258898274464656e+01 5.4405089504797477e+00 0 0 0
920 2 2.4610000000000003e+00 2.9838039261988989e+01 5.4405089504797477e+00 0 0 0
922 2 3.6914999999999991e+00 2.9127609755751152e+01 5.4405089504797477e+00 0 0 0
1208 2 0.0000000000000000e+00 2.9838039261988989e+01 8.6779795972055158e+00 0 0 0
1209 2 1.2304999999999993e+00 3.0548468768226829e+01 8.6779795972055158e+00 0 0 0
1219 2 2.4610000000000003e+00 2.9838039261988989e+01 8.6779795972055158e+00 0 0 0
1220 2 3.6915000000000004e+00 3.0548468768226829e+01 8.6779795972055158e+00 0 0 0
948 2 4.9219999999999979e+00 3.1258898274464656e+01 5.4405089504797477e+00 0 0 0
950 2 4.9220000000000006e+00 2.9838039261988989e+01 5.4405089504797477e+00 0 0 0
952 2 6.1524999999999981e+00 2.9127609755751152e+01 5.4405089504797477e+00 0 0 0
1234 2 4.9220000000000006e+00 2.9838039261988989e+01 8.6779795972055158e+00 0 0 0
916 2 1.2304999999999993e+00 3.1969327780702493e+01 5.4405089504797477e+00 0 0 0
946 2 3.6914999999999996e+00 3.1969327780702493e+01 5.4405089504797477e+00 0 0 0
1207 2 0.0000000000000000e+00 3.2679757286940330e+01 8.6779795972055158e+00 0 0 0
1217 2 1.2304999999999993e+00 3.1969327780702493e+01 8.6779795972055158e+00 0 0 0
1232 2 3.6914999999999996e+00 3.1969327780702493e+01 8.6779795972055158e+00 0 0 0
912 2 0.0000000000000000e+00 3.4100616299415996e+01 5.4405089504797477e+00 0 0 0
914 2 1.2304999999999993e+00 3.3390186793178160e+01 5.4405089504797477e+00 0 0 0