LAMMPS data file via write_data, version 16 Mar 2018, timestep = 8000000

4065 atoms
2 atom types

0.0000000000000000e+00 4.9219999999999999e+01 xlo xhi
0.0000000000000000e+00 4.9019635930410494e+01 ylo yhi
1.1186652168930813e+00 2.6722167029398744e+01 zlo zhi

Masses

1 18.015
2 12.01

Atoms # atomic

83 2 0.0000000000000000e+00 2.8417180249513345e+00 2.6608990179433798e+00 0 0 0
85 2 0.0000000000000000e+00 0.0000000000000000e+00 2.6608990179433798e+00 0 0 0
87 2 1.2305000000000001e+00 7.1042950623783474e-01 2.6608990179433798e+00 0 0 0
94 2 1.2305000000000001e+00 2.1312885187134998e+00 2.6608990179433798e+00 0 0 0
96 2 2.4610000000000003e+00 2.8417180249513345e+00 2.6608990179433798e+00 0 0 0
98 2 2.4610000000000003e+00 0.0000000000000000e+00 2.6608990179433798e+00 0 0 0
100 2 3.6915000000000004e+00 7.1042950623783474e-01 2.6608990179433798e+00 0 0 0
115 2 3.6914999999999996e+00 2.1312885187134998e+00 2.6608990179433798e+00 0 0 0
117 2 4.9220000000000006e+00 2.8417180249513332e+00 2.6608990179433798e+00 0 0 0
119 2 4.9220000000000006e+00 0.0000000000000000e+00 2.6608990179433798e+00 0 0 0
121 2 6.1524999999999999e+00 7.1042950623783407e-01 2.6608990179433798e+00 0 0 0
144 2 6.1524999999999999e+00 2.1312885187134989e+00 2.6608990179433798e+00 0 0 0
146 2 7.3829999999999991e+00 2.8417180249513345e+00 2.6608990179433798e+00 0 0 0
148 2 7.3829999999999991e+00 0.0000000000000000e+00 2.6608990179433798e+00 0 0 0
90 2 0.0000000000000000e+00 4.2625770374269996e+00 2.6608990179433798e+00 0 0 0
92 2 1.2305000000000001e+00 4.9730065436648339e+00 2.6608990179433798e+00 0 0 0
107 2 1.2305000000000001e+00 6.3938655561404980e+00 2.6608990179433798e+00 0 0 0
111 2 2.4610000000000003e+00 4.2625770374269996e+00 2.6608990179433798e+00 0 0 0
113 2 3.6914999999999996e+00 4.9730065436648339e+00 2.6608990179433798e+00 0 0 0
136 2 3.6914999999999996e+00 6.3938655561404980e+00 2.6608990179433798e+00 0 0 0
88 2 0.0000000000000000e+00 7.1042950623783341e+00 2.6608990179433798e+00 0 0 0
109 2 2.4610000000000003e+00 7.1042950623783341e+00 2.6608990179433798e+00 0 0 0
140 2 4.9220000000000006e+00 4.2625770374269978e+00 2.6608990179433798e+00 0 0 0
142 2 6.1524999999999999e+00 4.9730065436648339e+00 2.6608990179433798e+00 0 0 0
173 2 6.1524999999999999e+00 6.3938655561404980e+00 2.6608990179433798e+00 0 0 0
177 2 7.3829999999999991e+00 4.2625770374269996e+00 2.6608990179433798e+00 0 0 0
138 2 4.9220000000000006e+00 7.1042950623783341e+00 2.6608990179433798e+00 0 0 0
175 2 7.3830000000000009e+00 7.1042950623783341e+00 2.6608990179433798e+00 0 0 0
103 2 0.0000000000000000e+00 8.5251540748539991e+00 2.6608990179433798e+00 0 0 0
105 2 1.2305000000000001e+00 9.2355835810918343e+00 2.6608990179433798e+00 0 0 0
132 2 2.4610000000000003e+00 8.5251540748539991e+00 2.6608990179433798e+00 0 0 0
134 2 3.6915000000000004e+00 9.2355835810918343e+00 2.6608990179433798e+00 0 0 0
101 2 0.0000000000000000e+00 1.1366872099805333e+01 2.6608990179433798e+00 0 0 0
128 2 1.2305000000000001e+00 1.0656442593567498e+01 2.6608990179433798e+00 0 0 0
130 2 2.4610000000000003e+00 1.1366872099805333e+01 2.6608990179433798e+00 0 0 0
165 2 3.6914999999999996e+00 1.0656442593567499e+01 2.6608990179433798e+00 0 0 0
169 2 4.9220000000000006e+00 8.5251540748539991e+00 2.6608990179433798e+00 0 0 0
171 2 6.1524999999999999e+00 9.2355835810918343e+00 2.6608990179433798e+00 0 0 0
214 2 7.3830000000000009e+00 8.5251540748539991e+00 2.6608990179433798e+00 0 0 0
167 2 4.9220000000000006e+00 1.1366872099805333e+01 2.6608990179433798e+00 0 0 0
210 2 6.1524999999999999e+00 1.0656442593567499e+01 2.6608990179433798e+00 0 0 0
212 2 7.3829999999999991e+00 1.1366872099805333e+01 2.6608990179433798e+00 0 0 0
84 2 0.0000000000000000e+00 1.4208590124756650e+00 5.7453666200403486e+00 0 0 0
86 2 0.0000000000000000e+00 0.0000000000000000e+00 5.7453666200403486e+00 0 0 0
95 2 1.2305000000000001e+00 2.1312885187134998e+00 5.7453666200403486e+00 0 0 0
97 2 2.4610000000000003e+00 1.4208590124756650e+00 5.7453666200403486e+00 0 0 0
99 2 2.4610000000000003e+00 0.0000000000000000e+00 5.7453666200403486e+00 0 0 0
412 2 0.0000000000000000e+00 2.8417180249513345e+00 8.8298342221428623e+00 0 0 0
413 2 0.0000000000000000e+00 0.0000000000000000e+00 8.8298342221428623e+00 0 0 0
414 2 1.2305000000000001e+00 7.1042950623783474e-01 8.8298342221428623e+00 0 0 0
418 2 1.2305000000000001e+00 2.1312885187134998e+00 8.8298342221428623e+00 0 0 0
419 2 2.4610000000000003e+00 2.8417180249513345e+00 8.8298342221428623e+00 0 0 0
420 2 2.4610000000000003e+00 0.0000000000000000e+00 8.8298342221428623e+00 0 0 0
116 2 3.6914999999999996e+00 2.1312885187134998e+00 5.7453666200403486e+00 0 0 0
421 2 3.6915000000000004e+00 7.1042950623783474e-01 8.8298342221428623e+00 0 0 0
429 2 3.6914999999999996e+00 2.1312885187134998e+00 8.8298342221428623e+00 0 0 0
93 2 1.2305000000000001e+00 3.5521475311891644e+00 5.7453666200403486e+00 0 0 0
114 2 3.6914999999999996e+00 3.5521475311891644e+00 5.7453666200403486e+00 0 0 0
118 2 4.9220000000000006e+00 1.4208590124756650e+00 5.7453666200403486e+00 0 0 0
120 2 4.9220000000000006e+00 0.0000000000000000e+00 5.7453666200403486e+00 0 0 0
145 2 6.1524999999999999e+00 2.1312885187134989e+00 5.7453666200403486e+00 0 0 0
430 2 4.9220000000000006e+00 2.8417180249513332e+00 8.8298342221428623e+00 0 0 0
431 2 4.9220000000000006e+00 0.0000000000000000e+00 8.8298342221428623e+00 0 0 0
432 2 6.1524999999999999e+00 7.1042950623783407e-01 8.8298342221428623e+00 0 0 0
444 2 6.1524999999999999e+00 2.1312885187134989e+00 8.8298342221428623e+00 0 0 0
147 2 7.3829999999999991e+00 1.4208590124756659e+00 5.7453666200403486e+00 0 0 0
149 2 7.3829999999999991e+00 0.0000000000000000e+00 5.7453666200403486e+00 0 0 0
445 2 7.3829999999999991e+00 2.8417180249513345e+00 8.8298342221428623e+00 0 0 0
446 2 7.3829999999999991e+00 0.0000000000000000e+00 8.8298342221428623e+00 0 0 0
143 2 6.1524999999999999e+00 3.5521475311891644e+00 5.7453666200403486e+00 0 0 0
89 2 0.0000000000000000e+00 5.6834360499026637e+00 5.7453666200403486e+00 0 0 0
91 2 0.0000000000000000e+00 4.2625770374269996e+00 5.7453666200403486e+00 0 0 0
108 2 1.2305000000000001e+00 6.3938655561404980e+00 5.7453666200403486e+00 0 0 0
110 2 2.4610000000000003e+00 5.6834360499026637e+00 5.7453666200403486e+00 0 0 0
112 2 2.4610000000000003e+00 4.2625770374269996e+00 5.7453666200403486e+00 0 0 0
416 2 0.0000000000000000e+00 4.2625770374269996e+00 8.8298342221428623e+00 0 0 0
417 2 1.2305000000000001e+00 4.9730065436648339e+00 8.8298342221428623e+00 0 0 0
425 2 1.2305000000000001e+00 6.3938655561404980e+00 8.8298342221428623e+00 0 0 0
427 2 2.4610000000000003e+00 4.2625770374269996e+00 8.8298342221428623e+00 0 0 0
137 2 3.6914999999999996e+00 6.3938655561404980e+00 5.7453666200403486e+00 0 0 0
428 2 3.6914999999999996e+00 4.9730065436648339e+00 8.8298342221428623e+00 0 0 0
440 2 3.6914999999999996e+00 6.3938655561404980e+00 8.8298342221428623e+00 0 0 0
106 2 1.2305000000000001e+00 7.8147245686161639e+00 5.7453666200403486e+00 0 0 0
415 2 0.0000000000000000e+00 7.1042950623783341e+00 8.8298342221428623e+00 0 0 0
426 2 2.4610000000000003e+00 7.1042950623783341e+00 8.8298342221428623e+00 0 0 0
135 2 3.6914999999999996e+00 7.8147245686161639e+00 5.7453666200403486e+00 0 0 0
139 2 4.9220000000000006e+00 5.6834360499026637e+00 5.7453666200403486e+00 0 0 0
141 2 4.9220000000000006e+00 4.2625770374269978e+00 5.7453666200403486e+00 0 0 0
174 2 6.1524999999999999e+00 6.3938655561404980e+00 5.7453666200403486e+00 0 0 0
442 2 4.9220000000000006e+00 4.2625770374269978e+00 8.8298342221428623e+00 0 0 0
443 2 6.1524999999999999e+00 4.9730065436648339e+00 8.8298342221428623e+00 0 0 0
459 2 6.1524999999999999e+00 6.3938655561404980e+00 8.8298342221428623e+00 0 0 0
176 2 7.3829999999999991e+00 5.6834360499026637e+00 5.7453666200403486e+00 0 0 0
178 2 7.3829999999999991e+00 4.2625770374269996e+00 5.7453666200403486e+00 0 0 0
461 2 7.3829999999999991e+00 4.2625770374269996e+00 8.8298342221428623e+00 0 0 0
172 2 6.1524999999999999e+00 7.8147245686161639e+00 5.7453666200403486e+00 0 0 0
441 2 4.9220000000000006e+00 7.1042950623783341e+00 8.8298342221428623e+00 0 0 0
460 2 7.3830000000000009e+00 7.1042950623783341e+00 8.8298342221428623e+00 0 0 0
102 2 0.0000000000000000e+00 9.9460130873296642e+00 5.7453666200403486e+00 0 0 0
104 2 0.0000000000000000e+00 8.5251540748539991e+00 5.7453666200403486e+00 0 0 0
131 2 2.4610000000000003e+00 9.9460130873296642e+00 5.7453666200403486e+00 0 0 0
133 2 2.4610000000000003e+00 8.5251540748539991e+00 5.7453666200403486e+00 0 0 0
423 2 0.0000000000000000e+00 8.5251540748539991e+00 8.8298342221428623e+00 0 0 0
424 2 1.2305000000000001e+00 9.2355835810918343e+00 8.8298342221428623e+00 0 0 0
438 2 2.4610000000000003e+00 8.5251540748539991e+00 8.8298342221428623e+00 0 0 0
439 2 3.6915000000000004e+00 9.2355835810918343e+00 8.8298342221428623e+00 0 0 0
127 2 1.2305000000000001e+00 1.2077301606043163e+01 5.7453666200403486e+00 0 0 0
129 2 1.2305000000000001e+00 1.0656442593567498e+01 5.7453666200403486e+00 0 0 0
422 2 0.0000000000000000e+00 1.1366872099805333e+01 8.8298342221428623e+00 0 0 0
436 2 1.2305000000000001e+00 1.0656442593567498e+01 8.8298342221428623e+00 0 0 0
437 2 2.4610000000000003e+00 1.1366872099805333e+01 8.8298342221428623e+00 0 0 0
164 2 3.6914999999999996e+00 1.2077301606043163e+01 5.7453666200403486e+00 0 0 0
166 2 3.6914999999999996e+00 1.0656442593567499e+01 5.7453666200403486e+00 0 0 0
455 2 3.6914999999999996e+00 1.0656442593567499e+01 8.8298342221428623e+00 0 0 0
168 2 4.9220000000000006e+00 9.9460130873296642e+00 5.7453666200403486e+00 0 0 0
170 2 4.9220000000000006e+00 8.5251540748539991e+00 5.7453666200403486e+00 0 0 0
457 2 4.9220000000000006e+00 8.5251540748539991e+00 8.8298342221428623e+00 0 0 0
458 2 6.1524999999999999e+00 9.2355835810918343e+00 8.8298342221428623e+00 0 0 0
213 2 7.3830000000000009e+00 9.9460130873296642e+00 5.7453666200403486e+00 0 0 0
215 2 7.3830000000000009e+00 8.5251540748539991e+00 5.7453666200403486e+00 0 0 0
480 2 7.3830000000000009e+00 8.5251540748539991e+00 8.8298342221428623e+00 0 0 0
209 2 6.1524999999999999e+00 1.2077301606043163e+01 5.7453666200403486e+00 0 0 0
211 2 6.1524999999999999e+00 1.0656442593567499e+01 5.7453666200403486e+00 0 0 0
456 2 4.9220000000000006e+00 1.1366872099805333e+01 8.8298342221428623e+00 0 0 0
478 2 6.1524999999999999e+00 1.0656442593567499e+01 8.8298342221428623e+00 0 0 0
479 2 7.3829999999999991e+00 1.1366872099805333e+01 8.8298342221428623e+00 0 0 0
3107 1 2.5295261311047685e+00 9.2580277746115636e-01 1.0959515049539327e+01 -1 1 0
4049 1 3.9768251695941920e-01 2.8135222043307206e+00 1.1850540427739427e+01 1 -1 -1
60 1 5.0901180266237454e+00 1.7430265982794133e+00 1.1605464142165779e+01 -3 4 0
3897 1 1.2579581248994944e+00 5.4102296679601265e+00 1.1362615846961003e+01 0 0 0
1860 1 4.0667585132359871e+00 6.1970280548396577e+00 1.1670966023171415e+01 -1 1 0
1856 1 6.0093033072220425e+00 4.3189406310813832e+00 1.1114257504613814e+01 -1 0 0
2072 1 2.9807655710318963e+00 1.0747612923808584e+01 1.1713182314924261e+01 -1 0 0
3957 1 4.8687362683989370e+00 8.9497624755573497e+00 1.1713510327110610e+01 -1 1 -1
2882 1 7.9004283530554513e+00 9.0712299203458588e+00 1.1714841141093402e+01 2 2 0
821 1 2.3288928426223193e-01 1.0385900476579385e+01 1.1139933284451892e+01 0 5 1
1872 1 2.6675687603331912e+00 9.9298671034239205e-01 1.5265155082495379e+01 0 0 -1
1016 1 9.3527063391903098e-01 2.9224423764133478e+00 1.4387643712966661e+01 1 3 -1
3121 1 2.6028952831533148e+00 8.2752081967224667e-01 1.7815500861216208e+01 -2 1 0
1924 1 5.2510992262349507e+00 1.8330928612392368e+00 1.4506498270528699e+01 -1 1 1
51 1 6.0027008017970873e+00 3.8584897026948450e+00 1.7872251749529042e+01 3 -3 0
1075 1 1.5870222623537842e+00 5.5296052836500031e+00 1.5172224908331785e+01 1 3 0
46 1 1.6823581737802058e+00 5.4666442330550726e+00 1.7721012706730470e+01 2 2 0
1105 1 4.1024124296002826e+00 6.3227840366884189e+00 1.4337600472482778e+01 0 -3 0
2884 1 6.1560460733094970e+00 4.4534268300383566e+00 1.5307613514837604e+01 0 2 0
3818 1 7.5288032268593452e-01 9.9154934302000015e+00 1.8156249298080727e+01 -1 -1 1
2982 1 2.9643016012205350e+00 1.0598877410163160e+01 1.4577077214290007e+01 3 0 0
2055 1 7.8044819049102294e+00 2.2325352300599088e+00 2.1237818920079725e+01 0 -1 1
4041 1 4.8482166168877470e+00 8.6279384371583117e+00 1.5331752732858913e+01 -1 0 0
3002 1 4.8542705832311199e+00 8.2918496440004876e+00 1.8047856447504149e+01 -1 -3 -1
2881 1 7.2473033942428406e+00 9.0100640629401951e+00 1.4502510609667153e+01 3 -2 0
3093 1 3.3271011034789733e+00 3.2481146263572840e+00 1.8679137889526849e+01 3 0 0
1038 1 3.2154989055384191e+00 3.2650858288015407e+00 2.1436714133575247e+01 6 3 0
2918 1 7.8768319330911851e-01 2.5326036481597645e+00 2.2756784679493350e+01 2 -2 0
801 1 7.7974535807480745e+00 1.9208339545860895e+00 2.5914801904507993e+01 1 1 0
2860 1 5.4189264787841829e+00 1.7870084958919614e+00 2.2404123191472969e+01 0 -1 -1
4052 1 2.2902766950536113e-01 9.7282863700897124e+00 1.5403088251395529e+01 -3 -2 -1
900 1 2.0692000545260525e+00 7.9048389134459134e+00 2.1902804189001362e+01 2 -3 1
802 1 2.5038312050434586e+00 7.7275227047588970e+00 1.9046273104345627e+01 1 -2 1
1036 1 6.8267411511778127e+00 6.2469785887211557e+00 1.8794354511119693e+01 -2 1 -1
3103 1 6.8359862517801142e+00 6.5860570175901607e+00 2.1413831493502130e+01 -1 0 0
1043 1 3.1205458019273768e+00 1.0413036370814487e+01 2.2690058461422968e+01 0 -1 0
1051 1 7.3525984826479887e+00 9.0230829495168585e+00 2.4875105421909662e+01 0 -1 0
3908 1 5.6928323775428495e+00 1.0982809346343551e+01 2.1600716410279951e+01 1 -3 1
3069 1 5.7311819389213507e+00 1.0898600773734486e+01 1.9001365706241337e+01 1 2 0
43 1 1.1905629029668521e+00 2.1586339663942420e+00 2.5451462070412518e+01 0 0 1
2838 1 3.7913160997065409e+00 3.1628700631270683e+00 2.5767287654575291e+01 -2 2 0
1008 1 7.7274893819338892e+00 9.2006927660635256e+00 2.2211497981562495e+01 1 1 0
789 1 5.4707913952505898e+00 1.0236868298459540e+00 2.5118935241832958e+01 -1 0 0
811 1 2.3878607973262467e+00 7.6824042199780669e+00 2.5902581612521651e+01 2 -1 0
2861 1 4.4742128022705883e+00 5.9471529617104331e+00 2.5048132373187595e+01 2 1 0
2019 1 5.6052711008559983e+00 1.1213164874721185e+01 2.5688522946291855e+01 0 0 0
2082 1 4.1389888570890845e+00 5.7766329300246744e+00 2.2381543249976399e+01 1 4 1
3875 1 7.0326222082132617e+00 6.4437137580436152e+00 2.5736673626788019e+01 0 -1 0
1047 1 3.0273238694342055e+00 1.0330976944223959e+01 2.5363482832893656e+01 2 0 -1
2937 1 8.3366721850826830e-02 3.5728167771684555e-01 1.8992085622826018e+01 -3 0 0
3994 1 7.4302921981791998e+00 1.9229979453844034e-01 1.5150410678070935e+01 -1 -2 0
3060 1 3.0446000277986170e-02 1.3749237325939978e-01 2.1834919495224465e+01 -2 3 -1
124 2 0.0000000000000000e+00 1.2787731112280996e+01 2.6608990179433798e+00 0 0 0
126 2 1.2305000000000001e+00 1.3498160618518829e+01 2.6608990179433798e+00 0 0 0
161 2 2.4610000000000003e+00 1.2787731112280996e+01 2.6608990179433798e+00 0 0 0
163 2 3.6915000000000004e+00 1.3498160618518829e+01 2.6608990179433798e+00 0 0 0
122 2 0.0000000000000000e+00 1.5629449137232333e+01 2.6608990179433798e+00 0 0 0
157 2 1.2305000000000001e+00 1.4919019630994494e+01 2.6608990179433798e+00 0 0 0
159 2 2.4610000000000003e+00 1.5629449137232328e+01 2.6608990179433798e+00 0 0 0
202 2 3.6915000000000004e+00 1.4919019630994494e+01 2.6608990179433798e+00 0 0 0
206 2 4.9220000000000006e+00 1.2787731112280996e+01 2.6608990179433798e+00 0 0 0
208 2 6.1524999999999990e+00 1.3498160618518829e+01 2.6608990179433798e+00 0 0 0
253 2 7.3829999999999991e+00 1.2787731112280996e+01 2.6608990179433798e+00 0 0 0
204 2 4.9220000000000006e+00 1.5629449137232333e+01 2.6608990179433798e+00 0 0 0
249 2 6.1524999999999990e+00 1.4919019630994494e+01 2.6608990179433798e+00 0 0 0
251 2 7.3829999999999991e+00 1.5629449137232333e+01 2.6608990179433798e+00 0 0 0
153 2 0.0000000000000000e+00 1.7050308149707998e+01 2.6608990179433798e+00 0 0 0
198 2 2.4610000000000003e+00 1.7050308149707998e+01 2.6608990179433798e+00 0 0 0
151 2 0.0000000000000000e+00 1.9892026174659328e+01 2.6608990179433798e+00 0 0 0
155 2 1.2305000000000001e+00 1.7760737655945832e+01 2.6608990179433798e+00 0 0 0
194 2 1.2305000000000001e+00 1.9181596668421495e+01 2.6608990179433798e+00 0 0 0
196 2 2.4610000000000003e+00 1.9892026174659328e+01 2.6608990179433798e+00 0 0 0
200 2 3.6914999999999996e+00 1.7760737655945832e+01 2.6608990179433798e+00 0 0 0
241 2 3.6914999999999996e+00 1.9181596668421495e+01 2.6608990179433798e+00 0 0 0
245 2 4.9220000000000006e+00 1.7050308149707998e+01 2.6608990179433798e+00 0 0 0
292 2 7.3830000000000009e+00 1.7050308149707998e+01 2.6608990179433798e+00 0 0 0
243 2 4.9220000000000006e+00 1.9892026174659328e+01 2.6608990179433798e+00 0 0 0
247 2 6.1524999999999999e+00 1.7760737655945832e+01 2.6608990179433798e+00 0 0 0
288 2 6.1524999999999999e+00 1.9181596668421495e+01 2.6608990179433798e+00 0 0 0
290 2 7.3829999999999991e+00 1.9892026174659328e+01 2.6608990179433798e+00 0 0 0
188 2 0.0000000000000000e+00 2.4154603212086325e+01 2.6608990179433798e+00 0 0 0
190 2 0.0000000000000000e+00 2.1312885187134999e+01 2.6608990179433798e+00 0 0 0
192 2 1.2304999999999993e+00 2.2023314693372832e+01 2.6608990179433798e+00 0 0 0
233 2 1.2304999999999993e+00 2.3444173705848499e+01 2.6608990179433798e+00 0 0 0
235 2 2.4610000000000003e+00 2.4154603212086325e+01 2.6608990179433798e+00 0 0 0
237 2 2.4610000000000003e+00 2.1312885187134995e+01 2.6608990179433798e+00 0 0 0
239 2 3.6914999999999996e+00 2.2023314693372832e+01 2.6608990179433798e+00 0 0 0
280 2 3.6915000000000004e+00 2.3444173705848499e+01 2.6608990179433798e+00 0 0 0
282 2 4.9220000000000006e+00 2.4154603212086325e+01 2.6608990179433798e+00 0 0 0
284 2 4.9220000000000006e+00 2.1312885187134995e+01 2.6608990179433798e+00 0 0 0
286 2 6.1524999999999990e+00 2.2023314693372832e+01 2.6608990179433798e+00 0 0 0
322 2 6.1524999999999999e+00 2.3444173705848499e+01 2.6608990179433798e+00 0 0 0
324 2 7.3830000000000009e+00 2.4154603212086336e+01 2.6608990179433798e+00 0 0 0
326 2 7.3829999999999991e+00 2.1312885187134999e+01 2.6608990179433798e+00 0 0 0
125 2 0.0000000000000000e+00 1.2787731112280996e+01 5.7453666200403486e+00 0 0 0
162 2 2.4610000000000003e+00 1.2787731112280996e+01 5.7453666200403486e+00 0 0 0
434 2 0.0000000000000000e+00 1.2787731112280996e+01 8.8298342221428623e+00 0 0 0
435 2 1.2305000000000001e+00 1.3498160618518829e+01 8.8298342221428623e+00 0 0 0
453 2 2.4610000000000003e+00 1.2787731112280996e+01 8.8298342221428623e+00 0 0 0
454 2 3.6915000000000004e+00 1.3498160618518829e+01 8.8298342221428623e+00 0 0 0
123 2 0.0000000000000000e+00 1.4208590124756663e+01 5.7453666200403486e+00 0 0 0
158 2 1.2305000000000001e+00 1.4919019630994494e+01 5.7453666200403486e+00 0 0 0
160 2 2.4610000000000003e+00 1.4208590124756663e+01 5.7453666200403486e+00 0 0 0
433 2 0.0000000000000000e+00 1.5629449137232333e+01 8.8298342221428623e+00 0 0 0
451 2 1.2305000000000001e+00 1.4919019630994494e+01 8.8298342221428623e+00 0 0 0
452 2 2.4610000000000003e+00 1.5629449137232328e+01 8.8298342221428623e+00 0 0 0
203 2 3.6915000000000004e+00 1.4919019630994494e+01 5.7453666200403486e+00 0 0 0
474 2 3.6915000000000004e+00 1.4919019630994494e+01 8.8298342221428623e+00 0 0 0
207 2 4.9220000000000006e+00 1.2787731112280996e+01 5.7453666200403486e+00 0 0 0
476 2 4.9220000000000006e+00 1.2787731112280996e+01 8.8298342221428623e+00 0 0 0
477 2 6.1524999999999990e+00 1.3498160618518829e+01 8.8298342221428623e+00 0 0 0
254 2 7.3829999999999991e+00 1.2787731112280996e+01 5.7453666200403486e+00 0 0 0
500 2 7.3829999999999991e+00 1.2787731112280996e+01 8.8298342221428623e+00 0 0 0
205 2 4.9220000000000006e+00 1.4208590124756663e+01 5.7453666200403486e+00 0 0 0
250 2 6.1524999999999990e+00 1.4919019630994494e+01 5.7453666200403486e+00 0 0 0
475 2 4.9220000000000006e+00 1.5629449137232333e+01 8.8298342221428623e+00 0 0 0
498 2 6.1524999999999990e+00 1.4919019630994494e+01 8.8298342221428623e+00 0 0 0
252 2 7.3830000000000009e+00 1.4208590124756663e+01 5.7453666200403486e+00 0 0 0
499 2 7.3829999999999991e+00 1.5629449137232333e+01 8.8298342221428623e+00 0 0 0
154 2 0.0000000000000000e+00 1.7050308149707998e+01 5.7453666200403486e+00 0 0 0
156 2 1.2305000000000001e+00 1.6339878643470165e+01 5.7453666200403486e+00 0 0 0
199 2 2.4610000000000003e+00 1.7050308149707998e+01 5.7453666200403486e+00 0 0 0
449 2 0.0000000000000000e+00 1.7050308149707998e+01 8.8298342221428623e+00 0 0 0
472 2 2.4610000000000003e+00 1.7050308149707998e+01 8.8298342221428623e+00 0 0 0
201 2 3.6915000000000004e+00 1.6339878643470165e+01 5.7453666200403486e+00 0 0 0
152 2 0.0000000000000000e+00 1.8471167162183658e+01 5.7453666200403486e+00 0 0 0
195 2 1.2305000000000001e+00 1.9181596668421495e+01 5.7453666200403486e+00 0 0 0
197 2 2.4610000000000003e+00 1.8471167162183658e+01 5.7453666200403486e+00 0 0 0
448 2 0.0000000000000000e+00 1.9892026174659328e+01 8.8298342221428623e+00 0 0 0
450 2 1.2305000000000001e+00 1.7760737655945832e+01 8.8298342221428623e+00 0 0 0
470 2 1.2305000000000001e+00 1.9181596668421495e+01 8.8298342221428623e+00 0 0 0
471 2 2.4610000000000003e+00 1.9892026174659328e+01 8.8298342221428623e+00 0 0 0
242 2 3.6914999999999996e+00 1.9181596668421495e+01 5.7453666200403486e+00 0 0 0
473 2 3.6914999999999996e+00 1.7760737655945832e+01 8.8298342221428623e+00 0 0 0
494 2 3.6914999999999996e+00 1.9181596668421495e+01 8.8298342221428623e+00 0 0 0
246 2 4.9220000000000006e+00 1.7050308149707998e+01 5.7453666200403486e+00 0 0 0
248 2 6.1524999999999999e+00 1.6339878643470165e+01 5.7453666200403486e+00 0 0 0
496 2 4.9220000000000006e+00 1.7050308149707998e+01 8.8298342221428623e+00 0 0 0
293 2 7.3830000000000009e+00 1.7050308149707998e+01 5.7453666200403486e+00 0 0 0
520 2 7.3830000000000009e+00 1.7050308149707998e+01 8.8298342221428623e+00 0 0 0
244 2 4.9220000000000006e+00 1.8471167162183658e+01 5.7453666200403486e+00 0 0 0
289 2 6.1524999999999999e+00 1.9181596668421495e+01 5.7453666200403486e+00 0 0 0
495 2 4.9220000000000006e+00 1.9892026174659328e+01 8.8298342221428623e+00 0 0 0
497 2 6.1524999999999999e+00 1.7760737655945832e+01 8.8298342221428623e+00 0 0 0
518 2 6.1524999999999999e+00 1.9181596668421495e+01 8.8298342221428623e+00 0 0 0
291 2 7.3829999999999991e+00 1.8471167162183658e+01 5.7453666200403486e+00 0 0 0
519 2 7.3829999999999991e+00 1.9892026174659328e+01 8.8298342221428623e+00 0 0 0
193 2 1.2305000000000001e+00 2.0602455680897162e+01 5.7453666200403486e+00 0 0 0
240 2 3.6915000000000004e+00 2.0602455680897162e+01 5.7453666200403486e+00 0 0 0
189 2 0.0000000000000000e+00 2.2733744199610655e+01 5.7453666200403486e+00 0 0 0
191 2 0.0000000000000000e+00 2.1312885187134999e+01 5.7453666200403486e+00 0 0 0
234 2 1.2304999999999993e+00 2.3444173705848499e+01 5.7453666200403486e+00 0 0 0
236 2 2.4610000000000003e+00 2.2733744199610655e+01 5.7453666200403486e+00 0 0 0
238 2 2.4610000000000003e+00 2.1312885187134995e+01 5.7453666200403486e+00 0 0 0
467 2 0.0000000000000000e+00 2.4154603212086325e+01 8.8298342221428623e+00 0 0 0
468 2 0.0000000000000000e+00 2.1312885187134999e+01 8.8298342221428623e+00 0 0 0
469 2 1.2304999999999993e+00 2.2023314693372832e+01 8.8298342221428623e+00 0 0 0
490 2 1.2304999999999993e+00 2.3444173705848499e+01 8.8298342221428623e+00 0 0 0
491 2 2.4610000000000003e+00 2.4154603212086325e+01 8.8298342221428623e+00 0 0 0
492 2 2.4610000000000003e+00 2.1312885187134995e+01 8.8298342221428623e+00 0 0 0
281 2 3.6915000000000004e+00 2.3444173705848499e+01 5.7453666200403486e+00 0 0 0
493 2 3.6914999999999996e+00 2.2023314693372832e+01 8.8298342221428623e+00 0 0 0
514 2 3.6915000000000004e+00 2.3444173705848499e+01 8.8298342221428623e+00 0 0 0
287 2 6.1524999999999999e+00 2.0602455680897162e+01 5.7453666200403486e+00 0 0 0
283 2 4.9220000000000006e+00 2.2733744199610655e+01 5.7453666200403486e+00 0 0 0
285 2 4.9220000000000006e+00 2.1312885187134995e+01 5.7453666200403486e+00 0 0 0
323 2 6.1524999999999999e+00 2.3444173705848499e+01 5.7453666200403486e+00 0 0 0
515 2 4.9220000000000006e+00 2.4154603212086325e+01 8.8298342221428623e+00 0 0 0
516 2 4.9220000000000006e+00 2.1312885187134995e+01 8.8298342221428623e+00 0 0 0
517 2 6.1524999999999990e+00 2.2023314693372832e+01 8.8298342221428623e+00 0 0 0
535 2 6.1524999999999999e+00 2.3444173705848499e+01 8.8298342221428623e+00 0 0 0
325 2 7.3829999999999991e+00 2.2733744199610655e+01 5.7453666200403486e+00 0 0 0
327 2 7.3829999999999991e+00 2.1312885187134999e+01 5.7453666200403486e+00 0 0 0
536 2 7.3830000000000009e+00 2.4154603212086336e+01 8.8298342221428623e+00 0 0 0
537 2 7.3829999999999991e+00 2.1312885187134999e+01 8.8298342221428623e+00 0 0 0
886 1 1.4984554521424662e+00 1.5235904307491943e+01 1.1585539927967211e+01 0 1 -1
1864 1 3.8281708639892069e+00 1.3356632925756907e+01 1.1834173990845292e+01 1 -1 0
3913 1 6.5195011916707868e+00 1.3418677375338918e+01 1.1484291246093370e+01 3 0 0
2979 1 7.0589307263185752e+00 1.6022524939396579e+01 1.1345327891575540e+01 1 2 -1
3854 1 2.4075230973257837e+00 1.7728747425259684e+01 1.0915293206318010e+01 2 1 0
3146 1 1.2772154074256394e+00 2.0256172434565002e+01 1.1745874377170946e+01 2 1 0
2938 1 5.1450800900043321e+00 1.7973970462371760e+01 1.1327410726271768e+01 -1 0 0
2977 1 3.4687455102225031e+00 2.2058940579360229e+01 1.1486124696223605e+01 -2 -1 0
1003 1 5.8165788030235648e+00 2.0511221312824770e+01 1.1328762939434650e+01 1 1 -2
3035 1 4.0849523029114412e+00 1.3009515398911621e+01 1.4982280319451677e+01 0 -1 0
3015 1 4.0101367963832653e+00 1.3040612559032727e+01 1.7960888534626715e+01 -1 2 0
2914 1 1.9420383287340992e+00 1.4855415179205099e+01 1.4191933473738262e+01 -1 0 0
1819 1 7.2728890926716829e+00 1.6072505138764367e+01 1.4910354027501180e+01 2 3 0
2823 1 6.7117004020848832e+00 1.3387337407780660e+01 1.4261785973478348e+01 3 -2 -1
2044 1 2.8146691629679124e+00 1.7288871841238770e+01 1.5271320582773001e+01 6 1 -2
2054 1 2.8247221069618043e+00 1.7354547863570929e+01 1.8146945169333563e+01 2 -1 1
951 1 9.7440407426434350e-01 1.9044746496349553e+01 1.4190782921440343e+01 0 1 0
2966 1 7.0757006028486176e+00 1.6174142869985737e+01 1.7683848882263945e+01 0 4 1
987 1 5.2127143554693989e+00 1.7891837261624232e+01 1.4059439095997334e+01 -1 0 -1
842 1 6.2715900855945632e+00 2.0114300956022294e+01 1.5361649688687823e+01 0 -1 0
3094 1 1.5991592704848585e+00 2.1440899855094962e+01 1.5306228362169565e+01 3 1 0
1885 1 4.2460984812924103e+00 2.2002127879600486e+01 1.4459580545420582e+01 3 3 0
938 1 1.2170264108739088e+00 2.1583955756388544e+01 1.8062725380510184e+01 0 2 0
3979 1 5.8693400122284647e+00 2.0622396865895748e+01 1.8125090762297674e+01 2 -3 1
959 1 6.8308618733418296e+00 2.3928582762654099e+01 2.5415372301719820e+01 0 -2 -1
958 1 4.4923426437545348e+00 1.5716405653034677e+01 2.1719253560571719e+01 -1 0 0
3842 1 4.7667658503341030e+00 1.5428320262689740e+01 1.8847883487012655e+01 0 0 0
3852 1 6.2073105568350542e+00 1.3591981132050618e+01 2.2283636910225443e+01 0 0 -1
3928 1 3.1738223550933466e+00 1.9921979087891906e+01 2.1915443607715073e+01 1 1 0
3839 1 3.4101379977792905e+00 1.9859814001844235e+01 1.9157308335844576e+01 -5 0 0
3800 1 4.2913206598409657e+00 2.2404047546102635e+01 2.3002823200512225e+01 -1 -4 1
782 1 7.1756319394162615e-01 1.8820992984494200e+01 2.3026442334824683e+01 4 -2 1
1832 1 7.8219091628831974e+00 1.9025341164961571e+01 2.5868242036276708e+01 1 5 -1
922 1 1.7969594382023107e-01 1.7408775147021554e+01 2.5617075842703514e+01 -2 0 -1
2880 1 5.4830379775153171e+00 1.8165468864550704e+01 2.2524722716142556e+01 4 -3 -1
3811 1 2.8619715217966091e-01 1.6422008552550793e+01 1.8662211925337438e+01 3 0 0
39 1 2.2012185509944393e+00 2.3878036530680504e+01 2.2047991536463730e+01 2 1 0
2980 1 5.4090040383544409e+00 1.8258893686887152e+01 2.5128432792237884e+01 0 -1 0
948 1 6.6327625876511709e+00 2.3160644842598771e+01 2.1918397752995919e+01 1 -3 0
879 1 6.7780318515977047e+00 2.2967965093625409e+01 1.8943452362603111e+01 0 -1 1
3027 1 1.9687851529368743e+00 1.5080000625588552e+01 2.2495159961810771e+01 3 3 1
2927 1 1.9417628445266577e+00 1.5271124411348714e+01 2.5187988283718127e+01 1 2 0
1061 1 4.6176825309212992e+00 1.5602925420930429e+01 2.5816838064132519e+01 3 0 1
3117 1 6.3837113436188400e+00 1.3628431295695275e+01 2.4831875450566653e+01 2 -3 0
2106 1 2.3267158123510248e+00 2.4022663859284979e+01 1.9051470707124313e+01 2 -1 1
3929 1 8.3268789040686564e-01 2.0261814863804059e+01 2.5832728782244015e+01 -1 -3 0
3032 1 3.7092196787594998e+00 2.0424216469800694e+01 2.5707981368390463e+01 -3 1 1
3935 1 4.0619031391578648e+00 2.3563389194885083e+01 2.5579983053518887e+01 -2 0 0
3042 1 1.2557539126998185e+00 1.2528258674371401e+01 2.5801827398163084e+01 0 -1 -1
836 1 7.8545084130178280e+00 1.8931853561595481e+01 2.1491167960374931e+01 5 0 1
32 1 7.9112500297988610e+00 1.8866758325715331e+01 1.8762913797631892e+01 2 1 0
2122 1 5.0830830593741050e+00 2.4406798781568135e+01 1.5240846895041498e+01 0 3 0
1094 1 1.2495206111833075e+00 1.2367822917501901e+01 2.1829246584259902e+01 1 1 0
1794 1 1.5243728968003551e+00 1.2471634329258933e+01 1.9179786321687629e+01 -3 1 -1
1130 2 0.0000000000000000e+00 2.5575462224561992e+01 2.6608990179433798e+00 0 0 0
1132 2 1.2305000000000001e+00 2.6285891730799833e+01 2.6608990179433798e+00 0 0 0
1140 2 1.2305000000000010e+00 2.7706750743275496e+01 2.6608990179433798e+00 0 0 0
1144 2 2.4610000000000003e+00 2.5575462224561992e+01 2.6608990179433798e+00 0 0 0
1146 2 3.6914999999999991e+00 2.6285891730799833e+01 2.6608990179433798e+00 0 0 0
1162 2 3.6914999999999996e+00 2.7706750743275496e+01 2.6608990179433798e+00 0 0 0
1128 2 0.0000000000000000e+00 2.8417180249513333e+01 2.6608990179433798e+00 0 0 0
1142 2 2.4610000000000003e+00 2.8417180249513326e+01 2.6608990179433798e+00 0 0 0
1166 2 4.9220000000000006e+00 2.5575462224561992e+01 2.6608990179433798e+00 0 0 0