LAMMPS data file via write_data, version 16 Mar 2018, timestep = 100000

4065 atoms
2 atom types

0.0000000000000000e+00 4.9219999999999999e+01 xlo xhi
0.0000000000000000e+00 4.9019635930410494e+01 ylo yhi
2.0423752502600792e+00 2.5798456996024136e+01 zlo zhi

Masses

1 18.015
2 12.01

Atoms # atomic

83 2 0.0000000000000000e+00 2.8417180249513345e+00 3.4733292079300790e+00 0 0 0
85 2 0.0000000000000000e+00 0.0000000000000000e+00 3.4733292079300790e+00 0 0 0
87 2 1.2305000000000001e+00 7.1042950623783474e-01 3.4733292079300790e+00 0 0 0
94 2 1.2305000000000001e+00 2.1312885187134998e+00 3.4733292079300790e+00 0 0 0
96 2 2.4610000000000003e+00 2.8417180249513345e+00 3.4733292079300790e+00 0 0 0
98 2 2.4610000000000003e+00 0.0000000000000000e+00 3.4733292079300790e+00 0 0 0
100 2 3.6915000000000004e+00 7.1042950623783474e-01 3.4733292079300790e+00 0 0 0
115 2 3.6914999999999996e+00 2.1312885187134998e+00 3.4733292079300790e+00 0 0 0
117 2 4.9220000000000006e+00 2.8417180249513332e+00 3.4733292079300790e+00 0 0 0
119 2 4.9220000000000006e+00 0.0000000000000000e+00 3.4733292079300790e+00 0 0 0
121 2 6.1524999999999999e+00 7.1042950623783407e-01 3.4733292079300790e+00 0 0 0
144 2 6.1524999999999999e+00 2.1312885187134989e+00 3.4733292079300790e+00 0 0 0
146 2 7.3829999999999991e+00 2.8417180249513345e+00 3.4733292079300790e+00 0 0 0
148 2 7.3829999999999991e+00 0.0000000000000000e+00 3.4733292079300790e+00 0 0 0
90 2 0.0000000000000000e+00 4.2625770374269996e+00 3.4733292079300790e+00 0 0 0
92 2 1.2305000000000001e+00 4.9730065436648339e+00 3.4733292079300790e+00 0 0 0
107 2 1.2305000000000001e+00 6.3938655561404980e+00 3.4733292079300790e+00 0 0 0
111 2 2.4610000000000003e+00 4.2625770374269996e+00 3.4733292079300790e+00 0 0 0
113 2 3.6914999999999996e+00 4.9730065436648339e+00 3.4733292079300790e+00 0 0 0
136 2 3.6914999999999996e+00 6.3938655561404980e+00 3.4733292079300790e+00 0 0 0
88 2 0.0000000000000000e+00 7.1042950623783341e+00 3.4733292079300790e+00 0 0 0
109 2 2.4610000000000003e+00 7.1042950623783341e+00 3.4733292079300790e+00 0 0 0
140 2 4.9220000000000006e+00 4.2625770374269978e+00 3.4733292079300790e+00 0 0 0
142 2 6.1524999999999999e+00 4.9730065436648339e+00 3.4733292079300790e+00 0 0 0
173 2 6.1524999999999999e+00 6.3938655561404980e+00 3.4733292079300790e+00 0 0 0
177 2 7.3829999999999991e+00 4.2625770374269996e+00 3.4733292079300790e+00 0 0 0
138 2 4.9220000000000006e+00 7.1042950623783341e+00 3.4733292079300790e+00 0 0 0
175 2 7.3830000000000009e+00 7.1042950623783341e+00 3.4733292079300790e+00 0 0 0
103 2 0.0000000000000000e+00 8.5251540748539991e+00 3.4733292079300790e+00 0 0 0
105 2 1.2305000000000001e+00 9.2355835810918343e+00 3.4733292079300790e+00 0 0 0
132 2 2.4610000000000003e+00 8.5251540748539991e+00 3.4733292079300790e+00 0 0 0
134 2 3.6915000000000004e+00 9.2355835810918343e+00 3.4733292079300790e+00 0 0 0
101 2 0.0000000000000000e+00 1.1366872099805333e+01 3.4733292079300790e+00 0 0 0
128 2 1.2305000000000001e+00 1.0656442593567498e+01 3.4733292079300790e+00 0 0 0
130 2 2.4610000000000003e+00 1.1366872099805333e+01 3.4733292079300790e+00 0 0 0
165 2 3.6914999999999996e+00 1.0656442593567499e+01 3.4733292079300790e+00 0 0 0
169 2 4.9220000000000006e+00 8.5251540748539991e+00 3.4733292079300790e+00 0 0 0
171 2 6.1524999999999999e+00 9.2355835810918343e+00 3.4733292079300790e+00 0 0 0
214 2 7.3830000000000009e+00 8.5251540748539991e+00 3.4733292079300790e+00 0 0 0
167 2 4.9220000000000006e+00 1.1366872099805333e+01 3.4733292079300790e+00 0 0 0
210 2 6.1524999999999999e+00 1.0656442593567499e+01 3.4733292079300790e+00 0 0 0
212 2 7.3829999999999991e+00 1.1366872099805333e+01 3.4733292079300790e+00 0 0 0
84 2 0.0000000000000000e+00 1.4208590124756650e+00 6.3352371232700166e+00 0 0 0
86 2 0.0000000000000000e+00 0.0000000000000000e+00 6.3352371232700166e+00 0 0 0
95 2 1.2305000000000001e+00 2.1312885187134998e+00 6.3352371232700166e+00 0 0 0
97 2 2.4610000000000003e+00 1.4208590124756650e+00 6.3352371232700166e+00 0 0 0
99 2 2.4610000000000003e+00 0.0000000000000000e+00 6.3352371232700166e+00 0 0 0
412 2 0.0000000000000000e+00 2.8417180249513345e+00 9.1971450386100191e+00 0 0 0
413 2 0.0000000000000000e+00 0.0000000000000000e+00 9.1971450386100191e+00 0 0 0
414 2 1.2305000000000001e+00 7.1042950623783474e-01 9.1971450386100191e+00 0 0 0
418 2 1.2305000000000001e+00 2.1312885187134998e+00 9.1971450386100191e+00 0 0 0
419 2 2.4610000000000003e+00 2.8417180249513345e+00 9.1971450386100191e+00 0 0 0
420 2 2.4610000000000003e+00 0.0000000000000000e+00 9.1971450386100191e+00 0 0 0
116 2 3.6914999999999996e+00 2.1312885187134998e+00 6.3352371232700166e+00 0 0 0
421 2 3.6915000000000004e+00 7.1042950623783474e-01 9.1971450386100191e+00 0 0 0
429 2 3.6914999999999996e+00 2.1312885187134998e+00 9.1971450386100191e+00 0 0 0
93 2 1.2305000000000001e+00 3.5521475311891644e+00 6.3352371232700166e+00 0 0 0
114 2 3.6914999999999996e+00 3.5521475311891644e+00 6.3352371232700166e+00 0 0 0
118 2 4.9220000000000006e+00 1.4208590124756650e+00 6.3352371232700166e+00 0 0 0
120 2 4.9220000000000006e+00 0.0000000000000000e+00 6.3352371232700166e+00 0 0 0
145 2 6.1524999999999999e+00 2.1312885187134989e+00 6.3352371232700166e+00 0 0 0
430 2 4.9220000000000006e+00 2.8417180249513332e+00 9.1971450386100191e+00 0 0 0
431 2 4.9220000000000006e+00 0.0000000000000000e+00 9.1971450386100191e+00 0 0 0
432 2 6.1524999999999999e+00 7.1042950623783407e-01 9.1971450386100191e+00 0 0 0
444 2 6.1524999999999999e+00 2.1312885187134989e+00 9.1971450386100191e+00 0 0 0
147 2 7.3829999999999991e+00 1.4208590124756659e+00 6.3352371232700166e+00 0 0 0
149 2 7.3829999999999991e+00 0.0000000000000000e+00 6.3352371232700166e+00 0 0 0
445 2 7.3829999999999991e+00 2.8417180249513345e+00 9.1971450386100191e+00 0 0 0
446 2 7.3829999999999991e+00 0.0000000000000000e+00 9.1971450386100191e+00 0 0 0
143 2 6.1524999999999999e+00 3.5521475311891644e+00 6.3352371232700166e+00 0 0 0
89 2 0.0000000000000000e+00 5.6834360499026637e+00 6.3352371232700166e+00 0 0 0
91 2 0.0000000000000000e+00 4.2625770374269996e+00 6.3352371232700166e+00 0 0 0
108 2 1.2305000000000001e+00 6.3938655561404980e+00 6.3352371232700166e+00 0 0 0
110 2 2.4610000000000003e+00 5.6834360499026637e+00 6.3352371232700166e+00 0 0 0
112 2 2.4610000000000003e+00 4.2625770374269996e+00 6.3352371232700166e+00 0 0 0
416 2 0.0000000000000000e+00 4.2625770374269996e+00 9.1971450386100191e+00 0 0 0
417 2 1.2305000000000001e+00 4.9730065436648339e+00 9.1971450386100191e+00 0 0 0
425 2 1.2305000000000001e+00 6.3938655561404980e+00 9.1971450386100191e+00 0 0 0
427 2 2.4610000000000003e+00 4.2625770374269996e+00 9.1971450386100191e+00 0 0 0
137 2 3.6914999999999996e+00 6.3938655561404980e+00 6.3352371232700166e+00 0 0 0
428 2 3.6914999999999996e+00 4.9730065436648339e+00 9.1971450386100191e+00 0 0 0
440 2 3.6914999999999996e+00 6.3938655561404980e+00 9.1971450386100191e+00 0 0 0
106 2 1.2305000000000001e+00 7.8147245686161639e+00 6.3352371232700166e+00 0 0 0
415 2 0.0000000000000000e+00 7.1042950623783341e+00 9.1971450386100191e+00 0 0 0
426 2 2.4610000000000003e+00 7.1042950623783341e+00 9.1971450386100191e+00 0 0 0
135 2 3.6914999999999996e+00 7.8147245686161639e+00 6.3352371232700166e+00 0 0 0
139 2 4.9220000000000006e+00 5.6834360499026637e+00 6.3352371232700166e+00 0 0 0
141 2 4.9220000000000006e+00 4.2625770374269978e+00 6.3352371232700166e+00 0 0 0
174 2 6.1524999999999999e+00 6.3938655561404980e+00 6.3352371232700166e+00 0 0 0
442 2 4.9220000000000006e+00 4.2625770374269978e+00 9.1971450386100191e+00 0 0 0
443 2 6.1524999999999999e+00 4.9730065436648339e+00 9.1971450386100191e+00 0 0 0
459 2 6.1524999999999999e+00 6.3938655561404980e+00 9.1971450386100191e+00 0 0 0
176 2 7.3829999999999991e+00 5.6834360499026637e+00 6.3352371232700166e+00 0 0 0
178 2 7.3829999999999991e+00 4.2625770374269996e+00 6.3352371232700166e+00 0 0 0
461 2 7.3829999999999991e+00 4.2625770374269996e+00 9.1971450386100191e+00 0 0 0
172 2 6.1524999999999999e+00 7.8147245686161639e+00 6.3352371232700166e+00 0 0 0
441 2 4.9220000000000006e+00 7.1042950623783341e+00 9.1971450386100191e+00 0 0 0
460 2 7.3830000000000009e+00 7.1042950623783341e+00 9.1971450386100191e+00 0 0 0
102 2 0.0000000000000000e+00 9.9460130873296642e+00 6.3352371232700166e+00 0 0 0
104 2 0.0000000000000000e+00 8.5251540748539991e+00 6.3352371232700166e+00 0 0 0
131 2 2.4610000000000003e+00 9.9460130873296642e+00 6.3352371232700166e+00 0 0 0
133 2 2.4610000000000003e+00 8.5251540748539991e+00 6.3352371232700166e+00 0 0 0
423 2 0.0000000000000000e+00 8.5251540748539991e+00 9.1971450386100191e+00 0 0 0
424 2 1.2305000000000001e+00 9.2355835810918343e+00 9.1971450386100191e+00 0 0 0
438 2 2.4610000000000003e+00 8.5251540748539991e+00 9.1971450386100191e+00 0 0 0
439 2 3.6915000000000004e+00 9.2355835810918343e+00 9.1971450386100191e+00 0 0 0
127 2 1.2305000000000001e+00 1.2077301606043163e+01 6.3352371232700166e+00 0 0 0
129 2 1.2305000000000001e+00 1.0656442593567498e+01 6.3352371232700166e+00 0 0 0
422 2 0.0000000000000000e+00 1.1366872099805333e+01 9.1971450386100191e+00 0 0 0
436 2 1.2305000000000001e+00 1.0656442593567498e+01 9.1971450386100191e+00 0 0 0
437 2 2.4610000000000003e+00 1.1366872099805333e+01 9.1971450386100191e+00 0 0 0
164 2 3.6914999999999996e+00 1.2077301606043163e+01 6.3352371232700166e+00 0 0 0
166 2 3.6914999999999996e+00 1.0656442593567499e+01 6.3352371232700166e+00 0 0 0
455 2 3.6914999999999996e+00 1.0656442593567499e+01 9.1971450386100191e+00 0 0 0
168 2 4.9220000000000006e+00 9.9460130873296642e+00 6.3352371232700166e+00 0 0 0
170 2 4.9220000000000006e+00 8.5251540748539991e+00 6.3352371232700166e+00 0 0 0
457 2 4.9220000000000006e+00 8.5251540748539991e+00 9.1971450386100191e+00 0 0 0
458 2 6.1524999999999999e+00 9.2355835810918343e+00 9.1971450386100191e+00 0 0 0
213 2 7.3830000000000009e+00 9.9460130873296642e+00 6.3352371232700166e+00 0 0 0
215 2 7.3830000000000009e+00 8.5251540748539991e+00 6.3352371232700166e+00 0 0 0
480 2 7.3830000000000009e+00 8.5251540748539991e+00 9.1971450386100191e+00 0 0 0
209 2 6.1524999999999999e+00 1.2077301606043163e+01 6.3352371232700166e+00 0 0 0
211 2 6.1524999999999999e+00 1.0656442593567499e+01 6.3352371232700166e+00 0 0 0
456 2 4.9220000000000006e+00 1.1366872099805333e+01 9.1971450386100191e+00 0 0 0
478 2 6.1524999999999999e+00 1.0656442593567499e+01 9.1971450386100191e+00 0 0 0
479 2 7.3829999999999991e+00 1.1366872099805333e+01 9.1971450386100191e+00 0 0 0
2881 1 2.9762855648006710e+00 2.5714708458240869e+00 1.1773866445506721e+01 1 1 0
3063 1 5.0334549263937980e+00 9.6069331247914853e+00 1.1921381528944304e+01 0 1 -2
4035 1 5.8347830977901260e+00 3.0818554541116034e+00 1.1509643000843958e+01 0 1 0
3958 1 6.9396912113355738e+00 4.9671710282329107e-01 1.1718322474643159e+01 1 1 0
2034 1 5.9272898362288817e-01 4.0139756488466247e+00 1.1896261520200632e+01 2 0 -1
1844 1 5.0364971053702350e+00 6.9577744629008906e+00 1.1632388153385088e+01 1 1 1
1813 1 7.8512347329944090e+00 5.4929923960273079e+00 1.1934764384229247e+01 1 1 0
3097 1 2.2505710210185503e+00 6.2506065701585305e+00 1.2049188138466059e+01 0 1 0
1092 1 2.4572782622811431e+00 1.0506332687823688e+01 1.1727372355836126e+01 0 0 -1
2854 1 9.7846897849059455e-01 6.5026949905918230e-01 1.1760997871454613e+01 1 0 0
2929 1 5.8539418697243073e-01 8.4881008804828824e+00 1.2005575354664147e+01 2 0 0
2835 1 3.0584465459036347e+00 2.2354092854728753e+00 1.4767762653183395e+01 1 1 0
1981 1 8.0005084771745349e-01 1.0683058056827161e+01 1.6830460441641055e+01 1 0 0
24 1 5.3983439542267178e+00 3.6027186108096978e+00 1.4339304944884496e+01 -1 1 -1
1833 1 4.5610949418321156e-01 4.2744185518213484e+00 2.4836220704213499e+01 0 2 0
3054 1 1.8096720236541599e+00 6.1960428916745789e+00 1.5483214060222663e+01 0 0 0
2090 1 7.8337794648822190e-01 3.9336553757606820e+00 1.4673703639759884e+01 1 0 0
2002 1 2.9467830852018202e+00 2.2229910318177510e+00 1.7654301749443132e+01 0 -1 0
907 1 4.7959740219700935e+00 6.2216186159364675e+00 1.4426328625090592e+01 0 2 0
4029 1 5.1572968876512126e+00 6.9971840226146096e+00 1.7516199959655658e+01 1 1 1
2849 1 3.5721554643826332e+00 8.6598964699988752e+00 2.3916051125275011e+01 0 0 0
2046 1 7.4867046162279749e+00 2.4085017527365853e+00 2.4339220054687086e+01 0 1 1
1917 1 7.9710757775273917e+00 6.3245429329223466e+00 1.4709620695375710e+01 0 0 -1
11 1 6.7361463247868363e+00 8.8431044382765034e+00 1.4311990057193222e+01 0 0 0
1848 1 4.1479835893947445e+00 1.0299259869992678e+01 2.1581457379948528e+01 1 0 1
1019 1 8.6648484812721338e-01 3.2949525947366798e+00 2.0061324523718174e+01 0 1 1
1887 1 9.8493236171323939e-01 5.6902823472215092e-01 1.9621322034213993e+01 1 1 -1
2972 1 3.1497017274599224e+00 2.7672011707800959e+00 2.1805560637998507e+01 1 0 0
1920 1 7.5126064133514658e+00 3.2794811730390383e+00 1.6190775289665492e+01 0 0 2
64 1 1.8508075798199781e+00 1.0868775356538309e+01 2.4959787643931342e+01 0 1 1
860 1 2.2530010280880393e+00 5.1890052710241656e+00 1.8032299191613991e+01 1 2 -1
1788 1 4.3801077701112963e+00 5.7375231795542536e+00 1.9696741915609760e+01 1 1 -1
3815 1 4.7810618580848736e+00 2.8839612874451439e+00 1.9662887504439606e+01 0 1 0
2891 1 6.4010661198951491e+00 6.7430268466450061e+00 2.1896872611745977e+01 1 0 0
1859 1 4.8504502130465887e+00 9.9357410990179407e+00 1.6537417806358405e+01 1 0 0
2072 1 2.1223067621223572e+00 1.1155901525930581e+01 2.0192806751826740e+01 0 0 0
1117 1 2.5199416204370015e+00 9.1373060452065769e+00 1.8081246314405867e+01 1 0 0
950 1 6.7733609964637145e+00 1.2771009179145156e+00 1.8018053596776582e+01 1 0 0
2043 1 6.1188636308267599e+00 8.7840952264123260e+00 2.0049511489246861e+01 0 -1 0
2822 1 3.0821408890021238e+00 1.1219513478048638e+01 1.4604759969989049e+01 0 0 0
4002 1 1.7935548110381241e+00 5.7307131508905256e+00 2.1699656146577837e+01 1 2 0
1967 1 2.7432241253131222e+00 2.7267712226358038e+00 2.4814856415948345e+01 1 0 1
2872 1 1.0829777466756343e+00 7.2986288050199386e+00 1.9531492231454052e+01 1 0 0
1997 1 6.9708893931487799e+00 2.4215015418108723e+00 2.1458678604343454e+01 0 0 0
2826 1 5.1495803630146462e+00 3.9776797718771904e+00 2.4036829747854796e+01 1 1 0
1989 1 1.1825882171157855e+00 6.9680902181972471e+00 2.4357984947489410e+01 0 1 -1
1125 1 5.5122165259560187e+00 1.1028148758592385e+01 2.4331333726460329e+01 2 1 0
4006 1 6.3097239766623199e+00 1.1653226795979810e+01 1.8515465472501674e+01 0 0 -1
2952 1 5.3189321226256103e+00 6.7627948730239655e+00 2.4488422431162213e+01 1 0 1
3044 1 7.7088458354707550e+00 6.4053434340895228e+00 1.7715872940977096e+01 -1 1 0
2992 1 7.0521417367946828e+00 1.8382230114255549e-01 1.4355133257840796e+01 1 0 -1
3124 1 2.1501051919584855e+00 7.3846775470371995e-03 2.4424815979847775e+01 1 1 0
854 1 2.5785959068243813e+00 4.4232472329341022e-02 2.1834352449452663e+01 0 1 -2
124 2 0.0000000000000000e+00 1.2787731112280996e+01 3.4733292079300790e+00 0 0 0
126 2 1.2305000000000001e+00 1.3498160618518829e+01 3.4733292079300790e+00 0 0 0
161 2 2.4610000000000003e+00 1.2787731112280996e+01 3.4733292079300790e+00 0 0 0
163 2 3.6915000000000004e+00 1.3498160618518829e+01 3.4733292079300790e+00 0 0 0
122 2 0.0000000000000000e+00 1.5629449137232333e+01 3.4733292079300790e+00 0 0 0
157 2 1.2305000000000001e+00 1.4919019630994494e+01 3.4733292079300790e+00 0 0 0
159 2 2.4610000000000003e+00 1.5629449137232328e+01 3.4733292079300790e+00 0 0 0
202 2 3.6915000000000004e+00 1.4919019630994494e+01 3.4733292079300790e+00 0 0 0
206 2 4.9220000000000006e+00 1.2787731112280996e+01 3.4733292079300790e+00 0 0 0
208 2 6.1524999999999990e+00 1.3498160618518829e+01 3.4733292079300790e+00 0 0 0
253 2 7.3829999999999991e+00 1.2787731112280996e+01 3.4733292079300790e+00 0 0 0
204 2 4.9220000000000006e+00 1.5629449137232333e+01 3.4733292079300790e+00 0 0 0
249 2 6.1524999999999990e+00 1.4919019630994494e+01 3.4733292079300790e+00 0 0 0
251 2 7.3829999999999991e+00 1.5629449137232333e+01 3.4733292079300790e+00 0 0 0
153 2 0.0000000000000000e+00 1.7050308149707998e+01 3.4733292079300790e+00 0 0 0
198 2 2.4610000000000003e+00 1.7050308149707998e+01 3.4733292079300790e+00 0 0 0
151 2 0.0000000000000000e+00 1.9892026174659328e+01 3.4733292079300790e+00 0 0 0
155 2 1.2305000000000001e+00 1.7760737655945832e+01 3.4733292079300790e+00 0 0 0
194 2 1.2305000000000001e+00 1.9181596668421495e+01 3.4733292079300790e+00 0 0 0
196 2 2.4610000000000003e+00 1.9892026174659328e+01 3.4733292079300790e+00 0 0 0
200 2 3.6914999999999996e+00 1.7760737655945832e+01 3.4733292079300790e+00 0 0 0
241 2 3.6914999999999996e+00 1.9181596668421495e+01 3.4733292079300790e+00 0 0 0
245 2 4.9220000000000006e+00 1.7050308149707998e+01 3.4733292079300790e+00 0 0 0
292 2 7.3830000000000009e+00 1.7050308149707998e+01 3.4733292079300790e+00 0 0 0
243 2 4.9220000000000006e+00 1.9892026174659328e+01 3.4733292079300790e+00 0 0 0
247 2 6.1524999999999999e+00 1.7760737655945832e+01 3.4733292079300790e+00 0 0 0
288 2 6.1524999999999999e+00 1.9181596668421495e+01 3.4733292079300790e+00 0 0 0
290 2 7.3829999999999991e+00 1.9892026174659328e+01 3.4733292079300790e+00 0 0 0
188 2 0.0000000000000000e+00 2.4154603212086325e+01 3.4733292079300790e+00 0 0 0
190 2 0.0000000000000000e+00 2.1312885187134999e+01 3.4733292079300790e+00 0 0 0
192 2 1.2304999999999993e+00 2.2023314693372832e+01 3.4733292079300790e+00 0 0 0
233 2 1.2304999999999993e+00 2.3444173705848499e+01 3.4733292079300790e+00 0 0 0
235 2 2.4610000000000003e+00 2.4154603212086325e+01 3.4733292079300790e+00 0 0 0
237 2 2.4610000000000003e+00 2.1312885187134995e+01 3.4733292079300790e+00 0 0 0
239 2 3.6914999999999996e+00 2.2023314693372832e+01 3.4733292079300790e+00 0 0 0
280 2 3.6915000000000004e+00 2.3444173705848499e+01 3.4733292079300790e+00 0 0 0
282 2 4.9220000000000006e+00 2.4154603212086325e+01 3.4733292079300790e+00 0 0 0
284 2 4.9220000000000006e+00 2.1312885187134995e+01 3.4733292079300790e+00 0 0 0
286 2 6.1524999999999990e+00 2.2023314693372832e+01 3.4733292079300790e+00 0 0 0
322 2 6.1524999999999999e+00 2.3444173705848499e+01 3.4733292079300790e+00 0 0 0
324 2 7.3830000000000009e+00 2.4154603212086336e+01 3.4733292079300790e+00 0 0 0
326 2 7.3829999999999991e+00 2.1312885187134999e+01 3.4733292079300790e+00 0 0 0
125 2 0.0000000000000000e+00 1.2787731112280996e+01 6.3352371232700166e+00 0 0 0
162 2 2.4610000000000003e+00 1.2787731112280996e+01 6.3352371232700166e+00 0 0 0
434 2 0.0000000000000000e+00 1.2787731112280996e+01 9.1971450386100191e+00 0 0 0
435 2 1.2305000000000001e+00 1.3498160618518829e+01 9.1971450386100191e+00 0 0 0
453 2 2.4610000000000003e+00 1.2787731112280996e+01 9.1971450386100191e+00 0 0 0
454 2 3.6915000000000004e+00 1.3498160618518829e+01 9.1971450386100191e+00 0 0 0
123 2 0.0000000000000000e+00 1.4208590124756663e+01 6.3352371232700166e+00 0 0 0
158 2 1.2305000000000001e+00 1.4919019630994494e+01 6.3352371232700166e+00 0 0 0
160 2 2.4610000000000003e+00 1.4208590124756663e+01 6.3352371232700166e+00 0 0 0
433 2 0.0000000000000000e+00 1.5629449137232333e+01 9.1971450386100191e+00 0 0 0
451 2 1.2305000000000001e+00 1.4919019630994494e+01 9.1971450386100191e+00 0 0 0
452 2 2.4610000000000003e+00 1.5629449137232328e+01 9.1971450386100191e+00 0 0 0
203 2 3.6915000000000004e+00 1.4919019630994494e+01 6.3352371232700166e+00 0 0 0
474 2 3.6915000000000004e+00 1.4919019630994494e+01 9.1971450386100191e+00 0 0 0
207 2 4.9220000000000006e+00 1.2787731112280996e+01 6.3352371232700166e+00 0 0 0
476 2 4.9220000000000006e+00 1.2787731112280996e+01 9.1971450386100191e+00 0 0 0
477 2 6.1524999999999990e+00 1.3498160618518829e+01 9.1971450386100191e+00 0 0 0
254 2 7.3829999999999991e+00 1.2787731112280996e+01 6.3352371232700166e+00 0 0 0
500 2 7.3829999999999991e+00 1.2787731112280996e+01 9.1971450386100191e+00 0 0 0
205 2 4.9220000000000006e+00 1.4208590124756663e+01 6.3352371232700166e+00 0 0 0
250 2 6.1524999999999990e+00 1.4919019630994494e+01 6.3352371232700166e+00 0 0 0
475 2 4.9220000000000006e+00 1.5629449137232333e+01 9.1971450386100191e+00 0 0 0
498 2 6.1524999999999990e+00 1.4919019630994494e+01 9.1971450386100191e+00 0 0 0
252 2 7.3830000000000009e+00 1.4208590124756663e+01 6.3352371232700166e+00 0 0 0
499 2 7.3829999999999991e+00 1.5629449137232333e+01 9.1971450386100191e+00 0 0 0
154 2 0.0000000000000000e+00 1.7050308149707998e+01 6.3352371232700166e+00 0 0 0
156 2 1.2305000000000001e+00 1.6339878643470165e+01 6.3352371232700166e+00 0 0 0
199 2 2.4610000000000003e+00 1.7050308149707998e+01 6.3352371232700166e+00 0 0 0
449 2 0.0000000000000000e+00 1.7050308149707998e+01 9.1971450386100191e+00 0 0 0
472 2 2.4610000000000003e+00 1.7050308149707998e+01 9.1971450386100191e+00 0 0 0
201 2 3.6915000000000004e+00 1.6339878643470165e+01 6.3352371232700166e+00 0 0 0
152 2 0.0000000000000000e+00 1.8471167162183658e+01 6.3352371232700166e+00 0 0 0
195 2 1.2305000000000001e+00 1.9181596668421495e+01 6.3352371232700166e+00 0 0 0
197 2 2.4610000000000003e+00 1.8471167162183658e+01 6.3352371232700166e+00 0 0 0
448 2 0.0000000000000000e+00 1.9892026174659328e+01 9.1971450386100191e+00 0 0 0
450 2 1.2305000000000001e+00 1.7760737655945832e+01 9.1971450386100191e+00 0 0 0
470 2 1.2305000000000001e+00 1.9181596668421495e+01 9.1971450386100191e+00 0 0 0
471 2 2.4610000000000003e+00 1.9892026174659328e+01 9.1971450386100191e+00 0 0 0
242 2 3.6914999999999996e+00 1.9181596668421495e+01 6.3352371232700166e+00 0 0 0
473 2 3.6914999999999996e+00 1.7760737655945832e+01 9.1971450386100191e+00 0 0 0
494 2 3.6914999999999996e+00 1.9181596668421495e+01 9.1971450386100191e+00 0 0 0
246 2 4.9220000000000006e+00 1.7050308149707998e+01 6.3352371232700166e+00 0 0 0
248 2 6.1524999999999999e+00 1.6339878643470165e+01 6.3352371232700166e+00 0 0 0
496 2 4.9220000000000006e+00 1.7050308149707998e+01 9.1971450386100191e+00 0 0 0
293 2 7.3830000000000009e+00 1.7050308149707998e+01 6.3352371232700166e+00 0 0 0
520 2 7.3830000000000009e+00 1.7050308149707998e+01 9.1971450386100191e+00 0 0 0
244 2 4.9220000000000006e+00 1.8471167162183658e+01 6.3352371232700166e+00 0 0 0
289 2 6.1524999999999999e+00 1.9181596668421495e+01 6.3352371232700166e+00 0 0 0
495 2 4.9220000000000006e+00 1.9892026174659328e+01 9.1971450386100191e+00 0 0 0
497 2 6.1524999999999999e+00 1.7760737655945832e+01 9.1971450386100191e+00 0 0 0
518 2 6.1524999999999999e+00 1.9181596668421495e+01 9.1971450386100191e+00 0 0 0
291 2 7.3829999999999991e+00 1.8471167162183658e+01 6.3352371232700166e+00 0 0 0
519 2 7.3829999999999991e+00 1.9892026174659328e+01 9.1971450386100191e+00 0 0 0
193 2 1.2305000000000001e+00 2.0602455680897162e+01 6.3352371232700166e+00 0 0 0
240 2 3.6915000000000004e+00 2.0602455680897162e+01 6.3352371232700166e+00 0 0 0
189 2 0.0000000000000000e+00 2.2733744199610655e+01 6.3352371232700166e+00 0 0 0
191 2 0.0000000000000000e+00 2.1312885187134999e+01 6.3352371232700166e+00 0 0 0
234 2 1.2304999999999993e+00 2.3444173705848499e+01 6.3352371232700166e+00 0 0 0
236 2 2.4610000000000003e+00 2.2733744199610655e+01 6.3352371232700166e+00 0 0 0
238 2 2.4610000000000003e+00 2.1312885187134995e+01 6.3352371232700166e+00 0 0 0
467 2 0.0000000000000000e+00 2.4154603212086325e+01 9.1971450386100191e+00 0 0 0
468 2 0.0000000000000000e+00 2.1312885187134999e+01 9.1971450386100191e+00 0 0 0
469 2 1.2304999999999993e+00 2.2023314693372832e+01 9.1971450386100191e+00 0 0 0
490 2 1.2304999999999993e+00 2.3444173705848499e+01 9.1971450386100191e+00 0 0 0
491 2 2.4610000000000003e+00 2.4154603212086325e+01 9.1971450386100191e+00 0 0 0
492 2 2.4610000000000003e+00 2.1312885187134995e+01 9.1971450386100191e+00 0 0 0
281 2 3.6915000000000004e+00 2.3444173705848499e+01 6.3352371232700166e+00 0 0 0
493 2 3.6914999999999996e+00 2.2023314693372832e+01 9.1971450386100191e+00 0 0 0
514 2 3.6915000000000004e+00 2.3444173705848499e+01 9.1971450386100191e+00 0 0 0
287 2 6.1524999999999999e+00 2.0602455680897162e+01 6.3352371232700166e+00 0 0 0
283 2 4.9220000000000006e+00 2.2733744199610655e+01 6.3352371232700166e+00 0 0 0
285 2 4.9220000000000006e+00 2.1312885187134995e+01 6.3352371232700166e+00 0 0 0
323 2 6.1524999999999999e+00 2.3444173705848499e+01 6.3352371232700166e+00 0 0 0
515 2 4.9220000000000006e+00 2.4154603212086325e+01 9.1971450386100191e+00 0 0 0
516 2 4.9220000000000006e+00 2.1312885187134995e+01 9.1971450386100191e+00 0 0 0
517 2 6.1524999999999990e+00 2.2023314693372832e+01 9.1971450386100191e+00 0 0 0
535 2 6.1524999999999999e+00 2.3444173705848499e+01 9.1971450386100191e+00 0 0 0
325 2 7.3829999999999991e+00 2.2733744199610655e+01 6.3352371232700166e+00 0 0 0
327 2 7.3829999999999991e+00 2.1312885187134999e+01 6.3352371232700166e+00 0 0 0
536 2 7.3830000000000009e+00 2.4154603212086336e+01 9.1971450386100191e+00 0 0 0
537 2 7.3829999999999991e+00 2.1312885187134999e+01 9.1971450386100191e+00 0 0 0
2120 1 3.4977741900151988e+00 1.9996607773459552e+01 1.1454280943793604e+01 1 1 1
1922 1 5.4935881661148054e+00 1.9159529026966812e+01 1.3386451790096814e+01 1 -1 -1
2927 1 5.9423687949864705e+00 1.5346237378542101e+01 1.1879503018420426e+01 1 0 0
3004 1 7.5626405244710107e+00 2.0436207345591303e+01 1.1689293150059603e+01 1 0 1
3934 1 2.1846722473782010e+00 1.7383757379781553e+01 1.1961831771889766e+01 1 0 0
2902 1 3.1529557773134642e+00 1.5037527598626214e+01 1.1594367308827010e+01 0 0 -1
26 1 2.8068041431307575e+00 2.2564320853216110e+01 1.2468866314396353e+01 1 -1 1
3949 1 7.5866894608141902e+00 2.3627877627223281e+01 1.1885754208434369e+01 1 0 0
2913 1 7.8886679708936236e-01 1.3071214534393276e+01 1.2104172600431516e+01 1 0 0
2044 1 5.3945373764182927e+00 2.2493668874768630e+01 1.3710247555922003e+01 1 0 -2
3839 1 6.3314853165465514e+00 1.2491180213307793e+01 1.1595992071440675e+01 0 1 0
1824 1 1.4425904496891071e+00 1.7909311334825389e+01 1.7195373579216970e+01 1 0 0
1874 1 3.8527402755454259e+00 1.3547512920365561e+01 1.8738011342658584e+01 1 0 2
3987 1 3.6454120315549776e+00 1.4990144648393704e+01 1.4782926216484087e+01 1 1 1
792 1 6.9951919951467092e+00 1.3031314287395544e+01 1.6218062548880233e+01 1 0 -2
2922 1 7.5644390747729924e+00 2.1230032840576566e+01 1.4938829561562951e+01 0 0 0
1062 1 7.5239052827575383e+00 2.3560724153333886e+01 2.1774579990900047e+01 1 0 0
961 1 2.6857864508935232e+00 1.7815128493054448e+01 1.4568432561402894e+01 0 1 0
937 1 5.3365313897035662e+00 1.2859802088464125e+01 1.4203263013335834e+01 0 1 0
4041 1 6.0617224268239678e+00 1.5474180530515838e+01 1.7728246333834051e+01 -1 1 0
1964 1 2.0673967253559193e+00 2.2135201659127041e+01 1.5266833726656452e+01 0 0 0
3903 1 3.8102594813222641e+00 1.9991785295727261e+01 1.5680646180902688e+01 0 0 -1
2977 1 7.5006551111025175e+00 2.2983333649121043e+01 2.4604618105753062e+01 0 0 0
3070 1 7.6678697404118312e-01 2.0013293148621624e+01 1.8899373854902151e+01 0 0 0
2951 1 7.6862399743812819e+00 1.6429301177777088e+01 2.0281960465760527e+01 0 0 0
968 1 5.4352277239233624e+00 2.3862150850979251e+01 1.6175210845730330e+01 0 0 -1
844 1 4.3431153332914674e+00 2.3124203808062092e+01 2.4155549688566367e+01 0 1 -1
784 1 2.5075854962754325e+00 1.6663820664994475e+01 2.1825727326089844e+01 1 0 -1
1124 1 5.2087825774762688e+00 1.7347699132534299e+01 2.1517796003929323e+01 -1 -1 0
3951 1 3.8615175218778899e+00 1.7153756835214434e+01 1.8805233202397339e+01 0 0 -1
915 1 3.0012547280785991e+00 1.3498161907821451e+01 2.4202194027663221e+01 0 1 0
1801 1 7.3887371612319663e+00 1.8256677120746861e+01 2.4139510292449611e+01 1 1 0
1962 1 4.3114057496550489e+00 1.9750451931886158e+01 1.8346062022903478e+01 -1 -1 0
17 1 6.9135165609481710e+00 2.0149202543929796e+01 1.8995003338561368e+01 0 1 -1
2862 1 4.9382063486018115e+00 2.0230766236663346e+01 2.1679005327963537e+01 0 0 0
3893 1 1.1828882878679253e-01 1.8169137057349570e+01 2.1266327378545704e+01 1 0 -1
2032 1 4.6546783252936859e+00 2.3116021405436033e+01 2.1122638394419120e+01 0 0 0
936 1 2.8834270939142908e+00 2.1646421002205500e+01 1.9468651319788393e+01 0 1 0
1797 1 6.1875685284553921e+00 1.6483316641835430e+01 1.4843174035295883e+01 0 0 0
1889 1 2.9977910781748673e+00 2.3639332580489960e+01 1.7642968273500987e+01 0 0 0
3066 1 8.0728316047017206e+00 1.9203655411478131e+01 2.1472174684736501e+01 1 -1 -1
1008 1 2.2861499592270604e+00 1.4086240618748537e+01 2.1223377260097994e+01 2 -1 0
31 1 1.8486839497999299e+00 1.6249868961928673e+01 2.4750272301469089e+01 1 -1 0
1884 1 5.9798192906538246e+00 1.3831064941731160e+01 2.4428118978528914e+01 1 1 0
886 1 5.0735250539277255e+00 1.6657261656444710e+01 2.4373315577561147e+01 0 -1 -1
4040 1 2.0084103517714946e+00 2.0533433889978582e+01 2.2399004859681035e+01 0 0 -2
878 1 3.0808406499838168e+00 1.9072092873836464e+01 2.4623802132214422e+01 0 0 -1
1122 1 1.6644148411529964e+00 2.2079717948424758e+01 2.4592807694300287e+01 0 0 0
1076 1 5.7149109714038460e+00 2.0545297079900283e+01 2.4655747085168205e+01 0 0 0
927 1 5.0669999304247684e+00 1.2878761313985644e+01 2.1489289255013599e+01 0 0 0
3107 1 2.8579965850139338e-01 2.3239092583924826e+01 2.0193257482664674e+01 1 0 0
999 1 1.9114369870533134e+00 1.3532458167878991e+01 1.6673067865901064e+01 1 0 0
3086 1 8.1121376560965448e+00 2.2335164262603200e+01 1.7574797827409842e+01 0 0 0
2883 1 7.9956896145014884e+00 1.3174134310017029e+01 2.1981941495126488e+01 1 0 0
933 1 7.6346709333591019e+00 1.8364207455193657e+01 1.6885588325208118e+01 1 1 0
1130 2 0.0000000000000000e+00 2.5575462224561992e+01 3.4733292079300790e+00 0 0 0
1132 2 1.2305000000000001e+00 2.6285891730799833e+01 3.4733292079300790e+00 0 0 0
1140 2 1.2305000000000010e+00 2.7706750743275496e+01 3.4733292079300790e+00 0 0 0
1144 2 2.4610000000000003e+00 2.5575462224561992e+01 3.4733292079300790e+00 0 0 0
1146 2 3.6914999999999991e+00 2.6285891730799833e+01 3.4733292079300790e+00 0 0 0
1162 2 3.6914999999999996e+00 2.7706750743275496e+01 3.4733292079300790e+00 0 0 0
1128 2 0.0000000000000000e+00 2.8417180249513333e+01 3.4733292079300790e+00 0 0 0
1142 2 2.4610000000000003e+00 2.8417180249513326e+01 3.4733292079300790e+00 0 0 0