LAMMPS data file via write_data, version 16 Mar 2018, timestep = 100000

6768 atoms
2 atom types

0.0000000000000000e+00 4.9219999999999999e+01 xlo xhi
0.0000000000000000e+00 4.9019635930410494e+01 ylo yhi
-1.2029831577997996e-01 6.0182298315780272e+01 zlo zhi

Masses

1 18.015
2 12.01

Atoms # atomic

3219 1 4.2305921901501814e-01 3.3028899757299786e+00 6.5298770004057367e+00 0 1 0
190 1 4.0498270366902309e+00 2.2028406116869870e+00 4.0055917526745697e+00 0 0 0
3036 1 7.8140389471762939e+00 2.9020056563333663e+00 4.6645724360397312e+00 0 1 1
2171 1 4.2194515646334407e+00 4.1464302537007010e+00 2.4430854857836795e+00 1 1 0
3118 1 9.5083432254514495e+00 9.3985963699623742e-01 3.2447201557664460e+00 0 2 1
5101 1 1.2272344276120597e+01 4.7533981482128436e+00 3.5945959890658470e+00 0 0 1
4886 1 9.0852042508323407e+00 8.9423296958627596e-01 4.1429981481488887e-01 0 -1 1
2175 1 3.4322500308822952e+00 3.1294951118523352e-02 1.1659001536451701e+01 0 0 0
3189 1 2.0594908683854829e+00 7.9731194814662549e+00 3.9396577029852624e+00 1 1 1
5626 1 2.3011857207109676e+00 4.7780775362186700e+00 2.7349493361315735e-01 0 0 0
1847 1 7.2247893247779995e+00 1.1920081367517602e+01 6.1052556835678136e+00 0 -1 1
1976 1 4.6490203704185236e+00 4.6785440901780158e+00 1.4757669825086269e+01 1 0 0
1817 1 7.1822964322045806e+00 4.1003249058312452e+00 2.1659635881929495e+00 1 1 0
3489 1 7.6716208719519479e+00 6.7892766810014384e+00 3.0404266298030178e+00 0 0 0
2105 1 3.6782160219347798e-01 5.0590519727920045e+00 1.3645556204662677e+01 2 0 0
2099 1 1.1184160340934744e+01 9.4815797188476800e+00 1.0834435973835696e+01 0 0 0
3589 1 2.8979440002905550e+00 1.0052339011243673e+01 1.0920962119445687e+00 1 0 0
1473 1 1.1681907286789764e+01 1.8359002110622682e+00 1.3400547009175840e+01 1 0 1
3325 1 8.2568160819388456e+00 1.0036397076164722e+01 1.1021394196559447e+01 0 1 1
3356 1 4.8976757241861124e+00 1.0137110589012615e+01 2.9241593326312088e+00 0 2 1
2302 1 7.2832861530534148e+00 7.7601050891713879e+00 7.5669601719664370e-01 1 0 1
3410 1 7.3910896699799560e+00 1.0380121610993637e+01 1.4799390225347597e+00 0 0 0
5391 1 6.1238801716678921e+00 1.5467070425512888e+00 5.8953001242444207e+00 0 0 0
1476 1 1.0013143855123467e+01 9.3268369429268745e+00 2.8789652328805921e+00 1 2 1
6495 1 1.0493817953801168e+01 1.1579161185842965e+01 4.1691617990838630e+00 0 2 1
59 1 1.1955365210265235e+01 2.2095003579023516e+00 2.5102832172227090e+00 0 0 1
3776 1 3.0434448333214048e-01 7.9666003896283035e+00 6.2095194891501801e+00 1 1 0
258 1 3.8938274533857636e-01 7.1780444324969084e+00 1.8130647831145583e+00 0 1 0
1355 1 3.3401034518170611e+00 6.0671971345153075e-01 8.7967546634395575e+00 -1 0 1
3293 1 2.3890864478078605e-01 1.1106910335132655e+01 9.6693360086845592e-01 0 0 1
5021 1 4.0391539666536875e+00 3.2811386574245813e+00 8.5020497798788721e+00 1 0 1
3611 1 6.6696455749309251e+00 2.9494215115067162e+00 8.4943136765244560e+00 1 1 0
2277 1 7.9326234593412490e+00 7.0522402928799997e+00 1.3232040502334522e+01 1 1 1
1324 1 3.8968927546010228e+00 5.8250799103904534e+00 4.4229232072308902e+00 1 0 1
433 1 2.7497990578736178e+00 4.8746755383915827e+00 6.6786451668116396e+00 0 0 0
5005 1 2.1099942921251866e+00 6.9869276803145635e+00 8.3516087225717310e+00 0 2 1
3881 1 5.8522856581001594e+00 7.9602307566890520e+00 4.3469552753401155e+00 0 0 1
5335 1 1.0036692418762668e+01 6.6110163189421955e+00 4.4279840576512468e+00 0 1 0
1834 1 9.0898452128917313e+00 4.6952295879679928e+00 6.3802493878513555e+00 0 1 1
2002 1 1.1423225595248098e+01 4.1475769049970737e+00 7.6219041014613031e+00 0 1 0
4782 1 1.1584565148890148e+01 6.0921167812189401e+00 9.1264327166225989e+00 -2 1 1
5450 1 4.0081287745897400e+00 9.3705435104367236e+00 8.0452258331795949e+00 1 -1 0
6516 1 1.9453849015924674e+00 1.1063068228548977e+01 7.3161166779033904e+00 1 -1 1
3862 1 4.8570059920205866e+00 9.0466009212978253e+00 1.0656026529473531e+01 1 0 1
4973 1 6.0306463317808463e+00 9.2930035612858966e+00 6.5192149960832264e+00 0 1 1
217 1 7.9300459626558366e+00 8.6139657899070645e+00 8.4447693240466943e+00 -1 -1 0
1478 1 3.3527910660559279e-01 7.8565194396429572e+00 1.1748850050201989e+01 1 1 1
334 1 9.7719997513820456e+00 1.0806534213417232e+01 6.6008532361224201e+00 0 0 0
4906 1 5.2515006252250789e+00 1.1903296931681828e+01 1.1511475992489245e+01 1 0 1
537 1 1.0627919068565411e+01 8.1948743257966665e+00 6.8367125947594696e+00 -1 0 1
2118 1 6.2340900867568854e+00 6.2929209447024348e-02 3.0583022001356497e-01 1 1 0
6661 1 4.0259039598447917e+00 2.6340167554665959e+00 1.2541705139391206e+01 0 -1 1
5326 1 1.6810124235538173e+00 1.0665223882047249e+01 4.1347996014413004e+00 1 1 0
5205 1 1.0798408749505876e+01 6.3693072157074084e+00 1.4058411016587810e+01 2 0 0
2004 1 6.1384711784383601e+00 3.8955692739907699e-01 1.2391953976648587e+01 0 1 0
5226 1 1.7901330645569213e-01 2.2941796562108538e+00 1.3111754864515193e+01 2 1 1
3472 1 7.8217239867460764e+00 1.0814789575238575e+00 1.0339518737422660e+01 -1 1 1
3358 1 1.7984832844450244e-01 1.3249218695020397e+00 1.5172176339673566e+00 0 3 1
1455 1 9.5227864801580608e+00 2.8077637336823220e+00 1.1912652203670875e+01 0 1 1
3184 1 1.1957209317479813e+00 5.2925952675236871e+00 1.0471249849247256e+01 0 -1 1
110 1 3.6966669207766341e+00 4.5407464591443425e+00 1.0865290169440129e+01 1 0 0
3146 1 5.7919225980182993e+00 6.4809541500591665e+00 1.1227865487353039e+01 0 2 1
2091 1 3.9372145652278862e-01 1.1655563643138095e+01 1.4892521082970994e+01 1 1 0
5276 1 7.6652665931218804e+00 5.6800519281240343e+00 8.8046047710084636e+00 1 0 0
3139 1 8.1818491616079534e+00 1.0218156682450475e+01 1.3777792859565926e+01 0 0 1
1982 1 9.4047827285134566e+00 5.4939221905093154e+00 1.0939874653614048e+01 0 2 1
5472 1 1.5193091248677528e+00 1.0528283691756328e+00 4.0459813081846816e+00 0 1 0
2025 1 2.8231933461838650e+00 9.1229561069396521e+00 1.2622110213956315e+01 0 1 0
2999 1 8.6628378244545026e+00 2.6483944687471346e+00 1.4774359495449559e+01 1 1 1
5606 1 1.1867267934646588e+01 1.5196539476001678e+00 8.6910259386566207e+00 1 0 1
5147 1 2.4122117019541416e+00 1.1837689937640601e+01 1.3036343679564304e+01 0 -1 0
5463 1 1.0870172553138678e+01 1.0155802644897753e+01 1.4532814674352332e+01 1 0 0
3639 1 1.2189904142786220e+01 8.3895578060241753e+00 1.7521240446346009e+00 0 1 0
4905 1 2.7886568282357289e+00 7.8915984406959412e+00 -8.4281361762947427e-02 1 0 1
6357 1 8.5490695521937408e+00 3.4227155054924081e+00 7.9248216690572804e-02 -1 2 1
3413 1 4.5274407757925985e+00 3.0660802514945096e+00 1.7235935652800904e+01 1 -1 0
3529 1 7.2499156383630110e+00 5.0106212270882402e+00 1.5092855555413728e+01 0 0 0
6670 1 1.3854081778164267e+00 1.0258316351932638e+01 2.0638596431306759e+01 2 -1 1
3122 1 6.3847074839791080e+00 1.1097010332877251e+00 1.7585798589541103e+01 2 1 1
3334 1 4.4471349696032796e+00 1.2201684295977547e+01 1.7620555006965237e+01 1 0 1
157 1 1.1123952067223545e+01 4.2523345311801402e+00 1.5710681329100197e+01 0 1 0
3047 1 1.3248020683302801e+00 5.3244844921405496e+00 1.7855044010291397e+01 0 0 1
554 1 8.9463893087905682e+00 4.6463938825714196e-01 2.1165346526178112e+01 0 0 1
6 1 3.9011578284224506e+00 5.0874910896766377e+00 1.9283914469238528e+01 0 0 0
487 1 4.9082114853804706e+00 7.6642984350812737e+00 1.9131399948949543e+01 -1 0 1
6354 1 7.6676039209751714e+00 3.9184516334457866e+00 1.8178853364623361e+01 0 1 1
1872 1 7.2270728577662613e+00 6.7864703534015911e+00 1.7744943402374926e+01 1 0 0
448 1 8.6964095372992289e-01 8.7789707053514352e+00 1.8553148409113948e+01 1 0 0
6765 1 1.1300811981652830e+01 4.4559176355060170e+00 2.1208526868730338e+01 -1 1 1
3292 1 8.0249690779118197e+00 1.1123262012004846e+01 2.3967381560416548e+01 0 0 0
5532 1 8.6782985087882825e+00 3.0367930460487749e+00 2.1312953597495056e+01 1 0 0
3266 1 3.3939339673388034e+00 9.6645661407182359e+00 1.7595159389469181e+01 1 0 1
4852 1 9.1730066775282513e+00 3.6789990508419501e-01 2.4103928492607317e+01 1 0 1
3378 1 8.4670316483408516e+00 1.0114117987744621e+01 1.9375824370357748e+01 0 0 1
1939 1 1.1835908518374367e+01 7.9270257507759512e+00 1.6177046873574547e+01 0 0 0
843 2 1.1074500000000002e+01 1.2077301606043163e+01 3.0031000000000059e+01 0 0 0
2100 1 9.8468829929507766e+00 7.7481742030219243e+00 1.8271160959694775e+01 0 1 0
227 1 4.7220368292626951e+00 1.0621574417561084e+00 2.4044640698517259e+01 0 0 0
3113 1 4.3317358115024005e+00 3.6470392342513471e+00 2.4716625819974603e+01 0 1 1
3582 1 2.1171400372255715e+00 5.8326820205907106e+00 1.5357721435005377e+01 1 1 0
3647 1 1.0101662198947801e+01 1.1645125853334596e+01 2.0297293395548380e+01 1 0 0
369 1 5.1999638571984876e+00 1.6693478177849512e+00 2.1288236662969922e+01 0 1 0
526 1 4.0008690612438835e-01 1.1601267823465815e+00 2.3713747195305039e+01 1 0 0
513 1 3.5574775151000186e+00 8.2910310035436403e+00 1.5106467501693386e+01 0 -1 1
3052 1 9.7293775756294334e+00 2.0737606771379995e+00 1.7298166944968887e+01 1 2 1
219 1 1.8906096960955572e+00 1.7379615743151966e+00 1.7990912589140745e+01 0 1 0
3648 1 6.3452564241042069e+00 8.6908124498641062e+00 1.5548030697518261e+01 2 0 0
799 2 9.8440000000000012e+00 1.1366872099805333e+01 2.6809988106004297e+01 0 0 0
800 2 9.8440000000000012e+00 9.9460130873296642e+00 3.0031000000000059e+01 0 0 0
3821 1 2.7931980265263285e+00 3.9548308002966781e+00 2.1536098311577987e+01 1 0 0
2070 1 6.3149147069587048e+00 4.3310123397894209e+00 2.0734394535012939e+01 1 1 0
3941 1 8.5040299660042820e+00 3.1268411879944060e+00 2.4111721081016370e+01 0 1 0
5085 1 6.4229749125104627e+00 5.0619644078009394e+00 2.3667383866933740e+01 1 0 1
6551 1 7.7061565622879469e+00 7.2387518076112212e+00 2.1111888516651195e+01 1 1 1
1373 1 1.0791653002624745e+01 7.1891124676208156e+00 2.3535406282426358e+01 0 1 1
349 1 1.0844008159363471e+01 4.7240544886440636e+00 2.4651715582975939e+01 0 -1 0
466 1 4.5229016754775877e+00 8.8181508573924852e+00 2.1965925220539223e+01 0 0 1
5593 1 2.1333276473599714e+00 9.5152242576010231e+00 2.3039262248902983e+01 0 0 1
798 2 8.6134999999999984e+00 1.0656442593567498e+01 3.0031000000000059e+01 0 0 0
797 2 8.6134999999999984e+00 1.0656442593567498e+01 2.6809988106004297e+01 0 0 0
1450 1 5.8194554626266841e+00 7.8749553176406026e+00 2.4251795413532346e+01 2 1 1
4922 1 8.4632780853940783e+00 8.4984843850040939e+00 2.3558535437331933e+01 -1 0 1
3914 1 6.6204110858501517e+00 1.0503686072961068e+01 2.1532418369398961e+01 1 -1 1
1636 1 1.0910140195452408e+01 6.9203091371409506e+00 2.0314071183818168e+01 1 1 1
756 2 8.6134999999999984e+00 9.2355835810918343e+00 2.6809988106004297e+01 0 0 0
845 2 1.1074500000000002e+01 1.0656442593567498e+01 3.0031000000000059e+01 0 0 0
1640 1 1.6927466742334398e+00 3.5384158015516936e+00 2.4216267031761475e+01 0 0 0
3340 1 6.9201248450799921e+00 1.1191542003952113e+01 1.6979137247511105e+01 2 0 1
623 2 0.0000000000000000e+00 2.8417180249513345e+00 2.6809988106004297e+01 0 0 0
625 2 0.0000000000000000e+00 0.0000000000000000e+00 2.6809988106004297e+01 0 0 0
627 2 1.2305000000000001e+00 7.1042950623783474e-01 2.6809988106004297e+01 0 0 0
634 2 1.2305000000000001e+00 2.1312885187134998e+00 2.6809988106004297e+01 0 0 0
636 2 2.4610000000000003e+00 2.8417180249513345e+00 2.6809988106004297e+01 0 0 0
638 2 2.4610000000000003e+00 0.0000000000000000e+00 2.6809988106004297e+01 0 0 0
640 2 3.6915000000000004e+00 7.1042950623783474e-01 2.6809988106004297e+01 0 0 0
655 2 3.6914999999999996e+00 2.1312885187134998e+00 2.6809988106004297e+01 0 0 0
624 2 0.0000000000000000e+00 1.4208590124756650e+00 3.0031000000000059e+01 0 0 0
626 2 0.0000000000000000e+00 0.0000000000000000e+00 3.0031000000000059e+01 0 0 0
633 2 1.2305000000000001e+00 3.5521475311891644e+00 3.0031000000000059e+01 0 0 0
635 2 1.2305000000000001e+00 2.1312885187134998e+00 3.0031000000000059e+01 0 0 0
637 2 2.4610000000000003e+00 1.4208590124756650e+00 3.0031000000000059e+01 0 0 0
639 2 2.4610000000000003e+00 0.0000000000000000e+00 3.0031000000000059e+01 0 0 0
654 2 3.6914999999999996e+00 3.5521475311891644e+00 3.0031000000000059e+01 0 0 0
656 2 3.6914999999999996e+00 2.1312885187134998e+00 3.0031000000000059e+01 0 0 0
657 2 4.9220000000000006e+00 2.8417180249513332e+00 2.6809988106004297e+01 0 0 0
659 2 4.9220000000000006e+00 0.0000000000000000e+00 2.6809988106004297e+01 0 0 0
661 2 6.1524999999999999e+00 7.1042950623783407e-01 2.6809988106004297e+01 0 0 0
684 2 6.1524999999999999e+00 2.1312885187134989e+00 2.6809988106004297e+01 0 0 0
686 2 7.3829999999999991e+00 2.8417180249513345e+00 2.6809988106004297e+01 0 0 0
688 2 7.3829999999999991e+00 0.0000000000000000e+00 2.6809988106004297e+01 0 0 0
658 2 4.9220000000000006e+00 1.4208590124756650e+00 3.0031000000000059e+01 0 0 0
660 2 4.9220000000000006e+00 0.0000000000000000e+00 3.0031000000000059e+01 0 0 0
683 2 6.1524999999999999e+00 3.5521475311891644e+00 3.0031000000000059e+01 0 0 0
685 2 6.1524999999999999e+00 2.1312885187134989e+00 3.0031000000000059e+01 0 0 0
687 2 7.3829999999999991e+00 1.4208590124756659e+00 3.0031000000000059e+01 0 0 0
689 2 7.3829999999999991e+00 0.0000000000000000e+00 3.0031000000000059e+01 0 0 0
690 2 8.6134999999999984e+00 7.1042950623783407e-01 2.6809988106004297e+01 0 0 0
721 2 8.6134999999999984e+00 2.1312885187135002e+00 2.6809988106004297e+01 0 0 0
723 2 9.8440000000000012e+00 2.8417180249513332e+00 2.6809988106004297e+01 0 0 0
725 2 9.8440000000000012e+00 0.0000000000000000e+00 2.6809988106004297e+01 0 0 0
727 2 1.1074500000000002e+01 7.1042950623783330e-01 2.6809988106004297e+01 0 0 0
766 2 1.1074500000000002e+01 2.1312885187135002e+00 2.6809988106004297e+01 0 0 0
720 2 8.6134999999999984e+00 3.5521475311891657e+00 3.0031000000000059e+01 0 0 0
722 2 8.6134999999999984e+00 2.1312885187135002e+00 3.0031000000000059e+01 0 0 0
724 2 9.8440000000000012e+00 1.4208590124756659e+00 3.0031000000000059e+01 0 0 0
726 2 9.8440000000000012e+00 0.0000000000000000e+00 3.0031000000000059e+01 0 0 0
765 2 1.1074500000000002e+01 3.5521475311891644e+00 3.0031000000000059e+01 0 0 0
767 2 1.1074500000000002e+01 2.1312885187135002e+00 3.0031000000000059e+01 0 0 0
628 2 0.0000000000000000e+00 7.1042950623783341e+00 2.6809988106004297e+01 0 0 0
630 2 0.0000000000000000e+00 4.2625770374269996e+00 2.6809988106004297e+01 0 0 0
632 2 1.2305000000000001e+00 4.9730065436648339e+00 2.6809988106004297e+01 0 0 0
647 2 1.2305000000000001e+00 6.3938655561404980e+00 2.6809988106004297e+01 0 0 0
649 2 2.4610000000000003e+00 7.1042950623783341e+00 2.6809988106004297e+01 0 0 0
651 2 2.4610000000000003e+00 4.2625770374269996e+00 2.6809988106004297e+01 0 0 0
653 2 3.6914999999999996e+00 4.9730065436648339e+00 2.6809988106004297e+01 0 0 0
676 2 3.6914999999999996e+00 6.3938655561404980e+00 2.6809988106004297e+01 0 0 0
629 2 0.0000000000000000e+00 5.6834360499026637e+00 3.0031000000000059e+01 0 0 0
631 2 0.0000000000000000e+00 4.2625770374269996e+00 3.0031000000000059e+01 0 0 0
646 2 1.2305000000000001e+00 7.8147245686161639e+00 3.0031000000000059e+01 0 0 0
648 2 1.2305000000000001e+00 6.3938655561404980e+00 3.0031000000000059e+01 0 0 0
650 2 2.4610000000000003e+00 5.6834360499026637e+00 3.0031000000000059e+01 0 0 0
652 2 2.4610000000000003e+00 4.2625770374269996e+00 3.0031000000000059e+01 0 0 0
675 2 3.6914999999999996e+00 7.8147245686161639e+00 3.0031000000000059e+01 0 0 0
677 2 3.6914999999999996e+00 6.3938655561404980e+00 3.0031000000000059e+01 0 0 0
678 2 4.9220000000000006e+00 7.1042950623783341e+00 2.6809988106004297e+01 0 0 0
680 2 4.9220000000000006e+00 4.2625770374269978e+00 2.6809988106004297e+01 0 0 0
682 2 6.1524999999999999e+00 4.9730065436648339e+00 2.6809988106004297e+01 0 0 0
713 2 6.1524999999999999e+00 6.3938655561404980e+00 2.6809988106004297e+01 0 0 0
715 2 7.3830000000000009e+00 7.1042950623783341e+00 2.6809988106004297e+01 0 0 0
717 2 7.3829999999999991e+00 4.2625770374269996e+00 2.6809988106004297e+01 0 0 0
679 2 4.9220000000000006e+00 5.6834360499026637e+00 3.0031000000000059e+01 0 0 0
681 2 4.9220000000000006e+00 4.2625770374269978e+00 3.0031000000000059e+01 0 0 0
712 2 6.1524999999999999e+00 7.8147245686161639e+00 3.0031000000000059e+01 0 0 0
714 2 6.1524999999999999e+00 6.3938655561404980e+00 3.0031000000000059e+01 0 0 0
716 2 7.3829999999999991e+00 5.6834360499026637e+00 3.0031000000000059e+01 0 0 0
718 2 7.3829999999999991e+00 4.2625770374269996e+00 3.0031000000000059e+01 0 0 0
719 2 8.6135000000000002e+00 4.9730065436648339e+00 2.6809988106004297e+01 0 0 0
758 2 8.6135000000000002e+00 6.3938655561404980e+00 2.6809988106004297e+01 0 0 0
760 2 9.8440000000000012e+00 7.1042950623783341e+00 2.6809988106004297e+01 0 0 0
762 2 9.8440000000000012e+00 4.2625770374270004e+00 2.6809988106004297e+01 0 0 0
764 2 1.1074500000000002e+01 4.9730065436648339e+00 2.6809988106004297e+01 0 0 0
805 2 1.1074500000000002e+01 6.3938655561404980e+00 2.6809988106004297e+01 0 0 0
757 2 8.6135000000000002e+00 7.8147245686161639e+00 3.0031000000000059e+01 0 0 0
759 2 8.6135000000000002e+00 6.3938655561404980e+00 3.0031000000000059e+01 0 0 0
761 2 9.8440000000000012e+00 5.6834360499026637e+00 3.0031000000000059e+01 0 0 0
763 2 9.8440000000000012e+00 4.2625770374270004e+00 3.0031000000000059e+01 0 0 0
804 2 1.1074500000000002e+01 7.8147245686161639e+00 3.0031000000000059e+01 0 0 0
806 2 1.1074500000000002e+01 6.3938655561404980e+00 3.0031000000000059e+01 0 0 0
641 2 0.0000000000000000e+00 1.1366872099805333e+01 2.6809988106004297e+01 0 0 0
643 2 0.0000000000000000e+00 8.5251540748539991e+00 2.6809988106004297e+01 0 0 0
645 2 1.2305000000000001e+00 9.2355835810918343e+00 2.6809988106004297e+01 0 0 0
668 2 1.2305000000000001e+00 1.0656442593567498e+01 2.6809988106004297e+01 0 0 0
670 2 2.4610000000000003e+00 1.1366872099805333e+01 2.6809988106004297e+01 0 0 0
672 2 2.4610000000000003e+00 8.5251540748539991e+00 2.6809988106004297e+01 0 0 0
674 2 3.6915000000000004e+00 9.2355835810918343e+00 2.6809988106004297e+01 0 0 0
705 2 3.6914999999999996e+00 1.0656442593567499e+01 2.6809988106004297e+01 0 0 0
642 2 0.0000000000000000e+00 9.9460130873296642e+00 3.0031000000000059e+01 0 0 0
644 2 0.0000000000000000e+00 8.5251540748539991e+00 3.0031000000000059e+01 0 0 0
667 2 1.2305000000000001e+00 1.2077301606043163e+01 3.0031000000000059e+01 0 0 0
669 2 1.2305000000000001e+00 1.0656442593567498e+01 3.0031000000000059e+01 0 0 0
671 2 2.4610000000000003e+00 9.9460130873296642e+00 3.0031000000000059e+01 0 0 0
673 2 2.4610000000000003e+00 8.5251540748539991e+00 3.0031000000000059e+01 0 0 0
704 2 3.6914999999999996e+00 1.2077301606043163e+01 3.0031000000000059e+01 0 0 0
706 2 3.6914999999999996e+00 1.0656442593567499e+01 3.0031000000000059e+01 0 0 0
707 2 4.9220000000000006e+00 1.1366872099805333e+01 2.6809988106004297e+01 0 0 0
709 2 4.9220000000000006e+00 8.5251540748539991e+00 2.6809988106004297e+01 0 0 0
711 2 6.1524999999999999e+00 9.2355835810918343e+00 2.6809988106004297e+01 0 0 0
750 2 6.1524999999999999e+00 1.0656442593567499e+01 2.6809988106004297e+01 0 0 0
752 2 7.3829999999999991e+00 1.1366872099805333e+01 2.6809988106004297e+01 0 0 0
754 2 7.3830000000000009e+00 8.5251540748539991e+00 2.6809988106004297e+01 0 0 0
708 2 4.9220000000000006e+00 9.9460130873296642e+00 3.0031000000000059e+01 0 0 0
710 2 4.9220000000000006e+00 8.5251540748539991e+00 3.0031000000000059e+01 0 0 0
749 2 6.1524999999999999e+00 1.2077301606043163e+01 3.0031000000000059e+01 0 0 0
751 2 6.1524999999999999e+00 1.0656442593567499e+01 3.0031000000000059e+01 0 0 0
753 2 7.3830000000000009e+00 9.9460130873296642e+00 3.0031000000000059e+01 0 0 0
755 2 7.3830000000000009e+00 8.5251540748539991e+00 3.0031000000000059e+01 0 0 0
802 2 9.8440000000000012e+00 8.5251540748539956e+00 3.0031000000000059e+01 0 0 0
801 2 9.8440000000000012e+00 8.5251540748539956e+00 2.6809988106004297e+01 0 0 0
846 2 1.2304999999999998e+01 1.1366872099805333e+01 2.6809988106004297e+01 0 0 0
803 2 1.1074500000000002e+01 9.2355835810918343e+00 2.6809988106004297e+01 0 0 0
796 2 8.6135000000000002e+00 1.2077301606043163e+01 3.0031000000000059e+01 0 0 0
844 2 1.1074500000000002e+01 1.0656442593567498e+01 2.6809988106004297e+01 0 0 0
5231 1 1.0333063060641436e+01 1.1915144135570705e+01 2.3010914336454665e+01 0 0 0
3675 1 5.4323950023610945e-01 1.3338949517809249e+00 2.0878258257220807e+01 3 1 0
481 1 1.3480761536333069e-01 6.7279048593456867e+00 2.0179602125631256e+01 0 -1 0
5526 1 2.7972737931717684e+00 1.1985381291321278e+01 2.3687729439920783e+01 0 1 0
3282 1 1.1965796345025987e+01 2.3871194525442085e+00 1.9028010918813532e+01 1 0 0
5091 1 1.1573457579134592e+01 7.3982204163584464e-01 2.1229201890417112e+01 1 0 1
3565 1 6.7838694764609220e-01 1.1452444634859608e-01 1.5994782937819149e+01 0 1 0
462 1 3.4944707630590570e+00 9.9688330969686956e-01 1.5192427585928135e+01 2 0 0
1316 1 1.1307968869098938e+01 1.2251207791439178e+01 1.5861820179411916e+01 -2 0 0
952 2 0.0000000000000000e+00 2.8417180249513345e+00 3.3252011893996823e+01 0 0 0
953 2 0.0000000000000000e+00 0.0000000000000000e+00 3.3252011893996823e+01 0 0 0
954 2 1.2305000000000001e+00 7.1042950623783474e-01 3.3252011893996823e+01 0 0 0
958 2 1.2305000000000001e+00 2.1312885187134998e+00 3.3252011893996823e+01 0 0 0
959 2 2.4610000000000003e+00 2.8417180249513345e+00 3.3252011893996823e+01 0 0 0
960 2 2.4610000000000003e+00 0.0000000000000000e+00 3.3252011893996823e+01 0 0 0
961 2 3.6915000000000004e+00 7.1042950623783474e-01 3.3252011893996823e+01 0 0 0
969 2 3.6914999999999996e+00 2.1312885187134998e+00 3.3252011893996823e+01 0 0 0
970 2 4.9220000000000006e+00 2.8417180249513332e+00 3.3252011893996823e+01 0 0 0
971 2 4.9220000000000006e+00 0.0000000000000000e+00 3.3252011893996823e+01 0 0 0
972 2 6.1524999999999999e+00 7.1042950623783407e-01 3.3252011893996823e+01 0 0 0
984 2 6.1524999999999999e+00 2.1312885187134989e+00 3.3252011893996823e+01 0 0 0
985 2 7.3829999999999991e+00 2.8417180249513345e+00 3.3252011893996823e+01 0 0 0
986 2 7.3829999999999991e+00 0.0000000000000000e+00 3.3252011893996823e+01 0 0 0
987 2 8.6134999999999984e+00 7.1042950623783407e-01 3.3252011893996823e+01 0 0 0
1003 2 8.6134999999999984e+00 2.1312885187135002e+00 3.3252011893996823e+01 0 0 0
1004 2 9.8440000000000012e+00 2.8417180249513332e+00 3.3252011893996823e+01 0 0 0
1005 2 9.8440000000000012e+00 0.0000000000000000e+00 3.3252011893996823e+01 0 0 0
1006 2 1.1074500000000002e+01 7.1042950623783330e-01 3.3252011893996823e+01 0 0 0
1026 2 1.1074500000000002e+01 2.1312885187135002e+00 3.3252011893996823e+01 0 0 0
955 2 0.0000000000000000e+00 7.1042950623783341e+00 3.3252011893996823e+01 0 0 0
956 2 0.0000000000000000e+00 4.2625770374269996e+00 3.3252011893996823e+01 0 0 0
957 2 1.2305000000000001e+00 4.9730065436648339e+00 3.3252011893996823e+01 0 0 0
965 2 1.2305000000000001e+00 6.3938655561404980e+00 3.3252011893996823e+01 0 0 0
966 2 2.4610000000000003e+00 7.1042950623783341e+00 3.3252011893996823e+01 0 0 0
967 2 2.4610000000000003e+00 4.2625770374269996e+00 3.3252011893996823e+01 0 0 0
968 2 3.6914999999999996e+00 4.9730065436648339e+00 3.3252011893996823e+01 0 0 0
980 2 3.6914999999999996e+00 6.3938655561404980e+00 3.3252011893996823e+01 0 0 0
981 2 4.9220000000000006e+00 7.1042950623783341e+00 3.3252011893996823e+01 0 0 0
982 2 4.9220000000000006e+00 4.2625770374269978e+00 3.3252011893996823e+01 0 0 0
983 2 6.1524999999999999e+00 4.9730065436648339e+00 3.3252011893996823e+01 0 0 0
999 2 6.1524999999999999e+00 6.3938655561404980e+00 3.3252011893996823e+01 0 0 0
1000 2 7.3830000000000009e+00 7.1042950623783341e+00 3.3252011893996823e+01 0 0 0
1001 2 7.3829999999999991e+00 4.2625770374269996e+00 3.3252011893996823e+01 0 0 0
1002 2 8.6135000000000002e+00 4.9730065436648339e+00 3.3252011893996823e+01 0 0 0
1022 2 8.6135000000000002e+00 6.3938655561404980e+00 3.3252011893996823e+01 0 0 0
1023 2 9.8440000000000012e+00 7.1042950623783341e+00 3.3252011893996823e+01 0 0 0
1024 2 9.8440000000000012e+00 4.2625770374270004e+00 3.3252011893996823e+01 0 0 0
1025 2 1.1074500000000002e+01 4.9730065436648339e+00 3.3252011893996823e+01 0 0 0
1046 2 1.1074500000000002e+01 6.3938655561404980e+00 3.3252011893996823e+01 0 0 0
962 2 0.0000000000000000e+00 1.1366872099805333e+01 3.3252011893996823e+01 0 0 0
963 2 0.0000000000000000e+00 8.5251540748539991e+00 3.3252011893996823e+01 0 0 0
964 2 1.2305000000000001e+00 9.2355835810918343e+00 3.3252011893996823e+01 0 0 0
976 2 1.2305000000000001e+00 1.0656442593567498e+01 3.3252011893996823e+01 0 0 0
977 2 2.4610000000000003e+00 1.1366872099805333e+01 3.3252011893996823e+01 0 0 0
978 2 2.4610000000000003e+00 8.5251540748539991e+00 3.3252011893996823e+01 0 0 0
979 2 3.6915000000000004e+00 9.2355835810918343e+00 3.3252011893996823e+01 0 0 0
995 2 3.6914999999999996e+00 1.0656442593567499e+01 3.3252011893996823e+01 0 0 0
996 2 4.9220000000000006e+00 1.1366872099805333e+01 3.3252011893996823e+01 0 0 0
997 2 4.9220000000000006e+00 8.5251540748539991e+00 3.3252011893996823e+01 0 0 0
998 2 6.1524999999999999e+00 9.2355835810918343e+00 3.3252011893996823e+01 0 0 0
1018 2 6.1524999999999999e+00 1.0656442593567499e+01 3.3252011893996823e+01 0 0 0
1019 2 7.3829999999999991e+00 1.1366872099805333e+01 3.3252011893996823e+01 0 0 0
1020 2 7.3830000000000009e+00 8.5251540748539991e+00 3.3252011893996823e+01 0 0 0
1021 2 8.6134999999999984e+00 9.2355835810918343e+00 3.3252011893996823e+01 0 0 0
1042 2 8.6134999999999984e+00 1.0656442593567498e+01 3.3252011893996823e+01 0 0 0
1043 2 9.8440000000000012e+00 1.1366872099805333e+01 3.3252011893996823e+01 0 0 0
1044 2 9.8440000000000012e+00 8.5251540748539956e+00 3.3252011893996823e+01 0 0 0
1045 2 1.1074500000000002e+01 9.2355835810918343e+00 3.3252011893996823e+01 0 0 0
1066 2 1.1074500000000002e+01 1.0656442593567498e+01 3.3252011893996823e+01 0 0 0
1067 2 1.2304999999999998e+01 1.1366872099805333e+01 3.3252011893996823e+01 0 0 0
4870 1 9.7617041593666389e+00 7.0016475361919808e+00 4.4704693519446565e+01 0 -1 0
5573 1 3.4027792146328800e-01 2.5540800222945470e+00 3.7014107864316202e+01 1 1 -1
1668 1 3.4923823861117085e+00 3.0042316631678796e+00 3.9432441316271692e+01 0 1 0
6676 1 1.0141786648142970e+00 1.9499741791129885e+00 3.9915692052698319e+01 1 0 0
6732 1 5.9323421865203976e+00 7.2369462698479960e+00 4.2662620292897785e+01 0 0 -1
5556 1 6.0982362704755799e-01 1.1428388701439866e+01 3.9672647447422065e+01 1 1 -1
6707 1 3.2260605224816579e+00 9.6960066084821985e+00 4.2811747038631438e+01 1 1 0
1531 1 5.4178956980576398e+00 2.3263487906961422e+00 3.6723532042963214e+01 0 1 0
5277 1 8.1811564767795701e+00 5.2947991751467260e-01 3.5654709028418367e+01 -1 0 -1
335 1 6.2328519420420179e+00 5.2869063391796418e+00 3.8089408064009746e+01 0 0 -1
3349 1 7.9998312652798296e+00 5.0049904148265192e+00 3.6073421979554070e+01 -1 1 -1
1717 1 5.1459467779598063e+00 1.2022488777415672e+01 3.7204625990668717e+01 0 0 0
231 1 2.7754751071349375e+00 3.9157758009978703e+00 3.6735555640436772e+01 0 2 -1
5142 1 3.9560961268527182e+00 8.4487326177230102e+00 3.5743471796039941e+01 0 0 0
3886 1 1.1769235621742663e+01 3.0656642354510146e+00 3.6365847356200007e+01 0 -1 -1
1748 1 3.6163218677588733e+00 5.3684701437529849e+00 4.0621403179753983e+01 1 2 -1
1725 1 5.7816299827946462e+00 7.8223623525891908e+00 3.7815700183374318e+01 0 1 -1
5295 1 7.9519005983104440e+00 8.9658143666701022e+00 3.6206348638166077e+01 0 0 -1
5583 1 4.2411858631678747e+00 2.6677645472662928e+00 4.4454993339279170e+01 1 0 0
1650 1 1.0020912034961924e+01 6.8831014613887991e+00 3.6244317698642632e+01 1 -1 0
5176 1 9.7295596239106601e+00 6.2502944832637146e+00 3.9089272272695183e+01 0 0 0
5618 1 1.1930014711605544e+01 9.9821006719442018e-01 4.4466917395512439e+01 0 0 -1
6576 1 5.7673774406693823e-01 1.1284027801296588e+01 3.7045778339643292e+01 1 1 0
1891 1 4.3673743369329182e-01 8.0951452908967276e+00 3.9842519121839672e+01 1 1 0
3576 1 3.6113834297068670e-03 4.2700962829019016e+00 4.1393425068519463e+01 1 -1 -1
1819 1 8.3589648439500563e-02 3.0291873287442794e-01 3.5693455538766159e+01 0 1 -1
319 1 2.2957473918845994e+00 6.4541044946009922e+00 3.6060818410662051e+01 0 1 -1
4965 1 2.9567176501900132e+00 7.1366967292002821e+00 3.8990136287283363e+01 1 2 0
1695 1 3.0448257086154018e+00 1.0916436885537276e+01 3.5724078358820989e+01 0 0 0
214 1 1.2141551841072143e+01 6.6346439443832921e+00 4.0409105136867410e+01 1 0 -1
4794 1 8.3829028981033353e+00 1.1125906933090457e+01 3.9084438789697316e+01 1 1 0
6356 1 1.5287462649269119e+00 3.2159035465000589e+00 4.5003930583901948e+01 1 -1 0
3165 1 9.3219376151413158e+00 1.1446373171873546e+01 3.6698356765486707e+01 1 2 0
4899 1 6.9673957898476031e+00 3.0914552957504768e+00 4.2796720599321603e+01 0 0 0
1501 1 9.1105091052605847e+00 2.8973430399714584e+00 3.6652275028010550e+01 -1 0 0
2005 1 7.9071104053064802e+00 1.0885042063737323e+01 4.3784478818453053e+01 0 0 -1
6445 1 1.1486171638375541e+01 5.4003761103673193e+00 4.3049695481722466e+01 1 -1 0
4891 1 4.6929728295141899e+00 8.8716058242092632e+00 4.0758119470719237e+01 0 0 0
5688 1 6.5359474364901358e+00 5.4350347975017606e+00 4.0887799490014018e+01 -1 1 0
4904 1 7.7272269775545963e+00 1.9336843728275344e+00 3.8996875410930386e+01 1 1 0
1620 1 9.2125466786272305e+00 3.9048179230396913e+00 4.0489093346266529e+01 0 0 0
3302 1 8.5074965917811483e+00 8.5069405425812743e+00 4.2597117838557381e+01 0 0 -1
5030 1 5.3909003426073570e+00 1.5011158076948108e+00 4.0517359413366989e+01 2 0 0
3406 1 1.0872877963132678e+01 2.7877479376947463e+00 4.2217080758840510e+01 0 1 0
2274 1 8.7765967199794765e+00 1.4942998979263726e+00 4.4154869412152536e+01 -2 1 0
5635 1 1.0193580934947140e+00 7.8656478523118549e+00 4.2561039217850606e+01 0 2 0
2276 1 5.4106337417515382e+00 1.1388314184786895e+01 3.9644054382112600e+01 -1 0 0
5656 1 8.0327165460492065e+00 8.6125151609305384e+00 3.9882602935825844e+01 1 1 -1
4768 1 2.1361244486625961e+00 5.4094854111653996e+00 4.2880074009578649e+01 1 -1 0
1632 1 5.4364550894271311e+00 1.2217061567229269e+01 4.3647765761827770e+01 1 0 -1
2058 1 6.9236794078435082e+00 5.3555250775896592e+00 4.4859853419837592e+01 1 1 -1