LAMMPS data file via write_data, version 16 Mar 2018, timestep = 6000000

6768 atoms
2 atom types

0.0000000000000000e+00 4.9219999999999999e+01 xlo xhi
0.0000000000000000e+00 4.9019635930410494e+01 ylo yhi
1.9131945023741892e-01 5.9870680549750773e+01 zlo zhi

Masses

1 18.015
2 12.01

Atoms # atomic

6388 1 1.2208717338048440e+00 2.5586481187856172e+00 2.6512398510921060e+00 -1 2 1
6462 1 3.5418411966092700e+00 2.2049634032578864e+00 1.6543201379248911e+00 -1 0 1
2038 1 1.3450039980697831e-01 4.7467725738964353e+00 6.1986591779714093e+00 0 1 0
6400 1 8.9019018662353080e+00 2.2101875340824497e+00 2.7315838590900183e+00 1 -1 1
5014 1 1.1398911488007846e+01 2.1415438586279651e+00 1.5279933370716900e+00 0 0 1
2114 1 8.8676989011679197e+00 1.0716287177914651e+01 1.2431227284099513e+01 1 1 1
3605 1 1.1728736063846075e+00 6.7520497842371521e+00 2.3493193549181983e+00 0 1 0
123 1 3.7913114627718021e+00 6.7580869299465203e+00 1.2850331080899704e+00 -2 1 0
352 1 1.2580016621327486e+00 6.9371049528331152e+00 5.0631846650857693e+00 0 1 0
5547 1 7.6991767981328767e+00 4.2550658161410766e+00 1.5380032451358723e+00 0 1 0
5436 1 5.1179118158171857e+00 4.2226138676584508e+00 2.4600622844927162e+00 2 -2 0
2089 1 4.9116338739629892e+00 4.2422636081436185e+00 5.2037646708193845e+00 0 1 0
4789 1 8.4889096871695777e+00 6.4709152337868714e+00 2.6916654538814133e+00 3 0 1
6711 1 1.1029245565909747e+01 6.2466613645466706e+00 1.6680684844666254e+00 2 -1 1
3818 1 1.0017082409150037e+01 8.5157787500260564e+00 1.3593871081352788e+01 0 0 0
5470 1 1.3444387801680968e+00 1.1339605413284048e+01 2.6136047655550296e+00 1 0 0
2182 1 3.7744017142911743e+00 1.1273855421076201e+01 1.3544919537007079e+00 0 -4 0
79 1 2.5374140167331477e-01 9.2606766197409218e+00 6.1998350422131647e+00 0 -1 1
458 1 5.1204679063690222e+00 9.0189269130500982e+00 2.0577339904323497e+00 1 0 0
3291 1 7.6039240199945901e+00 8.8496035359135661e+00 1.3474046213888837e+00 -1 1 1
167 1 8.6971922732282767e+00 1.0840537871344228e+01 2.2644120262435008e+00 -1 0 0
3905 1 1.1045484640290542e+01 1.1018627656856774e+01 1.6044620117445834e+00 -1 4 0
6496 1 8.9422200826209384e+00 1.1074340931775486e+01 5.0730654890596449e+00 0 0 1
2030 1 1.3509621117888835e+00 2.5829660040528966e+00 5.3385855966355065e+00 2 -2 0
3377 1 3.6401842856716877e+00 2.2662683797416170e+00 8.9298664309146734e+00 1 0 0
1451 1 3.7041507869946990e+00 2.3083064271367166e+00 6.3047918011880677e+00 0 1 1
6416 1 1.2617265055713554e+00 2.4360891385886929e+00 1.0094288543259774e+01 -1 0 1
344 1 6.2102999747096312e+00 1.0916376478492266e+01 1.3232365021340584e+01 2 0 0
4973 1 8.7451461936808332e+00 2.0800966782707122e+00 5.3667277426303475e+00 2 2 1
1585 1 1.1403531506732875e+01 1.7349476566499091e+00 9.1799776707549245e+00 0 0 1
3735 1 1.1519183609595187e+01 2.0020205354820004e+00 6.4953277346911271e+00 0 0 0
592 1 8.7384426085461371e+00 2.2484272458488537e+00 9.8584869498542709e+00 1 -1 1
3245 1 1.4099341481943195e+00 6.9879637321539638e+00 9.7250785190105056e+00 -2 0 1
1804 1 4.0517239622009802e+00 6.6939615271342801e+00 5.9205184122071763e+00 2 0 1
6465 1 3.6590712176979610e+00 6.8280164548442590e+00 8.7049144620642611e+00 0 1 1
4753 1 7.4951032129228272e+00 4.2373971870363265e+00 6.1062818224932647e+00 -2 1 1
1373 1 7.2114659735135644e+00 4.2872344086864489e+00 8.8217075571974366e+00 -1 2 1
1372 1 4.6303314956820580e+00 4.4511518777427366e+00 9.8805625348428645e+00 0 0 1
2171 1 8.7369998196897090e+00 6.6604730250787689e+00 5.2574392012760098e+00 0 0 0
437 1 8.5343241216730945e+00 6.3828465631204088e+00 9.9935133634997584e+00 0 0 0
211 1 1.1114966066252098e+01 6.4169087308570703e+00 6.5148742905390691e+00 -2 -2 0
3611 1 1.1184685866050007e+01 6.3581848084358850e+00 9.0847576223753670e+00 0 -1 0
3803 1 5.0867499952319291e+00 8.4165058188988038e+00 1.2502207760037987e+01 -2 -1 0
5476 1 1.7009812777318016e+00 1.1410768266029720e+01 5.2593849240758148e+00 4 0 0
5416 1 4.2903227163622990e+00 1.1159217441466936e+01 5.9290617285182723e+00 0 0 0
4817 1 1.4844728652998929e+00 1.1308240568019366e+01 9.7263545929415720e+00 3 1 1
297 1 3.9389324537934702e+00 1.1287579183082013e+01 8.5654418772669576e+00 0 1 0
5055 1 5.3607654344235938e+00 8.8050366247790492e+00 4.9220023095171310e+00 -2 0 0
5057 1 7.8575157566765741e+00 8.8992603323378479e+00 6.0695025004305370e+00 1 0 1
2257 1 7.2637636158472230e+00 8.6936375804807131e+00 8.9864791546183369e+00 -1 2 0
2301 1 5.0296932044093650e+00 8.9448121766125901e+00 1.0111171947715983e+01 -1 2 1
5403 1 8.5097193188041480e+00 1.1071821074326190e+01 9.5696082626280674e+00 0 0 0
1632 1 1.1442923857467779e+01 1.1158832184445798e+01 6.0761405029092375e+00 2 0 0
4850 1 1.1252933467486480e+01 1.1116276076577524e+01 8.8443900991729283e+00 2 1 1
4700 1 1.3008268449050397e+00 2.1461012325653224e+00 1.2899499142830303e+01 3 3 1
556 1 6.3351252075776996e+00 2.5312431563184203e+00 1.3795700834546510e+01 1 1 1
5363 1 8.5824507275040069e+00 2.2546359177832032e+00 1.2811300283639541e+01 -1 2 0
3350 1 2.5245928349858047e+00 4.4746401281351016e+00 1.3603475078365960e+01 0 0 0
3823 1 1.3740006862850089e+00 6.7673748314292137e+00 1.2508829823030345e+01 -1 1 0
3996 1 4.8751494726518221e+00 4.4393697388228190e+00 1.2599761921985753e+01 -2 -3 1
6423 1 6.1216271806400533e+00 6.5122999239824502e+00 1.3910032787369147e+01 0 1 1
1811 1 8.8097029085081360e+00 6.3581872953921801e+00 1.2600616983722396e+01 3 -1 0
605 1 1.0119818747049491e+01 4.2348997457949658e+00 1.3545856756298607e+01 1 0 1
5046 1 1.4113051778153336e+00 1.1175675726021687e+01 1.2508076070883853e+01 0 -1 0
5158 1 2.7684510421979214e+00 8.9965140875404987e+00 1.3529935125213969e+01 0 -2 1
3206 1 5.2948455439704789e+00 3.6097301030992451e-01 1.0059494504778840e+01 0 1 1
5073 1 5.1415212151709282e+00 2.0035621158091244e-01 2.5700569756643694e+00 0 1 1
3034 1 6.4389188363776384e-02 4.5593355380191749e+00 1.5517817123537432e+00 1 0 1
5427 1 3.4991241970032477e-01 2.0162169143236602e-01 2.0695237713354087e+00 1 1 0
3612 1 1.2859855960257702e-01 9.2678058474868550e+00 9.0648516067773190e+00 2 -2 0
1452 1 5.2326126548501000e+00 4.4687842482494501e-02 5.3357041639868026e+00 1 2 1
6537 1 5.0888090359627434e+00 2.5107970070235425e-01 1.2668827072639548e+01 1 -1 1
3877 1 2.4836858050686317e-01 4.6955856867653996e+00 8.9414497425349353e+00 2 3 0
199 1 3.7513710140908665e+00 2.3053738104433381e+00 1.7598725511434672e+01 -2 0 0
1945 1 3.8586134751903716e+00 2.2475443418877075e+00 2.0469084416867162e+01 1 0 0
1662 1 6.2569965345804102e+00 2.1015190626937321e+00 1.6463671718739128e+01 0 -2 0
846 2 1.2304999999999998e+01 1.1366872099805333e+01 2.6843277701688464e+01 0 0 0
98 1 1.1235212269148658e+01 1.6758595746106604e+00 1.7140806465010215e+01 -1 0 0
6495 1 1.0376421030905554e+01 4.1407655352866248e+00 1.6301569319380000e+01 -2 4 1
5683 1 2.8200622180529664e+00 4.4476541131737761e+00 1.6308783434518318e+01 2 -1 1
5261 1 3.8336308772105134e+00 6.6771610458652599e+00 1.6939020336414710e+01 1 2 0
1651 1 3.7754094531919997e+00 6.7007965117557742e+00 1.9632677922569872e+01 -1 0 1
800 2 9.8440000000000012e+00 9.9460130873296642e+00 3.0030999999994023e+01 0 0 0
3472 1 7.9533547325669112e+00 3.9673231611695514e+00 2.0043459187960387e+01 -1 0 1
1786 1 7.8111644264436988e+00 4.3764297186992840e+00 1.7107993109278507e+01 -2 1 1
327 1 6.3623992495598998e+00 6.5563485864800857e+00 1.6547328342675403e+01 0 1 0
5070 1 1.1526401734801318e+01 6.4660671500019511e+00 1.7066165319402497e+01 -2 1 0
3454 1 1.1303887333074783e+01 6.5592583305665242e+00 1.9436873834144233e+01 0 1 1
5486 1 2.6171248162251937e+00 8.8916182149238931e+00 1.6257520990094026e+01 -1 1 0
3707 1 3.7756101431891995e+00 1.1296640386327651e+01 1.6574736137297666e+01 0 -1 0
5504 1 3.4062880112515126e+00 1.0929863952498513e+01 1.9571371734220765e+01 -1 2 1
37 1 6.3094763938994332e+00 1.1127128083797333e+01 1.5852101346312853e+01 0 0 1
6464 1 7.3132781585822180e+00 9.0178298133579347e+00 1.6749209256007390e+01 0 -1 1
3725 1 7.4717130829962501e+00 8.8895088495797268e+00 1.9624487955946297e+01 0 -2 0
3845 1 1.0221425846374050e+01 8.7070876773463350e+00 1.6350067458772113e+01 0 -1 1
410 1 1.1584107877640735e+01 1.0872208637670091e+01 1.6859666616083121e+01 2 0 0
76 1 1.1389261675002954e+01 1.1279798557670720e+01 1.9687163715663452e+01 -1 1 1
2077 1 3.7511340639312158e+00 2.3078788476438539e+00 2.4224052281630783e+01 2 -1 0
3354 1 2.6488622273184150e+00 1.6268210047067141e-01 1.6239361423365956e+01 0 1 0
4884 1 6.2498604601846512e+00 2.2042812705134902e+00 2.3690845523812012e+01 1 -1 1
3149 1 6.6210797802443500e+00 1.8746051441866476e+00 2.0945014018193103e+01 -1 1 1
3539 1 1.1382884743814165e+01 1.9067208747712971e+00 1.9921265458314110e+01 0 0 0
35 1 1.1010528202833475e+01 2.2047155165626742e+00 2.4804058696404365e+01 -1 1 0
801 2 9.8440000000000012e+00 8.5251540748539956e+00 2.6843277701688464e+01 0 0 0
5497 1 2.6800754732193464e+00 4.6264580157921937e+00 2.3627263973645139e+01 0 0 0
2027 1 2.7398634878022201e+00 4.6154951823065300e+00 2.1044762761857097e+01 -2 1 0
3500 1 3.8395256358576648e+00 6.8109164460997667e+00 2.4216070662756540e+01 0 -1 1
4943 1 7.5557152649463850e+00 4.6091514680524206e+00 2.4113456668561309e+01 0 -1 0
202 1 6.3923623966608822e+00 6.3849130342221843e+00 2.0456748810505573e+01 -1 1 0
3873 1 6.1267708903781237e+00 6.7583359192336125e+00 2.3235449218411290e+01 2 1 0
5095 1 1.0141350142282057e+01 4.3838664711966375e+00 2.3260419422422736e+01 2 0 1
5339 1 1.0444535350720246e+01 4.2912028707124295e+00 2.0659236420872048e+01 1 -1 0
89 1 1.1189798320375822e+01 6.5747775463129248e+00 2.4429856401240844e+01 0 0 1
5426 1 2.2867135497569095e+00 8.9545816120692372e+00 2.3321251183022930e+01 2 -2 0
1608 1 2.2387050254354017e+00 8.7995920929167433e+00 2.0421303919131816e+01 1 0 1
6680 1 3.4562732187988670e+00 1.1445555975276998e+01 2.3812706772494909e+01 1 -1 0
5560 1 6.1622988942956596e+00 1.0931273950804878e+01 2.3253951567806041e+01 -1 0 0
1800 1 6.1476973049500101e+00 1.0853668239304580e+01 2.0477352285899730e+01 0 2 0
392 1 7.4039320517766081e+00 8.7634085086260693e+00 2.4061782377915474e+01 0 0 0
1850 1 1.1291210062524478e+01 1.1102508073702527e+01 2.3281091623387823e+01 0 -1 0
2338 1 9.9908586164080191e+00 8.7306570437281579e+00 2.3083059199962690e+01 1 2 1
5128 1 1.0136146542446134e+01 8.9247932366539029e+00 2.0185328423897310e+01 1 1 0
623 2 0.0000000000000000e+00 2.8417180249513345e+00 2.6843277701688464e+01 0 0 0
625 2 0.0000000000000000e+00 0.0000000000000000e+00 2.6843277701688464e+01 0 0 0
627 2 1.2305000000000001e+00 7.1042950623783474e-01 2.6843277701688464e+01 0 0 0
634 2 1.2305000000000001e+00 2.1312885187134998e+00 2.6843277701688464e+01 0 0 0
636 2 2.4610000000000003e+00 2.8417180249513345e+00 2.6843277701688464e+01 0 0 0
638 2 2.4610000000000003e+00 0.0000000000000000e+00 2.6843277701688464e+01 0 0 0
640 2 3.6915000000000004e+00 7.1042950623783474e-01 2.6843277701688464e+01 0 0 0
655 2 3.6914999999999996e+00 2.1312885187134998e+00 2.6843277701688464e+01 0 0 0
624 2 0.0000000000000000e+00 1.4208590124756650e+00 3.0030999999994023e+01 0 0 0
626 2 0.0000000000000000e+00 0.0000000000000000e+00 3.0030999999994023e+01 0 0 0
633 2 1.2305000000000001e+00 3.5521475311891644e+00 3.0030999999994023e+01 0 0 0
635 2 1.2305000000000001e+00 2.1312885187134998e+00 3.0030999999994023e+01 0 0 0
637 2 2.4610000000000003e+00 1.4208590124756650e+00 3.0030999999994023e+01 0 0 0
639 2 2.4610000000000003e+00 0.0000000000000000e+00 3.0030999999994023e+01 0 0 0
654 2 3.6914999999999996e+00 3.5521475311891644e+00 3.0030999999994023e+01 0 0 0
656 2 3.6914999999999996e+00 2.1312885187134998e+00 3.0030999999994023e+01 0 0 0
657 2 4.9220000000000006e+00 2.8417180249513332e+00 2.6843277701688464e+01 0 0 0
659 2 4.9220000000000006e+00 0.0000000000000000e+00 2.6843277701688464e+01 0 0 0
661 2 6.1524999999999999e+00 7.1042950623783407e-01 2.6843277701688464e+01 0 0 0
684 2 6.1524999999999999e+00 2.1312885187134989e+00 2.6843277701688464e+01 0 0 0
686 2 7.3829999999999991e+00 2.8417180249513345e+00 2.6843277701688464e+01 0 0 0
688 2 7.3829999999999991e+00 0.0000000000000000e+00 2.6843277701688464e+01 0 0 0
658 2 4.9220000000000006e+00 1.4208590124756650e+00 3.0030999999994023e+01 0 0 0
660 2 4.9220000000000006e+00 0.0000000000000000e+00 3.0030999999994023e+01 0 0 0
683 2 6.1524999999999999e+00 3.5521475311891644e+00 3.0030999999994023e+01 0 0 0
685 2 6.1524999999999999e+00 2.1312885187134989e+00 3.0030999999994023e+01 0 0 0
687 2 7.3829999999999991e+00 1.4208590124756659e+00 3.0030999999994023e+01 0 0 0
689 2 7.3829999999999991e+00 0.0000000000000000e+00 3.0030999999994023e+01 0 0 0
690 2 8.6134999999999984e+00 7.1042950623783407e-01 2.6843277701688464e+01 0 0 0
721 2 8.6134999999999984e+00 2.1312885187135002e+00 2.6843277701688464e+01 0 0 0
723 2 9.8440000000000012e+00 2.8417180249513332e+00 2.6843277701688464e+01 0 0 0
725 2 9.8440000000000012e+00 0.0000000000000000e+00 2.6843277701688464e+01 0 0 0
727 2 1.1074500000000002e+01 7.1042950623783330e-01 2.6843277701688464e+01 0 0 0
766 2 1.1074500000000002e+01 2.1312885187135002e+00 2.6843277701688464e+01 0 0 0
720 2 8.6134999999999984e+00 3.5521475311891657e+00 3.0030999999994023e+01 0 0 0
722 2 8.6134999999999984e+00 2.1312885187135002e+00 3.0030999999994023e+01 0 0 0
724 2 9.8440000000000012e+00 1.4208590124756659e+00 3.0030999999994023e+01 0 0 0
726 2 9.8440000000000012e+00 0.0000000000000000e+00 3.0030999999994023e+01 0 0 0
765 2 1.1074500000000002e+01 3.5521475311891644e+00 3.0030999999994023e+01 0 0 0
767 2 1.1074500000000002e+01 2.1312885187135002e+00 3.0030999999994023e+01 0 0 0
628 2 0.0000000000000000e+00 7.1042950623783341e+00 2.6843277701688464e+01 0 0 0
630 2 0.0000000000000000e+00 4.2625770374269996e+00 2.6843277701688464e+01 0 0 0
632 2 1.2305000000000001e+00 4.9730065436648339e+00 2.6843277701688464e+01 0 0 0
647 2 1.2305000000000001e+00 6.3938655561404980e+00 2.6843277701688464e+01 0 0 0
649 2 2.4610000000000003e+00 7.1042950623783341e+00 2.6843277701688464e+01 0 0 0
651 2 2.4610000000000003e+00 4.2625770374269996e+00 2.6843277701688464e+01 0 0 0
653 2 3.6914999999999996e+00 4.9730065436648339e+00 2.6843277701688464e+01 0 0 0
676 2 3.6914999999999996e+00 6.3938655561404980e+00 2.6843277701688464e+01 0 0 0
629 2 0.0000000000000000e+00 5.6834360499026637e+00 3.0030999999994023e+01 0 0 0
631 2 0.0000000000000000e+00 4.2625770374269996e+00 3.0030999999994023e+01 0 0 0
646 2 1.2305000000000001e+00 7.8147245686161639e+00 3.0030999999994023e+01 0 0 0
648 2 1.2305000000000001e+00 6.3938655561404980e+00 3.0030999999994023e+01 0 0 0
650 2 2.4610000000000003e+00 5.6834360499026637e+00 3.0030999999994023e+01 0 0 0
652 2 2.4610000000000003e+00 4.2625770374269996e+00 3.0030999999994023e+01 0 0 0
675 2 3.6914999999999996e+00 7.8147245686161639e+00 3.0030999999994023e+01 0 0 0
677 2 3.6914999999999996e+00 6.3938655561404980e+00 3.0030999999994023e+01 0 0 0
678 2 4.9220000000000006e+00 7.1042950623783341e+00 2.6843277701688464e+01 0 0 0
680 2 4.9220000000000006e+00 4.2625770374269978e+00 2.6843277701688464e+01 0 0 0
682 2 6.1524999999999999e+00 4.9730065436648339e+00 2.6843277701688464e+01 0 0 0
713 2 6.1524999999999999e+00 6.3938655561404980e+00 2.6843277701688464e+01 0 0 0
715 2 7.3830000000000009e+00 7.1042950623783341e+00 2.6843277701688464e+01 0 0 0
717 2 7.3829999999999991e+00 4.2625770374269996e+00 2.6843277701688464e+01 0 0 0
679 2 4.9220000000000006e+00 5.6834360499026637e+00 3.0030999999994023e+01 0 0 0
681 2 4.9220000000000006e+00 4.2625770374269978e+00 3.0030999999994023e+01 0 0 0
712 2 6.1524999999999999e+00 7.8147245686161639e+00 3.0030999999994023e+01 0 0 0
714 2 6.1524999999999999e+00 6.3938655561404980e+00 3.0030999999994023e+01 0 0 0
716 2 7.3829999999999991e+00 5.6834360499026637e+00 3.0030999999994023e+01 0 0 0
718 2 7.3829999999999991e+00 4.2625770374269996e+00 3.0030999999994023e+01 0 0 0
719 2 8.6135000000000002e+00 4.9730065436648339e+00 2.6843277701688464e+01 0 0 0
758 2 8.6135000000000002e+00 6.3938655561404980e+00 2.6843277701688464e+01 0 0 0
760 2 9.8440000000000012e+00 7.1042950623783341e+00 2.6843277701688464e+01 0 0 0
762 2 9.8440000000000012e+00 4.2625770374270004e+00 2.6843277701688464e+01 0 0 0
764 2 1.1074500000000002e+01 4.9730065436648339e+00 2.6843277701688464e+01 0 0 0
805 2 1.1074500000000002e+01 6.3938655561404980e+00 2.6843277701688464e+01 0 0 0
757 2 8.6135000000000002e+00 7.8147245686161639e+00 3.0030999999994023e+01 0 0 0
759 2 8.6135000000000002e+00 6.3938655561404980e+00 3.0030999999994023e+01 0 0 0
761 2 9.8440000000000012e+00 5.6834360499026637e+00 3.0030999999994023e+01 0 0 0
763 2 9.8440000000000012e+00 4.2625770374270004e+00 3.0030999999994023e+01 0 0 0
804 2 1.1074500000000002e+01 7.8147245686161639e+00 3.0030999999994023e+01 0 0 0
806 2 1.1074500000000002e+01 6.3938655561404980e+00 3.0030999999994023e+01 0 0 0
641 2 0.0000000000000000e+00 1.1366872099805333e+01 2.6843277701688464e+01 0 0 0
643 2 0.0000000000000000e+00 8.5251540748539991e+00 2.6843277701688464e+01 0 0 0
645 2 1.2305000000000001e+00 9.2355835810918343e+00 2.6843277701688464e+01 0 0 0
668 2 1.2305000000000001e+00 1.0656442593567498e+01 2.6843277701688464e+01 0 0 0
670 2 2.4610000000000003e+00 1.1366872099805333e+01 2.6843277701688464e+01 0 0 0
672 2 2.4610000000000003e+00 8.5251540748539991e+00 2.6843277701688464e+01 0 0 0
674 2 3.6915000000000004e+00 9.2355835810918343e+00 2.6843277701688464e+01 0 0 0
705 2 3.6914999999999996e+00 1.0656442593567499e+01 2.6843277701688464e+01 0 0 0
642 2 0.0000000000000000e+00 9.9460130873296642e+00 3.0030999999994023e+01 0 0 0
644 2 0.0000000000000000e+00 8.5251540748539991e+00 3.0030999999994023e+01 0 0 0
667 2 1.2305000000000001e+00 1.2077301606043163e+01 3.0030999999994023e+01 0 0 0
669 2 1.2305000000000001e+00 1.0656442593567498e+01 3.0030999999994023e+01 0 0 0
671 2 2.4610000000000003e+00 9.9460130873296642e+00 3.0030999999994023e+01 0 0 0
673 2 2.4610000000000003e+00 8.5251540748539991e+00 3.0030999999994023e+01 0 0 0
704 2 3.6914999999999996e+00 1.2077301606043163e+01 3.0030999999994023e+01 0 0 0
706 2 3.6914999999999996e+00 1.0656442593567499e+01 3.0030999999994023e+01 0 0 0
710 2 4.9220000000000006e+00 8.5251540748539991e+00 3.0030999999994023e+01 0 0 0
708 2 4.9220000000000006e+00 9.9460130873296642e+00 3.0030999999994023e+01 0 0 0
751 2 6.1524999999999999e+00 1.0656442593567499e+01 3.0030999999994023e+01 0 0 0
749 2 6.1524999999999999e+00 1.2077301606043163e+01 3.0030999999994023e+01 0 0 0
753 2 7.3830000000000009e+00 9.9460130873296642e+00 3.0030999999994023e+01 0 0 0
755 2 7.3830000000000009e+00 8.5251540748539991e+00 3.0030999999994023e+01 0 0 0
707 2 4.9220000000000006e+00 1.1366872099805333e+01 2.6843277701688464e+01 0 0 0
709 2 4.9220000000000006e+00 8.5251540748539991e+00 2.6843277701688464e+01 0 0 0
711 2 6.1524999999999999e+00 9.2355835810918343e+00 2.6843277701688464e+01 0 0 0
752 2 7.3829999999999991e+00 1.1366872099805333e+01 2.6843277701688464e+01 0 0 0
754 2 7.3830000000000009e+00 8.5251540748539991e+00 2.6843277701688464e+01 0 0 0
750 2 6.1524999999999999e+00 1.0656442593567499e+01 2.6843277701688464e+01 0 0 0
845 2 1.1074500000000002e+01 1.0656442593567498e+01 3.0030999999994023e+01 0 0 0
798 2 8.6134999999999984e+00 1.0656442593567498e+01 3.0030999999994023e+01 0 0 0
797 2 8.6134999999999984e+00 1.0656442593567498e+01 2.6843277701688464e+01 0 0 0
802 2 9.8440000000000012e+00 8.5251540748539956e+00 3.0030999999994023e+01 0 0 0
803 2 1.1074500000000002e+01 9.2355835810918343e+00 2.6843277701688464e+01 0 0 0
796 2 8.6135000000000002e+00 1.2077301606043163e+01 3.0030999999994023e+01 0 0 0
756 2 8.6134999999999984e+00 9.2355835810918343e+00 2.6843277701688464e+01 0 0 0
843 2 1.1074500000000002e+01 1.2077301606043163e+01 3.0030999999994023e+01 0 0 0
844 2 1.1074500000000002e+01 1.0656442593567498e+01 2.6843277701688464e+01 0 0 0
799 2 9.8440000000000012e+00 1.1366872099805333e+01 2.6843277701688464e+01 0 0 0
1908 1 4.8637190661273998e-02 4.6811684848357578e+00 2.4392261751095063e+01 0 0 0
1323 1 5.8146214576048294e-02 8.9381216004815069e+00 1.6750675192771354e+01 0 -1 1
5011 1 2.4073444434063234e+00 2.7722598462683740e-01 2.3311719711681597e+01 0 0 1
3427 1 7.7696464455869485e+00 8.6075785620471496e-02 2.4624943009461951e+01 -2 1 1
5707 1 1.9670531787379184e-01 4.4985368703074107e+00 1.7251352282863103e+01 3 -1 0
952 2 0.0000000000000000e+00 2.8417180249513345e+00 3.3218722298288554e+01 0 0 0
953 2 0.0000000000000000e+00 0.0000000000000000e+00 3.3218722298288554e+01 0 0 0
954 2 1.2305000000000001e+00 7.1042950623783474e-01 3.3218722298288554e+01 0 0 0
958 2 1.2305000000000001e+00 2.1312885187134998e+00 3.3218722298288554e+01 0 0 0
959 2 2.4610000000000003e+00 2.8417180249513345e+00 3.3218722298288554e+01 0 0 0
960 2 2.4610000000000003e+00 0.0000000000000000e+00 3.3218722298288554e+01 0 0 0
961 2 3.6915000000000004e+00 7.1042950623783474e-01 3.3218722298288554e+01 0 0 0
969 2 3.6914999999999996e+00 2.1312885187134998e+00 3.3218722298288554e+01 0 0 0
970 2 4.9220000000000006e+00 2.8417180249513332e+00 3.3218722298288554e+01 0 0 0
971 2 4.9220000000000006e+00 0.0000000000000000e+00 3.3218722298288554e+01 0 0 0
972 2 6.1524999999999999e+00 7.1042950623783407e-01 3.3218722298288554e+01 0 0 0
984 2 6.1524999999999999e+00 2.1312885187134989e+00 3.3218722298288554e+01 0 0 0
985 2 7.3829999999999991e+00 2.8417180249513345e+00 3.3218722298288554e+01 0 0 0
986 2 7.3829999999999991e+00 0.0000000000000000e+00 3.3218722298288554e+01 0 0 0
987 2 8.6134999999999984e+00 7.1042950623783407e-01 3.3218722298288554e+01 0 0 0
1003 2 8.6134999999999984e+00 2.1312885187135002e+00 3.3218722298288554e+01 0 0 0
1004 2 9.8440000000000012e+00 2.8417180249513332e+00 3.3218722298288554e+01 0 0 0
1005 2 9.8440000000000012e+00 0.0000000000000000e+00 3.3218722298288554e+01 0 0 0
1006 2 1.1074500000000002e+01 7.1042950623783330e-01 3.3218722298288554e+01 0 0 0
1026 2 1.1074500000000002e+01 2.1312885187135002e+00 3.3218722298288554e+01 0 0 0
955 2 0.0000000000000000e+00 7.1042950623783341e+00 3.3218722298288554e+01 0 0 0
956 2 0.0000000000000000e+00 4.2625770374269996e+00 3.3218722298288554e+01 0 0 0
957 2 1.2305000000000001e+00 4.9730065436648339e+00 3.3218722298288554e+01 0 0 0
965 2 1.2305000000000001e+00 6.3938655561404980e+00 3.3218722298288554e+01 0 0 0
966 2 2.4610000000000003e+00 7.1042950623783341e+00 3.3218722298288554e+01 0 0 0
967 2 2.4610000000000003e+00 4.2625770374269996e+00 3.3218722298288554e+01 0 0 0
968 2 3.6914999999999996e+00 4.9730065436648339e+00 3.3218722298288554e+01 0 0 0
980 2 3.6914999999999996e+00 6.3938655561404980e+00 3.3218722298288554e+01 0 0 0
981 2 4.9220000000000006e+00 7.1042950623783341e+00 3.3218722298288554e+01 0 0 0
982 2 4.9220000000000006e+00 4.2625770374269978e+00 3.3218722298288554e+01 0 0 0
983 2 6.1524999999999999e+00 4.9730065436648339e+00 3.3218722298288554e+01 0 0 0
999 2 6.1524999999999999e+00 6.3938655561404980e+00 3.3218722298288554e+01 0 0 0
1000 2 7.3830000000000009e+00 7.1042950623783341e+00 3.3218722298288554e+01 0 0 0
1001 2 7.3829999999999991e+00 4.2625770374269996e+00 3.3218722298288554e+01 0 0 0
1002 2 8.6135000000000002e+00 4.9730065436648339e+00 3.3218722298288554e+01 0 0 0
1022 2 8.6135000000000002e+00 6.3938655561404980e+00 3.3218722298288554e+01 0 0 0
1023 2 9.8440000000000012e+00 7.1042950623783341e+00 3.3218722298288554e+01 0 0 0
1024 2 9.8440000000000012e+00 4.2625770374270004e+00 3.3218722298288554e+01 0 0 0
1025 2 1.1074500000000002e+01 4.9730065436648339e+00 3.3218722298288554e+01 0 0 0
1046 2 1.1074500000000002e+01 6.3938655561404980e+00 3.3218722298288554e+01 0 0 0
962 2 0.0000000000000000e+00 1.1366872099805333e+01 3.3218722298288554e+01 0 0 0
963 2 0.0000000000000000e+00 8.5251540748539991e+00 3.3218722298288554e+01 0 0 0
964 2 1.2305000000000001e+00 9.2355835810918343e+00 3.3218722298288554e+01 0 0 0
976 2 1.2305000000000001e+00 1.0656442593567498e+01 3.3218722298288554e+01 0 0 0
977 2 2.4610000000000003e+00 1.1366872099805333e+01 3.3218722298288554e+01 0 0 0
978 2 2.4610000000000003e+00 8.5251540748539991e+00 3.3218722298288554e+01 0 0 0
979 2 3.6915000000000004e+00 9.2355835810918343e+00 3.3218722298288554e+01 0 0 0
995 2 3.6914999999999996e+00 1.0656442593567499e+01 3.3218722298288554e+01 0 0 0
996 2 4.9220000000000006e+00 1.1366872099805333e+01 3.3218722298288554e+01 0 0 0
997 2 4.9220000000000006e+00 8.5251540748539991e+00 3.3218722298288554e+01 0 0 0
998 2 6.1524999999999999e+00 9.2355835810918343e+00 3.3218722298288554e+01 0 0 0
1018 2 6.1524999999999999e+00 1.0656442593567499e+01 3.3218722298288554e+01 0 0 0
1019 2 7.3829999999999991e+00 1.1366872099805333e+01 3.3218722298288554e+01 0 0 0
1020 2 7.3830000000000009e+00 8.5251540748539991e+00 3.3218722298288554e+01 0 0 0
1021 2 8.6134999999999984e+00 9.2355835810918343e+00 3.3218722298288554e+01 0 0 0
1042 2 8.6134999999999984e+00 1.0656442593567498e+01 3.3218722298288554e+01 0 0 0
1043 2 9.8440000000000012e+00 1.1366872099805333e+01 3.3218722298288554e+01 0 0 0
1044 2 9.8440000000000012e+00 8.5251540748539956e+00 3.3218722298288554e+01 0 0 0
1045 2 1.1074500000000002e+01 9.2355835810918343e+00 3.3218722298288554e+01 0 0 0
1066 2 1.1074500000000002e+01 1.0656442593567498e+01 3.3218722298288554e+01 0 0 0
1067 2 1.2304999999999998e+01 1.1366872099805333e+01 3.3218722298288554e+01 0 0 0
5379 1 1.0847029726489752e+00 2.3243914958711542e+00 3.6240489978307579e+01 -1 1 -1
545 1 3.9506317385488687e+00 2.1426837962659988e+00 3.6434140097760960e+01 0 -1 0
2342 1 4.2681543528589021e+00 2.5358730897616555e+00 3.9222989970772616e+01 1 -1 0
4873 1 3.6888222695954034e+00 1.0989389364586366e+01 4.3618119022170305e+01 -1 -1 0
3592 1 1.0570774712276301e+00 1.0896003616284428e+01 4.0287200312677513e+01 -1 -1 -1
3669 1 8.6565340666521973e+00 2.1300599068712476e+00 3.6021792192055827e+01 1 3 -1
5218 1 1.1065928708446791e+01 2.1290521038897610e+00 3.6864221214476061e+01 1 0 -1
6602 1 1.1050926828272148e+01 2.3534007880228347e+00 3.9539697928381159e+01 1 1 0
2239 1 1.5253502011776046e+00 6.7685672766614893e+00 3.5937840525194773e+01 0 1 -1
3764 1 3.8282084984869980e+00 6.6728039031479280e+00 3.9375455134274532e+01 1 1 -1
6713 1 1.1346179850649408e+01 1.0997414190931018e+01 4.4021233847383286e+01 1 -1 -1
6472 1 5.0609095610712354e+00 8.8523656883958139e+00 4.0205865914152739e+01 -1 -3 0
1396 1 3.8554792019306698e+00 6.7497673902268973e+00 3.6954266225048841e+01 1 2 0
6586 1 7.2395299516576372e+00 4.8320369973129553e+00 3.6422729512982912e+01 0 -1 0
5085 1 4.6573533979353501e+00 4.5156993865659585e+00 3.5569569666093372e+01 2 -1 0
3655 1 7.4892175575933484e+00 4.3658480050758959e+00 3.9138440816634883e+01 1 1 -1
349 1 8.7418750992026357e+00 6.9315280439381706e+00 3.5858098475664903e+01 1 0 -1
6761 1 1.1140387360873722e+01 6.5206837746367476e+00 3.6996619500934074e+01 2 1 -1
5026 1 1.1222775907576152e+01 6.2353062521449027e+00 3.9582119433956464e+01 1 -1 0
415 1 8.6939689184939777e+00 1.1134071537697904e+01 4.3319336185448989e+01 3 0 0
3140 1 3.6782323981579794e+00 1.0996176777567882e+01 3.6792798137827617e+01 0 3 0
3076 1 1.4309075571122125e+00 1.1456123790308224e+01 3.5757509385408213e+01 2 4 0
3713 1 7.0893854020085803e+00 9.0691093139012526e+00 4.4016221691412014e+01 0 -1 -1
6533 1 4.6778783121314893e+00 8.7541383794637149e+00 4.2823943940255560e+01 2 2 0
2162 1 4.8921750029800455e+00 9.0016071500902477e+00 3.5923079987427968e+01 0 -2 0
96 1 7.5043425046189869e+00 8.8250423191999108e+00 3.9060003847522196e+01 0 1 -1
3829 1 7.3895930925495064e+00 9.1891772459737542e+00 3.6361516440817368e+01 -1 -1 -1
3851 1 1.1018528746224504e+01 1.0483916926826188e+01 3.9112621357433440e+01 -1 1 -1
6646 1 9.1749113999940892e+00 1.1163278472515636e+01 3.5605329130244527e+01 2 1 0
4942 1 1.1589203515516665e+01 1.0737950384330203e+01 3.6318668764835053e+01 2 0 0
2184 1 1.4456254868010274e+00 2.2643452579655747e+00 4.0088340768557060e+01 0 1 0
3229 1 1.4425018262626355e+00 2.6792822890748491e+00 4.2659417322684888e+01 0 2 0
3116 1 3.9706814822767180e+00 2.2517018189102300e+00 4.3774047278359348e+01 -1 0 0
1557 1 8.5347493757759398e+00 2.2311909567383883e+00 4.0115244580227895e+01 0 -1 0
5288 1 8.6576266919255254e+00 2.2400597519010641e+00 4.2900698690505962e+01 1 2 0
3836 1 1.1438353314785074e+01 2.2989409303387944e+00 4.3808633635504066e+01 -1 1 -1
3837 1 1.1755773092074620e+00 6.5933867547141265e+00 4.0491650296790880e+01 0 -1 -1
6451 1 1.3263274661894089e+00 6.6584249766234800e+00 4.3147112153799711e+01 -1 1 0
5651 1 3.5910650049939341e+00 6.4601800066566142e+00 4.3957420619925188e+01 1 -1 -1
4724 1 8.4522718593868884e+00 1.0704208347455294e+01 4.0514536673871049e+01 1 1 0
3308 1 5.0311712604240215e+00 4.5788069365490669e+00 4.0455987467930939e+01 0 0 -1
3963 1 7.5267558643453034e+00 4.5469978453713207e+00 4.4194354406707731e+01 1 2 0
3191 1 5.2511983086294034e+00 4.3698894841161398e+00 4.3198587008645731e+01 -1 -2 0
3478 1 8.5229280494093800e+00 6.7117321927036624e+00 4.0136266409693121e+01 1 0 -1
5108 1 1.1193772250170630e+01 6.4726467778401400e+00 4.4004999755471800e+01 0 4 0
5298 1 8.5421063782116313e+00 7.0803142170401818e+00 4.2784127201605159e+01 0 -1 -1
6536 1 8.5441460132009217e-01 1.1048345543473324e+01 4.3007436473678595e+01 0 1 0
3441 1 3.8082771401839546e+00 1.1140127582619465e+01 3.9441311207476673e+01 -1 -2 -1
4847 1 3.2752253339526283e-01 5.4677676078884763e-01 4.4075110219597050e+01 2 1 0
2216 1 1.0296087539782099e-01 4.7769173941007717e+00 3.6825880056607872e+01 -1 2 -1
1321 1 5.1476450077750640e+00 1.4158832415741061e-02 4.3265050382429365e+01 2 0 0
3000 1 7.4328439664030990e+00 4.6909228332856039e-02 3.9486928192017189e+01 1 -1 0
53 1 3.6462634699350974e-02 4.5982301512892176e+00 4.3713779402939281e+01 1 1 -1
2072 1 2.9980530790202281e-01 9.0043447064959121e+00 3.6657394653283475e+01 -2 1 -1
1541 1 5.1616555764544669e+00 3.1408851795940174e-01 4.0626033517670265e+01 0 -2 0
6420 1 7.4508429641771832e+00 1.4378853333585936e-01 4.4352211250494150e+01 -1 -2 0