LAMMPS data file via write_data, version 16 Mar 2018, timestep = 100000

6736 atoms
2 atom types

0.0000000000000000e+00 4.9219999999999999e+01 xlo xhi
0.0000000000000000e+00 4.9019635930410494e+01 ylo yhi
8.7579957366892813e-01 5.9186200426331169e+01 zlo zhi

Masses

1 18.015
2 12.01

Atoms # atomic

5245 1 3.8143113524940562e+00 2.4587882514620749e+00 3.7592500033905578e+00 0 1 0
4660 1 3.4712199303986674e-01 4.9771532369064880e-01 2.4174154147828606e+00 1 1 0
3113 1 1.7699865894566758e+00 1.4712628125556673e+01 4.6830422484272143e+00 0 0 1
2998 1 5.7165363871242425e+00 1.4428206268063517e+01 3.0106413003027495e+00 0 0 1
67 1 1.0337219812012510e+01 6.1860804547226582e+00 4.3839269714304860e+00 0 -1 1
232 1 5.1436211537138261e+00 8.0266098129031178e+00 1.1059281785221128e+01 0 0 0
2047 1 5.0547096754236387e+00 4.0386702231398974e+00 2.0177336894113340e+00 1 1 0
4926 1 6.9451164376866661e+00 8.3104868402766510e+00 3.4288487019447706e+00 0 0 1
3699 1 6.4676757948745340e+00 5.8000070048335717e+00 5.0497935595204737e+00 1 0 0
2261 1 8.9275825780067048e+00 2.5131671895870706e+00 3.6278582547234559e+00 0 1 0
1929 1 1.0807984320378436e+01 6.9296885361216471e+00 1.8942975954345835e+00 0 0 0
595 1 2.2302231775782246e+00 1.0352938305681892e+01 3.3351896098302118e+00 0 0 1
4728 1 3.5236195257709650e+00 9.8901722534830423e+00 5.7152574823677975e+00 1 0 1
5379 1 4.6299263461835993e-01 1.3766238608827150e+01 1.1789986976365547e+01 0 0 0
508 1 4.4384181512924687e+00 8.8361475223308528e+00 2.2494195333093980e+00 0 0 0
5577 1 9.1305741093280748e+00 9.3082315179811790e+00 2.1729238376322058e+00 0 0 0
3471 1 5.9254404625569261e+00 1.1104316164259464e+01 5.5281768561918003e+00 0 0 0
2105 1 1.1046335993273038e+01 3.6120530161305315e+00 5.2141133010919845e+00 -1 1 0
1878 1 1.1307752865981975e+01 1.5874284480079966e+01 1.5513002628839339e+00 -1 -1 1
6681 1 1.4594397608990202e+00 1.2933988769426616e+01 2.3078813251830463e+00 0 0 0
21 1 9.2747505155833529e+00 6.4105206368573322e+00 1.0915225611287413e+01 0 0 0
3624 1 9.1725159458202263e+00 3.3822544223107820e+00 1.0185785679946560e+01 0 1 0
4874 1 7.0306427946512349e+00 1.1990934857071515e+01 3.1164080350918399e+00 0 0 1
3554 1 1.1260815157386210e+01 2.3430835974904030e+00 1.1380665747146383e+01 0 1 0
3419 1 6.2068984363291846e-01 1.6145306701186108e+01 8.8167280001713060e+00 0 1 0
332 1 4.5294071077109486e+00 1.4409140068775448e+01 1.0554357805211927e+01 0 0 0
1619 1 9.0731766907233968e+00 1.3665607444902466e+01 3.5922422760551855e+00 0 0 1
2972 1 1.6507982639975753e+00 3.5686434531191398e+00 5.6216647297258566e+00 1 1 1
4823 1 8.9219909377564228e+00 1.5553984316289807e+01 1.1060442262900947e+01 1 0 1
6583 1 7.9504242540577286e+00 5.0250898252244305e+00 2.6213863706296352e+00 1 0 0
1968 1 3.9764244532314397e+00 3.7129162779244025e+00 7.9407994875975705e+00 0 0 0
285 1 9.5454981814213262e+00 2.3979360814662112e+00 7.4080038407415794e+00 0 0 0
1435 1 7.1879712623203833e+00 1.5568671031268881e+00 5.9928107173847245e+00 0 0 1
5116 1 1.3927641129766157e+00 6.2109995080926641e+00 5.0550579597978542e+00 1 1 0
1556 1 3.5845319559910864e+00 7.3291052925672053e+00 5.0121179804189238e+00 0 1 1
3535 1 1.5426120247675845e+00 6.1587699795792323e+00 1.1483302443727682e+01 1 0 1
5511 1 5.8914774904777287e+00 6.0591434064627432e+00 9.1846766151720249e+00 0 0 0
2989 1 5.4013106621819746e+00 3.4277835528933824e+00 5.9133507211100627e+00 1 1 1
2200 1 8.0606915737633997e+00 6.6703154265428219e+00 7.2121501462857251e+00 0 1 0
35 1 8.9620341724089450e+00 1.1299227244393142e+01 1.2197669065121929e+01 0 0 1
6706 1 1.7036535093892522e+00 7.2427959641618536e+00 9.2102348797133349e+00 0 0 1
1871 1 1.2339635203990693e+00 1.1467487539953174e+01 7.2751657784846566e+00 0 0 1
5468 1 7.3003644764322573e+00 9.5692417040444919e+00 9.0955117559901559e+00 0 1 0
516 1 3.6867724084115685e+00 6.9494762592435029e+00 7.7578053561700129e+00 0 0 0
1801 1 5.9172005037018485e+00 1.1867766875807735e+01 8.2161765445036181e+00 0 0 1
5485 1 7.6686492237129515e+00 9.2766904222722513e+00 6.0653980245963544e+00 0 0 0
2027 1 1.0378523804036689e+01 1.0547463516286602e+01 6.0168965164635937e+00 0 0 0
488 1 1.0128585980237702e+01 1.2915720479924909e+01 1.0386389828187820e+01 0 0 0
4853 1 1.9973540582194644e+00 1.3875710189449670e+01 7.6254141018465198e+00 1 0 1
1335 1 1.1635409302259468e+01 1.0788351338843535e+01 8.6832579928157649e+00 0 0 0
3763 1 1.1849828489037153e+01 8.0830505313944148e+00 6.0926933809128387e+00 0 0 1
5144 1 4.8231359684052961e+00 1.4998231435215230e+01 7.7410280003441105e+00 1 0 1
195 1 8.4278288294098989e+00 1.3180220698063751e+01 8.3962121124485893e+00 0 1 0
1833 1 6.4877532497175965e+00 3.1419266411943847e-01 9.0203559342699240e+00 0 0 1
3623 1 1.0629192232512610e+01 1.1272531682798347e+01 3.2041556295759550e+00 1 0 0
3255 1 4.2034283962172747e+00 1.5288816656310162e+01 4.8649320492076198e+00 1 1 1
3652 1 3.8412490917367901e+00 1.3065258037828082e+01 1.1666756423822455e+00 0 0 0
6664 1 2.0239005133575456e+00 4.4548647123748513e+00 2.0657984922870165e+00 1 1 0
235 1 6.6848158000194218e+00 3.4820013908234904e+00 1.0615337319814861e+01 0 0 0
3076 1 1.9344856559889806e-01 8.7832433730026942e+00 3.0623487101075848e+00 0 1 1
80 1 2.6556292489950573e+00 1.6251207455053443e+01 1.0808016391028701e+01 0 0 1
3871 1 7.3420403421604261e+00 1.6113124610567411e+01 8.4655390400342387e+00 0 0 0
1621 1 1.6919511063373085e+00 3.3440046782854900e+00 1.0844257444862855e+01 0 0 0
1861 1 1.1262588267471777e+01 1.2051192092841764e-01 2.9173681722972127e+00 0 0 0
3640 1 5.7596518758563597e-01 2.9454359818116882e+00 8.2024354113100397e+00 0 0 0
5369 1 4.0970623800216170e+00 6.9104088365792060e-01 7.5779234593210081e+00 1 1 0
3423 1 4.1828344123442829e+00 1.9197517840079339e+00 1.0972433602660555e+01 1 0 0
128 1 1.0370465711744062e+01 5.5474541395096084e+00 8.0368380516850042e+00 0 0 0
3537 1 9.8194198909346877e+00 9.2142517165444300e+00 1.0366188782905665e+01 1 0 0
5018 1 4.9224063728732865e+00 1.1209411827999249e+01 1.0776643358987471e+01 1 0 1
2146 1 1.2351460393910956e+00 9.8687621537963306e+00 9.4768627119208535e+00 1 1 0
3885 1 2.2503949854812646e+00 1.1340143914719993e+01 1.1417544908001137e+01 0 0 1
3427 1 1.0065899606488514e+01 1.3494056561695521e+01 6.1731238202466656e+00 1 1 1
3841 1 6.3114365291118899e+00 1.5639950125471820e+01 1.2099898015285614e+01 0 0 0
6694 1 7.3491321450824429e+00 7.0566200898000453e+00 1.2492390547224780e+01 0 0 1
137 1 2.4238811775504328e+00 1.6328826525912113e+01 1.8999724756156677e+00 0 1 0
199 1 5.2069170920630476e+00 5.2827723394061268e+00 1.4164411800829196e+01 0 0 0
3366 1 1.0638226744268689e+01 5.2684608113262517e+00 1.3550588353319114e+01 1 1 0
5326 1 8.1857208014272338e+00 1.9857893351228553e+00 2.3966064439647027e+01 0 1 0
5172 1 1.8943525694553537e-01 5.7989489407889918e+00 1.7722522622284590e+01 1 1 0
485 1 5.8756134257190187e+00 4.3629213797110067e-01 1.4396401544102075e+01 0 0 0
4905 1 9.0715011412675324e+00 8.9246648646727422e-01 1.4985886101403322e+01 0 0 1
6392 1 3.9893590224842806e-01 2.4016084495505376e+00 2.0622774296013503e+01 1 1 1
3812 1 1.7139667235575311e+00 3.2002103238825881e+00 1.4612123746520089e+01 0 0 0
5315 1 6.8427203631645925e+00 1.3133588084198593e+01 2.3689507281780628e+01 1 1 0
530 1 8.1889677148499107e+00 9.1096766602520134e+00 1.3954365634873700e+01 0 0 0
3799 1 1.0564035955881671e+01 7.7584774225082471e+00 1.4760813951875051e+01 0 0 0
3435 1 8.3968488115229487e+00 5.4757220704639922e+00 2.3499333547755263e+01 0 0 0
3445 1 6.0295229737977198e+00 2.1287794921826140e+00 1.6759199161374625e+01 1 0 1
1780 1 7.1398297923357772e+00 1.0790151922190161e+01 1.8555151171333282e+01 0 0 0
102 1 4.4397277156264394e+00 1.2009895487931477e+01 1.4449979704340809e+01 0 0 0
3770 1 6.6156516885243208e+00 1.0715824023449970e+01 1.5902483532857017e+01 1 0 1
1663 1 1.1179123425347580e+01 1.1929393680479576e+01 1.4080974234433892e+01 0 0 0
217 1 1.4128285208605157e-01 1.5112963666658479e+00 1.2655201719146978e+01 0 0 0
3314 1 3.5938064691572382e+00 1.3914045017568702e+01 1.6224187876629045e+01 0 -1 0
276 1 1.8856434868904750e+00 1.0771384611145789e+01 1.7414442389501282e+01 0 0 0
98 1 1.1587936646624177e+01 5.0331173973375121e+00 1.7930111152733389e+01 1 0 1
3816 1 1.1093691726485149e+01 3.4124145423535404e+00 1.5537234175441466e+01 0 0 0
5486 1 1.3498173720264337e+00 2.6313560125114268e+00 1.7063165620727606e+01 0 0 0
224 1 3.9621133401457533e+00 3.5174315185291980e+00 1.8038866533723777e+01 0 0 0
3804 1 5.8516643524908680e+00 3.5742887612361121e+00 2.0488915480315757e+01 0 1 0
3689 1 8.2184421642800576e+00 3.5584783738697232e+00 1.6867851761607106e+01 0 0 0
5554 1 4.1529737064786187e-01 9.2522478062792519e+00 2.0810672663753856e+01 1 0 0
3648 1 9.1941487542473883e+00 5.7289379526960280e+00 2.0815131551242917e+01 -1 0 0
3507 1 2.0562848611928328e+00 7.5671157211206586e+00 1.7525000936549670e+01 1 0 1
1517 1 4.3529312469836983e+00 6.1372688963260655e+00 1.7089438273497237e+01 1 0 0
4678 1 7.5029673143046356e+00 6.4590920963090674e+00 1.5610464103387326e+01 1 0 1
3889 1 9.8683177403287505e+00 7.3719603564134921e+00 1.7480396732916500e+01 0 0 0
2008 1 1.0715521713587847e+01 8.7938870951180039e+00 1.9644729811485607e+01 0 1 0
4688 1 9.4298952383269636e+00 1.4012895806876951e+01 2.3195758862560197e+01 1 0 1
1769 1 2.7586492421345223e+00 7.8964487122227967e+00 2.0519391717603003e+01 0 0 0
182 1 3.6689203759015223e+00 1.2011448294466520e+01 2.0856577217566745e+01 0 0 0
3777 1 8.8495512375163567e+00 1.1970887257476891e+01 2.0958336263472560e+01 0 1 0
1973 1 7.6680599996915628e+00 1.3281085549276137e+01 1.6443557978064806e+01 1 0 0
5258 1 1.0235410239795687e+01 1.3292617859938337e+01 1.6291472926295786e+01 0 0 0
384 1 1.0803779478618125e+01 1.0922251717577721e+01 1.7997626712117317e+01 1 0 0
478 1 4.7241021512097232e+00 1.4614634523435518e+01 2.0370257760871482e+01 0 0 0
437 1 1.5433090904464504e+00 1.3432602129520657e+01 1.8218558739077285e+01 1 0 0
3584 1 5.0602716903867391e+00 9.0400616586227009e+00 2.3695143185682600e+01 1 0 1
218 1 7.2874062986672117e+00 1.3861552922763389e+01 1.9310797839580260e+01 0 0 0
3951 1 6.6008513273664819e+00 1.4973349164832698e+01 1.5009539082189455e+01 0 0 1
291 1 9.2627154622677992e+00 1.9147148014775942e-01 1.7469949210333031e+01 1 1 0
2197 1 6.7224587842960815e-01 5.7006962507960894e+00 2.3586503077100435e+01 0 1 0
460 1 1.1187144119488481e+01 5.5202630426023624e+00 2.4154432582682194e+01 0 0 0
5261 1 1.0117758915053532e+01 3.3245654342369328e+00 1.9291281797079272e+01 -1 0 0
3247 1 3.0604984922846556e+00 2.2292675146914247e+00 2.0664392041786126e+01 0 0 1
3451 1 1.1062636971939115e+01 1.8048189285411412e-01 1.3427404608351623e+01 1 1 0
2236 1 1.8873120738463647e+00 1.5944790773445870e+01 1.8742365777234678e+01 0 0 0
131 1 1.1827914588412209e+01 1.3984847770164355e+00 1.8385130600147551e+01 0 1 0
5241 1 2.0162588035255311e+00 5.4438115405895005e+00 2.1173937572404860e+01 0 1 1
190 1 6.5168559050813553e+00 8.1064273663829383e+00 2.0815730511844940e+01 0 1 0
2015 1 3.4988146932920214e+00 3.2728973391691798e+00 2.3348739950003679e+01 1 0 0
483 1 1.1193548615732263e+01 1.4824878771292580e+01 1.3107984285798803e+01 0 1 0
1917 1 6.8471302619195091e+00 5.8578081609783244e+00 1.9100264304832386e+01 0 1 0
3553 1 8.2027216176150279e+00 1.8486820096238279e+00 2.1215499631734684e+01 0 0 1
2090 1 6.5439163613847340e+00 5.2650923506340053e-01 1.8976807976870088e+01 0 0 0
273 1 4.2340206703464238e+00 2.7049044454961568e+00 1.3476809932440560e+01 0 0 1
3666 1 5.7856703737066537e+00 1.1122217222332146e+01 2.2231606139180819e+01 1 0 0
5134 1 1.1125011804447285e+01 1.3027529780498170e+01 1.9770511346418211e+01 1 0 0
3082 1 8.9891783551390017e+00 9.4674172773624736e+00 2.1826469161053122e+01 0 0 1
448 1 4.4856854283163203e+00 1.0160547169033727e+01 1.8987188535958875e+01 0 1 0
5264 1 1.5285790324162600e+00 8.2616501186030753e+00 1.4814397051066090e+01 1 1 0
3189 1 2.1759728824002700e+00 8.2878343757662787e+00 2.3995003112624641e+01 0 0 0
228 1 2.0510259206858845e+00 1.1041770155418156e+01 1.3903042270537957e+01 0 0 0
348 1 5.2832929870178846e+00 1.5054596667610154e+01 2.3211776845148975e+01 1 0 0
3721 1 1.1162279753694657e+01 1.5843385924878689e+01 1.7741804889366467e+01 1 0 0
5076 1 1.0203789314626939e+00 1.1862475051367795e+01 2.1163248451449117e+01 0 -1 1
5444 1 2.7429568134327060e+00 1.3816450928668498e+01 2.3452812417379103e+01 0 1 0
1792 1 4.7872509841823714e+00 6.2535574065967898e+00 2.2612669513965827e+01 0 0 1
1705 1 3.4234007942516120e+00 6.9050912345754245e+00 1.3173192555896728e+01 0 0 0
230 1 9.4040342980073692e+00 1.5783051346781313e+01 1.9864692018071043e+01 1 0 0
5078 1 7.7705558549338942e+00 3.6504335652098465e+00 1.3624370120257998e+01 1 0 0
1584 1 6.4939596685779151e+00 1.2680785077550450e+01 1.2701307519992627e+01 1 0 1
5207 1 3.7429206371138419e+00 4.4386292911690256e-01 2.3727115508150852e+01 1 1 0
616 2 0.0000000000000000e+00 2.8417180249513345e+00 2.6817443370936079e+01 0 0 0
618 2 0.0000000000000000e+00 0.0000000000000000e+00 2.6817443370936079e+01 0 0 0
620 2 1.2305000000000001e+00 7.1042950623783474e-01 2.6817443370936079e+01 0 0 0
627 2 1.2305000000000001e+00 2.1312885187134998e+00 2.6817443370936079e+01 0 0 0
629 2 2.4610000000000003e+00 2.8417180249513345e+00 2.6817443370936079e+01 0 0 0
631 2 2.4610000000000003e+00 0.0000000000000000e+00 2.6817443370936079e+01 0 0 0
633 2 3.6915000000000004e+00 7.1042950623783474e-01 2.6817443370936079e+01 0 0 0
648 2 3.6914999999999996e+00 2.1312885187134998e+00 2.6817443370936079e+01 0 0 0
5649 1 7.8129263685107535e+00 7.9214658957889652e+00 2.4294142933109654e+01 1 0 0
650 2 4.9220000000000006e+00 2.8417180249513332e+00 2.6817443370936079e+01 0 0 0
652 2 4.9220000000000006e+00 0.0000000000000000e+00 2.6817443370936079e+01 0 0 0
654 2 6.1524999999999999e+00 7.1042950623783407e-01 2.6817443370936079e+01 0 0 0
677 2 6.1524999999999999e+00 2.1312885187134989e+00 2.6817443370936079e+01 0 0 0
679 2 7.3829999999999991e+00 2.8417180249513345e+00 2.6817443370936079e+01 0 0 0
681 2 7.3829999999999991e+00 0.0000000000000000e+00 2.6817443370936079e+01 0 0 0
84 1 1.8175473042225530e+00 1.1148729953753410e+01 2.4515842886467599e+01 0 0 1
1056 2 9.8440000000000012e+00 1.5629449137232328e+01 3.3244556629063297e+01 0 0 0
683 2 8.6134999999999984e+00 7.1042950623783407e-01 2.6817443370936079e+01 0 0 0
714 2 8.6134999999999984e+00 2.1312885187135002e+00 2.6817443370936079e+01 0 0 0
716 2 9.8440000000000012e+00 2.8417180249513332e+00 2.6817443370936079e+01 0 0 0
718 2 9.8440000000000012e+00 0.0000000000000000e+00 2.6817443370936079e+01 0 0 0
720 2 1.1074500000000002e+01 7.1042950623783330e-01 2.6817443370936079e+01 0 0 0
759 2 1.1074500000000002e+01 2.1312885187135002e+00 2.6817443370936079e+01 0 0 0
621 2 0.0000000000000000e+00 7.1042950623783341e+00 2.6817443370936079e+01 0 0 0
623 2 0.0000000000000000e+00 4.2625770374269996e+00 2.6817443370936079e+01 0 0 0
625 2 1.2305000000000001e+00 4.9730065436648339e+00 2.6817443370936079e+01 0 0 0
640 2 1.2305000000000001e+00 6.3938655561404980e+00 2.6817443370936079e+01 0 0 0
642 2 2.4610000000000003e+00 7.1042950623783341e+00 2.6817443370936079e+01 0 0 0
644 2 2.4610000000000003e+00 4.2625770374269996e+00 2.6817443370936079e+01 0 0 0
646 2 3.6914999999999996e+00 4.9730065436648339e+00 2.6817443370936079e+01 0 0 0
669 2 3.6914999999999996e+00 6.3938655561404980e+00 2.6817443370936079e+01 0 0 0
4759 1 1.3965601539035783e+00 4.1744045721412606e+00 3.5523726201745859e+01 1 0 0
671 2 4.9220000000000006e+00 7.1042950623783341e+00 2.6817443370936079e+01 0 0 0
673 2 4.9220000000000006e+00 4.2625770374269978e+00 2.6817443370936079e+01 0 0 0
675 2 6.1524999999999999e+00 4.9730065436648339e+00 2.6817443370936079e+01 0 0 0
706 2 6.1524999999999999e+00 6.3938655561404980e+00 2.6817443370936079e+01 0 0 0
708 2 7.3830000000000009e+00 7.1042950623783341e+00 2.6817443370936079e+01 0 0 0
710 2 7.3829999999999991e+00 4.2625770374269996e+00 2.6817443370936079e+01 0 0 0
712 2 8.6135000000000002e+00 4.9730065436648339e+00 2.6817443370936079e+01 0 0 0
751 2 8.6135000000000002e+00 6.3938655561404980e+00 2.6817443370936079e+01 0 0 0
753 2 9.8440000000000012e+00 7.1042950623783341e+00 2.6817443370936079e+01 0 0 0
755 2 9.8440000000000012e+00 4.2625770374270004e+00 2.6817443370936079e+01 0 0 0
757 2 1.1074500000000002e+01 4.9730065436648339e+00 2.6817443370936079e+01 0 0 0
798 2 1.1074500000000002e+01 6.3938655561404980e+00 2.6817443370936079e+01 0 0 0
1058 2 1.1074500000000002e+01 1.3498160618518829e+01 3.3244556629063297e+01 0 0 0
634 2 0.0000000000000000e+00 1.1366872099805333e+01 2.6817443370936079e+01 0 0 0
636 2 0.0000000000000000e+00 8.5251540748539991e+00 2.6817443370936079e+01 0 0 0
638 2 1.2305000000000001e+00 9.2355835810918343e+00 2.6817443370936079e+01 0 0 0
661 2 1.2305000000000001e+00 1.0656442593567498e+01 2.6817443370936079e+01 0 0 0
663 2 2.4610000000000003e+00 1.1366872099805333e+01 2.6817443370936079e+01 0 0 0
665 2 2.4610000000000003e+00 8.5251540748539991e+00 2.6817443370936079e+01 0 0 0
667 2 3.6915000000000004e+00 9.2355835810918343e+00 2.6817443370936079e+01 0 0 0
698 2 3.6914999999999996e+00 1.0656442593567499e+01 2.6817443370936079e+01 0 0 0
700 2 4.9220000000000006e+00 1.1366872099805333e+01 2.6817443370936079e+01 0 0 0
702 2 4.9220000000000006e+00 8.5251540748539991e+00 2.6817443370936079e+01 0 0 0
704 2 6.1524999999999999e+00 9.2355835810918343e+00 2.6817443370936079e+01 0 0 0
743 2 6.1524999999999999e+00 1.0656442593567499e+01 2.6817443370936079e+01 0 0 0
745 2 7.3829999999999991e+00 1.1366872099805333e+01 2.6817443370936079e+01 0 0 0
747 2 7.3830000000000009e+00 8.5251540748539991e+00 2.6817443370936079e+01 0 0 0
749 2 8.6134999999999984e+00 9.2355835810918343e+00 2.6817443370936079e+01 0 0 0
790 2 8.6134999999999984e+00 1.0656442593567498e+01 2.6817443370936079e+01 0 0 0
792 2 9.8440000000000012e+00 1.1366872099805333e+01 2.6817443370936079e+01 0 0 0
794 2 9.8440000000000012e+00 8.5251540748539956e+00 2.6817443370936079e+01 0 0 0
796 2 1.1074500000000002e+01 9.2355835810918343e+00 2.6817443370936079e+01 0 0 0
837 2 1.1074500000000002e+01 1.0656442593567498e+01 2.6817443370936079e+01 0 0 0
839 2 1.2304999999999998e+01 1.1366872099805333e+01 2.6817443370936079e+01 0 0 0
655 2 0.0000000000000000e+00 1.5629449137232333e+01 2.6817443370936079e+01 0 0 0
657 2 0.0000000000000000e+00 1.2787731112280996e+01 2.6817443370936079e+01 0 0 0
659 2 1.2305000000000001e+00 1.3498160618518829e+01 2.6817443370936079e+01 0 0 0
690 2 1.2305000000000001e+00 1.4919019630994494e+01 2.6817443370936079e+01 0 0 0
692 2 2.4610000000000003e+00 1.5629449137232328e+01 2.6817443370936079e+01 0 0 0
694 2 2.4610000000000003e+00 1.2787731112280996e+01 2.6817443370936079e+01 0 0 0
696 2 3.6915000000000004e+00 1.3498160618518829e+01 2.6817443370936079e+01 0 0 0
735 2 3.6915000000000004e+00 1.4919019630994494e+01 2.6817443370936079e+01 0 0 0
737 2 4.9220000000000006e+00 1.5629449137232333e+01 2.6817443370936079e+01 0 0 0
739 2 4.9220000000000006e+00 1.2787731112280996e+01 2.6817443370936079e+01 0 0 0
741 2 6.1524999999999990e+00 1.3498160618518829e+01 2.6817443370936079e+01 0 0 0
782 2 6.1524999999999990e+00 1.4919019630994494e+01 2.6817443370936079e+01 0 0 0
784 2 7.3829999999999991e+00 1.5629449137232333e+01 2.6817443370936079e+01 0 0 0
786 2 7.3829999999999991e+00 1.2787731112280996e+01 2.6817443370936079e+01 0 0 0
2005 1 1.3276344631880639e+00 3.4569577527833304e+00 2.4610456531143289e+01 0 1 0
788 2 8.6135000000000002e+00 1.3498160618518835e+01 2.6817443370936079e+01 0 0 0
829 2 8.6135000000000002e+00 1.4919019630994494e+01 2.6817443370936079e+01 0 0 0
831 2 9.8440000000000012e+00 1.5629449137232328e+01 2.6817443370936079e+01 0 0 0
833 2 9.8440000000000012e+00 1.2787731112280996e+01 2.6817443370936079e+01 0 0 0
835 2 1.1074500000000002e+01 1.3498160618518829e+01 2.6817443370936079e+01 0 0 0
871 2 1.1074500000000002e+01 1.4919019630994494e+01 2.6817443370936079e+01 0 0 0
617 2 0.0000000000000000e+00 1.4208590124756650e+00 3.0031000000000216e+01 0 0 0
619 2 0.0000000000000000e+00 0.0000000000000000e+00 3.0031000000000216e+01 0 0 0
626 2 1.2305000000000001e+00 3.5521475311891644e+00 3.0031000000000216e+01 0 0 0
628 2 1.2305000000000001e+00 2.1312885187134998e+00 3.0031000000000216e+01 0 0 0
630 2 2.4610000000000003e+00 1.4208590124756650e+00 3.0031000000000216e+01 0 0 0
632 2 2.4610000000000003e+00 0.0000000000000000e+00 3.0031000000000216e+01 0 0 0
647 2 3.6914999999999996e+00 3.5521475311891644e+00 3.0031000000000216e+01 0 0 0
649 2 3.6914999999999996e+00 2.1312885187134998e+00 3.0031000000000216e+01 0 0 0
651 2 4.9220000000000006e+00 1.4208590124756650e+00 3.0031000000000216e+01 0 0 0
653 2 4.9220000000000006e+00 0.0000000000000000e+00 3.0031000000000216e+01 0 0 0
676 2 6.1524999999999999e+00 3.5521475311891644e+00 3.0031000000000216e+01 0 0 0
678 2 6.1524999999999999e+00 2.1312885187134989e+00 3.0031000000000216e+01 0 0 0
680 2 7.3829999999999991e+00 1.4208590124756659e+00 3.0031000000000216e+01 0 0 0
682 2 7.3829999999999991e+00 0.0000000000000000e+00 3.0031000000000216e+01 0 0 0
713 2 8.6134999999999984e+00 3.5521475311891657e+00 3.0031000000000216e+01 0 0 0
715 2 8.6134999999999984e+00 2.1312885187135002e+00 3.0031000000000216e+01 0 0 0
717 2 9.8440000000000012e+00 1.4208590124756659e+00 3.0031000000000216e+01 0 0 0
719 2 9.8440000000000012e+00 0.0000000000000000e+00 3.0031000000000216e+01 0 0 0
758 2 1.1074500000000002e+01 3.5521475311891644e+00 3.0031000000000216e+01 0 0 0
760 2 1.1074500000000002e+01 2.1312885187135002e+00 3.0031000000000216e+01 0 0 0
622 2 0.0000000000000000e+00 5.6834360499026637e+00 3.0031000000000216e+01 0 0 0
624 2 0.0000000000000000e+00 4.2625770374269996e+00 3.0031000000000216e+01 0 0 0
639 2 1.2305000000000001e+00 7.8147245686161639e+00 3.0031000000000216e+01 0 0 0
641 2 1.2305000000000001e+00 6.3938655561404980e+00 3.0031000000000216e+01 0 0 0
643 2 2.4610000000000003e+00 5.6834360499026637e+00 3.0031000000000216e+01 0 0 0
645 2 2.4610000000000003e+00 4.2625770374269996e+00 3.0031000000000216e+01 0 0 0
668 2 3.6914999999999996e+00 7.8147245686161639e+00 3.0031000000000216e+01 0 0 0
670 2 3.6914999999999996e+00 6.3938655561404980e+00 3.0031000000000216e+01 0 0 0
672 2 4.9220000000000006e+00 5.6834360499026637e+00 3.0031000000000216e+01 0 0 0
674 2 4.9220000000000006e+00 4.2625770374269978e+00 3.0031000000000216e+01 0 0 0
705 2 6.1524999999999999e+00 7.8147245686161639e+00 3.0031000000000216e+01 0 0 0
707 2 6.1524999999999999e+00 6.3938655561404980e+00 3.0031000000000216e+01 0 0 0
709 2 7.3829999999999991e+00 5.6834360499026637e+00 3.0031000000000216e+01 0 0 0
711 2 7.3829999999999991e+00 4.2625770374269996e+00 3.0031000000000216e+01 0 0 0
750 2 8.6135000000000002e+00 7.8147245686161639e+00 3.0031000000000216e+01 0 0 0
752 2 8.6135000000000002e+00 6.3938655561404980e+00 3.0031000000000216e+01 0 0 0
754 2 9.8440000000000012e+00 5.6834360499026637e+00 3.0031000000000216e+01 0 0 0
756 2 9.8440000000000012e+00 4.2625770374270004e+00 3.0031000000000216e+01 0 0 0
797 2 1.1074500000000002e+01 7.8147245686161639e+00 3.0031000000000216e+01 0 0 0
799 2 1.1074500000000002e+01 6.3938655561404980e+00 3.0031000000000216e+01 0 0 0
635 2 0.0000000000000000e+00 9.9460130873296642e+00 3.0031000000000216e+01 0 0 0
637 2 0.0000000000000000e+00 8.5251540748539991e+00 3.0031000000000216e+01 0 0 0
660 2 1.2305000000000001e+00 1.2077301606043163e+01 3.0031000000000216e+01 0 0 0
662 2 1.2305000000000001e+00 1.0656442593567498e+01 3.0031000000000216e+01 0 0 0
664 2 2.4610000000000003e+00 9.9460130873296642e+00 3.0031000000000216e+01 0 0 0
666 2 2.4610000000000003e+00 8.5251540748539991e+00 3.0031000000000216e+01 0 0 0
697 2 3.6914999999999996e+00 1.2077301606043163e+01 3.0031000000000216e+01 0 0 0
699 2 3.6914999999999996e+00 1.0656442593567499e+01 3.0031000000000216e+01 0 0 0
701 2 4.9220000000000006e+00 9.9460130873296642e+00 3.0031000000000216e+01 0 0 0
703 2 4.9220000000000006e+00 8.5251540748539991e+00 3.0031000000000216e+01 0 0 0
742 2 6.1524999999999999e+00 1.2077301606043163e+01 3.0031000000000216e+01 0 0 0
744 2 6.1524999999999999e+00 1.0656442593567499e+01 3.0031000000000216e+01 0 0 0
746 2 7.3830000000000009e+00 9.9460130873296642e+00 3.0031000000000216e+01 0 0 0
748 2 7.3830000000000009e+00 8.5251540748539991e+00 3.0031000000000216e+01 0 0 0
789 2 8.6135000000000002e+00 1.2077301606043163e+01 3.0031000000000216e+01 0 0 0
791 2 8.6134999999999984e+00 1.0656442593567498e+01 3.0031000000000216e+01 0 0 0
793 2 9.8440000000000012e+00 9.9460130873296642e+00 3.0031000000000216e+01 0 0 0
795 2 9.8440000000000012e+00 8.5251540748539956e+00 3.0031000000000216e+01 0 0 0
836 2 1.1074500000000002e+01 1.2077301606043163e+01 3.0031000000000216e+01 0 0 0
838 2 1.1074500000000002e+01 1.0656442593567498e+01 3.0031000000000216e+01 0 0 0
656 2 0.0000000000000000e+00 1.4208590124756663e+01 3.0031000000000216e+01 0 0 0
658 2 0.0000000000000000e+00 1.2787731112280996e+01 3.0031000000000216e+01 0 0 0
691 2 1.2305000000000001e+00 1.4919019630994494e+01 3.0031000000000216e+01 0 0 0
693 2 2.4610000000000003e+00 1.4208590124756663e+01 3.0031000000000216e+01 0 0 0
695 2 2.4610000000000003e+00 1.2787731112280996e+01 3.0031000000000216e+01 0 0 0
736 2 3.6915000000000004e+00 1.4919019630994494e+01 3.0031000000000216e+01 0 0 0
738 2 4.9220000000000006e+00 1.4208590124756663e+01 3.0031000000000216e+01 0 0 0
740 2 4.9220000000000006e+00 1.2787731112280996e+01 3.0031000000000216e+01 0 0 0
783 2 6.1524999999999990e+00 1.4919019630994494e+01 3.0031000000000216e+01 0 0 0
785 2 7.3830000000000009e+00 1.4208590124756663e+01 3.0031000000000216e+01 0 0 0
787 2 7.3829999999999991e+00 1.2787731112280996e+01 3.0031000000000216e+01 0 0 0
830 2 8.6135000000000002e+00 1.4919019630994494e+01 3.0031000000000216e+01 0 0 0
832 2 9.8440000000000012e+00 1.4208590124756663e+01 3.0031000000000216e+01 0 0 0
872 2 1.1074500000000002e+01 1.4919019630994494e+01 3.0031000000000216e+01 0 0 0
874 2 1.2304999999999998e+01 1.4208590124756658e+01 3.0031000000000216e+01 0 0 0
834 2 9.8440000000000012e+00 1.2787731112280996e+01 3.0031000000000216e+01 0 0 0
870 2 1.1074500000000002e+01 1.6339878643470161e+01 3.0031000000000216e+01 0 0 0
945 2 0.0000000000000000e+00 2.8417180249513345e+00 3.3244556629063297e+01 0 0 0
946 2 0.0000000000000000e+00 0.0000000000000000e+00 3.3244556629063297e+01 0 0 0
947 2 1.2305000000000001e+00 7.1042950623783474e-01 3.3244556629063297e+01 0 0 0
951 2 1.2305000000000001e+00 2.1312885187134998e+00 3.3244556629063297e+01 0 0 0
952 2 2.4610000000000003e+00 2.8417180249513345e+00 3.3244556629063297e+01 0 0 0
953 2 2.4610000000000003e+00 0.0000000000000000e+00 3.3244556629063297e+01 0 0 0
954 2 3.6915000000000004e+00 7.1042950623783474e-01 3.3244556629063297e+01 0 0 0
962 2 3.6914999999999996e+00 2.1312885187134998e+00 3.3244556629063297e+01 0 0 0
1033 2 7.3829999999999991e+00 1.2787731112280996e+01 3.3244556629063297e+01 0 0 0
963 2 4.9220000000000006e+00 2.8417180249513332e+00 3.3244556629063297e+01 0 0 0
964 2 4.9220000000000006e+00 0.0000000000000000e+00 3.3244556629063297e+01 0 0 0
965 2 6.1524999999999999e+00 7.1042950623783407e-01 3.3244556629063297e+01 0 0 0
977 2 6.1524999999999999e+00 2.1312885187134989e+00 3.3244556629063297e+01 0 0 0
978 2 7.3829999999999991e+00 2.8417180249513345e+00 3.3244556629063297e+01 0 0 0
979 2 7.3829999999999991e+00 0.0000000000000000e+00 3.3244556629063297e+01 0 0 0
1076 2 1.1074500000000002e+01 1.4919019630994494e+01 3.3244556629063297e+01 0 0 0
1009 2 4.9220000000000006e+00 1.2787731112280996e+01 3.3244556629063297e+01 0 0 0
980 2 8.6134999999999984e+00 7.1042950623783407e-01 3.3244556629063297e+01 0 0 0
996 2 8.6134999999999984e+00 2.1312885187135002e+00 3.3244556629063297e+01 0 0 0
997 2 9.8440000000000012e+00 2.8417180249513332e+00 3.3244556629063297e+01 0 0 0
998 2 9.8440000000000012e+00 0.0000000000000000e+00 3.3244556629063297e+01 0 0 0
999 2 1.1074500000000002e+01 7.1042950623783330e-01 3.3244556629063297e+01 0 0 0
1019 2 1.1074500000000002e+01 2.1312885187135002e+00 3.3244556629063297e+01 0 0 0
1055 2 8.6135000000000002e+00 1.4919019630994494e+01 3.3244556629063297e+01 0 0 0
948 2 0.0000000000000000e+00 7.1042950623783341e+00 3.3244556629063297e+01 0 0 0
949 2 0.0000000000000000e+00 4.2625770374269996e+00 3.3244556629063297e+01 0 0 0
950 2 1.2305000000000001e+00 4.9730065436648339e+00 3.3244556629063297e+01 0 0 0
958 2 1.2305000000000001e+00 6.3938655561404980e+00 3.3244556629063297e+01 0 0 0
959 2 2.4610000000000003e+00 7.1042950623783341e+00 3.3244556629063297e+01 0 0 0
960 2 2.4610000000000003e+00 4.2625770374269996e+00 3.3244556629063297e+01 0 0 0
961 2 3.6914999999999996e+00 4.9730065436648339e+00 3.3244556629063297e+01 0 0 0
973 2 3.6914999999999996e+00 6.3938655561404980e+00 3.3244556629063297e+01 0 0 0
974 2 4.9220000000000006e+00 7.1042950623783341e+00 3.3244556629063297e+01 0 0 0
975 2 4.9220000000000006e+00 4.2625770374269978e+00 3.3244556629063297e+01 0 0 0
976 2 6.1524999999999999e+00 4.9730065436648339e+00 3.3244556629063297e+01 0 0 0
992 2 6.1524999999999999e+00 6.3938655561404980e+00 3.3244556629063297e+01 0 0 0
993 2 7.3830000000000009e+00 7.1042950623783341e+00 3.3244556629063297e+01 0 0 0
994 2 7.3829999999999991e+00 4.2625770374269996e+00 3.3244556629063297e+01 0 0 0
995 2 8.6135000000000002e+00 4.9730065436648339e+00 3.3244556629063297e+01 0 0 0
1015 2 8.6135000000000002e+00 6.3938655561404980e+00 3.3244556629063297e+01 0 0 0
1016 2 9.8440000000000012e+00 7.1042950623783341e+00 3.3244556629063297e+01 0 0 0
1017 2 9.8440000000000012e+00 4.2625770374270004e+00 3.3244556629063297e+01 0 0 0
1018 2 1.1074500000000002e+01 4.9730065436648339e+00 3.3244556629063297e+01 0 0 0
1039 2 1.1074500000000002e+01 6.3938655561404980e+00 3.3244556629063297e+01 0 0 0
955 2 0.0000000000000000e+00 1.1366872099805333e+01 3.3244556629063297e+01 0 0 0
956 2 0.0000000000000000e+00 8.5251540748539991e+00 3.3244556629063297e+01 0 0 0