LAMMPS data file via write_data, version 16 Mar 2018, timestep = 6000000

6736 atoms
2 atom types

0.0000000000000000e+00 4.9219999999999999e+01 xlo xhi
0.0000000000000000e+00 4.9019635930410494e+01 ylo yhi
4.8294459539080847e-01 5.9579055404588232e+01 zlo zhi

Masses

1 18.015
2 12.01

Atoms # atomic

6464 1 1.0283129675463778e+00 1.0954950157909424e+00 2.8626732987182888e+00 -1 -3 1
3824 1 9.7196363170724187e-01 3.8916623807295414e+00 1.8655003462265551e+00 2 -5 0
4980 1 1.1973700217852180e+01 6.1824388464272459e+00 2.8977844365780019e+00 1 -1 1
3008 1 5.3385067977207230e+00 1.9552381582900169e+00 3.2502016725154794e+00 1 3 1
3149 1 7.5397984951917421e+00 1.0192152100436682e+00 1.9262207813512291e+00 -2 0 1
6387 1 9.8082133403683542e+00 2.7191599216349194e+00 2.9798790599824860e+00 3 -1 1
5097 1 5.4328574018629086e+00 1.5864495922763618e+01 6.3215625187012048e+00 4 2 1
6629 1 3.0458145739526761e+00 5.6912689310423419e+00 2.9897532403602831e+00 -2 -1 1
1567 1 3.0323212546568792e+00 7.8944077144911349e+00 1.9602325850079363e+00 -1 2 1
1489 1 5.2368927577050153e+00 4.3541486010039918e+00 2.1028476263678550e+00 -3 2 1
2075 1 7.1877316493797228e+00 5.7088036883223712e+00 3.2265877131171812e+00 5 4 0
5188 1 9.6039453824208607e+00 5.0678205289196452e+00 2.1179657427104659e+00 0 -1 0
1414 1 3.4285877806358211e+00 2.8308756402775892e-01 2.1783176046922650e+00 0 0 1
4960 1 1.2065157148423522e+01 8.4743653209711933e+00 8.9382508097998006e+00 0 1 1
6729 1 1.3445132583570421e+00 1.5445307735958560e+01 9.2248655491747478e+00 2 4 1
1736 1 4.2417177840852718e+00 1.1972943035140622e+01 2.1597414958060082e+00 -2 4 0
69 1 7.1419739392921944e+00 8.4609176453277826e+00 2.2302423131076736e+00 -2 1 1
1396 1 4.7444305359220769e+00 9.5407338491556999e+00 3.4102880030984566e+00 1 1 1
1397 1 9.4286879701377053e+00 9.6803812663670499e+00 3.1268514974007426e+00 -3 1 1
2303 1 1.1703570004923295e+01 8.6475908398861847e+00 2.0381040644441510e+00 0 -1 1
6502 1 1.7256185185936734e+00 1.2894494598753532e+01 2.7875146843500249e+00 1 0 1
6716 1 1.1037395266146341e+00 1.5454857415994445e+01 2.1859948839537866e+00 0 1 0
2087 1 1.1882060685075531e+01 2.2496271945215169e+00 9.3548150134113879e+00 -1 0 1
3417 1 6.4012349739566057e+00 1.3339586688597056e+01 2.8584969636810924e+00 -1 -4 1
5299 1 8.6399432930648601e+00 1.2350339022916240e+01 2.0682066537905484e+00 -1 4 0
4660 1 1.0626989466169260e+01 1.4089684355776336e+01 2.5342856781672998e+00 0 0 0
6578 1 4.5824558009304783e-01 8.7168688420791955e+00 5.7012052022535480e+00 -1 0 1
1342 1 9.8378302650422234e-01 1.1498225389166172e+00 5.5413169706623755e+00 2 0 1
3238 1 9.4288479837807115e-01 3.7820195183950855e+00 6.7347126710393983e+00 2 0 1
1614 1 5.3237775427743639e+00 2.0425390079234842e+00 5.8385253241928323e+00 1 -2 1
3797 1 7.8828028080344570e+00 9.2725716255728130e-01 6.4392284989977879e+00 5 1 0
6589 1 1.0082685077065959e+01 2.5086325481767040e+00 5.8299913604581315e+00 1 -2 1
6472 1 8.8911182509843254e+00 1.2241146187843905e+01 9.4133823660427627e+00 2 0 1
6584 1 2.9068549220932711e+00 5.5422644349683834e+00 6.1598769560070794e+00 0 1 0
3006 1 2.6489569877944663e+00 8.0747169097862219e+00 7.1601687534953031e+00 0 2 1
5522 1 5.4076929963508054e+00 4.5169716091620202e+00 6.8015551929855746e+00 -2 -3 1
5285 1 7.4330001968482957e+00 5.7439213721968896e+00 5.6629293848491811e+00 1 1 0
3539 1 9.8589054749741258e+00 4.9859792636473843e+00 6.7108111603708025e+00 1 -4 0
64 1 1.2029700340087000e+01 6.7016949705290632e+00 5.4395655650325088e+00 0 0 0
5634 1 5.5677010502751783e+00 1.5993434316198906e+01 2.2474944417739282e+00 1 -5 0
5354 1 4.4120028835348233e+00 1.1952546385672859e+01 6.4399098665228838e+00 1 -1 0
1691 1 4.7095268420738350e+00 9.2681151249326792e+00 6.1283431090755798e+00 0 -3 1
1589 1 7.1144436904831441e+00 8.3599484575697875e+00 6.5490651385139422e+00 2 -1 0
1316 1 9.2105006329194463e+00 9.9882850589597272e+00 5.7879658807786063e+00 -2 5 0
5445 1 1.1580274112962501e+01 9.1577653010958340e+00 6.3126658476013739e+00 2 1 0
3594 1 1.7800682154245364e+00 1.2817889567811696e+01 5.7986544240448357e+00 1 0 0
1989 1 1.2586701509206293e+00 1.5318499464582954e+01 6.3957209228880094e+00 -2 -2 0
1731 1 7.2938170787753753e-01 8.9305995002940293e+00 3.0306296762906331e+00 3 0 0
5151 1 6.3407598765543813e+00 1.3322636753896671e+01 5.6711542159234147e+00 1 -2 0
3936 1 8.6957562271498023e+00 1.2473657018119734e+01 6.6300214300046756e+00 -3 0 1
4903 1 1.0948046696773238e+01 1.3994570081919440e+01 5.4501028558022524e+00 -4 -1 1
4778 1 3.2882321202022147e+00 1.8985432990208992e-01 6.4245852685856137e+00 -1 0 1
3760 1 1.1001430811880292e+01 1.3307017669365791e+01 1.0665397291486180e+01 0 3 0
4962 1 8.6591520146385625e-01 9.1226829181471414e-01 1.0600564936641820e+01 -2 -1 1
5687 1 3.0774534977078871e+00 4.4972489110467745e-01 9.0404951696572589e+00 0 3 1
333 1 4.9127025223857430e+00 2.5196899744896832e+00 1.0149078466430016e+01 3 2 0
3929 1 7.6333949664100205e+00 1.1761556856716713e+00 9.2008445487821326e+00 2 -3 0
2261 1 9.7726654602764977e+00 2.9543739533792563e+00 1.0330042760521485e+01 -1 0 0
188 1 5.2751930044964557e-01 5.7937547169573094e+00 1.0417121740288488e+01 -1 4 0
6520 1 2.6000041230036750e+00 7.6696634926083886e+00 9.6074101396052747e+00 0 1 0
1876 1 6.1140001450772088e+00 4.8957919997025163e+00 9.3129324547423291e+00 2 2 1
3178 1 5.1553814503918352e+00 7.1494518981171682e+00 1.0479383361512651e+01 0 -1 1
3078 1 8.8929400567571300e+00 5.0929473133686463e+00 9.0647889536613935e+00 5 2 1
5260 1 9.6051935145838314e+00 7.6820318544820010e+00 9.8400701181057180e+00 2 0 1
3579 1 2.3283098543909908e+00 1.0533648894854798e+01 1.0463835427097335e+01 0 0 0
5255 1 3.9767669628728619e+00 1.4602325540636565e+01 1.0642537466472369e+01 -2 4 0
5462 1 6.3851967587920564e+00 1.1202668841903280e+01 1.0200911599131379e+01 -2 -3 0
4801 1 7.1114734537792286e+00 8.8320426427632839e+00 9.3641543885360505e+00 2 0 1
6567 1 4.1034514973254579e+00 1.2132207416790260e+01 9.3709066208672400e+00 1 2 1
5675 1 1.0586694721913693e+01 1.5774011855532699e+01 9.2904570094881702e+00 2 1 1
5064 1 9.1638446916268074e-02 1.1128304133103049e+01 9.2806843167961155e+00 3 0 1
466 1 8.2923695985778778e+00 1.6330328644304810e+01 1.0369735026648899e+01 2 2 0
6724 1 2.3277431694350059e+00 3.4857772230983755e+00 1.3706061384235065e+01 -1 -2 0
1525 1 1.0051581832625834e+01 8.2335353578154642e+00 2.3309457078721913e+01 3 1 1
5050 1 4.7732696741461744e+00 2.7604159160285349e+00 1.2707611347001142e+01 -1 1 0
3224 1 8.1341795274589526e+00 6.1722885163803838e+00 2.3339365273170902e+01 1 -1 1
1586 1 9.7358158747982948e+00 1.0173525549827378e+00 1.3947406363356381e+01 -2 -1 0
48 1 9.0955308966769781e+00 3.4371713841652705e+00 1.2837696392723144e+01 -2 2 1
6440 1 8.1212979366997367e+00 1.5657956013341259e+01 1.3130400568769270e+01 3 1 1
555 1 3.3490911680374649e+00 7.6288883405287500e+00 1.4096480773928711e+01 0 0 1
5063 1 1.2330366077228809e+00 5.7880941830131079e+00 1.3069422265951836e+01 -2 0 0
1826 1 6.4342781066449968e+00 4.4869505421967109e+00 1.3918998660189471e+01 0 0 1
3793 1 5.8171150159195557e+00 6.7622108059715558e+00 1.2886176576277087e+01 7 -1 1
6428 1 1.0703372521436100e+01 5.7019933386344164e+00 1.3491715725184246e+01 -4 -1 1
3125 1 9.5758305853357815e+00 8.1044926072045804e+00 1.2622909079205009e+01 3 4 1
6719 1 1.0619036528193844e+01 5.5402900055491529e+00 1.6249167541886109e+01 0 1 1
1921 1 2.5274218121353629e+00 1.0411287632032218e+01 1.3211183249219948e+01 -2 3 0
200 1 6.6367157560321957e+00 1.0937396445427760e+01 1.2805797530014930e+01 2 -3 1
3825 1 7.4672807251143807e+00 8.7164693284398638e+00 1.3737124759589602e+01 1 4 0
4982 1 4.3623194206175047e+00 1.2241141204074287e+01 1.3787386109372484e+01 1 -1 1
3456 1 1.1495133885220701e+01 1.0019112608846015e+01 1.6466567165234082e+01 2 -2 1
1783 1 1.3176312802538954e+00 1.5281659073969402e+01 1.3649912744157888e+01 1 2 0
2999 1 3.9301488695750701e+00 1.4762851370850028e+01 1.3147706304820941e+01 4 2 1
3571 1 4.7004402523530491e+00 2.4541966142399119e+00 2.3578889155576150e+01 4 0 0
5373 1 8.2571277775000400e+00 1.3120892060005279e+01 1.3815620651945334e+01 2 -2 0
3482 1 1.1008232362669377e+01 1.2767319594826221e+01 1.3457482616269070e+01 2 1 0
1835 1 2.2334134700736312e+00 3.3788228572573962e+00 1.6423433367475397e+01 1 -3 0
4804 1 2.9669706795286270e+00 9.2612972976259589e-01 1.7212360742385791e+01 2 -1 1
1808 1 7.4772878219545911e+00 1.9887180862658029e+00 1.7561620986663065e+01 2 1 1
597 1 7.2096310191120292e+00 1.9124788769066063e+00 2.0538024087640633e+01 2 1 1
3029 1 1.1660369813876326e+01 3.0081999863270856e+00 1.7261391048746209e+01 -3 2 1
493 1 9.7783804014104572e+00 1.0820391198089161e+00 1.6524169096790626e+01 0 3 0
3451 1 5.8096207711241343e-01 1.6463224770656197e+00 1.3281536097379712e+01 3 4 0
1672 1 1.1608079713694073e+01 3.1583016128968198e+00 1.9785565362240444e+01 0 3 1
5044 1 3.1248169362275995e+00 7.5116040105113591e+00 1.6799346182089675e+01 2 3 0
1763 1 4.0567006292587946e+00 5.1730245157621422e+00 1.7274731994126302e+01 1 0 1
4949 1 3.9385940409133413e+00 5.1387820427933670e+00 1.9985983362930593e+01 -1 -4 0
6633 1 6.5964272329168274e+00 4.4614515338208145e+00 1.6715800662906336e+01 4 6 1
3263 1 8.2931091628430167e+00 6.5667780775229154e+00 1.7271848686333648e+01 2 1 0
2991 1 8.1518757117621892e+00 6.4731553344845301e+00 1.9908766785728059e+01 2 -2 1
1996 1 1.0907227552933653e+01 1.2947600254767833e+01 2.0774503376705447e+01 0 0 0
6576 1 5.0132304613521550e-01 8.5988147252773750e+00 1.7233454974488151e+01 -1 -1 0
5357 1 7.2415154474399825e+00 9.0389282283640995e+00 1.6547436420935931e+01 1 1 0
3026 1 4.9309070418487293e+00 9.5275899680906395e+00 1.7147777170637479e+01 2 1 1
6731 1 4.8706312756299814e+00 9.5863680411710028e+00 1.9956571805303550e+01 4 3 1
501 1 4.1672516414447331e+00 1.2040511284044490e+01 1.6539053053888725e+01 2 0 0
3426 1 3.2779994663305181e+00 1.5083575622560648e+01 2.0804209501404319e+01 1 -4 0
1351 1 9.2231910299919413e+00 1.0994707778634774e+01 1.7776649273202445e+01 1 1 1
4872 1 9.0846554550962715e+00 1.1001050074413822e+01 2.0484740421261009e+01 0 -3 1
2136 1 9.8458615516586978e-01 1.5277594809545709e+01 1.6639622309360021e+01 0 -1 1
4955 1 1.8183508641135737e+00 1.2770067651574092e+01 1.7423267390916770e+01 -1 -4 1
3255 1 6.0317614890209175e+00 1.3955677802911371e+01 1.7312046915003268e+01 0 1 1
3624 1 5.5312543831200678e+00 1.3975596064367641e+01 1.9953531593952576e+01 0 1 0
3265 1 1.0050750037203942e+01 1.5399109378088944e+01 1.9970040829698394e+01 -3 -3 1
1455 1 8.4990842512752938e+00 1.3129051242656962e+01 1.6618342004279096e+01 1 -1 1
1394 1 1.0352894080302111e+01 1.5031160762882799e+01 1.7403828009015392e+01 2 1 1
3488 1 2.9735966152103375e+00 8.0545296540039413e-01 1.9871148683626139e+01 2 1 0
3823 1 4.3548478051078182e-01 1.5813898851820056e+00 2.0647605540978766e+01 0 2 0
2257 1 7.5856767342441715e+00 1.6207394341676938e+01 2.3370666123928661e+01 -2 0 1
3239 1 3.6629824565416187e+00 1.5053300460209073e+01 2.3576476151072317e+01 1 -1 1
1868 1 4.6482513737477338e-01 1.9596740741600014e+00 2.3183077770061608e+01 2 1 0
3351 1 4.6095668864105690e+00 2.9025230142596876e+00 2.0870837315352766e+01 0 2 1
3660 1 1.0816686843840236e+01 1.2967195382131559e+01 2.3501284306327292e+01 -3 0 0
4919 1 9.1467539050918312e+00 3.6420197056377965e+00 2.3159488127287354e+01 1 0 1
3192 1 9.0896496544158687e+00 4.0467208564311603e+00 2.0474293913577682e+01 -1 0 1
582 1 1.2838200050966055e+00 5.7345426774260195e+00 2.3274829333769187e+01 -2 -2 1
1754 1 1.5342253557962904e+00 5.9925252502189768e+00 2.0462545048924259e+01 3 4 1
266 1 1.1529685906034587e+01 1.0199928702175447e+01 1.3731881622636179e+01 -3 0 0
3268 1 5.7660540029816749e+00 7.0988968101908716e+00 2.0704255083028482e+01 -2 0 0
2199 1 5.4004470961656592e+00 7.0912363997078360e+00 2.3398061065148347e+01 2 -3 0
1975 1 6.5446931945326026e-01 8.6063117644179936e+00 2.0006575792791612e+01 3 1 0
245 1 2.5511412732420027e+00 1.0291889135654362e+01 2.0831007701593546e+01 -1 -1 0
3320 1 2.6014742947327099e+00 1.0496180832960730e+01 2.3597233455257658e+01 1 -3 1
3920 1 6.3464762145301084e+00 1.1650743401009285e+01 2.3473855291349654e+01 3 -2 1
1356 1 6.6442209467929372e+00 1.1681599179169741e+01 2.0904391619616813e+01 0 2 1
328 1 1.0115512309082954e+01 8.4372444651141176e+00 2.0389368892932659e+01 1 -1 0
6446 1 7.3178396417664757e+00 1.5765289256801788e+01 2.1099018214525426e+01 3 -5 0
1693 1 5.7684039092939905e+00 3.7287583840984245e-01 1.6536798248864972e+01 0 2 1
5402 1 1.8719337018123472e+00 1.3041602796192969e+01 1.9913074684437813e+01 2 -2 0
610 1 6.9868875043217915e-01 8.7210869705343068e+00 2.3575453110930489e+01 -3 0 1
5031 1 1.2302614582197833e+01 4.0260921186810084e-01 2.0830061719304641e+01 -1 -2 1
3131 1 5.4600992228113423e+00 1.0211422940012227e-01 1.3592460525234598e+01 0 2 1
3080 1 9.1939851672053923e+00 1.0762874008838484e+01 2.4063722293095594e+01 3 3 1
616 2 0.0000000000000000e+00 2.8417180249513345e+00 2.6774141946096393e+01 0 0 0
618 2 0.0000000000000000e+00 0.0000000000000000e+00 2.6774141946096393e+01 0 0 0
620 2 1.2305000000000001e+00 7.1042950623783474e-01 2.6774141946096393e+01 0 0 0
627 2 1.2305000000000001e+00 2.1312885187134998e+00 2.6774141946096393e+01 0 0 0
629 2 2.4610000000000003e+00 2.8417180249513345e+00 2.6774141946096393e+01 0 0 0
631 2 2.4610000000000003e+00 0.0000000000000000e+00 2.6774141946096393e+01 0 0 0
633 2 3.6915000000000004e+00 7.1042950623783474e-01 2.6774141946096393e+01 0 0 0
648 2 3.6914999999999996e+00 2.1312885187134998e+00 2.6774141946096393e+01 0 0 0
650 2 4.9220000000000006e+00 2.8417180249513332e+00 2.6774141946096393e+01 0 0 0
652 2 4.9220000000000006e+00 0.0000000000000000e+00 2.6774141946096393e+01 0 0 0
654 2 6.1524999999999999e+00 7.1042950623783407e-01 2.6774141946096393e+01 0 0 0
677 2 6.1524999999999999e+00 2.1312885187134989e+00 2.6774141946096393e+01 0 0 0
679 2 7.3829999999999991e+00 2.8417180249513345e+00 2.6774141946096393e+01 0 0 0
681 2 7.3829999999999991e+00 0.0000000000000000e+00 2.6774141946096393e+01 0 0 0
683 2 8.6134999999999984e+00 7.1042950623783407e-01 2.6774141946096393e+01 0 0 0
714 2 8.6134999999999984e+00 2.1312885187135002e+00 2.6774141946096393e+01 0 0 0
716 2 9.8440000000000012e+00 2.8417180249513332e+00 2.6774141946096393e+01 0 0 0
718 2 9.8440000000000012e+00 0.0000000000000000e+00 2.6774141946096393e+01 0 0 0
720 2 1.1074500000000002e+01 7.1042950623783330e-01 2.6774141946096393e+01 0 0 0
759 2 1.1074500000000002e+01 2.1312885187135002e+00 2.6774141946096393e+01 0 0 0
6359 1 1.0221037968127483e+01 1.5566968892774435e+01 2.4246411685696607e+01 3 0 1
621 2 0.0000000000000000e+00 7.1042950623783341e+00 2.6774141946096393e+01 0 0 0
623 2 0.0000000000000000e+00 4.2625770374269996e+00 2.6774141946096393e+01 0 0 0
625 2 1.2305000000000001e+00 4.9730065436648339e+00 2.6774141946096393e+01 0 0 0
640 2 1.2305000000000001e+00 6.3938655561404980e+00 2.6774141946096393e+01 0 0 0
642 2 2.4610000000000003e+00 7.1042950623783341e+00 2.6774141946096393e+01 0 0 0
644 2 2.4610000000000003e+00 4.2625770374269996e+00 2.6774141946096393e+01 0 0 0
646 2 3.6914999999999996e+00 4.9730065436648339e+00 2.6774141946096393e+01 0 0 0
669 2 3.6914999999999996e+00 6.3938655561404980e+00 2.6774141946096393e+01 0 0 0
671 2 4.9220000000000006e+00 7.1042950623783341e+00 2.6774141946096393e+01 0 0 0
673 2 4.9220000000000006e+00 4.2625770374269978e+00 2.6774141946096393e+01 0 0 0
675 2 6.1524999999999999e+00 4.9730065436648339e+00 2.6774141946096393e+01 0 0 0
706 2 6.1524999999999999e+00 6.3938655561404980e+00 2.6774141946096393e+01 0 0 0
708 2 7.3830000000000009e+00 7.1042950623783341e+00 2.6774141946096393e+01 0 0 0
710 2 7.3829999999999991e+00 4.2625770374269996e+00 2.6774141946096393e+01 0 0 0
712 2 8.6135000000000002e+00 4.9730065436648339e+00 2.6774141946096393e+01 0 0 0
751 2 8.6135000000000002e+00 6.3938655561404980e+00 2.6774141946096393e+01 0 0 0
753 2 9.8440000000000012e+00 7.1042950623783341e+00 2.6774141946096393e+01 0 0 0
755 2 9.8440000000000012e+00 4.2625770374270004e+00 2.6774141946096393e+01 0 0 0
757 2 1.1074500000000002e+01 4.9730065436648339e+00 2.6774141946096393e+01 0 0 0
798 2 1.1074500000000002e+01 6.3938655561404980e+00 2.6774141946096393e+01 0 0 0
196 1 1.2276590502678587e+01 1.8130034370591872e+00 3.5801765587368749e+01 -2 -1 -1
634 2 0.0000000000000000e+00 1.1366872099805333e+01 2.6774141946096393e+01 0 0 0
636 2 0.0000000000000000e+00 8.5251540748539991e+00 2.6774141946096393e+01 0 0 0
638 2 1.2305000000000001e+00 9.2355835810918343e+00 2.6774141946096393e+01 0 0 0
661 2 1.2305000000000001e+00 1.0656442593567498e+01 2.6774141946096393e+01 0 0 0
663 2 2.4610000000000003e+00 1.1366872099805333e+01 2.6774141946096393e+01 0 0 0
665 2 2.4610000000000003e+00 8.5251540748539991e+00 2.6774141946096393e+01 0 0 0
667 2 3.6915000000000004e+00 9.2355835810918343e+00 2.6774141946096393e+01 0 0 0
698 2 3.6914999999999996e+00 1.0656442593567499e+01 2.6774141946096393e+01 0 0 0
3216 1 6.0328632045243422e+00 1.4087485792165319e+01 2.4244789437870757e+01 -6 1 0
700 2 4.9220000000000006e+00 1.1366872099805333e+01 2.6774141946096393e+01 0 0 0
702 2 4.9220000000000006e+00 8.5251540748539991e+00 2.6774141946096393e+01 0 0 0
704 2 6.1524999999999999e+00 9.2355835810918343e+00 2.6774141946096393e+01 0 0 0
743 2 6.1524999999999999e+00 1.0656442593567499e+01 2.6774141946096393e+01 0 0 0
745 2 7.3829999999999991e+00 1.1366872099805333e+01 2.6774141946096393e+01 0 0 0
747 2 7.3830000000000009e+00 8.5251540748539991e+00 2.6774141946096393e+01 0 0 0
6667 1 2.0663106083464617e+00 1.3147198115355749e+01 2.4247279185892253e+01 0 0 1
749 2 8.6134999999999984e+00 9.2355835810918343e+00 2.6774141946096393e+01 0 0 0
790 2 8.6134999999999984e+00 1.0656442593567498e+01 2.6774141946096393e+01 0 0 0
792 2 9.8440000000000012e+00 1.1366872099805333e+01 2.6774141946096393e+01 0 0 0
794 2 9.8440000000000012e+00 8.5251540748539956e+00 2.6774141946096393e+01 0 0 0
796 2 1.1074500000000002e+01 9.2355835810918343e+00 2.6774141946096393e+01 0 0 0
837 2 1.1074500000000002e+01 1.0656442593567498e+01 2.6774141946096393e+01 0 0 0
839 2 1.2304999999999998e+01 1.1366872099805333e+01 2.6774141946096393e+01 0 0 0
655 2 0.0000000000000000e+00 1.5629449137232333e+01 2.6774141946096393e+01 0 0 0
657 2 0.0000000000000000e+00 1.2787731112280996e+01 2.6774141946096393e+01 0 0 0
659 2 1.2305000000000001e+00 1.3498160618518829e+01 2.6774141946096393e+01 0 0 0
690 2 1.2305000000000001e+00 1.4919019630994494e+01 2.6774141946096393e+01 0 0 0
692 2 2.4610000000000003e+00 1.5629449137232328e+01 2.6774141946096393e+01 0 0 0
694 2 2.4610000000000003e+00 1.2787731112280996e+01 2.6774141946096393e+01 0 0 0
696 2 3.6915000000000004e+00 1.3498160618518829e+01 2.6774141946096393e+01 0 0 0
735 2 3.6915000000000004e+00 1.4919019630994494e+01 2.6774141946096393e+01 0 0 0
737 2 4.9220000000000006e+00 1.5629449137232333e+01 2.6774141946096393e+01 0 0 0
739 2 4.9220000000000006e+00 1.2787731112280996e+01 2.6774141946096393e+01 0 0 0
741 2 6.1524999999999990e+00 1.3498160618518829e+01 2.6774141946096393e+01 0 0 0
782 2 6.1524999999999990e+00 1.4919019630994494e+01 2.6774141946096393e+01 0 0 0
784 2 7.3829999999999991e+00 1.5629449137232333e+01 2.6774141946096393e+01 0 0 0
786 2 7.3829999999999991e+00 1.2787731112280996e+01 2.6774141946096393e+01 0 0 0
1056 2 9.8440000000000012e+00 1.5629449137232328e+01 3.3287858053869726e+01 0 0 0
1034 2 8.6135000000000002e+00 1.3498160618518835e+01 3.3287858053869726e+01 0 0 0
788 2 8.6135000000000002e+00 1.3498160618518835e+01 2.6774141946096393e+01 0 0 0
829 2 8.6135000000000002e+00 1.4919019630994494e+01 2.6774141946096393e+01 0 0 0
831 2 9.8440000000000012e+00 1.5629449137232328e+01 2.6774141946096393e+01 0 0 0
833 2 9.8440000000000012e+00 1.2787731112280996e+01 2.6774141946096393e+01 0 0 0
835 2 1.1074500000000002e+01 1.3498160618518829e+01 2.6774141946096393e+01 0 0 0
871 2 1.1074500000000002e+01 1.4919019630994494e+01 2.6774141946096393e+01 0 0 0
617 2 0.0000000000000000e+00 1.4208590124756650e+00 3.0030999999989714e+01 0 0 0
619 2 0.0000000000000000e+00 0.0000000000000000e+00 3.0030999999989714e+01 0 0 0
626 2 1.2305000000000001e+00 3.5521475311891644e+00 3.0030999999989714e+01 0 0 0
628 2 1.2305000000000001e+00 2.1312885187134998e+00 3.0030999999989714e+01 0 0 0
630 2 2.4610000000000003e+00 1.4208590124756650e+00 3.0030999999989714e+01 0 0 0
632 2 2.4610000000000003e+00 0.0000000000000000e+00 3.0030999999989714e+01 0 0 0
647 2 3.6914999999999996e+00 3.5521475311891644e+00 3.0030999999989714e+01 0 0 0
649 2 3.6914999999999996e+00 2.1312885187134998e+00 3.0030999999989714e+01 0 0 0
651 2 4.9220000000000006e+00 1.4208590124756650e+00 3.0030999999989714e+01 0 0 0
653 2 4.9220000000000006e+00 0.0000000000000000e+00 3.0030999999989714e+01 0 0 0
676 2 6.1524999999999999e+00 3.5521475311891644e+00 3.0030999999989714e+01 0 0 0
678 2 6.1524999999999999e+00 2.1312885187134989e+00 3.0030999999989714e+01 0 0 0
680 2 7.3829999999999991e+00 1.4208590124756659e+00 3.0030999999989714e+01 0 0 0
682 2 7.3829999999999991e+00 0.0000000000000000e+00 3.0030999999989714e+01 0 0 0
713 2 8.6134999999999984e+00 3.5521475311891657e+00 3.0030999999989714e+01 0 0 0
715 2 8.6134999999999984e+00 2.1312885187135002e+00 3.0030999999989714e+01 0 0 0
717 2 9.8440000000000012e+00 1.4208590124756659e+00 3.0030999999989714e+01 0 0 0
719 2 9.8440000000000012e+00 0.0000000000000000e+00 3.0030999999989714e+01 0 0 0
758 2 1.1074500000000002e+01 3.5521475311891644e+00 3.0030999999989714e+01 0 0 0
760 2 1.1074500000000002e+01 2.1312885187135002e+00 3.0030999999989714e+01 0 0 0
622 2 0.0000000000000000e+00 5.6834360499026637e+00 3.0030999999989714e+01 0 0 0
624 2 0.0000000000000000e+00 4.2625770374269996e+00 3.0030999999989714e+01 0 0 0
639 2 1.2305000000000001e+00 7.8147245686161639e+00 3.0030999999989714e+01 0 0 0
641 2 1.2305000000000001e+00 6.3938655561404980e+00 3.0030999999989714e+01 0 0 0
643 2 2.4610000000000003e+00 5.6834360499026637e+00 3.0030999999989714e+01 0 0 0
645 2 2.4610000000000003e+00 4.2625770374269996e+00 3.0030999999989714e+01 0 0 0
668 2 3.6914999999999996e+00 7.8147245686161639e+00 3.0030999999989714e+01 0 0 0
670 2 3.6914999999999996e+00 6.3938655561404980e+00 3.0030999999989714e+01 0 0 0
672 2 4.9220000000000006e+00 5.6834360499026637e+00 3.0030999999989714e+01 0 0 0
674 2 4.9220000000000006e+00 4.2625770374269978e+00 3.0030999999989714e+01 0 0 0
705 2 6.1524999999999999e+00 7.8147245686161639e+00 3.0030999999989714e+01 0 0 0
707 2 6.1524999999999999e+00 6.3938655561404980e+00 3.0030999999989714e+01 0 0 0
709 2 7.3829999999999991e+00 5.6834360499026637e+00 3.0030999999989714e+01 0 0 0
711 2 7.3829999999999991e+00 4.2625770374269996e+00 3.0030999999989714e+01 0 0 0
750 2 8.6135000000000002e+00 7.8147245686161639e+00 3.0030999999989714e+01 0 0 0
752 2 8.6135000000000002e+00 6.3938655561404980e+00 3.0030999999989714e+01 0 0 0
754 2 9.8440000000000012e+00 5.6834360499026637e+00 3.0030999999989714e+01 0 0 0
756 2 9.8440000000000012e+00 4.2625770374270004e+00 3.0030999999989714e+01 0 0 0
797 2 1.1074500000000002e+01 7.8147245686161639e+00 3.0030999999989714e+01 0 0 0
799 2 1.1074500000000002e+01 6.3938655561404980e+00 3.0030999999989714e+01 0 0 0
635 2 0.0000000000000000e+00 9.9460130873296642e+00 3.0030999999989714e+01 0 0 0
637 2 0.0000000000000000e+00 8.5251540748539991e+00 3.0030999999989714e+01 0 0 0
660 2 1.2305000000000001e+00 1.2077301606043163e+01 3.0030999999989714e+01 0 0 0
662 2 1.2305000000000001e+00 1.0656442593567498e+01 3.0030999999989714e+01 0 0 0
664 2 2.4610000000000003e+00 9.9460130873296642e+00 3.0030999999989714e+01 0 0 0
666 2 2.4610000000000003e+00 8.5251540748539991e+00 3.0030999999989714e+01 0 0 0
697 2 3.6914999999999996e+00 1.2077301606043163e+01 3.0030999999989714e+01 0 0 0
699 2 3.6914999999999996e+00 1.0656442593567499e+01 3.0030999999989714e+01 0 0 0
701 2 4.9220000000000006e+00 9.9460130873296642e+00 3.0030999999989714e+01 0 0 0
703 2 4.9220000000000006e+00 8.5251540748539991e+00 3.0030999999989714e+01 0 0 0
742 2 6.1524999999999999e+00 1.2077301606043163e+01 3.0030999999989714e+01 0 0 0
744 2 6.1524999999999999e+00 1.0656442593567499e+01 3.0030999999989714e+01 0 0 0
746 2 7.3830000000000009e+00 9.9460130873296642e+00 3.0030999999989714e+01 0 0 0
748 2 7.3830000000000009e+00 8.5251540748539991e+00 3.0030999999989714e+01 0 0 0
789 2 8.6135000000000002e+00 1.2077301606043163e+01 3.0030999999989714e+01 0 0 0
791 2 8.6134999999999984e+00 1.0656442593567498e+01 3.0030999999989714e+01 0 0 0
793 2 9.8440000000000012e+00 9.9460130873296642e+00 3.0030999999989714e+01 0 0 0
795 2 9.8440000000000012e+00 8.5251540748539956e+00 3.0030999999989714e+01 0 0 0
836 2 1.1074500000000002e+01 1.2077301606043163e+01 3.0030999999989714e+01 0 0 0
838 2 1.1074500000000002e+01 1.0656442593567498e+01 3.0030999999989714e+01 0 0 0
656 2 0.0000000000000000e+00 1.4208590124756663e+01 3.0030999999989714e+01 0 0 0
658 2 0.0000000000000000e+00 1.2787731112280996e+01 3.0030999999989714e+01 0 0 0
691 2 1.2305000000000001e+00 1.4919019630994494e+01 3.0030999999989714e+01 0 0 0
693 2 2.4610000000000003e+00 1.4208590124756663e+01 3.0030999999989714e+01 0 0 0
695 2 2.4610000000000003e+00 1.2787731112280996e+01 3.0030999999989714e+01 0 0 0
736 2 3.6915000000000004e+00 1.4919019630994494e+01 3.0030999999989714e+01 0 0 0
738 2 4.9220000000000006e+00 1.4208590124756663e+01 3.0030999999989714e+01 0 0 0
740 2 4.9220000000000006e+00 1.2787731112280996e+01 3.0030999999989714e+01 0 0 0
783 2 6.1524999999999990e+00 1.4919019630994494e+01 3.0030999999989714e+01 0 0 0
785 2 7.3830000000000009e+00 1.4208590124756663e+01 3.0030999999989714e+01 0 0 0
787 2 7.3829999999999991e+00 1.2787731112280996e+01 3.0030999999989714e+01 0 0 0
830 2 8.6135000000000002e+00 1.4919019630994494e+01 3.0030999999989714e+01 0 0 0
872 2 1.1074500000000002e+01 1.4919019630994494e+01 3.0030999999989714e+01 0 0 0
832 2 9.8440000000000012e+00 1.4208590124756663e+01 3.0030999999989714e+01 0 0 0
870 2 1.1074500000000002e+01 1.6339878643470161e+01 3.0030999999989714e+01 0 0 0
874 2 1.2304999999999998e+01 1.4208590124756658e+01 3.0030999999989714e+01 0 0 0
834 2 9.8440000000000012e+00 1.2787731112280996e+01 3.0030999999989714e+01 0 0 0
945 2 0.0000000000000000e+00 2.8417180249513345e+00 3.3287858053869726e+01 0 0 0
946 2 0.0000000000000000e+00 0.0000000000000000e+00 3.3287858053869726e+01 0 0 0
947 2 1.2305000000000001e+00 7.1042950623783474e-01 3.3287858053869726e+01 0 0 0
951 2 1.2305000000000001e+00 2.1312885187134998e+00 3.3287858053869726e+01 0 0 0
952 2 2.4610000000000003e+00 2.8417180249513345e+00 3.3287858053869726e+01 0 0 0
953 2 2.4610000000000003e+00 0.0000000000000000e+00 3.3287858053869726e+01 0 0 0
954 2 3.6915000000000004e+00 7.1042950623783474e-01 3.3287858053869726e+01 0 0 0
962 2 3.6914999999999996e+00 2.1312885187134998e+00 3.3287858053869726e+01 0 0 0
963 2 4.9220000000000006e+00 2.8417180249513332e+00 3.3287858053869726e+01 0 0 0
964 2 4.9220000000000006e+00 0.0000000000000000e+00 3.3287858053869726e+01 0 0 0
965 2 6.1524999999999999e+00 7.1042950623783407e-01 3.3287858053869726e+01 0 0 0
977 2 6.1524999999999999e+00 2.1312885187134989e+00 3.3287858053869726e+01 0 0 0
978 2 7.3829999999999991e+00 2.8417180249513345e+00 3.3287858053869726e+01 0 0 0
979 2 7.3829999999999991e+00 0.0000000000000000e+00 3.3287858053869726e+01 0 0 0
980 2 8.6134999999999984e+00 7.1042950623783407e-01 3.3287858053869726e+01 0 0 0
996 2 8.6134999999999984e+00 2.1312885187135002e+00 3.3287858053869726e+01 0 0 0
997 2 9.8440000000000012e+00 2.8417180249513332e+00 3.3287858053869726e+01 0 0 0
998 2 9.8440000000000012e+00 0.0000000000000000e+00 3.3287858053869726e+01 0 0 0
999 2 1.1074500000000002e+01 7.1042950623783330e-01 3.3287858053869726e+01 0 0 0
1019 2 1.1074500000000002e+01 2.1312885187135002e+00 3.3287858053869726e+01 0 0 0
948 2 0.0000000000000000e+00 7.1042950623783341e+00 3.3287858053869726e+01 0 0 0
949 2 0.0000000000000000e+00 4.2625770374269996e+00 3.3287858053869726e+01 0 0 0
950 2 1.2305000000000001e+00 4.9730065436648339e+00 3.3287858053869726e+01 0 0 0
958 2 1.2305000000000001e+00 6.3938655561404980e+00 3.3287858053869726e+01 0 0 0
959 2 2.4610000000000003e+00 7.1042950623783341e+00 3.3287858053869726e+01 0 0 0
960 2 2.4610000000000003e+00 4.2625770374269996e+00 3.3287858053869726e+01 0 0 0
961 2 3.6914999999999996e+00 4.9730065436648339e+00 3.3287858053869726e+01 0 0 0
973 2 3.6914999999999996e+00 6.3938655561404980e+00 3.3287858053869726e+01 0 0 0
1058 2 1.1074500000000002e+01 1.3498160618518829e+01 3.3287858053869726e+01 0 0 0
974 2 4.9220000000000006e+00 7.1042950623783341e+00 3.3287858053869726e+01 0 0 0
975 2 4.9220000000000006e+00 4.2625770374269978e+00 3.3287858053869726e+01 0 0 0
976 2 6.1524999999999999e+00 4.9730065436648339e+00 3.3287858053869726e+01 0 0 0
992 2 6.1524999999999999e+00 6.3938655561404980e+00 3.3287858053869726e+01 0 0 0
993 2 7.3830000000000009e+00 7.1042950623783341e+00 3.3287858053869726e+01 0 0 0
994 2 7.3829999999999991e+00 4.2625770374269996e+00 3.3287858053869726e+01 0 0 0
995 2 8.6135000000000002e+00 4.9730065436648339e+00 3.3287858053869726e+01 0 0 0
1015 2 8.6135000000000002e+00 6.3938655561404980e+00 3.3287858053869726e+01 0 0 0
1016 2 9.8440000000000012e+00 7.1042950623783341e+00 3.3287858053869726e+01 0 0 0
1017 2 9.8440000000000012e+00 4.2625770374270004e+00 3.3287858053869726e+01 0 0 0
1018 2 1.1074500000000002e+01 4.9730065436648339e+00 3.3287858053869726e+01 0 0 0
1039 2 1.1074500000000002e+01 6.3938655561404980e+00 3.3287858053869726e+01 0 0 0
955 2 0.0000000000000000e+00 1.1366872099805333e+01 3.3287858053869726e+01 0 0 0
956 2 0.0000000000000000e+00 8.5251540748539991e+00 3.3287858053869726e+01 0 0 0
957 2 1.2305000000000001e+00 9.2355835810918343e+00 3.3287858053869726e+01 0 0 0
969 2 1.2305000000000001e+00 1.0656442593567498e+01 3.3287858053869726e+01 0 0 0
970 2 2.4610000000000003e+00 1.1366872099805333e+01 3.3287858053869726e+01 0 0 0