
# Create simulation box and atoms

read_data data.graphite_substrate
  orthogonal box = (0 0 0.948137) to (49.22 49.0196 59.1139)
  4 by 3 by 5 MPI processor grid
  reading atoms ...
  6736 atoms
  reading velocities ...
  6736 velocities
group water type 1
3976 atoms in group water
group graphite type 2
2760 atoms in group graphite

# Define potential

pair_style sw
pair_coeff * * mWC.sw mW C
Reading potential file mWC.sw with DATE: 2019-02-27


# Fix graphite atoms in place

fix 5 graphite setforce 0.0 0.0 0.0
velocity graphite set 0.0 0.0 0.0


# Equilibration of molecular water

# Add velocity/set timestep

velocity	    water create ${TEMP} ${SEED} rot yes dist gaussian
velocity	    water create 225 ${SEED} rot yes dist gaussian
velocity	    water create 225 6119 rot yes dist gaussian
timestep	    5.0

# Define output

compute			1 water msd
compute			3 water temp
thermo	    	50
thermo_style	custom step temp press vol etotal ke pe c_1[4] c_3

# Neighbor lists

neigh_modify    delay 0 every 1 check yes

# Set fixes

fix             1 water momentum 10 linear 1 1 1 rescale
fix             2 water nve
fix             3 water temp/csvr ${TEMP} ${TEMP} 500.0 ${SEED}
fix             3 water temp/csvr 225 ${TEMP} 500.0 ${SEED}
fix             3 water temp/csvr 225 225 500.0 ${SEED}
fix             3 water temp/csvr 225 225 500.0 6119
fix             4 water press/berendsen z ${PRES} ${PRES} 1000.0 modulus 20000
fix             4 water press/berendsen z 1 ${PRES} 1000.0 modulus 20000
fix             4 water press/berendsen z 1 1 1000.0 modulus 20000

# Run 0.5 ns equilibration

dump		    1 all atom 2000 ${DIR}/eq.${NAME}-${TEMP}.dump
dump		    1 all atom 2000 run_3/eq.${NAME}-${TEMP}.dump
dump		    1 all atom 2000 run_3/eq.het_freeze_3-${TEMP}.dump
dump		    1 all atom 2000 run_3/eq.het_freeze_3-225.dump

reset_timestep  0

run	            100000
Neighbor list info ...
  update every 1 steps, delay 0 steps, check yes
  max neighbors/atom: 2000, page size: 100000
  master list distance cutoff = 7.76
  ghost atom cutoff = 7.76
  binsize = 3.88, bins = 13 13 15
  1 neighbor lists, perpetual/occasional/extra = 1 0 0
  (1) pair sw, perpetual
      attributes: full, newton on
      pair build: full/bin/atomonly
      stencil: full/bin/3d
      bin: standard
Per MPI rank memory allocation (min/avg/max) = 4.092 | 4.193 | 4.513 Mbytes
Step Temp Press Volume TotEng KinEng PotEng c_1[4] c_3 
       0     132.7951   -270.11621    140339.15    -39492.76     2665.962   -42158.722            0          225 
      50    130.73939    29.841802    140385.59   -39525.133    2624.6921   -42149.825   0.54299674    221.51694 
     100    131.82831    160.93305    140533.24   -39528.105     2646.553   -42174.658   0.90128763    223.36193 
     150    129.60699   -91.348999    140632.72   -39564.129    2601.9583   -42166.087    1.1473781    219.59826 
     200     132.5362   -110.97073    140666.46   -39474.332    2660.7644   -42135.097    1.3617426    224.56134 
     250    132.65371   -197.78813    140683.19   -39449.325    2663.1235   -42112.448    1.5860578    224.76044 
     300    129.83973   -105.49026    140684.15   -39474.226    2606.6308   -42080.857     1.825225    219.99261 
     350    132.78879     -66.3216    140753.14   -39468.133    2665.8354   -42133.969     2.033941    224.98932 
     400     131.1527    26.101453    140819.72   -39485.036    2632.9897   -42118.025    2.2547824    222.21722 
     450    133.37348   -26.508855    140848.79   -39446.755    2677.5735   -42124.329     2.419911    225.97998 
     500    130.48707   -315.40943    140920.34   -39521.595    2619.6266   -42141.222    2.5754935    221.08942 
     550    129.07889   -185.01608    140889.19   -39516.735    2591.3562   -42108.091    2.8433079    218.70347 
     600    130.50735   -387.90135    140855.05   -39493.007    2620.0336   -42113.041    3.0617025    221.12377 
     650    131.79961   -355.15505    140830.44   -39492.678    2645.9767   -42138.654    3.2825704     223.3133 
     700    131.73635   -397.98101    140927.21   -39560.546    2644.7068   -42205.252    3.5091021    223.20612 
     750     130.3409   -181.59099    140922.33   -39564.446    2616.6921   -42181.138    3.7176766    220.84175 
     800    131.75945   -229.32262    140948.37   -39484.194    2645.1705   -42129.364    3.9202272    223.24525 
     850    129.16585   -238.89669    140896.01    -39492.63    2593.1021   -42085.732    4.0793049    218.85082 
     900    131.41202   -92.239157    140832.46   -39464.456    2638.1956   -42102.651    4.2011967    222.65659 
     950    133.92613   -235.17003    140791.29   -39460.736    2688.6683   -42149.404    4.4024574    226.91635 
    1000    133.41035   -302.93191    140747.88   -39473.253    2678.3135   -42151.566    4.6055353    226.04244 
    1050    133.35176   -226.64347    140671.97   -39459.884    2677.1373   -42137.022    4.7956889    225.94317 
    1100    129.92081   -3.5762916    140648.53   -39490.036    2608.2585   -42098.295    4.9781763    220.12998 
    1150    130.76396   -283.22148    140687.29   -39544.657    2625.1853   -42169.843     5.161796    221.55856 
    1200    133.39166   -151.11245    140730.72   -39483.253    2677.9384   -42161.191    5.3500951    226.01077 
    1250    131.13084   -335.01732    140759.51    -39502.03    2632.5506   -42134.581    5.5438122    222.18017 
    1300     131.0419   -451.07896    140708.51   -39489.737    2630.7651   -42120.502    5.7042793    222.02948 
    1350    133.15714   -173.31894    140660.76   -39519.223    2673.2301   -42192.453    5.9192624    225.61341 
    1400     132.7911   -450.17653    140654.46   -39537.965    2665.8816   -42203.847    6.0668397    224.99322 
    1450    129.55135   -257.29154    140666.19   -39539.131    2600.8412   -42139.972    6.2903359    219.50398 
    1500    129.25418   -159.55081    140707.39   -39543.442    2594.8753   -42138.318    6.5137663    219.00047 
    1550    130.48614   -59.110557    140766.38   -39495.609    2619.6079   -42115.217    6.8570763    221.08784 
    1600    129.80448   -276.92762    140836.75   -39484.884    2605.9231   -42090.807    7.0758372    219.93288 
    1650    130.83324   -86.488442    140800.89   -39518.888    2626.5762   -42145.464    7.3371362    221.67595 
    1700    129.73803   -140.95518    140790.83   -39524.057    2604.5889   -42128.646     7.512528    219.82028 
    1750      130.695   -278.96425    140741.77   -39493.437    2623.8008   -42117.238    7.7798097    221.44171 
    1800    131.37023   -375.21056    140620.03   -39506.496    2637.3566   -42143.853    8.0618614    222.58579 
    1850    130.80262   -299.54703    140547.68    -39487.91    2625.9615   -42113.872    8.3729874    221.62406 
    1900    130.44625   -255.54988    140509.69    -39482.65    2618.8071   -42101.457    8.6653879    221.02026 
    1950    132.51786   -246.21895    140447.87   -39436.143    2660.3961   -42096.539    8.8891904    224.53025 
    2000    130.82134   -93.315163    140432.85   -39459.995    2626.3373   -42086.332     9.059115    221.65578 
    2050    130.20293   -145.10442    140463.09   -39426.407    2613.9222   -42040.329     9.149784    220.60798 
    2100    134.73055   -82.470393    140515.07   -39366.722    2704.8176   -42071.539     9.303552    228.27931 
    2150    134.91568   -197.02408    140557.79   -39343.961    2708.5342   -42052.496    9.5216287    228.59298 
    2200     133.0985   -111.33944    140648.75   -39305.241     2672.053   -41977.294     9.754725    225.51407 
    2250    136.32643   -248.70108    140614.08   -39280.745     2736.856   -42017.601    9.9292364    230.98326 
    2300    133.55862   -241.85221    140654.16   -39276.168    2681.2902   -41957.459     10.15973    226.29366 
    2350     134.5179   -182.77849    140567.22   -39280.565    2700.5484   -41981.114    10.368093      227.919 
    2400    134.11623    -252.8159    140563.55   -39282.668    2692.4847   -41975.152    10.606311    227.23844 
    2450    137.65636   -265.24951    140614.21   -39230.128    2763.5554   -41993.683     10.69677    233.23662 
    2500    134.73284   -171.91475    140615.76   -39235.715    2704.8636   -41940.579     11.01727    228.28319 
    2550    134.90205   -290.29826    140614.99   -39304.268    2708.2605   -42012.529    11.270422    228.56988 
    2600    133.06742   -412.07571     140559.5   -39320.287    2671.4291   -41991.717    11.430237    225.46141 
    2650    132.87652   -404.82639    140486.57   -39371.288    2667.5965   -42038.885    11.646202    225.13795 
    2700     130.4626   -179.08621     140424.2   -39399.967    2619.1353   -42019.102    11.828684    221.04796 
    2750     132.7782   -346.89089    140411.82   -39392.692    2665.6227   -42058.315    12.054338    224.97136 
    2800     132.1279   -193.05395     140389.4   -39394.931    2652.5675   -42047.498    12.302489    223.86954 
    2850    129.14354   -296.27147    140342.39   -39409.366    2592.6541    -42002.02    12.519235    218.81301 
    2900    133.20526    57.288354    140306.23   -39399.236    2674.1962   -42073.432    12.766482    225.69494 
    2950     129.6559   -69.689179    140382.92   -39447.757    2602.9402   -42050.697     13.03077    219.68113 
    3000    131.11551   -73.518501    140436.23   -39433.918     2632.243   -42066.161    13.150998    222.15421 
    3050     134.5077    2.1973953    140555.19    -39386.77    2700.3437   -42087.114     13.36154    227.90173 
    3100    131.76476   -83.664703    140562.93   -39401.775    2645.2772   -42047.053    13.571598    223.25426 
    3150    133.71513    4.3526174    140528.66   -39403.022    2684.4322   -42087.454    13.734942    226.55884 
    3200     134.6948   -15.183318    140506.51   -39412.175    2704.0998   -42116.275    13.921461    228.21873 
    3250      131.401   -100.23722    140522.08   -39436.453    2637.9744   -42074.427    14.047811    222.63792 
    3300    132.15012   -170.38149    140519.14   -39416.263    2653.0134   -42069.276    14.251374    223.90718 
    3350    131.80546   -239.91528     140629.5   -39469.697    2646.0943   -42115.791    14.370369    223.32322 
    3400     129.5424   -296.78202    140595.25   -39523.746    2600.6616   -42124.407    14.523527    219.48882 
    3450    131.47152   -223.29515     140603.7   -39526.162    2639.3902   -42165.553    14.725309    222.75741 
    3500    128.14433   -282.58467    140612.12   -39556.496    2572.5944   -42129.091     15.02091    217.12002 
    3550    133.21525   -223.47415    140593.65   -39527.801    2674.3968   -42202.198    15.231093    225.71188 
    3600    133.45171   -201.11172    140629.77   -39508.376    2679.1439    -42187.52    15.426898    226.11252 
    3650    130.55687   -281.19476    140739.49   -39548.538    2621.0278   -42169.566    15.647158    221.20768 
    3700    136.69976   -2.9888902    140843.48   -39458.465     2744.351   -42202.816    15.802382    231.61583 
    3750    135.46002   -328.31423    140822.06   -39452.607    2719.4622   -42172.069    15.931141    229.51527 
    3800    133.08715   -272.56247    140797.19   -39460.188    2671.8251   -42132.013     16.12043    225.49483 
    3850    132.55525   -301.65372     140897.5   -39394.919    2661.1469   -42056.066    16.367729    224.59362 
    3900    130.37741    -85.54516    140905.44   -39456.024    2617.4251   -42073.449    16.619165    220.90361 
    3950    133.95756   -160.04962    140939.33   -39433.686    2689.2992   -42122.985    16.871921     226.9696 
    4000    131.42414   -118.51841    141023.77    -39464.75     2638.439   -42103.189    17.169848    222.67713 
    4050    129.64089   -327.90305    141028.91   -39474.759    2602.6389   -42077.398    17.454515     219.6557 
    4100    130.91036   -111.09707    141062.09   -39466.073    2628.1243   -42094.197    17.676261     221.8066 
    4150    131.75135   -239.77114    141099.73   -39471.783    2645.0079   -42116.791    17.995093    223.23153 
    4200    129.82841   -156.24469    141146.42   -39510.048    2606.4034   -42116.452    18.106528    219.97342 
    4250    132.29198   -374.58134    141102.04   -39478.339    2655.8615     -42134.2    18.282334    224.14755 
    4300    134.34507   -361.58352    141077.22   -39470.201    2697.0789    -42167.28     18.48126    227.62618 
    4350    133.37768   -491.78928    140980.85   -39473.689    2677.6576   -42151.347    18.743906    225.98708 
    4400    133.39584   -409.77621    140870.16    -39439.59    2678.0223   -42117.612    18.942485    226.01786 
    4450    134.48295   -241.02423     140836.8   -39382.492    2699.8469   -42082.339    19.220424    227.85979 
    4500     135.8636     -116.682    140872.57   -39328.598    2727.5644   -42056.162    19.306761    230.19908 
    4550    136.33796   -196.81002    140910.39   -39349.094    2737.0875   -42086.181    19.590613     231.0028 
    4600    135.22622      -39.327    140947.53   -39367.059    2714.7686   -42081.827    19.711696    229.11914 
    4650    135.76009   -183.64871    140958.54   -39381.008    2725.4864   -42106.494    19.786378     230.0237 
    4700    134.24366   -367.10262    140960.29   -39373.626    2695.0429   -42068.669    19.966949    227.45435 
    4750    133.45405     -295.958    140963.48   -39435.703    2679.1909   -42114.894    20.072625    226.11648 
    4800    131.37972   -362.84877    140992.77   -39430.874    2637.5471   -42068.421    20.117323    222.60186 
    4850    132.30927   -253.84079    140863.87    -39406.68    2656.2085   -42062.889    20.314648    224.17683 
    4900    133.96381   -70.944229    140858.78   -39387.666    2689.4248   -42077.091    20.610246    226.98019 
    4950    132.53545   -252.04514    140871.22   -39403.858    2660.7493   -42064.607    20.854317    224.56006 
    5000    129.99408   -359.09061    140784.43   -39411.011    2609.7294   -42020.741    21.229318    220.25412 
    5050    133.02886   -185.65796    140767.14   -39382.476    2670.6549    -42053.13    21.349545    225.39607 
    5100    133.72718   -329.42333    140753.04   -39394.452    2684.6742   -42079.127    21.545787    226.57926 
    5150    130.64611   -236.92101    140668.45   -39425.026    2622.8195   -42047.846    21.636372    221.35889 
    5200    131.81372   -171.15499    140671.59   -39418.985      2646.26   -42065.245    21.975808    223.33721 
    5250    130.47643   -320.16558    140740.17   -39441.016     2619.413   -42060.429    22.190652    221.07139 
    5300     131.5072   -245.19838     140709.5   -39427.538    2640.1064   -42067.644    22.487043    222.81785 
    5350    133.34061   -136.07804    140698.06   -39397.302    2676.9136   -42074.216    22.641832    225.92428 
    5400    130.08666   -347.14941    140624.32   -39430.984    2611.5881   -42042.572     22.77023    220.41099 
    5450    132.78018   -144.68557    140526.25   -39410.191    2665.6624   -42075.854    22.964552    224.97472 
    5500    134.89097   -76.585705    140428.81   -39375.678    2708.0382   -42083.716     23.15901    228.55112 
    5550    130.78553   -288.62691    140415.12    -39425.11    2625.6183   -42050.729    23.430394     221.5951 
    5600    132.51538   -82.046602    140405.69   -39401.419    2660.3464   -42061.765    23.709827    224.52606 
    5650    131.61557   -282.99497    140371.51   -39376.677    2642.2821   -42018.959     24.15669    223.00148 
    5700    136.58924   -267.79308    140310.38   -39350.552    2742.1321   -42092.684    24.435933    231.42856 
    5750    133.37641   -37.799565    140311.82   -39359.409    2677.6323   -42037.041    24.534005    225.98494 
    5800    136.35459   -195.96938    140430.02   -39346.452    2737.4214   -42083.874     24.74489    231.03098 
    5850    133.96838    -138.6858    140405.93    -39378.31    2689.5165   -42067.827     24.95745    226.98794 
    5900    136.77397    151.41453    140461.95   -39389.961    2745.8407   -42135.801    25.148485    231.74155 
    5950    133.78339   -281.48123    140515.12   -39349.288    2685.8027   -42035.091    25.396637     226.6745 
    6000     133.2982   -245.43941    140535.87   -39392.819    2676.0622   -42068.881    25.761848    225.85243 
    6050     135.4837   -159.89336    140684.14   -39352.853    2719.9376   -42072.791    25.956262     229.5554 
    6100    136.11064   -356.36901    140737.63   -39409.721    2732.5239   -42142.245     26.09126    230.61765 
    6150    133.34852    -272.3831    140734.82     -39434.3    2677.0723   -42111.373    26.198971    225.93768 
    6200    133.12668   -229.93377    140810.56     -39466.2    2672.6187   -42138.819    26.559477    225.56181 
    6250    131.77306   -219.57286    140794.74   -39483.775    2645.4438   -42129.219    26.774419    223.26832 
    6300    130.01935   -347.82214    140743.21   -39493.583    2610.2366    -42103.82    26.992681    220.29693 
    6350    132.22575   -157.42501    140727.68   -39447.198    2654.5318    -42101.73    27.386962    224.03532 
    6400    132.00139   -220.47503    140695.66   -39479.969    2650.0276   -42129.996    27.693771    223.65518 
    6450     132.3653   -226.57424     140738.9   -39393.802    2657.3333   -42051.135    27.727209    224.27176 
    6500    131.09318   -198.63245    140767.56    -39460.81    2631.7947   -42092.604    27.886191    222.11637 
    6550    132.73012   -521.68729    140811.23   -39481.127    2664.6574   -42145.785    28.134589     224.8899 
    6600    132.17563   -294.05003    140691.23   -39457.027    2653.5257   -42110.553    28.312357    223.95041 
    6650    130.10181   -351.09778    140625.83   -39488.667    2611.8921   -42100.559    28.488098    220.43665 
    6700    132.49956   -416.98301    140643.76   -39428.294    2660.0289   -42088.323    28.715394    224.49926 
    6750    130.30392   -502.48126    140554.51   -39470.621    2615.9497   -42086.571    28.929384     220.7791 
    6800    132.74684    -244.6316    140587.24   -39449.846    2664.9932   -42114.839    29.111214    224.91824 
    6850    132.22703   -151.57426    140567.31   -39461.693    2654.5576   -42116.251    29.491301     224.0375 
    6900    129.18704    -432.3508     140584.1   -39441.011    2593.5274   -42034.538    29.831615    218.88671 
    6950    134.02207   -203.23088     140565.5   -39377.667    2690.5942   -42068.262    30.054435     227.0789 
    7000    130.13321   -139.42479    140529.54   -39367.253    2612.5225   -41979.776    30.303689    220.48985 
    7050    133.64795    63.356388    140532.97   -39409.205    2683.0836   -42092.289    30.441428    226.44501 
    7100    131.07781   -332.56235     140553.9   -39408.032    2631.4862   -42039.518    30.643024    222.09033 
    7150    131.55759   -134.37199    140533.42   -39353.529     2641.118   -41994.647    30.754278    222.90323 
    7200    133.61771   -246.07579    140505.96   -39331.667    2682.4766   -42014.144    30.991862    226.39379 
    7250    134.57701   -111.48765    140563.54   -39303.046    2701.7351   -42004.781    31.140142    228.01916 
    7300    133.63047    39.071036       140614   -39336.467    2682.7327     -42019.2     31.27839     226.4154 
    7350    133.76244   -466.19653    140565.19   -39409.536    2685.3821   -42094.918     31.42898      226.639 
    7400     132.4158   -205.75455    140494.61   -39468.065    2658.3473   -42126.412    31.633783    224.35734 
    7450    131.00352   -306.26645    140450.05   -39486.628    2629.9947   -42116.622    31.769235    221.96446 
    7500    133.43851   -134.11718    140404.08   -39465.835     2678.879   -42144.714    31.926179    226.09016 
    7550    129.83168   -198.34256    140422.44   -39508.805     2606.469   -42115.274    32.076365    219.97896 
    7600    131.77453   -46.684746    140415.35   -39482.448    2645.4733   -42127.921    32.409155    223.27081 
    7650    132.36061   -170.90988    140503.12   -39529.535    2657.2393   -42186.775     32.52701    224.26383 
    7700    129.57053   -10.173455    140499.53   -39566.119    2601.2262   -42167.345    32.757383    219.53648 
    7750    130.91048   -133.17941    140467.22   -39538.918    2628.1268   -42167.045    32.928264    221.80682 
    7800    131.21642    43.054245    140527.72    -39520.26    2634.2687   -42154.529    32.949451    222.32517 
    7850    130.87959   -37.607562    140597.88   -39498.633    2627.5067    -42126.14     33.16894    221.75448 
    7900    131.24168   -209.23037    140582.64   -39466.478     2634.776   -42101.254    33.315135    222.36798 
    7950     134.1827   -121.00145    140665.19    -39510.14     2693.819   -42203.959    33.555579    227.35106 
    8000    132.35233    57.949355    140745.89   -39477.788    2657.0729   -42134.861    33.927748    224.24979 
    8050    131.55565    126.29266    140885.23   -39487.262    2641.0791   -42128.341    34.336765    222.89995 
    8100    129.40985   -162.38611    140905.68   -39502.356    2598.0006   -42100.357    34.420517    219.26424 
    8150    133.69523   -168.55109    140946.81   -39525.751    2684.0327   -42209.783    34.684159    226.52512 
    8200    131.35007    -138.8508    140984.99   -39496.888     2636.952    -42133.84    34.859166    222.55163 
    8250    130.53654    -410.6371    140974.06   -39539.858    2620.6198   -42160.477    35.016379    221.17324 
    8300    130.61278   -232.54093    140940.97   -39547.712    2622.1503   -42169.862    35.159297    221.30241 
    8350    131.06812   -198.65152    140929.02    -39539.72    2631.2916   -42171.012    35.218923    222.07391 
    8400    130.14905    -89.24449    140890.84   -39528.079    2612.8405    -42140.92     35.36078    220.51669 
    8450    132.38943   -251.21651    140878.96   -39468.026    2657.8178   -42125.843    35.586387    224.31265 
    8500    131.58385   -200.17727    140869.18   -39476.717    2641.6452   -42118.362    35.799219    222.94773 
    8550    130.91467   -469.67913    140753.83   -39507.147    2628.2109   -42135.358    36.006888    221.81391 
    8600    130.42569   -157.73767    140738.76   -39514.784    2618.3944   -42133.179    36.179637    220.98542 
    8650    129.99727   -88.705915    140819.24   -39516.801    2609.7934   -42126.594    36.341405    220.25952 
    8700    131.42235   -157.74834     140947.7   -39467.763    2638.4029   -42106.165    36.617089    222.67409 
    8750    132.97636   -191.99675    140936.62   -39489.132     2669.601   -42158.733    36.762396    225.30712 
    8800    134.53075   -301.79878    140876.03   -39467.997    2700.8065   -42168.803    36.956483    227.94079 
    8850    133.50621   -246.75467    140781.72   -39454.568    2680.2381   -42134.806    37.189448    226.20486 
    8900    133.93149    -153.6004    140804.09   -39475.266    2688.7758   -42164.042    37.327144    226.92543 
    8950     133.5737   -47.304416    140890.91   -39510.054    2681.5929   -42191.647    37.514519    226.31921 
    9000    128.88312   -284.11572    140915.76   -39509.547     2587.426   -42096.973     37.72307    218.37177 
    9050    132.03279    -123.1203    140910.39   -39493.926    2650.6581   -42144.584    37.877177    223.70839 
    9100    132.82035   -292.33837    140894.11   -39468.971    2666.4689    -42135.44    38.067386    225.04278 
    9150     134.8137   -63.119816    140946.42    -39399.33     2706.487   -42105.817    38.466993     228.4202 
    9200    131.74457   -130.86015    140959.99   -39430.124    2644.8718   -42074.996    38.516765    223.22004 
    9250    132.36585   -259.67215    140968.43   -39444.519    2657.3445   -42101.864    38.713115    224.27271 
    9300    131.80729   -423.47262    140936.21   -39456.136    2646.1309   -42102.267    39.091119    223.32631 
    9350    133.46191   -251.16608    140965.85   -39464.211    2679.3486   -42143.559    39.286845     226.1298 
    9400    131.88176   -227.98941    140933.48   -39491.186    2647.6259   -42138.812    39.198433    223.45249 
    9450    134.01457    36.764367     140881.4   -39476.143    2690.4438   -42166.587     39.31221     227.0662 
    9500    132.75221   -99.054278    141021.42   -39499.569     2665.101    -42164.67    39.698518    224.92733 
    9550    132.04877   -420.52676    141012.95   -39508.123    2650.9789   -42159.102    39.798423    223.73547 
    9600    133.70317   -84.414928    140993.99   -39477.676    2684.1921   -42161.868    39.918344    226.53858 
    9650    131.01592   -144.56848    140987.24    -39527.37    2630.2436   -42157.613    39.934253    221.98546 
    9700    133.30424    19.916012    141036.69   -39484.507    2676.1834    -42160.69    39.957389    225.86266 
    9750    128.94516   -156.57503    141107.91   -39500.628    2588.6716   -42089.299    40.287224     218.4769 
    9800    133.96525   -171.57959    141132.77   -39472.163    2689.4535   -42161.617    40.747725    226.98262 
    9850      131.167   -137.45704     141051.8   -39438.838    2633.2767   -42072.115    40.934554    222.24145 
    9900    134.62056   -168.63798    141107.81   -39414.872    2702.6096   -42117.481    41.243015    228.09296 
    9950    136.16476   -425.11535    141115.18   -39363.431    2733.6105   -42097.041    41.480917    230.70935 
   10000    133.02794   -271.45819    141110.45   -39375.926    2670.6364   -42046.562    41.676245     225.3945 
   10050    135.89517   -272.39661    141118.55   -39410.573    2728.1982   -42138.771    41.913087    230.25257 
   10100    134.07143   -263.45253     141066.3   -39465.912    2691.5852   -42157.497    41.922493    227.16253 
   10150    134.08581   -58.505787     140989.6   -39448.393    2691.8739   -42140.267    42.173403     227.1869 
   10200    130.50116   -266.43623    140941.55   -39447.971    2619.9094    -42067.88    42.479576    221.11328 
   10250    133.20901    -151.5118     140988.7     -39442.3    2674.2716   -42116.572    42.572885    225.70131 
   10300    131.96526   -235.00868    141014.27   -39498.073    2649.3024   -42147.376    42.773479    223.59397 
   10350    131.60654   -78.431543    140996.77   -39527.945    2642.1008   -42170.046    42.937036    222.98618 
   10400    132.07159   -146.17714    141002.21   -39551.972     2651.437   -42203.409    43.064325    223.77413 
   10450    133.22177   -260.66468    141050.66   -39562.517    2674.5277   -42237.045    43.258661    225.72292 
   10500     130.8508   -162.16708     140983.7   -39586.329    2626.9287   -42213.258    43.472722     221.7057 
   10550    128.77954   -196.20865    140991.87   -39608.468    2585.3467   -42193.814     43.71839    218.19628 
   10600    132.03023   -371.07333    140955.67   -39638.249    2650.6066   -42288.855    43.795252    223.70405 
   10650    130.86742   -222.26425     140897.2   -39618.792    2627.2624   -42246.055    43.967776    221.73386 
   10700    130.45741   -353.31437    140896.24   -39568.087    2619.0311   -42187.118    44.162813    221.03916 
   10750    133.73686    -298.8551    140878.37   -39527.743    2684.8686   -42212.612    44.421806    226.59566 
   10800    133.40214   -332.26485    140808.66   -39479.923    2678.1487   -42158.072    44.614521    226.02853 
   10850    131.84183   -125.49871    140795.22   -39473.908    2646.8244   -42120.732    44.771453    223.38484 
   10900     130.4886    50.966335    140788.76   -39514.115    2619.6573   -42133.772    44.866541    221.09201 
   10950     132.4207   -184.41424    140886.23   -39563.451    2658.4457   -42221.897    45.215605    224.36564 
   11000    130.65894   -102.02698    140855.95   -39553.092    2623.0771   -42176.169    45.511834    221.38063 
   11050    131.81657   -124.02121    140903.02   -39542.511    2646.3173   -42188.829    45.552836    223.34204 
   11100    132.44626   -45.659638    140964.89   -39583.255    2658.9587   -42242.214    45.685719    224.40894 
   11150    130.62866   -348.57279    140968.77   -39634.076     2622.469   -42256.545    45.938341    221.32931 
   11200    129.07684   -51.126741    140883.21    -39651.85    2591.3152   -42243.165    46.072988    218.70001 
   11250    132.26709    1.5277354    140964.39   -39561.958    2655.3618    -42217.32      46.3588    224.10537 
   11300    130.72041   -291.27136     141003.8   -39503.259    2624.3111    -42127.57    46.529923    221.48478 
   11350    134.27416   -168.14338    141040.59   -39505.363    2695.6552   -42201.018    46.580383    227.50603 
   11400    130.28911    89.998501    141153.67   -39528.833    2615.6524   -42144.485    46.943805    220.75401 
   11450    133.51447   -367.56221    141257.62   -39534.967     2680.404   -42215.371    47.292629    226.21886 
   11500    131.20183    -184.3096    141222.24   -39529.316    2633.9759   -42163.292    47.529054    222.30046 
   11550    134.04422   -307.03161    141179.96   -39495.103     2691.039   -42186.142    47.569156    227.11644 
   11600    131.66626   -327.94685    141168.61   -39518.107    2643.2997   -42161.407    47.682366    223.08737 
   11650    133.24241   -199.08789    141165.74   -39497.597     2674.942   -42172.539    47.856923    225.75789 
   11700    133.76712   -126.92792     141174.6   -39496.944    2685.4761    -42182.42    47.810388    226.64693 
   11750    132.87811   -123.26104    141098.42   -39566.585    2667.6284   -42234.214    47.860812    225.14064 
   11800    132.62304   -275.96497    141101.74   -39540.281    2662.5078   -42202.789    47.780807    224.70847 
   11850    133.26053   -295.10511    141064.68   -39547.996    2675.3059   -42223.302    48.037968     225.7886 
   11900    130.26501   -138.85131     141016.1   -39554.231    2615.1685     -42169.4    48.254422    220.71317 
   11950    132.80597   -254.10075    140987.48   -39595.836    2666.1802   -42262.017     48.36311    225.01842 
   12000    132.12269   -195.05479     140993.3   -39586.509    2652.4628   -42238.972    48.596211     223.8607 
   12050    130.96203   -114.36371    140937.05   -39562.082    2629.1616   -42191.243    48.859017    221.89415 
   12100    132.06799   -184.30167    140944.13   -39557.825    2651.3646    -42209.19    49.131201    223.76802 
   12150    132.36492   -286.22379    140933.33    -39522.98    2657.3258   -42180.306     49.25049    224.27113 
   12200    133.55364   -110.79801    140997.82    -39546.57    2681.1902   -42227.761     49.41279    226.28522 
   12250    133.17522   -97.290904    141042.34    -39530.26    2673.5931   -42203.853    49.654506    225.64404 
   12300     134.0814    -168.3728    141084.18   -39512.351    2691.7855   -42204.136    49.803253    227.17944 
   12350    133.77272   -274.91662    141093.71   -39499.836    2685.5884   -42185.424    49.765554    226.65642 
   12400     132.9709   -180.73225    141040.74   -39467.921    2669.4913   -42137.412    49.818055    225.29786 
   12450     133.8899   -209.43323    140994.83   -39484.988    2687.9408   -42172.929    49.928975    226.85495 
   12500    132.97931   -43.802726     141198.6   -39497.315      2669.66   -42166.975    50.318189    225.31211 
   12550    133.98264   -346.10386    141193.33   -39476.082    2689.8027   -42165.885    50.595624    227.01209 
   12600     134.3797   -225.14324    141232.61   -39488.303     2697.774   -42186.077    50.753632    227.68485 
   12650    134.43316   -267.15342    141258.04   -39469.516    2698.8472   -42168.363    50.971607    227.77542 
   12700    132.89628   -233.19792    141224.38   -39470.721    2667.9932   -42138.714    51.235337    225.17143 
   12750    133.64676   -341.17661     141238.1   -39506.881    2683.0596    -42189.94    51.167583      226.443 
   12800    133.77606   -306.88813    141191.33   -39446.005    2685.6555   -42131.661    51.287639    226.66208 
   12850    135.37633   -269.37578    141251.69   -39432.278    2717.7822    -42150.06    51.535569    229.37348 
   12900     132.8342   -326.31471    141252.35   -39404.763    2666.7469    -42071.51    51.798539    225.06624 
   12950    133.73214   -498.00287    141181.22   -39451.467    2684.7737   -42136.241    52.084112    226.58766 
   13000    132.17595   -256.94061    141142.26   -39460.731     2653.532   -42114.263    52.399806    223.95094 
   13050    133.22346   -253.52357    141127.17   -39453.469    2674.5617   -42128.031    52.488529    225.72579 
   13100    134.10231   -202.41561    141124.35   -39405.505    2692.2052    -42097.71     52.68564    227.21485 
   13150    131.37768   -234.86666    141083.73   -39410.765    2637.5062   -42048.271    52.844084    222.59841 
   13200     134.2783   -150.31247    141040.67   -39422.196    2695.7383   -42117.935    53.036435    227.51304 
   13250    132.42885   -110.91828    141018.35   -39452.418    2658.6093   -42111.027    53.514902    224.37945 
   13300    134.18196   -359.42319    140993.09   -39395.174    2693.8042   -42088.978    53.863128    227.34981 
   13350    133.32811   -341.19349    140911.29   -39392.798    2676.6626   -42069.461    54.120285     225.9031 
   13400    133.31337   -19.750455    140945.11   -39400.913    2676.3666   -42077.279    54.211822    225.87812 
   13450    132.42193   -113.81012    140992.32   -39450.628    2658.4703   -42109.099    54.646484    224.36773 
   13500    131.55605   -324.30997    141010.73   -39493.096    2641.0871   -42134.183    54.975301    222.90063 
   13550    130.54034   -326.17563    141081.03   -39479.467     2620.696   -42100.163    55.298438    221.17967 
   13600    133.63311   -455.64346    141090.76   -39480.587    2682.7857   -42163.373    55.432107    226.41988 
   13650     132.8044   -312.57575    141038.24   -39481.852    2666.1486       -42148    55.576435    225.01575 
   13700     132.1615   -91.909413    141004.45   -39475.122     2653.242   -42128.364    55.501791    223.92646 
   13750     134.5918   -272.11585    141006.83   -39488.158     2702.032    -42190.19    55.574551    228.04421 
   13800     130.8241   -127.57041    141053.63   -39470.707    2626.3927   -42097.099    55.968974    221.66046 
   13850     132.8785   -94.118714     141098.7   -39526.349    2667.6362   -42193.986    55.951753     225.1413 
   13900    134.32304   -327.64598    141184.94   -39444.442    2696.6366   -42141.078      56.2934    227.58885 
   13950    135.64917   -343.24829    141259.67   -39417.101    2723.2597    -42140.36    56.324558    229.83577 
   14000    132.99524   -113.87232     141245.6   -39395.589    2669.9799   -42065.569    56.642324     225.3391 
   14050    134.88818   -156.74712    141277.36   -39361.455    2707.9822   -42069.437    56.859431    228.54639 
   14100    136.39056   -109.53315    141264.74   -39403.013    2738.1436   -42141.157     57.17664    231.09193 
   14150     133.7279    -305.4897     141339.4   -39440.166    2684.6886   -42124.855    57.363903    226.58048 
   14200    135.98598   -137.25881    141334.07   -39388.689    2730.0214    -42118.71    57.574179    230.40644 
   14250    131.61363   -258.76991    141313.27   -39443.553    2642.2431   -42085.796    57.869869    222.99819 
   14300    132.34451   -380.92593    141278.46   -39450.125     2656.916   -42107.041    57.972783    224.23654 
   14350    129.88528   -292.36184    141224.35   -39487.225    2607.5451   -42094.771    58.116986    220.06977 
   14400     133.3591   -182.81665    141250.21   -39455.323    2677.2847   -42132.608     58.44444    225.95561 
   14450    130.99112   -356.43011    141215.87   -39473.591    2629.7457   -42103.336    58.613135    221.94345 
   14500    132.22793    -246.5131    141215.34   -39479.612    2654.5757   -42134.187     58.78927    224.03903 
   14550    129.24935   -251.37909    141134.01   -39482.047    2594.7784   -42076.825    59.213727     218.9923 
   14600    130.77314   -62.652224    141095.37   -39487.624    2625.3695   -42112.994    59.566181    221.57411 
   14650    133.29378   -81.233668     141103.2   -39493.433    2675.9733   -42169.406    59.786139    225.84493 
   14700    132.74318   -195.89322    141093.48   -39468.051    2664.9196    -42132.97    59.826893    224.91202 
   14750    134.00569   -259.61447    141216.47   -39412.778    2690.2655   -42103.044    59.946397    227.05115 
   14800    133.44489    -108.7109    141219.03   -39451.365    2679.0071   -42130.372     60.08677    226.10097 
   14850    133.03013   -389.68013    141215.98   -39464.549    2670.6803    -42135.23     60.30769    225.39822 
   14900    132.43836   -180.70282    141254.13   -39471.211    2658.8003   -42130.011    60.657358    224.39557 
   14950     132.6973   -241.87191     141221.9   -39485.588    2663.9985   -42149.587    61.022983    224.83429 
   15000    127.50786   -175.79813    141227.77   -39522.344    2559.8167    -42082.16    61.412875    216.04162 
   15050    129.57423   -308.26897    141145.35   -39500.122    2601.3006   -42101.422    61.597637    219.54275 
   15100     131.0111   -134.39364    141111.43   -39504.371    2630.1468   -42134.518    61.776284     221.9773 
   15150    132.49462   -100.96472    141124.66    -39476.05    2659.9296    -42135.98    62.208489    224.49088 
   15200    132.27053   -29.358659    141128.04   -39446.893    2655.4308   -42102.323    62.325943     224.1112 
   15250    130.03398   -126.78105    141174.76    -39464.11    2610.5304    -42074.64    62.684368    220.32173 
   15300    133.26345   -191.18882    141155.43    -39412.36    2675.3645   -42087.725    62.713892    225.79355 
   15350     131.5101   -400.25428    141119.61   -39443.154    2640.1646   -42083.319    63.042644    222.82277 
   15400    132.71109   -320.05302    141023.07   -39444.241    2664.2754   -42108.516    63.105701    224.85765 
   15450    133.24928   -220.84218    141021.83   -39432.908    2675.0799   -42107.988    63.282289    225.76953 
   15500      128.723   -389.43345    140979.13   -39450.382    2584.2115   -42034.594    63.496973    218.10048 
   15550    129.32079   -366.07897    140853.02   -39478.185    2596.2126   -42074.397    63.708137    219.11334 
   15600    129.79407   -233.05526    140855.69   -39471.642     2605.714   -42077.356    63.956793    219.91524 
   15650    133.24254   -227.24161    140854.55   -39442.938    2674.9447   -42117.882    64.180431    225.75812 
   15700    131.57207   -168.79288     140833.7    -39476.13    2641.4086   -42117.539    64.330033    222.92776 
   15750    130.66596    -196.4951    140903.37   -39431.273     2623.218   -42054.491    64.466644    221.39252 
   15800    132.97453   -233.01334    140922.73   -39434.565    2669.5641   -42104.129    64.792013    225.30401 
   15850     134.8801   -239.78202    140877.66   -39383.363    2707.8198   -42091.183    65.101511    228.53269 
   15900    133.50438   -234.97907    140851.09   -39377.034    2680.2012   -42057.236    65.333552    226.20175 
   15950    131.56313   -119.51793     140829.4   -39406.507    2641.2293   -42047.737    65.263748    222.91263 
   16000    132.55756   -180.01933    140858.48   -39357.779    2661.1933   -42018.973    65.395395    224.59753 
   16050    132.85394   -293.58351    140850.12   -39349.103    2667.1432   -42016.246    65.607038    225.09969 
   16100    134.90455    -121.6171    140858.87   -39332.223    2708.3107   -42040.534    65.896046    228.57412 
   16150    132.57172   -276.57122    140838.71   -39373.662    2661.4774    -42035.14    66.164248    224.62151 
   16200    130.45623   -36.398324     140884.4   -39384.892    2619.0075     -42003.9    66.244829    221.03716 
   16250    132.62049   -170.92762    140924.59   -39396.859    2662.4565   -42059.315    66.565954    224.70414 
   16300    133.67416   -300.07128    140945.14   -39377.574    2683.6098   -42061.184    66.725893    226.48943 
   16350    128.95271   -303.24819    140936.09   -39402.969    2588.8232   -41991.792    66.903173    218.48969 
   16400    130.17416    -470.7964    140885.25   -39450.198    2613.3447   -42063.543    67.164565    220.55924 
   16450    131.42035   -127.55243    140873.14   -39459.097    2638.3628    -42097.46    67.424775     222.6707 
   16500    131.58027    -310.6968    140888.93   -39463.919    2641.5734   -42105.492    67.802047    222.94167 
   16550    130.29515   -238.68677    140923.23   -39462.686    2615.7736   -42078.459    67.866264    220.76423 
   16600    129.99073   -85.258056    140970.68   -39457.517    2609.6622   -42067.179    68.215972    220.24845 
   16650    128.81464   -96.657425    140945.12   -39469.811    2586.0512   -42055.862    68.258045    218.25575 
   16700    130.92684   -186.39284    140961.97   -39474.057    2628.4553   -42102.513    68.572288    221.83453 
   16750    133.48784   -95.199646    140925.13   -39464.037    2679.8692   -42143.907    68.766996    226.17373 
   16800     131.8025   -132.14662    140884.29   -39516.265    2646.0347     -42162.3    68.994115    223.31819 
   16850    129.83727   -268.98298    140812.54   -39533.239    2606.5813    -42139.82    69.136917    219.98843 
   16900    131.04496   -164.39251    140758.96   -39523.413    2630.8267   -42154.239    69.234449    222.03468 
   16950     134.2521   -224.17523    140739.88   -39472.013    2695.2124   -42167.225    69.476252    227.46866 
   17000     130.6632    -177.9115    140737.83   -39427.213    2623.1625   -42050.376    69.800958    221.38784 
   17050    132.39303   -182.55306    140738.71   -39394.136    2657.8901   -42052.026    70.051894    224.31875 
   17100     137.4287   -61.399531    140723.34    -39432.59     2758.985   -42191.575    70.286424    232.85089 
   17150    131.50166   -268.71683    140711.06   -39437.943    2639.9951   -42077.938    70.581535    222.80847 
   17200     134.2379   -108.58112    140748.32    -39356.94    2694.9272   -42051.867    70.758732    227.44459 
   17250    132.94209   -330.32536    140905.54   -39420.792    2668.9128   -42089.705    71.084531    225.24904 
   17300    132.00205   -256.63273    140885.49   -39448.827    2650.0409   -42098.868    71.579568    223.65631 
   17350    133.27397   -403.10381    140825.44   -39475.688    2675.5756   -42151.264    71.840881    225.81136 
   17400    127.93899   -206.10298    140721.32   -39473.622    2568.4718   -42042.094    71.962276    216.77209 
   17450     129.7466   -97.933583    140681.48   -39475.201    2604.7611   -42079.962    71.981239    219.83481 
   17500    130.36797    27.890251    140743.76   -39459.098    2617.2354   -42076.334     72.22155    220.88761 
   17550    131.57208    -397.0191    140743.54   -39456.925    2641.4089   -42098.334    72.365424    222.92779 
   17600     132.1877   -276.25717    140697.92    -39427.72    2653.7679   -42081.488    72.500455    223.97086 
   17650     130.5776   -287.14633    140706.63   -39394.664    2621.4441   -42016.108    72.650925    221.24281 
   17700    130.92621   -243.46999    140670.66   -39432.896    2628.4425   -42061.339    72.822002    221.83346 
   17750    131.30064   -309.45007    140676.41   -39434.438    2635.9596   -42070.398    73.097197    222.46788 
   17800    133.86533   -173.27272    140644.13   -39400.073    2687.4476   -42087.521    73.318172    226.81332 
   17850    131.88293   -13.009021    140708.69   -39390.863    2647.6496   -42038.512     73.54404    223.45448 
   17900    131.76763     -258.739    140756.95   -39411.423    2645.3347   -42056.758    73.802394    223.25911 
   17950    132.57789    -262.2369    140676.23   -39419.825    2661.6013   -42081.426    74.068918    224.63197 
   18000    131.83244   -166.85209    140674.17     -39367.5    2646.6359   -42014.136    74.093954    223.36893 
   18050    134.89059   -228.02826    140676.02   -39344.205    2708.0305   -42052.236    74.193165    228.55047 
   18100    133.11497   -228.55998    140688.48   -39375.478    2672.3835   -42047.862    74.484662    225.54196 
   18150    135.37741   -111.43635    140718.01   -39351.046    2717.8039    -42068.85    74.534218    229.37531 
   18200    130.53152   -282.00057     140757.4   -39334.129    2620.5189   -41954.648    74.992491    221.16472 
   18250    134.52368   -179.54223    140713.67   -39379.314    2700.6644   -42079.979    75.356611    227.92879 
   18300    133.33269   -224.31534    140709.74   -39366.372    2676.7546   -42043.126    75.486124    225.91086 
   18350    134.02028   -111.42499    140705.38   -39368.062    2690.5584    -42058.62     75.68131    227.07587 
   18400    133.54433   -143.18688    140782.25   -39392.898    2681.0033   -42073.901    76.017197    226.26945 
   18450     133.7217   -347.91438    140763.09   -39406.001    2684.5642   -42090.565    76.154785    226.56997 
   18500    131.31752   -84.265045    140767.38   -39372.092    2636.2985    -42008.39     76.25299    222.49648 
   18550    133.64268    9.6862215    140770.58   -39366.634    2682.9779   -42049.612    76.627752    226.43609 
   18600    134.33427   -256.87406    140780.43    -39335.94     2696.862   -42032.802    76.669289    227.60788 
   18650    131.76125   -358.78425    140731.64   -39321.606    2645.2067   -41966.813    76.874074    223.24831 
   18700    134.03669   -294.03502    140672.17   -39349.294    2690.8879   -42040.182    76.988785    227.10368 
   18750    136.11157   -51.613572     140691.5   -39348.854    2732.5426   -42081.397    77.243103    230.61923 
   18800    134.34738   -224.03359    140666.31   -39349.519    2697.1252   -42046.644    77.670681    227.63009 
   18850    132.37494   -11.167238       140682   -39372.923    2657.5269    -42030.45    78.189274     224.2881 
   18900    131.93305   -239.31059    140662.34   -39393.162    2648.6558   -42041.818    78.351422     223.5394 
   18950    132.84224   -234.90177    140569.37   -39365.296    2666.9084   -42032.204    78.277446    225.07988 
   19000    133.78143   -134.19094    140572.05   -39288.486    2685.7634   -41974.249    78.496265    226.67118 
   19050    135.02289    -225.0539    140581.51   -39267.546    2710.6865   -41978.232    78.645501    228.77463 
   19100    136.34124   -31.844864    140578.36   -39227.731    2737.1534   -41964.884    78.850359    231.00836 
   19150    133.81045   -113.57221    140637.19   -39335.153     2686.346   -42021.499    79.278743    226.72035 
   19200    134.71023   -301.01622    140674.39   -39341.503    2704.4097   -42045.913    79.401153    228.24488 
   19250    134.98754   -275.76922     140678.2   -39331.889    2709.9768   -42041.866    79.606761    228.71473 
   19300    133.40305    -169.7046    140708.28   -39319.357     2678.167   -41997.524    79.730676    226.03007 
   19350    134.07361   -169.91809    140723.59   -39310.053    2691.6291   -42001.682    79.907953    227.16624 
   19400     132.4129   -156.12434    140765.26    -39302.84     2658.289   -41961.129    80.102919    224.35242 
   19450    134.98557   -154.50742    140817.97   -39307.913    2709.9373    -42017.85    80.391758     228.7114 
   19500    135.25112   -116.96725    140830.75   -39304.431    2715.2685   -42019.699    80.724079    229.16133 
   19550    135.80694   -375.83064    140810.79   -39291.733     2726.427    -42018.16    80.988994    230.10309 
   19600    133.26081    -216.5711    140829.69   -39302.728    2675.3114   -41978.039    81.185219    225.78907 
   19650    135.12741   -379.35301       140827   -39311.907    2712.7849   -42024.692     81.28652    228.95173 
   19700    133.94289   -157.19826    140811.07   -39269.623    2689.0047   -41958.628    81.288848    226.94474 
   19750    137.19653   -400.51134    140781.27   -39238.103     2754.324   -41992.427     81.56361    232.45752 
   19800    137.24552   -360.22844    140737.59   -39278.155    2755.3076   -42033.463    81.883773    232.54053 
   19850    134.60025   -300.83103    140674.37   -39352.583    2702.2017   -42054.785     81.99722    228.05854 
   19900    130.83571   -403.98503    140593.56   -39383.488    2626.6257   -42010.114    82.012919    221.68012 
   19950    132.31202   -302.94425    140540.44   -39401.933    2656.2637   -42058.197    82.078501    224.18149 
   20000    133.81557   -327.75295    140547.54   -39420.751    2686.4487     -42107.2    82.414983    226.72903 
   20050    130.53866    -337.5424    140578.59   -39420.591    2620.6623   -42041.253    82.718459    221.17683 
   20100    135.74396   -302.90996    140583.55    -39377.14    2725.1625   -42102.303    82.996657    229.99637 
   20150    132.37352   -178.62104    140585.66   -39425.131    2657.4984    -42082.63    83.117323     224.2857 
   20200    130.51805   -323.12811    140591.44   -39485.817    2620.2486   -42106.066    83.623762    221.14191 
   20250    132.57824   -156.44571    140606.88   -39461.722    2661.6084    -42123.33    83.988058    224.63257 
   20300    134.78707   -117.82572    140698.19   -39469.748    2705.9523     -42175.7    84.318204    228.37508 
   20350    131.03027   -180.16517     140784.1   -39467.899    2630.5317   -42098.431    84.562214    222.00978 
   20400    130.86956   -226.12079    140897.47    -39466.71    2627.3053   -42094.016    84.796663    221.73748 
   20450    132.00099   -280.17675    140957.68   -39442.392    2650.0197   -42092.411    84.988987    223.65451 
   20500    130.07398   -376.28727    140975.12   -39458.949    2611.3334   -42070.282    85.075728    220.38949 
   20550     134.4018   -255.56366    141031.09   -39361.756    2698.2178   -42059.974     85.22891     227.7223 
   20600    131.62492   -243.97205    141092.47   -39411.779    2642.4698   -42054.249    85.518186    223.01733 
   20650    131.88679    -438.9718    141081.41   -39422.381    2647.7269   -42070.108    85.836417    223.46101 
   20700    133.81453   -336.87272    141009.74   -39445.058    2686.4279   -42131.486    86.170757    226.72727 
   20750    132.45727   -315.64785    140950.25   -39440.845    2659.1797   -42100.025    86.407463    224.42759 
   20800    133.16176   -323.17834    140954.99   -39389.779     2673.323   -42063.102    86.670006    225.62125 
   20850    132.07089   -426.30669    140859.25   -39444.023     2651.423   -42095.446    86.660127    223.77295 
   20900    132.36875   -76.687426    140819.51   -39465.321    2657.4026   -42122.724    86.906956    224.27761 
   20950    133.25491   -273.51987     140817.7   -39419.868     2675.193   -42095.061    86.985819    225.77907 
   21000    131.36266   -312.37248    140823.39   -39423.834    2637.2047   -42061.039    87.516483    222.57296 
   21050    132.49851   -230.28439    140845.29   -39422.433    2660.0078    -42082.44    87.737318    224.49748 
   21100    133.90597   -326.09164    140844.48   -39389.083    2688.2635   -42077.347    87.825501    226.88218 
   21150    132.48992   -273.18724     140837.6   -39437.384    2659.8352    -42097.22     87.92442    224.48292 
   21200    133.00697   -166.61333    140924.03   -39425.018    2670.2154   -42095.234    88.008523    225.35897 
   21250    132.62442   -283.85789    140916.22   -39441.171    2662.5355   -42103.707    88.166577    224.71081 
   21300    133.33856   -289.21214    140843.74    -39393.17    2676.8723   -42070.042    88.372688     225.9208 
   21350    134.85122   -73.880284    140799.92   -39409.657    2707.2401   -42116.898    88.630884    228.48376 
   21400    135.61539    -234.2227    140798.22   -39361.068    2722.5815   -42083.649      88.7908    229.77853 
   21450    131.71229   -109.24546    140826.55   -39423.626    2644.2238    -42067.85    88.987844    223.16536 
   21500    131.82516   -54.076483    140868.91    -39454.14    2646.4898    -42100.63     88.99309     223.3566 
   21550    134.90685      -205.11    140918.44   -39413.543    2708.3569     -42121.9    89.179345    228.57802 
   21600    132.54037    -330.3248    140847.99   -39397.326     2660.848   -42058.174    89.641193    224.56839 
   21650    138.03699   -338.35966    140834.88   -39365.619    2771.1969   -42136.816    89.944051    233.88155 
   21700    133.87199   -16.434819    140903.51   -39428.466    2687.5813   -42116.048    90.216252    226.82461 
   21750    133.32856    -208.8661    140969.79   -39440.707    2676.6716   -42117.378    90.833631    225.90386 
   21800    135.06776   -263.16123    140944.48   -39412.592    2711.5873   -42124.179    91.368112    228.85065 
   21850    133.69459   -248.89041    140860.37   -39383.663    2684.0198   -42067.683    91.457053    226.52403 
   21900    135.98292   -125.00057    140852.65   -39360.111    2729.9598   -42090.071    91.624048    230.40124 
   21950    130.42641   -308.95215    140797.14   -39445.153    2618.4087   -42063.561    92.070782    220.98663 
   22000    132.18664   -372.86289    140711.96   -39493.216    2653.7467   -42146.963    92.489968    223.96907 
   22050    130.93202   -98.876065    140742.85   -39481.966    2628.5592   -42110.525    92.631068     221.8433 
   22100    130.70362   -139.62605    140801.63   -39461.807     2623.974   -42085.781    92.776284    221.45633 
   22150    131.76219    -378.2808    140767.54   -39423.623    2645.2256   -42068.848    93.046907    223.24991 
   22200    133.49097   -274.01553    140765.98   -39438.391     2679.932   -42118.323    93.238885    226.17903 
   22250    134.48784   -102.68107     140759.3   -39428.736     2699.945   -42128.681    93.433538    227.86808 
   22300    130.87837   -150.93443    140841.74   -39446.632    2627.4821   -42074.114     93.60006     221.7524 
   22350    131.70514   -178.10224    140880.09   -39466.459    2644.0803   -42110.539    93.761697    223.15324 
   22400    133.33791   -43.668802    140868.78   -39468.656    2676.8593   -42145.515    94.104365     225.9197 
   22450     134.2995   -99.287733    140856.72   -39471.593    2696.1639   -42167.757    94.390936    227.54896 
   22500    134.98969    4.5041883    140915.89   -39411.805      2710.02   -42121.825     94.52855    228.71838 
   22550    134.92693   -122.13012    141032.21   -39439.938    2708.7601   -42148.698    94.557723    228.61205 
   22600    135.75401   -311.99115     141048.1   -39434.541    2725.3643   -42159.906    94.685671    230.01339 
   22650    134.06478   -266.84256    141036.85   -39351.421    2691.4517   -42042.873    94.795736    227.15127 
   22700    132.58068   -249.79307    140999.19   -39413.298    2661.6574   -42074.955    94.653284     224.6367 
   22750    133.24335   -316.54146    140879.07   -39390.387     2674.961   -42065.348    94.734365    225.75949 
   22800    134.58743   -71.526973    140826.22   -39369.757    2701.9444   -42071.701    94.836458    228.03681 
   22850    134.98046   -122.08621    140887.36   -39397.399    2709.8347   -42107.234    95.110577    228.70274 
   22900    134.04186   -382.11472    140801.44   -39405.208    2690.9917     -42096.2    95.297476    227.11244 
   22950    133.13439   -183.23934    140727.31   -39386.685    2672.7735   -42059.458    95.529118    225.57487 
   23000    132.31892   -67.866594     140773.9   -39439.576    2656.4022   -42095.978    95.953552    224.19318 
   23050    134.85901   -208.28535    140733.11   -39447.969    2707.3965   -42155.365    96.114507    228.49696 
   23100    133.45136    17.026215    140736.34   -39369.744     2679.137    -42048.88    96.499198    226.11193 
   23150    132.49797   -192.34943    140735.45   -39365.448     2659.997   -42025.445    96.740912    224.49657 
   23200    129.80596    -474.6504    140664.93   -39377.813    2605.9528   -41983.765    96.950886    219.93538 
   23250    133.09923   -374.09789    140626.22   -39372.297    2672.0676   -42044.365    97.124856     225.5153 
   23300     133.4821   -7.8382218    140596.77   -39342.662     2679.754   -42022.416    97.452968    226.16401 
   23350    134.59547   -299.52718    140622.39   -39333.337    2702.1058   -42035.442    97.850129    228.05044 
   23400    132.47368   -236.61773    140607.77   -39373.828    2659.5092   -42033.337    98.299195     224.4554 
   23450    131.77463   -284.70256    140588.05   -39375.703    2645.4752   -42021.178    98.498928    223.27097 
   23500    133.57011   -287.50284    140583.17    -39346.31    2681.5209   -42027.831    98.620473    226.31313 
   23550    132.97741   -148.43279    140568.58   -39323.967    2669.6221   -41993.589    98.755934     225.3089 
   23600    134.04728   -75.641148    140534.31   -39343.955    2691.1004   -42035.055    99.045971    227.12161 
   23650     130.9825   -140.54295    140528.45   -39388.531    2629.5726   -42018.103    99.224539    221.92883 
   23700     131.6209   -128.01822    140516.16   -39408.336    2642.3889   -42050.725    99.444494     223.0105 
   23750    135.61081   -183.21746    140557.94   -39366.222    2722.4894   -42088.711    99.747242    229.77076 
   23800    132.60343   -172.56445    140561.26    -39371.43     2662.114   -42033.544    99.735432    224.67524 
   23850     131.9759   -260.18691    140584.44   -39376.467    2649.5159   -42025.983    99.945892    223.61199 
   23900    131.13214   -237.65407    140492.76   -39416.386    2632.5769   -42048.963    100.08171    222.18239 
   23950    130.65595   -119.47716    140440.04   -39426.636    2623.0169   -42049.653    100.26349    221.37555 
   24000    129.37739   -328.92392    140495.12   -39451.906    2597.3488   -42049.255    100.60815    219.20924 
   24050    131.83019   -82.784329    140450.45   -39403.782    2646.5906   -42050.373    100.78581    223.36511 
   24100    129.90319    -236.9059    140499.68    -39473.13    2607.9046   -42081.035    101.37351    220.10011 
   24150    131.53743   -62.559681    140443.72   -39372.918    2640.7134   -42013.631    101.59827    222.86908 
   24200    132.21185   -372.27595    140428.63   -39376.473    2654.2527   -42030.726    101.87754    224.01177 
   24250    133.14322   -206.14003    140398.13   -39381.618    2672.9507   -42054.568    102.12102    225.58983 
   24300    129.98651   -143.63867    140390.27   -39434.531    2609.5774   -42044.108    102.49282    220.24129 
   24350    130.76954    45.317227    140401.91   -39412.057    2625.2973   -42037.354    102.50849    221.56801 
   24400    133.29027   -235.12317    140464.23   -39381.079    2675.9029   -42056.982    102.56007    225.83899 
   24450      131.879    32.096086    140464.83   -39393.963    2647.5707   -42041.534    102.87037    223.44782 
   24500    136.57498   -5.3416911    140610.85   -39311.389    2741.8459   -42053.235    103.16611    231.40439 
   24550    134.52794   -94.454258    140690.85     -39349.6    2700.7501    -42050.35    103.29244    227.93602 
   24600    134.71515   -145.48696    140709.81   -39377.385    2704.5085   -42081.893    103.32074    228.25322 
   24650    133.81589    -105.3744    140691.16   -39347.724    2686.4552   -42034.179    103.42674    226.72957 
   24700    135.51479   -84.392787     140678.7   -39351.338    2720.5617   -42071.899    103.61977    229.60807 
   24750    132.74452    39.658962    140713.23   -39369.305    2664.9465   -42034.252    103.77856     224.9143 
   24800    134.74359   -194.41805    140752.54   -39360.454    2705.0794   -42065.533    103.97373     228.3014 
   24850    131.41311     -142.474    140824.82   -39370.103    2638.2175   -42008.321    104.29414    222.65844 
   24900      135.842   -133.90194    140818.81   -39342.135    2727.1307   -42069.265    104.52844    230.16248 
   24950    131.19673   -438.38196    140803.69   -39379.352    2633.8735   -42013.225    104.86564    222.29182 
   25000    134.45936   -195.77779    140739.85   -39349.131    2699.3733   -42048.504    104.98631    227.81982 
   25050    132.21992     -337.198    140722.64   -39352.229    2654.4147   -42006.644    105.24526    224.02544 
   25100     133.3521    -106.6566    140734.67   -39377.816    2677.1442    -42054.96    105.65537    225.94374 
   25150    135.63129   -184.23736    140784.26   -39329.132    2722.9006   -42052.032    105.91381    229.80547 
   25200    133.01126    36.134444     140848.7   -39390.353    2670.3016   -42060.655     106.3011    225.36625 
   25250    133.16593   -248.06996    140860.52   -39388.938    2673.4066   -42062.345    106.54061    225.62831 
   25300    132.51738   -97.277529    140876.23   -39415.242    2660.3866   -42075.629    106.72395    224.52945 
   25350    131.45635   -230.20833    140847.45   -39416.993    2639.0856   -42056.078    107.08642     222.7317 
   25400    134.28912   -369.83973    140740.76   -39394.365    2695.9555   -42090.321    107.45003    227.53137 
   25450    132.19741   -155.04032    140688.58   -39427.634     2653.963   -42081.597    107.79103    223.98731 
   25500    132.71052   -178.48947    140726.09   -39424.878     2664.264   -42089.142    108.17995     224.8567 
   25550    132.63188   -224.60539    140744.74   -39391.202    2662.6853   -42053.887    108.16196    224.72346 
   25600    132.14113   -228.37641    140716.59   -39418.073     2652.833   -42070.906    108.62089    223.89195 
   25650    134.83301    -51.11933    140730.13   -39426.973    2706.8746   -42133.847     108.8016    228.45292 
   25700     132.9157    -316.3686    140692.04   -39419.199    2668.3832   -42087.582    109.39424    225.20434 
   25750    132.13126   -141.22347    140610.28   -39348.044    2652.6349   -42000.679    109.73679    223.87523 
   25800    134.05785    30.658454    140720.35    -39391.31    2691.3127   -42082.623    109.95821    227.13953 
   25850    134.93119    32.642495    140777.81   -39415.323    2708.8456   -42124.169    110.29426    228.61926 
   25900    134.06024   -81.775449    140834.68   -39469.707    2691.3607   -42161.067    110.43242    227.14358 
   25950    135.77639   -328.11025    140859.07    -39469.99    2725.8136   -42195.804     110.5969    230.05132 
   26000    131.12402   -213.87496    140848.39   -39495.279    2632.4138   -42127.693     110.8828    222.16863 
   26050    133.95216   -262.94634    140780.64   -39441.139    2689.1908    -42130.33     111.1353    226.96045 
   26100    134.41155   -201.62373    140744.14    -39440.99    2698.4135   -42139.404    111.33821    227.73882 
   26150     132.3166   -104.46382    140812.03   -39485.194    2656.3557    -42141.55    111.39698    224.18926 
   26200    132.49113   -24.220772    140845.23   -39452.928    2659.8595   -42112.788    111.74012    224.48496 
   26250    130.84478   -181.92522    140882.74   -39475.581    2626.8078   -42102.388    111.87824    221.69549 
   26300    133.07105   -141.79185    140871.69   -39499.002    2671.5018   -42170.504    112.26158    225.46754 
   26350    130.55835   -74.402057    140842.98   -39494.681    2621.0576   -42115.738    112.31658    221.21019 
   26400     133.1354   -259.62255    140874.58    -39477.16    2672.7938   -42149.954    112.60758    225.57659 
   26450    134.39634   -216.15882    140868.43   -39486.575     2698.108   -42184.683    112.74933    227.71304 
   26500    133.99811   -198.32724    140907.96   -39461.845    2690.1132   -42151.958    112.51795     227.0383 
   26550    137.69573   -374.93233    140908.46    -39423.48    2764.3459   -42187.826    112.75742    233.30334 
   26600    133.42903   -135.48075    140823.97   -39436.919    2678.6886   -42115.608    112.98247     226.0741 
   26650    136.02223   -80.749579    140814.17   -39408.799     2730.749   -42139.548    113.20642    230.46785 
   26700    135.19164   -193.62141    140824.48   -39398.482    2714.0743   -42112.557    113.93246    229.06055 
   26750    133.44312   -209.78288    140866.59   -39381.925    2678.9716   -42060.897    114.31165    226.09797 
   26800    132.60302   -366.11184    140794.88   -39444.224    2662.1059    -42106.33    114.57474    224.67455 
   26850     134.0294   -321.73856    140767.38   -39366.731    2690.7414   -42057.473    114.56586    227.09132 
   26900    135.73405   -245.60485     140762.9   -39357.787    2724.9635    -42082.75    114.61194    229.97957 
   26950    134.84145   -35.448941    140821.37   -39417.768     2707.044   -42124.812    114.80344    228.46721 
   27000    131.61954   -262.98147    140838.41   -39423.142    2642.3618   -42065.504    115.06292     223.0082 
   27050    132.82026   -406.02546    140778.18   -39439.291     2666.467   -42105.758    115.21879    225.04262 
   27100    131.46204   -187.47636    140658.16   -39429.399    2639.1998   -42068.598    115.03962    222.74134 
   27150    132.28595   -125.37563     140585.4    -39398.97    2655.7404   -42054.711    114.99964    224.13733 
   27200    130.68559   -335.30316    140500.21   -39392.221    2623.6119   -42015.833    115.20766    221.42577 
   27250    134.07575   -140.55848    140337.37   -39383.474     2691.672   -42075.146    115.43009    227.16986 
   27300    134.31158   -307.30278    140337.04   -39337.239    2696.4064   -42033.646    115.74954    227.56942 
   27350    133.99505   -151.80456    140363.56   -39324.097    2690.0519   -42014.149    115.86009    227.03312 
   27400    135.14257    51.260032    140317.96   -39334.594    2713.0891   -42047.684    116.19474     228.9774 
   27450    131.93154   -324.51247    140219.53   -39385.785    2648.6253    -42034.41    116.48945    223.53683 
   27500    131.01574   -91.352243    140156.75   -39430.051    2630.2399   -42060.291    116.66392    221.98516 
   27550    134.81254   -119.84632    140143.15   -39371.528    2706.4636   -42077.992    116.81836    228.41823 
   27600    134.89447   -69.044963    140182.45   -39355.501    2708.1085   -42063.609    116.97971    228.55705 
   27650    133.72419   -2.9280088     140337.8   -39354.777    2684.6141   -42039.391    117.15637    226.57419 
   27700    133.46669   -231.92477    140433.29    -39354.17    2679.4446   -42033.614    117.17015     226.1379 
   27750    134.77292   -345.64675    140466.79   -39308.833    2705.6682   -42014.501    117.69438    228.35109 
   27800    132.79244   -164.95387    140399.87   -39316.175    2665.9085   -41982.084    117.63693    224.99549 
   27850    132.76525   -346.77879    140356.64    -39293.54    2665.3628   -41958.903    117.74036    224.94943 
   27900    137.25749   -232.92058    140314.51   -39280.468    2755.5479   -42036.016    117.81669    232.56081 
   27950    132.89501   -195.42235    140304.14   -39385.693    2667.9678   -42053.661    118.10618    225.16928 
   28000    135.81696   -161.42289    140327.69    -39391.54     2726.628   -42118.168    118.23694    230.12005 
   28050    133.85425    -345.1429    140349.65   -39391.715    2687.2252    -42078.94    118.56019    226.79456 
   28100    133.20546   -181.41365     140355.8   -39372.178    2674.2003   -42046.378    118.90207    225.69529 
   28150    132.15414   -363.58079    140394.29   -39397.958    2653.0942   -42051.052    119.44863    223.91399 
   28200    133.34353   -265.74518    140396.52   -39374.507    2676.9721   -42051.479    119.70726    225.92923 
   28250    131.61246   -238.69673    140374.09   -39443.771    2642.2195    -42085.99    119.87013     222.9962 
   28300    132.83484   -136.61532    140469.76   -39388.371    2666.7597   -42055.131    119.78421    225.06733 
   28350    131.33917   -199.73062    140453.04       -39470     2636.733   -42106.733    119.64699    222.53316 
   28400    133.28452   -252.32932    140438.06    -39479.72    2675.7874   -42155.508    119.85054    225.82924 
   28450    131.40545   -299.14606    140414.94   -39498.044    2638.0636   -42136.108    119.79687    222.64545 
   28500    130.72616   -46.843793    140444.47   -39487.587    2624.4265   -42112.014    119.84364    221.49451 
   28550    134.67867   -110.91688    140500.04    -39436.96     2703.776   -42140.736    119.96405     228.1914 
   28600    133.06448   -185.86085    140518.31   -39457.771      2671.37   -42129.141    119.92493    225.45642 
   28650    131.07294   -122.17228    140510.56     -39456.2    2631.3884   -42087.588    120.05975    222.08208 
   28700    133.26881   -197.48028    140527.73       -39456    2675.4721   -42131.473    120.39785    225.80263 
   28750    134.04845   -287.93182    140491.28    -39397.25    2691.1238   -42088.374    120.56463    227.12359 
   28800    132.10413   -115.19517    140382.77   -39415.709    2652.0902   -42067.799    120.91114    223.82926 
   28850    132.32241   -196.72199    140452.27   -39447.743    2656.4724   -42104.215    121.29494     224.1991 
   28900    132.30667   -394.12405    140455.69    -39439.91    2656.1563   -42096.066     121.2962    224.17243 
   28950    130.45149   -358.94574    140454.69    -39473.75    2618.9122   -42092.662    121.58104    221.02913 
   29000    130.54711   -330.83747    140493.05   -39438.979    2620.8319   -42059.811    122.10008    221.19114 
   29050    135.80298   -214.41161    140485.33   -39423.115    2726.3474   -42149.462    122.11723    230.09637 
   29100     132.2115   -41.288371    140461.58   -39432.165    2654.2457   -42086.411    122.39144    224.01118 
   29150    129.80082   -246.99047    140627.02    -39512.62    2605.8496    -42118.47    122.92184    219.92668 
   29200    134.23811   -266.46705    140609.65   -39507.858    2694.9316   -42202.789    123.05229    227.44495 
   29250    132.16686   -355.85439    140623.89   -39478.524    2653.3496   -42131.874    123.60563    223.93555 
   29300    133.50119   -73.344315    140613.33   -39488.164    2680.1373   -42168.301    123.97329    226.19636 
   29350    132.59782   -204.39996    140519.57   -39481.284    2662.0015   -42143.285    123.78846    224.66575 
   29400    132.86642   -172.97313    140474.36    -39475.85    2667.3939   -42143.244    123.80308    225.12085 
   29450    133.99889  -0.51301403    140512.23   -39450.623     2690.129   -42140.752     124.2181    227.03963 
   29500    132.89971   -202.13923     140561.6   -39449.162    2668.0622   -42117.224    124.38808    225.17725 
   29550    133.23282   -342.00557    140548.92   -39412.628    2674.7496   -42087.378    124.26401    225.74165 
   29600    132.35104   -221.46172    140585.24   -39419.887    2657.0472   -42076.934    124.17956    224.24762 
   29650    131.78449   -171.12948    140675.86   -39377.201    2645.6732   -42022.874    124.43719    223.28768 
   29700    133.43658   -447.53148    140735.88   -39383.587    2678.8401   -42062.427    124.68043    226.08688 
   29750    133.16093    39.157596    140735.97   -39375.503    2673.3062   -42048.809    124.83459    225.61983 
   29800    132.21716   -291.82054    140721.52   -39428.972    2654.3595   -42083.331    124.85064    224.02078 
   29850    132.97102   -263.38121    140667.62   -39416.918    2669.4937   -42086.412    125.40826    225.29807 
   29900    131.26956   -116.89898    140659.23   -39427.994    2635.3356    -42063.33    125.77314    222.41521 
   29950    133.23114   -271.74234    140701.93   -39402.148    2674.7158   -42076.864    125.81173     225.7388 
   30000    136.04943   -297.38476    140731.54    -39358.09    2731.2952   -42089.385    126.02352    230.51394 
   30050    132.80867   -126.07612    140668.86   -39379.129    2666.2344   -42045.363     125.8625    225.02299 
   30100    133.17736   -46.887659     140657.3   -39380.319    2673.6362   -42053.956    126.02401    225.64768 
   30150    133.12796   -170.17354    140642.77   -39376.171    2672.6443   -42048.815    126.28539    225.56397 
   30200    131.41957   -329.66237    140583.75   -39354.164    2638.3472   -41992.512    126.46684    222.66939 
   30250    132.66316   -250.96705    140510.48    -39345.31    2663.3132   -42008.624    126.95838    224.77645 
   30300    135.90429   -119.76267    140529.48   -39305.073    2728.3813   -42033.454    127.22044    230.26802 
   30350    134.48182   -164.87876    140597.39   -39306.305    2699.8242   -42006.129    127.52398    227.85788 
   30400    136.19393   -234.49647    140610.91    -39291.24    2734.1961   -42025.436    127.64962    230.75878 
   30450    133.62216   -204.90238    140538.36   -39298.771    2682.5659   -41981.337    127.83266    226.40132 
   30500    132.86858   -260.61465    140473.62   -39331.877    2667.4372   -41999.314    128.32434     225.1245 
   30550    134.02068   -291.56209    140468.09   -39332.021    2690.5665   -42022.587    128.47046    227.07655 
   30600    134.73957   -204.56832    140399.11   -39361.483    2704.9988   -42066.482    128.72206     228.2946 
   30650    132.12545   -276.18532     140468.8   -39345.101    2652.5182    -41997.62    129.10669    223.86538 
   30700    134.54939   -312.96788    140486.58   -39314.789    2701.1806   -42015.969    129.66648    227.97236 
   30750    130.82492   -342.13345    140410.12   -39376.927    2626.4091   -42003.336    130.09214    221.66184 
   30800    133.66497   -311.85161    140406.16   -39405.139    2683.4252   -42088.564    130.30693    226.47385 
   30850    132.81032   -169.05337    140450.96   -39391.158    2666.2675   -42057.425    130.55962    225.02579 
   30900    133.82667   -325.17761    140465.34   -39384.564    2686.6715   -42071.235    130.68905    226.74782 
   30950    134.46404   -61.333311    140471.19   -39372.882    2699.4672   -42072.349    130.88129    227.82775 
   31000    133.60317   -265.18504    140485.62   -39347.556    2682.1845   -42029.741    131.22545    226.36914 
   31050    134.11851   -184.67423     140475.6   -39325.167    2692.5303   -42017.698    131.20845     227.2423 
   31100    134.53755   -253.71841    140431.17   -39358.818     2700.943   -42059.761    131.41968     227.9523 
   31150    131.52379   -343.76178    140374.88   -39410.618    2640.4394   -42051.057    131.86508    222.84596 
   31200    132.37654   -318.24974    140385.49   -39394.988    2657.5592   -42052.547     132.1718    224.29082 
   31250    132.31845     -317.274    140350.94   -39377.026    2656.3929   -42033.419    132.55495     224.1924 
   31300     134.6625   -91.028103     140385.2   -39357.581    2703.4514   -42061.033    132.67292    228.16401 
   31350     133.6092   -284.89785    140411.55    -39318.98    2682.3056   -42001.286    132.92438    226.37936 
   31400    133.56213   -323.31434    140353.48   -39326.869    2681.3607    -42008.23    133.10247    226.29961 
   31450    133.43166    -136.7205    140311.18    -39378.37    2678.7413   -42057.111    133.06426    226.07854 
   31500    132.10602    -26.23809    140290.02   -39344.608    2652.1281   -41996.736    133.25954    223.83246 
   31550    134.09335   -222.99189    140292.21   -39349.447    2692.0254   -42041.472    133.37018    227.19968 
   31600    133.75332   -217.64677    140258.88   -39308.826    2685.1989   -41994.025    133.58491    226.62354 
   31650    131.36534   -206.77577    140233.73   -39319.837    2637.2586   -41957.095    134.19993    222.57751 
   31700    131.14705    1.8141402    140277.47   -39401.594    2632.8761   -42034.471    134.44548    222.20764 
   31750    131.73734   -39.929378     140370.6   -39392.208    2644.7267   -42036.935    134.99822     223.2078 
   31800    133.57894   -61.880568    140426.34   -39384.552    2681.6981    -42066.25    135.45411    226.32809 
   31850    132.78725   -65.592803    140481.79   -39418.443    2665.8044   -42084.248    135.78838     224.9867 
   31900    131.30429   -26.204621     140538.6   -39421.506    2636.0328   -42057.539      136.037    222.47405 
   31950    132.00745   -37.617524     140638.2   -39423.699    2650.1494   -42073.848    136.46656    223.66546 
   32000    130.76024   -198.89265    140659.54    -39420.21    2625.1107   -42045.321     136.8418    221.55226 
   32050    132.79442   -197.14169     140617.2   -39428.246    2665.9483   -42094.195    136.70748    224.99884 
   32100    133.92905   -81.169471    140628.54   -39390.957    2688.7269   -42079.684     136.8702     226.9213 
   32150    133.94956   -174.64513    140624.06   -39420.894    2689.1386   -42110.033    137.03159    226.95605 
   32200    132.38983    46.207279    140556.57   -39432.259    2657.8259   -42090.084    137.20332    224.31333 
   32250    133.65298    14.505818    140584.05   -39455.423    2683.1845   -42138.608    137.01646    226.45353 
   32300    135.09489   -126.24461    140617.88   -39447.165    2712.1319   -42159.297    137.27244    228.89662 
   32350    131.36849   -71.874614    140618.78   -39459.876    2637.3218   -42097.198    137.35898    222.58284 
   32400    133.39838    53.271795    140602.33   -39420.769    2678.0733   -42098.842    137.51714    226.02216 
   32450    133.72143   -33.469172     140665.6   -39394.887    2684.5589   -42079.446    137.79418    226.56953 
   32500    133.16662   -320.79479    140655.12   -39427.518    2673.4205   -42100.939    137.92435    225.62947 
   32550    135.41069   -82.073407    140659.08   -39422.481    2718.4719   -42140.953    138.14093    229.43169 
   32600    133.87444    169.05087    140667.35   -39424.068    2687.6305   -42111.698    138.42658    226.82876 
   32650     133.0068   -233.14452    140742.67   -39393.363     2670.212   -42063.575    138.73043    225.35869 
   32700    133.15385   -175.62698    140708.49   -39391.738    2673.1642   -42064.902    139.06723    225.60785 
   32750    134.73704   -314.88789    140746.57   -39423.979    2704.9478   -42128.926    139.26239     228.2903 
   32800    132.37711   -233.88358       140755   -39470.357    2657.5705   -42127.927    139.59982    224.29178 
   32850    134.63412    -193.1397    140758.29   -39434.005    2702.8817   -42136.887    139.81587    228.11592 
   32900    132.89266    -104.0003    140699.23   -39503.213    2667.9207   -42171.133    139.86471    225.16531 
   32950    130.67829   -285.63325    140674.77   -39526.454    2623.4654   -42149.919     140.0289     221.4134 
   33000     130.6132    -179.5505    140724.81    -39519.82    2622.1586   -42141.978     140.6505    221.30311 
   33050    132.48292   -265.36003    140649.23    -39562.65    2659.6947   -42222.345    140.68552    224.47106 
   33100    132.52785   -6.2548138     140607.2   -39524.304    2660.5968   -42184.901    141.11231    224.54719 
   33150    132.39249   -50.108918    140592.26   -39540.625    2657.8792   -42198.504    141.27536    224.31783 
   33200    132.10728   -93.580352    140588.05   -39515.851    2652.1534   -42168.005    141.33269     223.8346 
   33250    133.73232    35.447986    140578.83   -39473.964    2684.7773   -42158.742     141.6675    226.58796 
   33300    130.83732   -231.74164    140699.51   -39535.911    2626.6581   -42162.569    141.73778    221.68286 
   33350    131.48612   -167.15034    140678.35   -39492.834    2639.6832   -42132.517    141.88646    222.78214 
   33400     131.6748    55.675063    140686.84   -39482.077    2643.4712   -42125.548    142.12055    223.10183 
   33450    134.77595   -161.03225    140643.18    -39440.99     2705.729   -42146.719    142.14767    228.35623 
   33500    135.29416   -373.24659    140603.47   -39456.026    2716.1324   -42172.158    142.62882    229.23425 
   33550    134.19181    38.479359    140596.52   -39434.343    2694.0021   -42128.345     142.6095    227.36651 
   33600    131.66441   -101.92688    140663.84   -39409.788    2643.2625    -42053.05    142.87495    223.08422 
   33650    135.82211   -52.863551    140708.27   -39394.633    2726.7314   -42121.364    143.49435    230.12878 
   33700    133.65486   -32.256856    140751.25   -39448.046    2683.2223   -42131.269    143.61859    226.45672 
   33750    132.69102   -203.67392    140746.92   -39518.052    2663.8726   -42181.924    143.49307    224.82366 
   33800    133.06296   -246.52924    140735.19   -39503.488    2671.3394   -42174.827    143.94055    225.45384 
   33850     134.9515   -62.089534    140757.74   -39499.305    2709.2534   -42208.558    144.16799    228.65368 
   33900    136.14187   -200.54068    140773.42   -39415.121     2733.151   -42148.272    144.20892    230.67057 
   33950    133.88582   -66.208558     140772.4   -39431.589    2687.8591   -42119.448    144.56196    226.84806 
[...]
   92000    132.70434   -105.71828    140629.05   -39376.552    2664.1398   -42040.692    397.23096    224.84621 
   92050    131.60811   -175.69827    140680.25    -39355.16    2642.1323   -41997.293    397.59368    222.98884 
   92100    129.79632    -179.6816    140679.32   -39406.089    2605.7591   -42011.848    397.40133    219.91904 
   92150    131.55611   -357.97526    140662.99   -39389.548    2641.0882   -42030.637     397.3033    222.90072 
   92200    132.69669   -327.73524    140652.71   -39346.013    2663.9863   -42009.999    397.55233    224.83326 
   92250    134.97426   -228.15094    140631.23    -39330.87    2709.7103    -42040.58    397.53423    228.69224 
   92300    132.94172   -197.17185     140606.4   -39340.111    2668.9054   -42009.016    397.32199    225.24842 
   92350    133.06234   -301.67172       140633   -39308.317     2671.327   -41979.644    397.43856    225.45279 
   92400    133.69687   -356.09316    140592.98   -39339.019    2684.0657   -42023.084    397.27562     226.5279 
   92450    134.89883   -289.28515    140586.79   -39298.188     2708.196   -42006.384    398.04648    228.56444 
   92500    132.60589   -160.90115     140557.5   -39277.463    2662.1635   -41939.627    398.46682    224.67942 
   92550      135.988   -84.873844    140596.29   -39255.363    2730.0619   -41985.425    398.48757    230.40986 
   92600    132.59587   -212.84098    140577.25   -39288.656    2661.9623   -41950.618     398.9359    224.66243 
   92650    135.30396   -250.25095    140509.92   -39269.727    2716.3293   -41986.056    399.15722    229.25086 
   92700    131.02184   -72.173277    140506.05   -39371.255    2630.3624   -42001.617    399.22793    221.99549 
   92750    132.02282   -81.155044    140566.73   -39351.348    2650.4579   -42001.806    399.87641     223.6915 
   92800    134.85688   -286.13917    140677.37   -39306.769    2707.3537   -42014.122    400.32239    228.49335 
   92850    134.71042     -85.2769    140661.72   -39299.788    2704.4135   -42004.202     401.0695     228.2452 
   92900    134.51646   -278.84172    140638.75     -39309.4    2700.5195    -42009.92    401.27781    227.91656 
   92950    133.70795     -200.862    140679.62   -39292.453    2684.2882   -41976.741    401.69296    226.54668 
   93000    131.72498   -179.02379     140703.3   -39347.901    2644.4785    -41992.38    402.18976    223.18685 
   93050    131.99069   -185.42779    140665.11   -39343.198    2649.8129   -41993.011    402.76771    223.63706 
   93100    133.16597   -311.38424    140584.05   -39387.682    2673.4074   -42061.089     402.9171    225.62837 
   93150    132.51178   -409.50139    140503.87   -39349.519    2660.2741   -42009.793    403.35138    224.51996 
   93200    135.66922   -177.32348    140487.45   -39301.041    2723.6621   -42024.703    403.92945    229.86973 
   93250    132.58457   -109.17381    140534.25   -39335.191    2661.7354   -41996.927    403.90517    224.64329 
   93300    134.18135   -310.07126       140567   -39348.131    2693.7921   -42041.923    404.22061    227.34878 
   93350    136.22857   -212.94148    140615.55   -39315.965    2734.8915   -42050.856    404.60535    230.81747 
   93400    133.33531   -41.923092    140717.84   -39293.478    2676.8072   -41970.286    405.58679    225.91531 
   93450     134.8756    217.24792    140718.31   -39322.814    2707.7296   -42030.543    405.48388    228.52507 
   93500    132.35401   -126.93324    140736.88   -39371.845    2657.1068   -42028.952    405.19071    224.25265 
   93550    135.08162   -38.746045    140739.47   -39333.665    2711.8656    -42045.53    405.78407    228.87414 
   93600     131.2387   -224.03485    140820.95   -39362.593    2634.7162    -41997.31    406.07286    222.36294 
   93650    133.30081   -293.02079    140784.46   -39361.684    2676.1145   -42037.798    406.40981    225.85685 
   93700    132.82317   -151.00766    140793.34   -39349.746    2666.5255   -42016.271    406.94578    225.04756 
   93750      135.196   -131.85499    140815.15   -39343.995    2714.1618   -42058.157    406.79245    229.06794 
   93800     134.4786   -149.90652    140839.83   -39372.515    2699.7595   -42072.275    406.86471    227.85242 
   93850    129.85556   -167.57195    140819.85   -39401.727    2606.9484   -42008.675    407.66963    220.01941 
   93900    134.26979   -286.63856    140801.25   -39374.772    2695.5675    -42070.34    407.90213    227.49862 
   93950    133.20054   -43.269695    140891.08   -39368.304    2674.1016   -42042.405     408.3492    225.68696 
   94000    135.11616    -296.1553    140844.83   -39343.041     2712.559     -42055.6    408.68362    228.93266 
   94050    131.29421   -364.08157    140784.96   -39380.133    2635.8305   -42015.963    409.02543    222.45698 
   94100    131.80857   -200.10398    140719.57   -39357.634    2646.1567   -42003.791    409.10856    223.32849 
   94150    132.06831   -263.11144    140651.06   -39400.957     2651.371   -42052.328    409.68642    223.76856 
   94200    134.07374   -104.74456    140627.91    -39380.28    2691.6316   -42071.912    409.75505    227.16645 
   94250     132.7354    301.59423     140737.3   -39341.978    2664.7635   -42006.742    410.24595    224.89885 
   94300     132.1593   -86.892199    140784.48   -39382.563    2653.1978    -42035.76    410.42214    223.92274 
   94350    132.42006   -302.64817    140715.43   -39371.885    2658.4328   -42030.318    410.77375    224.36456 
   94400    134.52375   -115.34616    140716.66   -39369.452    2700.6659   -42070.118     410.8324    227.92892 
   94450    133.13746     -173.812    140772.91   -39360.314    2672.8351   -42033.149    411.75369    225.58007 
   94500    131.91099   -362.34105    140714.33   -39445.392    2648.2128   -42093.605    412.28383    223.50202 
   94550    130.42854   -255.93764    140692.89   -39450.521    2618.4516   -42068.973    412.58944    220.99025 
   94600    131.57704     -134.349    140758.73   -39499.668    2641.5085   -42141.177    412.74902    222.93619 
   94650    131.52137   -225.64209    140748.87   -39493.085    2640.3908   -42133.476    413.49649    222.84186 
   94700     131.3504   -274.42204    140748.85   -39429.182    2636.9584    -42066.14     413.6906    222.55218 
   94750    130.70679   -240.91384     140708.8    -39446.11    2624.0377   -42070.147    413.62115     221.4617 
   94800     131.4961   -144.96305    140743.12   -39446.332    2639.8835   -42086.216    413.73828    222.79905 
   94850    133.71219   -137.57388    140702.99   -39429.884    2684.3733   -42114.257    414.19452    226.55387 
   94900    132.68656   -154.58439     140747.8   -39420.995     2663.783   -42084.778    414.25723     224.8161 
   94950    132.05406   -143.06004    140800.66   -39403.895    2651.0851    -42054.98    414.39656    223.74443 
   95000    132.97816   -44.217127    140774.38   -39368.664    2669.6371   -42038.301    414.16716    225.31017 
   95050    133.32185   -251.39689    140819.74   -39358.009     2676.537   -42034.545     414.4521     225.8925 
   95100    131.83739   -246.38138    140795.68   -39384.661    2646.7352   -42031.396    414.92189    223.37731 
   95150    134.06305    -274.1013    140769.51    -39380.75    2691.4171   -42072.167    415.23062    227.14834 
   95200    131.92758   -339.96422    140836.99   -39422.072    2648.5458   -42070.618    415.34987    223.53012 
   95250    135.44109   -344.87138    140865.61   -39397.008    2719.0823   -42116.091    415.76303    229.48321 
   95300    131.06837   -224.88144    140850.25   -39453.732    2631.2966   -42085.029    416.36306    222.07433 
   95350    131.73676   -411.79204    140799.37   -39454.013     2644.715   -42098.728    416.42215    223.20681 
   95400    130.66891   -202.46748    140811.35   -39464.956    2623.2772   -42088.233    416.01507    221.39752 
   95450    130.84395   -184.95776    140807.06   -39434.171    2626.7912   -42060.962    415.99385    221.69409 
   95500    135.23187   -153.89346    140788.82   -39392.075    2714.8819   -42106.957    416.24969    229.12871 
   95550    131.86757   -171.27699     140704.6   -39376.668    2647.3412   -42024.009    415.78797    223.42845 
   95600    129.53677   -86.470713    140788.75   -39472.647    2600.5486   -42073.196    416.48265    219.47929 
   95650    129.44068   -380.53333     140764.8   -39481.511    2598.6194   -42080.131    416.38274    219.31647 
   95700    133.10584    -359.5409    140725.52   -39448.681    2672.2003   -42120.881     416.5813     225.5265 
   95750    132.63314   -236.95526    140726.92    -39447.64    2662.7105   -42110.351    416.76541    224.72559 
   95800     130.5674   -339.35605    140658.59   -39456.314    2621.2393   -42077.554    417.06613    221.22553 
   95850    132.82355   -280.89722    140621.95   -39476.028    2666.5332   -42142.562    417.39271    225.04821 
   95900    131.08349   -34.219091    140672.54   -39458.738       2631.6   -42090.338    417.87732    222.09994 
   95950     132.2296   -222.48042    140570.14    -39439.94    2654.6091   -42094.549    417.82965    224.04185 
   96000    132.56834    5.6636237    140605.29   -39428.945    2661.4096   -42090.354    417.69904    224.61579 
   96050    132.58381   -120.38652     140610.9   -39484.678    2661.7201   -42146.398    417.32008      224.642 
   96100    129.27635   -179.83726    140588.45   -39530.027    2595.3204   -42125.347    417.49924    219.03804 
   96150     132.1178   -180.81442    140667.57   -39479.498    2652.3648   -42131.863    417.69591    223.85243 
   96200    131.47468   -237.88175    140629.62   -39495.303    2639.4536   -42134.757    417.36491    222.76276 
   96250    132.44238   -288.29151    140569.15   -39506.211    2658.8808   -42165.091    417.17677    224.40237 
   96300    130.88279   -136.72547     140576.9   -39497.618    2627.5709   -42125.189    417.21236    221.75989 
   96350    131.19128   -49.476572    140490.67   -39508.257    2633.7641   -42142.021    417.01493    222.28258 
   96400    132.30649    -242.0313    140535.56   -39529.173    2656.1528   -42185.325     416.9745    224.17213 
   96450    131.19502   -227.26557    140575.52   -39531.886    2633.8391   -42165.725    417.30663    222.28892 
   96500    131.59423   -69.358645    140579.08   -39561.735    2641.8537   -42203.589    417.64575    222.96532 
   96550    131.09367   -112.81261    140622.21   -39532.393    2631.8044   -42164.198    418.22418     222.1172 
   96600    131.66442   -143.35426    140581.01   -39516.968    2643.2627   -42160.231    418.65674    223.08424 
   96650    133.83572    46.293522     140612.4   -39465.962    2686.8533   -42152.815    418.86637    226.76317 
   96700    130.80735   -48.316191    140683.33   -39474.444    2626.0565     -42100.5    419.09774    221.63208 
   96750    133.32242   -149.40637    140789.16   -39464.767    2676.5483   -42141.315    419.01177    225.89346 
   96800    134.72704    -199.1754    140865.08   -39438.164    2704.7471   -42142.911    419.36068    228.27336 
   96850    134.59456   -142.98157     140964.3   -39471.422    2702.0875    -42173.51    419.89752     228.0489 
   96900     132.7246   -213.29499     141004.4   -39460.132    2664.5466   -42124.679    420.52439    224.88055 
   96950    132.59699   -272.85699    140984.15   -39451.088    2661.9849   -42113.073    420.86026    224.66434 
   97000    133.68812   -97.947136    140999.75   -39473.264    2683.8901   -42157.154    421.17325    226.51308 
   97050    133.12307   -189.09803     141024.2     -39444.3    2672.5463   -42116.847     421.4207     225.5557 
   97100    133.42249   -215.42461    141057.79   -39469.747    2678.5572   -42148.304     421.1991      226.063 
   97150    131.46938   -93.983788    141083.21   -39483.683    2639.3471    -42123.03    421.47922    222.75377 
   97200    134.64025   -175.44499    141163.73   -39482.817    2703.0048   -42185.822    421.74901    228.12632 
   97250    129.69844   -372.44784    141125.64   -39503.833    2603.7942   -42107.627    422.43362     219.7532 
   97300    132.77618   -34.066484    141091.95   -39500.059    2665.5822   -42165.641    422.15378    224.96795 
   97350    132.25433   -204.76092    141184.43   -39504.697    2655.1056   -42159.803    422.29258    224.08375 
   97400    130.70219   -44.238045    141235.23   -39487.749    2623.9451   -42111.694    422.72019    221.45389 
   97450    133.80836    62.807501    141276.02   -39482.377     2686.304   -42168.681    422.86921    226.71681 
   97500    133.48613   -362.93399    141287.54   -39531.368    2679.8349   -42211.203    423.09177    226.17084 
   97550    133.87357   -417.53406    141238.23   -39503.623    2687.6131   -42191.236    423.34459    226.82729 
   97600    129.83151   -445.14057    141178.81   -39520.976    2606.4656   -42127.442     423.6527    219.97867 
   97650    130.97964   -251.10896    141157.87   -39511.048    2629.5153   -42140.563    423.75108      221.924 
   97700    130.58702   -654.15286     141125.8   -39515.722    2621.6331   -42137.355    423.95015    221.25876 
   97750    131.42285   -133.98689    141095.85    -39510.92     2638.413   -42149.333    424.12377    222.67494 
   97800    133.66233   -367.40766    141121.16   -39489.487    2683.3723   -42172.859    424.22704    226.46938 
   97850    131.74545   -288.73458    141081.16   -39482.318    2644.8895   -42127.208    424.37784    223.22153 
   97900    130.35762   -353.61034    141028.54   -39491.152    2617.0277    -42108.18    424.21983    220.87008 
   97950    131.49277   -439.02037    140876.51   -39461.065    2639.8168   -42100.882    423.56095    222.79341 
   98000    133.16066   -262.69835    140807.17   -39457.405    2673.3008   -42130.706    423.57272    225.61938 
   98050    129.66143   -199.30402    140758.59   -39459.146    2603.0512   -42062.198    423.32674     219.6905 
   98100    132.52388   -245.32589    140685.52   -39470.206    2660.5171   -42130.723    423.00434    224.54046 
   98150    136.33358   -326.13514    140664.97   -39432.302    2736.9996   -42169.302    422.83293    230.99538 
   98200     129.2909    -216.1938    140656.35   -39532.543    2595.6125   -42128.155    423.51037    219.06269 
   98250    130.72496   -117.11321     140654.6    -39469.37    2624.4023   -42093.772    423.83032    221.49247 
   98300    133.20023   -138.39112    140816.29    -39407.69    2674.0953   -42081.786    424.59565    225.68643 
   98350    132.82168   -202.07352     140864.1   -39392.076    2666.4957   -42058.571    425.19943    225.04504 
   98400    132.79765   -3.3183197    140909.88   -39354.792    2666.0132   -42020.805    425.26484    225.00432 
   98450    132.29289   -245.45623    140965.63   -39397.495    2655.8798   -42053.374    425.08717    224.14909 
   98500    133.03685   -255.10228    141020.42   -39417.235    2670.8153   -42088.051    425.28044    225.40961 
   98550     132.1341     -284.494    141025.79   -39422.716    2652.6919   -42075.408    425.73514    223.88004 
   98600    128.33221   -247.85823    141051.61   -39457.536    2576.3662   -42033.903    426.25834    217.43836 
   98650     129.8026   -284.32957    140889.38   -39434.196    2605.8853   -42040.081    426.36205    219.92969 
   98700    133.19513    -232.3796    140863.71   -39371.563    2673.9929   -42045.556    426.71037    225.67778 
   98750    134.29151   -348.11963    140860.06   -39348.267    2696.0035    -42044.27     427.2365    227.53543 
   98800    135.74367   -174.17001    140868.12   -39374.545    2725.1568   -42099.702    427.32102    229.99588 
   98850    133.22979   -260.76901     140899.9   -39377.699    2674.6888   -42052.388    427.22207    225.73652 
   98900    134.46521   -3.8751441    140895.84   -39285.814    2699.4907   -41985.304    427.05924    227.82973 
   98950    131.90367   -54.104836    140913.26   -39335.964    2648.0658    -41984.03    427.18474    223.48961 
   99000    133.87945   -346.87562    140950.27   -39310.857    2687.7311   -41998.588    427.05356    226.83725 
   99050    133.45486   -18.571744     141015.2   -39325.718    2679.2072   -42004.925    427.18288    226.11786 
   99100     132.7842   -147.77036     140975.4   -39349.025    2665.7431   -42014.768    427.06817    224.98153 
   99150    131.02555   -82.391195    140977.43   -39352.121    2630.4369   -41982.558    426.80337    222.00178 
   99200    135.35245    -278.6058    140947.31   -39392.034    2717.3028   -42109.337    426.98783    229.33302 
   99250    133.74295   -356.30218    140973.42   -39384.895    2684.9909   -42069.886    427.09067    226.60599 
   99300     133.6464   -398.97584    140906.56   -39371.294    2683.0526   -42054.346    427.10072     226.4424 
   99350     132.5112   -371.28055    140836.25   -39350.063    2660.2626   -42010.325    427.76493    224.51898 
   99400    134.45531    -214.3214    140782.13   -39364.506    2699.2919   -42063.798    427.79534    227.81296 
   99450    132.34015   -334.08087    140792.07   -39382.912    2656.8285    -42039.74    427.68821    224.22915 
   99500    133.20474   -387.49606    140716.58   -39380.587    2674.1859   -42054.773     427.1542    225.69407 
   99550    133.60488    -293.9048    140640.71    -39367.82     2682.219   -42050.039     427.0022    226.37204 
   99600    132.87482   -192.99437    140606.27   -39364.938    2667.5624     -42032.5    427.22225    225.13507 
   99650    130.97129   -29.376607    140609.09   -39427.471    2629.3476   -42056.819    427.48252    221.90984 
   99700    132.02626    36.220584    140649.58   -39393.809    2650.5269   -42044.335    427.56968    223.69732 
   99750    132.40944   -156.44864    140684.03   -39381.095    2658.2196   -42039.315    428.00267    224.34657 
   99800    132.22614   -193.47951    140690.97   -39413.016    2654.5397   -42067.556    427.95287    224.03599 
   99850    133.72331   -111.07515    140666.07   -39335.472    2684.5964   -42020.069    428.26364     226.5727 
   99900    133.27475   -146.46982    140647.78   -39364.304    2675.5912   -42039.896    428.22389    225.81268 
   99950    131.54949   -141.25331    140681.35    -39466.91    2640.9554   -42107.865    428.51093    222.88951 
  100000    130.42272    -192.1931    140688.21   -39432.758    2618.3347   -42051.092    428.30643    220.98038 
Loop time of 220.162 on 60 procs for 100000 steps with 6736 atoms

Performance: 196.219 ns/day, 0.122 hours/ns, 454.210 timesteps/s
99.4% CPU use with 60 MPI tasks x no OpenMP threads

MPI task timing breakdown:
Section |  min time  |  avg time  |  max time  |%varavg| %total
---------------------------------------------------------------
Pair    | 37.952     | 98.195     | 162.46     | 493.6 | 44.60
Neigh   | 1.3416     | 2.7387     | 7.6602     | 132.4 |  1.24
Comm    | 37.089     | 85.731     | 117.54     | 299.8 | 38.94
Output  | 0.21852    | 0.22259    | 0.23762    |   0.5 |  0.10
Modify  | 10.21      | 31.825     | 61.894     | 423.9 | 14.46
Other   |            | 1.45       |            |       |  0.66

Nlocal:    112.267 ave 256 max 74 min
Histogram: 48 0 0 0 0 0 0 0 5 7
Nghost:    1034.22 ave 1346 max 710 min
Histogram: 24 0 0 0 0 0 0 20 4 12
Neighs:    0 ave 0 max 0 min
Histogram: 60 0 0 0 0 0 0 0 0 0
FullNghs:  13515.1 ave 46867 max 4716 min
Histogram: 48 0 0 0 0 0 0 0 3 9

Total # of neighbors = 810904
Ave neighs/atom = 120.384
Neighbor list builds = 6123
Dangerous builds = 0

write_data		${DIR}/data.eq-${NAME}-${TEMP}
write_data		run_3/data.eq-${NAME}-${TEMP}
write_data		run_3/data.eq-het_freeze_3-${TEMP}
write_data		run_3/data.eq-het_freeze_3-225
undump          1

reset_timestep  0

unfix           2
unfix           3
unfix           4


################################################
#######         Run Simulation         #########
################################################

log				${DIR}/log.run_${NAME}
log				run_3/log.run_${NAME}
log				run_3/log.run_het_freeze_3
