LAMMPS data file via write_data, version 16 Mar 2018, timestep = 8000000

4990 atoms
2 atom types

0.0000000000000000e+00 4.9219999999999999e+01 xlo xhi
0.0000000000000000e+00 4.9019635930410494e+01 ylo yhi
1.2343992104987649e+00 3.8765600789488246e+01 zlo zhi

Masses

1 18.015
2 12.01

Atoms # atomic

449 1 3.4641201309910641e+00 2.3570496175425824e+00 2.8126074745650804e+00 1 -1 1
2646 1 1.3026038796976325e+00 1.4714476475907272e+00 3.7270590124066514e+00 0 -1 1
4309 1 5.8530825094404353e+00 1.2261680081819815e+00 3.4986580732207542e+00 0 -2 0
12 1 8.2850385534251423e+00 1.9732874558484610e+00 2.9209081832899697e+00 3 0 1
3 1 5.1096908546337749e+00 1.1932377024874809e+01 3.8104489323332933e+00 3 0 0
4673 1 1.9941997996851111e+00 6.4327050753121400e+00 2.4835467601127101e+00 4 4 0
3825 1 3.7942264300803745e+00 4.9351380453163403e+00 3.5676166139767798e+00 3 -2 1
2580 1 6.2635688938420433e+00 5.4411932156986742e+00 2.5331472155269354e+00 1 -1 0
479 1 8.4920365191232960e+00 4.4411778606507815e+00 3.7318736450426644e+00 5 2 1
3701 1 1.0964913874555089e+01 5.0535474896949681e+00 2.6350321352326960e+00 -2 3 1
4563 1 2.3481138345819130e+00 8.7850048584259373e+00 3.7042210320609708e+00 2 2 0
14 1 6.7267280196572825e+00 7.9518514679522214e+00 3.8595874963372361e+00 -1 4 0
3486 1 4.7877563350226957e+00 9.6006938955260441e+00 2.7802398328496265e+00 4 2 1
1767 1 1.0683720972166299e+01 3.1494269698735722e+00 1.0249209859786948e+01 -2 -2 1
4380 1 1.0947211844065457e+01 7.3306389532314409e+00 3.8695149935447759e+00 2 0 1
392 1 1.0256871522673874e+01 6.5707986641104865e-01 6.3894050872390755e+00 -3 3 0
4280 1 8.9128850535605366e+00 9.3303754439355995e+00 3.0222766621892792e+00 -1 -3 1
2954 1 1.3083887028622501e+00 1.1152227792215628e+00 6.4566991770584234e+00 -2 -2 1
2686 1 1.6576003478959473e+00 3.7620895534521366e+00 7.1017858922121118e+00 -2 2 0
2175 1 1.4799103798425346e+00 4.1733460127031181e+00 9.9835726478032338e+00 -1 0 1
1304 1 5.6749339266484995e+00 9.6069713157955405e-01 6.1919583428535994e+00 1 -1 1
383 1 5.9625871303440352e+00 3.4924210462564496e+00 7.1903380555958591e+00 4 0 1
972 1 6.1701410221734774e+00 3.3570387953801721e+00 1.0029354274681818e+01 4 0 0
3476 1 1.1545279353494877e+01 1.0401269186025946e+01 1.0435388573302877e+01 2 3 1
1818 1 1.0592792132200330e+01 2.8858363763199071e+00 7.4604486848415537e+00 -1 5 1
3000 1 1.1527072243117436e+01 1.0366979941164546e+01 7.5849282269887857e+00 -2 -1 1
3485 1 4.0689527958583787e+00 4.9508063177038037e+00 6.2429899593939950e+00 3 -4 0
1295 1 4.3658786233282729e+00 7.3233188169980989e+00 7.5963231337318238e+00 -2 2 1
3806 1 4.3012522984110246e+00 7.5944392728358512e+00 1.0616303526044051e+01 2 1 0
1272 1 1.1140428889385319e+01 7.8032461764526841e+00 6.5349227238877408e+00 5 -1 0
4213 1 8.5507413341188929e+00 4.3130712892543794e+00 6.5051024956160068e+00 0 5 0
2218 1 8.7954469588357682e+00 6.7972811522425935e+00 1.0366081577254619e+01 3 0 1
46 1 8.9327902903959444e+00 6.6426999927591641e+00 7.6704258673495982e+00 0 -3 -1
98 1 1.9924859471113092e+00 8.4598324188641136e+00 6.4218956761352786e+00 4 0 1
3540 1 2.7855496791771333e+00 1.0903688461416321e+01 7.6498328521897943e+00 2 1 1
433 1 2.5364501804089139e+00 1.1560732045145460e+01 1.0245343074578605e+01 -2 1 0
3414 1 7.0945936757602306e+00 1.0957820549784325e+01 1.0341659261046495e+01 -2 0 1
4291 1 7.1848097360955325e+00 1.0917032678351507e+01 7.5123401837093944e+00 3 3 0
3738 1 6.9682260638071183e+00 8.3560301394072276e+00 6.9867083872978322e+00 2 -2 0
506 1 9.6454261280237237e+00 1.1742282708667062e+01 6.7305477272709995e+00 -4 -2 2
2638 1 9.0658257649622804e+00 1.1876799232529279e+01 3.8792217583566395e+00 -3 1 0
2999 1 3.3902508667541204e-01 1.0442024197551465e+01 2.7868239162681032e+00 2 -1 1
3711 1 4.9685199301061935e+00 1.2037291613451185e+01 6.5332283102675435e+00 -2 -2 0
2688 1 1.2735641592144804e+00 1.7956884804090527e+00 1.3817842118268734e+01 -1 3 0
4283 1 3.8290781734164021e+00 2.8590371532035479e+00 1.4327981461453943e+01 -2 -4 1
74 1 1.0672081665035748e+01 6.9090285616489899e-01 1.3825317693090126e+01 3 2 0
1829 1 6.0004455896629079e+00 1.1955994515053971e+00 1.3829115524888577e+01 -1 0 0
1765 1 8.4013902420881745e+00 1.9766268949531647e+00 1.4749315870155115e+01 1 1 0
2195 1 5.9037777394294286e+00 1.0369785231187143e+00 1.1116151549917708e+01 3 0 0
4200 1 1.2368256523119068e+00 1.6523922327623239e+00 1.1036328781064904e+01 1 3 0
285 2 9.8440000000000012e+00 8.5251540748539956e+00 1.6855631291542036e+01 0 0 0
2966 1 6.8622617754675215e+00 8.5352392760772027e+00 1.1257655909103743e+01 1 -2 0
3354 1 2.0559178978597181e+00 6.7989688505791506e+00 1.4429162975275071e+01 -3 -1 1
3858 1 4.0847925677621282e+00 5.1939764767549903e+00 1.3359858648927021e+01 3 2 1
2655 1 6.3946824250505143e+00 6.4336011140416609e+00 1.4132698799670795e+01 2 -6 0
2662 1 1.0575590797275515e+01 4.7754237622691986e-01 1.0973284506976162e+01 2 -2 0
947 1 2.8936599627495524e-01 1.0884908897198027e+01 1.4345286723205604e+01 1 -1 0
1876 1 8.4256244575783619e+00 4.7495112762265919e+00 1.4096475949925608e+01 -4 3 0
2675 1 1.0986739311318988e+01 5.9153565125429193e+00 1.4284484511135611e+01 2 0 1
922 1 9.4814145369993579e+00 1.2077271856710007e+01 1.1329041645445772e+01 2 0 0
1236 1 2.3769078505588390e+00 9.3592104993213692e+00 1.4210912330345161e+01 -1 2 1
283 2 8.6134999999999984e+00 1.0656442593567498e+01 1.6855631291542036e+01 0 0 0
1786 1 6.8944168496407618e+00 9.0729990134938294e+00 1.3988029620875224e+01 -4 -1 1
2075 1 4.9138493437209378e+00 1.0660572234688896e+01 1.4411880513875278e+01 2 -1 0
307 2 1.1074500000000002e+01 1.0656442593567498e+01 1.6855631291542036e+01 0 0 0
2589 1 1.1553185583133025e+01 8.7234732361288216e+00 1.4042421992584039e+01 -2 0 1
286 2 1.1074500000000002e+01 9.2355835810918343e+00 1.6855631291542036e+01 0 0 0
3844 1 9.4224300652617181e+00 1.0074029548231035e+01 1.3992788902954103e+01 0 1 0
193 2 0.0000000000000000e+00 2.8417180249513345e+00 1.6855631291542036e+01 0 0 0
194 2 0.0000000000000000e+00 0.0000000000000000e+00 1.6855631291542036e+01 0 0 0
195 2 1.2305000000000001e+00 7.1042950623783474e-01 1.6855631291542036e+01 0 0 0
199 2 1.2305000000000001e+00 2.1312885187134998e+00 1.6855631291542036e+01 0 0 0
200 2 2.4610000000000003e+00 2.8417180249513345e+00 1.6855631291542036e+01 0 0 0
201 2 2.4610000000000003e+00 0.0000000000000000e+00 1.6855631291542036e+01 0 0 0
202 2 3.6915000000000004e+00 7.1042950623783474e-01 1.6855631291542036e+01 0 0 0
210 2 3.6914999999999996e+00 2.1312885187134998e+00 1.6855631291542036e+01 0 0 0
211 2 4.9220000000000006e+00 2.8417180249513332e+00 1.6855631291542036e+01 0 0 0
212 2 4.9220000000000006e+00 0.0000000000000000e+00 1.6855631291542036e+01 0 0 0
213 2 6.1524999999999999e+00 7.1042950623783407e-01 1.6855631291542036e+01 0 0 0
225 2 6.1524999999999999e+00 2.1312885187134989e+00 1.6855631291542036e+01 0 0 0
226 2 7.3829999999999991e+00 2.8417180249513345e+00 1.6855631291542036e+01 0 0 0
227 2 7.3829999999999991e+00 0.0000000000000000e+00 1.6855631291542036e+01 0 0 0
228 2 8.6134999999999984e+00 7.1042950623783407e-01 1.6855631291542036e+01 0 0 0
244 2 8.6134999999999984e+00 2.1312885187135002e+00 1.6855631291542036e+01 0 0 0
245 2 9.8440000000000012e+00 2.8417180249513332e+00 1.6855631291542036e+01 0 0 0
246 2 9.8440000000000012e+00 0.0000000000000000e+00 1.6855631291542036e+01 0 0 0
247 2 1.1074500000000002e+01 7.1042950623783330e-01 1.6855631291542036e+01 0 0 0
267 2 1.1074500000000002e+01 2.1312885187135002e+00 1.6855631291542036e+01 0 0 0
197 2 0.0000000000000000e+00 4.2625770374269996e+00 1.6855631291542036e+01 0 0 0
198 2 1.2305000000000001e+00 4.9730065436648339e+00 1.6855631291542036e+01 0 0 0
206 2 1.2305000000000001e+00 6.3938655561404980e+00 1.6855631291542036e+01 0 0 0
208 2 2.4610000000000003e+00 4.2625770374269996e+00 1.6855631291542036e+01 0 0 0
209 2 3.6914999999999996e+00 4.9730065436648339e+00 1.6855631291542036e+01 0 0 0
221 2 3.6914999999999996e+00 6.3938655561404980e+00 1.6855631291542036e+01 0 0 0
196 2 0.0000000000000000e+00 7.1042950623783341e+00 1.6855631291542036e+01 0 0 0
207 2 2.4610000000000003e+00 7.1042950623783341e+00 1.6855631291542036e+01 0 0 0
223 2 4.9220000000000006e+00 4.2625770374269978e+00 1.6855631291542036e+01 0 0 0
224 2 6.1524999999999999e+00 4.9730065436648339e+00 1.6855631291542036e+01 0 0 0
240 2 6.1524999999999999e+00 6.3938655561404980e+00 1.6855631291542036e+01 0 0 0
242 2 7.3829999999999991e+00 4.2625770374269996e+00 1.6855631291542036e+01 0 0 0
222 2 4.9220000000000006e+00 7.1042950623783341e+00 1.6855631291542036e+01 0 0 0
241 2 7.3830000000000009e+00 7.1042950623783341e+00 1.6855631291542036e+01 0 0 0
243 2 8.6135000000000002e+00 4.9730065436648339e+00 1.6855631291542036e+01 0 0 0
263 2 8.6135000000000002e+00 6.3938655561404980e+00 1.6855631291542036e+01 0 0 0
265 2 9.8440000000000012e+00 4.2625770374270004e+00 1.6855631291542036e+01 0 0 0
266 2 1.1074500000000002e+01 4.9730065436648339e+00 1.6855631291542036e+01 0 0 0
287 2 1.1074500000000002e+01 6.3938655561404980e+00 1.6855631291542036e+01 0 0 0
264 2 9.8440000000000012e+00 7.1042950623783341e+00 1.6855631291542036e+01 0 0 0
204 2 0.0000000000000000e+00 8.5251540748539991e+00 1.6855631291542036e+01 0 0 0
205 2 1.2305000000000001e+00 9.2355835810918343e+00 1.6855631291542036e+01 0 0 0
219 2 2.4610000000000003e+00 8.5251540748539991e+00 1.6855631291542036e+01 0 0 0
220 2 3.6915000000000004e+00 9.2355835810918343e+00 1.6855631291542036e+01 0 0 0
203 2 0.0000000000000000e+00 1.1366872099805333e+01 1.6855631291542036e+01 0 0 0
217 2 1.2305000000000001e+00 1.0656442593567498e+01 1.6855631291542036e+01 0 0 0
218 2 2.4610000000000003e+00 1.1366872099805333e+01 1.6855631291542036e+01 0 0 0
236 2 3.6914999999999996e+00 1.0656442593567499e+01 1.6855631291542036e+01 0 0 0
259 2 6.1524999999999999e+00 1.0656442593567499e+01 1.6855631291542036e+01 0 0 0
237 2 4.9220000000000006e+00 1.1366872099805333e+01 1.6855631291542036e+01 0 0 0
260 2 7.3829999999999991e+00 1.1366872099805333e+01 1.6855631291542036e+01 0 0 0
238 2 4.9220000000000006e+00 8.5251540748539991e+00 1.6855631291542036e+01 0 0 0
261 2 7.3830000000000009e+00 8.5251540748539991e+00 1.6855631291542036e+01 0 0 0
239 2 6.1524999999999999e+00 9.2355835810918343e+00 1.6855631291542036e+01 0 0 0
284 2 9.8440000000000012e+00 1.1366872099805333e+01 1.6855631291542036e+01 0 0 0
308 2 1.2304999999999998e+01 1.1366872099805333e+01 1.6855631291542036e+01 0 0 0
262 2 8.6134999999999984e+00 9.2355835810918343e+00 1.6855631291542036e+01 0 0 0
2641 1 8.4111290035471260e+00 4.4317663811792327e+00 1.1265222587803169e+01 1 3 0
3799 1 3.8960036697578109e+00 4.9178932168092473e+00 1.0642924416996578e+01 0 -4 0
4378 1 1.1306726478053434e+01 7.7441980684981298e+00 1.1284656558577561e+01 -4 -5 -1
2543 1 2.2220055271807873e+00 8.9526145291452632e+00 1.1405416001430924e+01 2 1 0
24 1 5.0886026233962403e+00 1.2220768425646709e+01 1.1329313779800220e+01 5 0 -1
549 2 0.0000000000000000e+00 1.4208590124756650e+00 2.0029333563025137e+01 0 0 0
550 2 0.0000000000000000e+00 0.0000000000000000e+00 2.0029333563025137e+01 0 0 0
554 2 1.2305000000000001e+00 2.1312885187134998e+00 2.0029333563025137e+01 0 0 0
555 2 2.4610000000000003e+00 1.4208590124756650e+00 2.0029333563025137e+01 0 0 0
556 2 2.4610000000000003e+00 0.0000000000000000e+00 2.0029333563025137e+01 0 0 0
564 2 3.6914999999999996e+00 2.1312885187134998e+00 2.0029333563025137e+01 0 0 0
710 2 0.0000000000000000e+00 2.8417180249513345e+00 2.3203035834515152e+01 0 0 0
711 2 0.0000000000000000e+00 0.0000000000000000e+00 2.3203035834515152e+01 0 0 0
712 2 1.2305000000000001e+00 7.1042950623783474e-01 2.3203035834515152e+01 0 0 0
716 2 1.2305000000000001e+00 2.1312885187134998e+00 2.3203035834515152e+01 0 0 0
717 2 2.4610000000000003e+00 2.8417180249513345e+00 2.3203035834515152e+01 0 0 0
718 2 2.4610000000000003e+00 0.0000000000000000e+00 2.3203035834515152e+01 0 0 0
719 2 3.6915000000000004e+00 7.1042950623783474e-01 2.3203035834515152e+01 0 0 0
727 2 3.6914999999999996e+00 2.1312885187134998e+00 2.3203035834515152e+01 0 0 0
553 2 1.2305000000000001e+00 3.5521475311891644e+00 2.0029333563025137e+01 0 0 0
563 2 3.6914999999999996e+00 3.5521475311891644e+00 2.0029333563025137e+01 0 0 0
565 2 4.9220000000000006e+00 1.4208590124756650e+00 2.0029333563025137e+01 0 0 0
566 2 4.9220000000000006e+00 0.0000000000000000e+00 2.0029333563025137e+01 0 0 0
578 2 6.1524999999999999e+00 2.1312885187134989e+00 2.0029333563025137e+01 0 0 0
579 2 7.3829999999999991e+00 1.4208590124756659e+00 2.0029333563025137e+01 0 0 0
580 2 7.3829999999999991e+00 0.0000000000000000e+00 2.0029333563025137e+01 0 0 0
728 2 4.9220000000000006e+00 2.8417180249513332e+00 2.3203035834515152e+01 0 0 0
729 2 4.9220000000000006e+00 0.0000000000000000e+00 2.3203035834515152e+01 0 0 0
730 2 6.1524999999999999e+00 7.1042950623783407e-01 2.3203035834515152e+01 0 0 0
742 2 6.1524999999999999e+00 2.1312885187134989e+00 2.3203035834515152e+01 0 0 0
743 2 7.3829999999999991e+00 2.8417180249513345e+00 2.3203035834515152e+01 0 0 0
744 2 7.3829999999999991e+00 0.0000000000000000e+00 2.3203035834515152e+01 0 0 0
577 2 6.1524999999999999e+00 3.5521475311891644e+00 2.0029333563025137e+01 0 0 0
596 2 8.6134999999999984e+00 2.1312885187135002e+00 2.0029333563025137e+01 0 0 0
597 2 9.8440000000000012e+00 1.4208590124756659e+00 2.0029333563025137e+01 0 0 0
598 2 9.8440000000000012e+00 0.0000000000000000e+00 2.0029333563025137e+01 0 0 0
618 2 1.1074500000000002e+01 2.1312885187135002e+00 2.0029333563025137e+01 0 0 0
745 2 8.6134999999999984e+00 7.1042950623783407e-01 2.3203035834515152e+01 0 0 0
761 2 8.6134999999999984e+00 2.1312885187135002e+00 2.3203035834515152e+01 0 0 0
762 2 9.8440000000000012e+00 2.8417180249513332e+00 2.3203035834515152e+01 0 0 0
763 2 9.8440000000000012e+00 0.0000000000000000e+00 2.3203035834515152e+01 0 0 0
764 2 1.1074500000000002e+01 7.1042950623783330e-01 2.3203035834515152e+01 0 0 0
784 2 1.1074500000000002e+01 2.1312885187135002e+00 2.3203035834515152e+01 0 0 0
595 2 8.6134999999999984e+00 3.5521475311891657e+00 2.0029333563025137e+01 0 0 0
617 2 1.1074500000000002e+01 3.5521475311891644e+00 2.0029333563025137e+01 0 0 0
551 2 0.0000000000000000e+00 5.6834360499026637e+00 2.0029333563025137e+01 0 0 0
552 2 0.0000000000000000e+00 4.2625770374269996e+00 2.0029333563025137e+01 0 0 0
560 2 1.2305000000000001e+00 6.3938655561404980e+00 2.0029333563025137e+01 0 0 0
561 2 2.4610000000000003e+00 5.6834360499026637e+00 2.0029333563025137e+01 0 0 0
562 2 2.4610000000000003e+00 4.2625770374269996e+00 2.0029333563025137e+01 0 0 0
574 2 3.6914999999999996e+00 6.3938655561404980e+00 2.0029333563025137e+01 0 0 0
714 2 0.0000000000000000e+00 4.2625770374269996e+00 2.3203035834515152e+01 0 0 0
715 2 1.2305000000000001e+00 4.9730065436648339e+00 2.3203035834515152e+01 0 0 0
723 2 1.2305000000000001e+00 6.3938655561404980e+00 2.3203035834515152e+01 0 0 0
725 2 2.4610000000000003e+00 4.2625770374269996e+00 2.3203035834515152e+01 0 0 0
726 2 3.6914999999999996e+00 4.9730065436648339e+00 2.3203035834515152e+01 0 0 0
738 2 3.6914999999999996e+00 6.3938655561404980e+00 2.3203035834515152e+01 0 0 0
559 2 1.2305000000000001e+00 7.8147245686161639e+00 2.0029333563025137e+01 0 0 0
573 2 3.6914999999999996e+00 7.8147245686161639e+00 2.0029333563025137e+01 0 0 0
713 2 0.0000000000000000e+00 7.1042950623783341e+00 2.3203035834515152e+01 0 0 0
724 2 2.4610000000000003e+00 7.1042950623783341e+00 2.3203035834515152e+01 0 0 0
575 2 4.9220000000000006e+00 5.6834360499026637e+00 2.0029333563025137e+01 0 0 0
576 2 4.9220000000000006e+00 4.2625770374269978e+00 2.0029333563025137e+01 0 0 0
592 2 6.1524999999999999e+00 6.3938655561404980e+00 2.0029333563025137e+01 0 0 0
593 2 7.3829999999999991e+00 5.6834360499026637e+00 2.0029333563025137e+01 0 0 0
594 2 7.3829999999999991e+00 4.2625770374269996e+00 2.0029333563025137e+01 0 0 0
740 2 4.9220000000000006e+00 4.2625770374269978e+00 2.3203035834515152e+01 0 0 0
741 2 6.1524999999999999e+00 4.9730065436648339e+00 2.3203035834515152e+01 0 0 0
757 2 6.1524999999999999e+00 6.3938655561404980e+00 2.3203035834515152e+01 0 0 0
759 2 7.3829999999999991e+00 4.2625770374269996e+00 2.3203035834515152e+01 0 0 0
591 2 6.1524999999999999e+00 7.8147245686161639e+00 2.0029333563025137e+01 0 0 0
739 2 4.9220000000000006e+00 7.1042950623783341e+00 2.3203035834515152e+01 0 0 0
758 2 7.3830000000000009e+00 7.1042950623783341e+00 2.3203035834515152e+01 0 0 0
614 2 8.6135000000000002e+00 6.3938655561404980e+00 2.0029333563025137e+01 0 0 0
615 2 9.8440000000000012e+00 5.6834360499026637e+00 2.0029333563025137e+01 0 0 0
616 2 9.8440000000000012e+00 4.2625770374270004e+00 2.0029333563025137e+01 0 0 0
637 2 1.1074500000000002e+01 6.3938655561404980e+00 2.0029333563025137e+01 0 0 0
760 2 8.6135000000000002e+00 4.9730065436648339e+00 2.3203035834515152e+01 0 0 0
780 2 8.6135000000000002e+00 6.3938655561404980e+00 2.3203035834515152e+01 0 0 0
782 2 9.8440000000000012e+00 4.2625770374270004e+00 2.3203035834515152e+01 0 0 0
783 2 1.1074500000000002e+01 4.9730065436648339e+00 2.3203035834515152e+01 0 0 0
804 2 1.1074500000000002e+01 6.3938655561404980e+00 2.3203035834515152e+01 0 0 0
613 2 8.6135000000000002e+00 7.8147245686161639e+00 2.0029333563025137e+01 0 0 0
636 2 1.1074500000000002e+01 7.8147245686161639e+00 2.0029333563025137e+01 0 0 0
781 2 9.8440000000000012e+00 7.1042950623783341e+00 2.3203035834515152e+01 0 0 0
557 2 0.0000000000000000e+00 9.9460130873296642e+00 2.0029333563025137e+01 0 0 0
558 2 0.0000000000000000e+00 8.5251540748539991e+00 2.0029333563025137e+01 0 0 0
571 2 2.4610000000000003e+00 9.9460130873296642e+00 2.0029333563025137e+01 0 0 0
572 2 2.4610000000000003e+00 8.5251540748539991e+00 2.0029333563025137e+01 0 0 0
721 2 0.0000000000000000e+00 8.5251540748539991e+00 2.3203035834515152e+01 0 0 0
722 2 1.2305000000000001e+00 9.2355835810918343e+00 2.3203035834515152e+01 0 0 0
736 2 2.4610000000000003e+00 8.5251540748539991e+00 2.3203035834515152e+01 0 0 0
737 2 3.6915000000000004e+00 9.2355835810918343e+00 2.3203035834515152e+01 0 0 0
569 2 1.2305000000000001e+00 1.2077301606043163e+01 2.0029333563025137e+01 0 0 0
570 2 1.2305000000000001e+00 1.0656442593567498e+01 2.0029333563025137e+01 0 0 0
587 2 3.6914999999999996e+00 1.2077301606043163e+01 2.0029333563025137e+01 0 0 0
588 2 3.6914999999999996e+00 1.0656442593567499e+01 2.0029333563025137e+01 0 0 0
720 2 0.0000000000000000e+00 1.1366872099805333e+01 2.3203035834515152e+01 0 0 0
734 2 1.2305000000000001e+00 1.0656442593567498e+01 2.3203035834515152e+01 0 0 0
735 2 2.4610000000000003e+00 1.1366872099805333e+01 2.3203035834515152e+01 0 0 0
753 2 3.6914999999999996e+00 1.0656442593567499e+01 2.3203035834515152e+01 0 0 0
589 2 4.9220000000000006e+00 9.9460130873296642e+00 2.0029333563025137e+01 0 0 0
590 2 4.9220000000000006e+00 8.5251540748539991e+00 2.0029333563025137e+01 0 0 0
611 2 7.3830000000000009e+00 9.9460130873296642e+00 2.0029333563025137e+01 0 0 0
612 2 7.3830000000000009e+00 8.5251540748539991e+00 2.0029333563025137e+01 0 0 0
755 2 4.9220000000000006e+00 8.5251540748539991e+00 2.3203035834515152e+01 0 0 0
756 2 6.1524999999999999e+00 9.2355835810918343e+00 2.3203035834515152e+01 0 0 0
778 2 7.3830000000000009e+00 8.5251540748539991e+00 2.3203035834515152e+01 0 0 0
609 2 6.1524999999999999e+00 1.2077301606043163e+01 2.0029333563025137e+01 0 0 0
610 2 6.1524999999999999e+00 1.0656442593567499e+01 2.0029333563025137e+01 0 0 0
754 2 4.9220000000000006e+00 1.1366872099805333e+01 2.3203035834515152e+01 0 0 0
776 2 6.1524999999999999e+00 1.0656442593567499e+01 2.3203035834515152e+01 0 0 0
777 2 7.3829999999999991e+00 1.1366872099805333e+01 2.3203035834515152e+01 0 0 0
634 2 9.8440000000000012e+00 9.9460130873296642e+00 2.0029333563025137e+01 0 0 0
635 2 9.8440000000000012e+00 8.5251540748539956e+00 2.0029333563025137e+01 0 0 0
779 2 8.6134999999999984e+00 9.2355835810918343e+00 2.3203035834515152e+01 0 0 0
802 2 9.8440000000000012e+00 8.5251540748539956e+00 2.3203035834515152e+01 0 0 0
803 2 1.1074500000000002e+01 9.2355835810918343e+00 2.3203035834515152e+01 0 0 0
632 2 8.6135000000000002e+00 1.2077301606043163e+01 2.0029333563025137e+01 0 0 0
633 2 8.6134999999999984e+00 1.0656442593567498e+01 2.0029333563025137e+01 0 0 0
655 2 1.1074500000000002e+01 1.2077301606043163e+01 2.0029333563025137e+01 0 0 0
656 2 1.1074500000000002e+01 1.0656442593567498e+01 2.0029333563025137e+01 0 0 0
800 2 8.6134999999999984e+00 1.0656442593567498e+01 2.3203035834515152e+01 0 0 0
801 2 9.8440000000000012e+00 1.1366872099805333e+01 2.3203035834515152e+01 0 0 0
824 2 1.1074500000000002e+01 1.0656442593567498e+01 2.3203035834515152e+01 0 0 0
825 2 1.2304999999999998e+01 1.1366872099805333e+01 2.3203035834515152e+01 0 0 0
2664 1 2.2133650939684837e+00 2.0299411284847027e-01 2.5791595473619456e+01 5 1 0
2946 1 1.5370840203197227e+00 1.2892904796629250e+00 2.8663786118046595e+01 5 -1 0
445 1 4.9248243536779777e+00 1.3702855932292035e+00 2.5924116524681761e+01 -2 2 0
2986 1 5.2206631790462499e+00 1.0115500511038071e+00 2.8717466509984774e+01 1 1 0
1017 1 9.7088502123446947e+00 3.4391954191278398e+00 2.5453712532029424e+01 1 2 0
4347 1 9.7934041852854747e+00 5.5325904574519835e-01 2.5669095835134826e+01 0 2 -1
2712 1 9.6526525723694174e+00 1.1229312521185467e+01 2.6462084833846852e+01 -3 0 -1
4300 1 2.5334661164034515e+00 6.2748686734214711e+00 2.5617280684239581e+01 -4 1 -1
4565 1 4.1518021237042593e+00 4.9835664011884200e+00 2.8398495997914647e+01 2 2 0
1824 1 7.5674455433001047e+00 7.9577482479247807e+00 2.6142817270101283e+01 2 -3 -1
2880 1 4.9739338954544579e+00 4.3815273941029673e+00 2.5680873963777337e+01 2 -2 -1
2960 1 7.4731760676806962e+00 5.0969521164429032e+00 2.6241172827161574e+01 1 0 0
3530 1 8.0508474601250395e+00 4.7071866407204572e+00 2.8749671534646431e+01 2 1 -1
3785 1 9.5860158382234388e+00 1.1607729993614910e+01 2.8992783432754795e+01 -1 -2 0
4561 1 6.7847046595570335e+00 8.5802122062829262e+00 2.8798417292599275e+01 -5 -1 -1
4307 1 1.0234585307515209e+01 8.6213706264401129e+00 2.5739818243743461e+01 -2 -1 -1
110 1 2.9365075767484736e+00 8.9307020419753194e+00 2.6315437909057458e+01 2 -1 0
2184 1 1.1092526880717257e+01 7.6902246938068233e+00 2.8588276483419698e+01 -1 4 -1
508 1 2.6112313032240588e+00 8.7889532530496783e+00 2.9160559483048690e+01 1 1 0
83 1 5.4776670566709011e+00 9.5608320243592253e+00 2.5614426280432067e+01 -2 3 -1
2596 1 9.6067803868332624e-01 1.0806445346940698e+01 2.5814997718775643e+01 3 3 -1
4295 1 1.1028080998767698e-02 5.3733733402500476e+00 2.5964451247788954e+01 -2 -1 -1
514 1 5.3287095265669286e+00 1.1994286311700014e+01 2.6902115674196725e+01 -2 0 0
4369 1 9.8109640834232952e+00 6.1117809496568765e-01 2.8542902145022293e+01 5 -5 -1
2134 1 2.2739606344927665e-01 2.3989633747913475e+00 2.5703158149009656e+01 -1 2 -1
1328 1 1.2212459261549110e+01 1.3648713928150908e+00 2.9373151022617321e+01 5 1 0
3456 1 3.4112081478800484e+00 2.6022933556903447e+00 3.2667828197130682e+01 6 -1 0
1264 1 1.1628178595755523e+00 3.8672547099064838e+00 3.3563387758763604e+01 -1 6 -1
417 1 2.8759879170348790e+00 1.1201707999552177e+01 3.6705518699303127e+01 1 -2 -1
375 1 5.9442793102351352e+00 3.3907746840018325e+00 3.3881068079578341e+01 2 -3 0
2640 1 7.9519765738722930e+00 1.6439976360612545e+00 3.2712953834120540e+01 2 -4 0
3062 1 1.0574051709641582e+01 5.3954070036132098e+00 2.9826126967073545e+01 2 -4 -1
510 1 1.0133359291395493e+01 2.7870110883661297e+00 3.3554653856228121e+01 5 -2 0
136 1 9.0307156521819039e+00 9.1273031384762842e+00 3.7644903795857907e+01 -1 -1 -1
1245 1 1.7825412908429334e+00 6.5113389546273019e+00 3.2582639687149538e+01 1 -3 0
1220 1 2.6029735789836533e-01 1.0346564843016422e+01 3.2994564459046273e+01 -3 -1 -1
4596 1 4.1866920467605544e+00 7.3455494833665878e+00 3.3583665327959267e+01 3 1 0
4637 1 7.9249131451910824e+00 2.0766706298309257e+00 2.9625998301327222e+01 -3 -1 -1
4568 1 6.1280106252286508e+00 5.8066402272483053e+00 3.2726543681461308e+01 1 2 0
1388 1 1.0508010786803109e+01 5.4154764538513458e+00 3.2506013447664138e+01 0 -1 0
976 1 8.4357132480709698e+00 6.8957711056284428e+00 3.3968125992829954e+01 1 0 0
2658 1 6.1245998126340160e+00 6.2258548417971120e+00 2.9924097745056653e+01 -2 1 -1
2890 1 4.8054610430013112e+00 9.7355268220100335e+00 3.0223193974821136e+01 -2 0 0
1214 1 5.1912124172994982e+00 1.2088458647745682e+01 2.9478967428831140e+01 3 -1 0
3397 1 4.7913467710172482e+00 9.5613639939744939e+00 3.7509163614080698e+01 1 1 0
4354 1 4.7165150256842141e+00 1.0094673043685956e+01 3.2881966750136236e+01 -1 1 -1
4555 1 7.1440433032779804e+00 1.0535886608621395e+01 3.6255273156985695e+01 2 -3 0
938 1 7.0712184920047205e+00 1.0596855564142006e+01 3.3707810048521793e+01 -3 -2 0
159 1 9.2316983937405297e+00 9.0510849573219030e+00 2.9820984922305595e+01 1 -3 -1
2611 1 1.1260544582945421e+01 1.0309258430339353e+01 3.3968357526478250e+01 3 2 -1
3513 1 9.2007157651700240e+00 9.0469200977823281e+00 3.2638076726743137e+01 0 1 -2
1776 1 3.3803701371297605e+00 2.4087010183733915e+00 3.7454763898730405e+01 1 3 0
3863 1 5.9259586165946088e+00 2.7608857273387888e+00 3.6475032021715904e+01 1 -3 -1
3407 1 8.3979740494550157e+00 2.0795925429678408e+00 3.7771037667460774e+01 -2 3 -1
1831 1 1.0545731839096808e+01 2.9285617198840046e+00 3.6426176008087360e+01 0 -2 -1
1199 1 1.3608152995677174e+00 3.9152442740289941e+00 3.6358580535505595e+01 -3 1 0
167 1 1.9355222013891040e+00 6.4404540573473943e+00 3.7216340861548915e+01 1 3 -1
3703 1 4.1977397276090533e+00 7.3299163913122740e+00 3.6205130856032504e+01 0 -2 0
1356 1 6.0471602834249465e+00 5.4771084294956109e+00 3.7430867879941502e+01 3 6 -1
1007 1 8.7536957648314981e+00 6.4422667437304701e+00 3.6769752540813919e+01 -3 -2 -1
1363 1 1.0890156427308391e+01 5.2024752791824449e+00 3.7458631750145706e+01 2 2 0
939 1 1.1443848336222263e+01 1.0048248316030948e+01 3.6609489483767867e+01 4 2 0
3728 1 2.6170278671266454e+00 1.1357333999663551e+01 3.3945365947280592e+01 4 1 0
4672 1 1.9025018234295323e+00 6.3014158953839825e+00 2.9766819380411526e+01 1 1 0
3025 1 4.1463626165351392e-01 1.0185835327966979e+01 3.7700943983940654e+01 1 2 -1
1227 1 5.5489094140707473e-01 1.0516688139134153e+01 3.0069509426942965e+01 0 3 0
2676 1 2.9388521202806408e+00 5.6931911234369401e-02 3.3316607085646382e+01 3 4 -1
4621 1 3.5169409561698433e+00 2.8172913256812229e+00 2.9959025640460514e+01 -1 3 -1
3520 1 3.2506568243607075e+00 1.3699513610142262e+01 2.5293937110882556e+00 0 4 1
3367 1 8.4299856492024217e-01 1.3105642918388115e+01 3.7544541258745832e+00 1 1 1
978 1 7.1812571739029014e+00 1.3112430958826550e+01 2.6317379835928740e+00 -6 -1 -1
465 1 7.7101135220824020e+00 1.5714509062910626e+01 3.4087614983833796e+00 5 4 1
1348 1 1.0152081936863295e+01 1.6675058806964152e+01 2.5995191161281381e+00 -1 1 1
2137 1 8.7861255744724929e+00 2.3210466422333905e+01 6.2713990317295032e+00 3 -5 0
16 1 3.2516844724661702e+00 1.6254958521424829e+01 3.4800559838824832e+00 -1 0 1
3420 1 1.1821068287782555e+00 1.7915614989063144e+01 2.8034829107363617e+00 2 2 0
2650 1 1.6957189457360753e+00 2.0539677603002332e+01 3.4159763059132682e+00 1 -1 1
3696 1 5.7239022563171567e+00 1.7436023074349283e+01 2.7706490622561315e+00 -1 -1 0
2114 1 5.9038600516607271e+00 2.0023739783024439e+01 3.7645308135333124e+00 -5 0 0
1783 1 1.0468758271308737e+01 1.9141292618927658e+01 3.7628205224966620e+00 -2 -2 0
4312 1 8.4314895700190640e+00 2.0435056991417920e+01 2.6568069548266360e+00 1 0 1
160 1 1.2195593136234541e+01 1.7431080443424836e+01 7.3442800689460430e+00 1 2 1
2889 1 4.0792651229011518e+00 2.1291564877965314e+01 2.4541401132164129e+00 1 0 0
2080 1 4.2806737783249638e+00 2.3862737699047816e+01 3.5091296059445813e+00 -1 -2 0
1238 1 1.2056740992002716e+01 1.5270169135037314e+01 3.5927253190728066e+00 -1 4 1
132 1 8.9617398109046977e+00 2.3155883739593481e+01 3.5278448822952453e+00 3 -3 0
3734 1 1.1411051851620169e+01 2.4186096781535756e+01 2.5816028266723077e+00 1 1 1
2045 1 1.0196674788062694e+00 1.2755906651231458e+01 6.6892450180694896e+00 5 2 1
462 1 8.1911572541065547e-01 1.5476272550739100e+01 7.4839701666668503e+00 -3 -3 1
4627 1 1.6223894210488043e+00 2.2530632020814924e+01 1.0064942003910922e+01 -4 1 0
1373 1 5.4481732954796769e+00 1.4709613058717684e+01 1.0186005204779679e+01 0 0 1
31 1 5.3981179564576536e+00 1.4879501551499050e+01 7.3260818680218502e+00 6 -3 1
4683 1 7.6795804702489576e+00 1.5759511561765359e+01 6.2740213102531754e+00 4 3 0
1753 1 1.0546322405855612e+01 2.1449358729685596e+01 7.1302002425008260e+00 -4 0 0
3723 1 9.8036244028397412e+00 1.4416857533053337e+01 7.5900719735660136e+00 -2 2 0
1040 1 9.9747597905987355e+00 1.4581867694886972e+01 1.0300734998148654e+01 -1 -1 -1
152 1 3.3681537264681536e+00 1.6000198268478183e+01 6.2634775836156482e+00 -2 -2 1
1789 1 3.4375450298272527e+00 1.8649243239380930e+01 7.2477626396752228e+00 -1 4 0
3444 1 3.1121918295547246e+00 1.8225897180136499e+01 1.0042397907995094e+01 -2 1 0
4197 1 5.9267219266525411e+00 1.9668563958080245e+01 6.4038324433795646e+00 -2 1 1
908 1 8.0440883521965194e+00 1.8123179783141108e+01 7.1649117332402819e+00 -2 -2 1
3031 1 1.0909132292379450e+01 2.1628893501638007e+01 9.9806963907552664e+00 -5 0 1
1384 1 1.0247890498358952e+01 1.9023716023835018e+01 6.4551001033348898e+00 1 -3 1
54 1 1.2889247103647994e+00 2.0461026759077182e+01 6.5547501370847669e+00 3 1 0
4234 1 1.8578218601271845e+00 2.2832271207524339e+01 7.3935617423815190e+00 -2 -1 0
94 1 1.1585853644714218e+01 1.2751337544136517e+01 2.8111474569256645e+00 1 3 0
1346 1 7.9657706116293223e+00 1.8313094021309663e+01 9.9127415225394326e+00 3 -2 1
2711 1 4.0419236013859514e+00 2.3893375956047976e+01 6.1966004972736277e+00 2 1 0
2087 1 6.3018837990878511e+00 2.2382895925351001e+01 7.2797527692091197e+00 -2 0 1
960 1 7.1090180322743390e-01 1.4855893876857875e+01 1.0239689950110039e+01 -1 7 1
4374 1 1.1972819853665992e+01 1.5085352946825999e+01 6.3779014786073107e+00 -2 -2 0