LAMMPS data file via write_data, version 16 Mar 2018, timestep = 100000

4990 atoms
2 atom types

0.0000000000000000e+00 4.9219999999999999e+01 xlo xhi
0.0000000000000000e+00 4.9019635930410494e+01 ylo yhi
2.1567900076759301e+00 3.7843209992324887e+01 zlo zhi

Masses

1 18.015
2 12.01

Atoms # atomic

2646 1 2.0688806468239731e+00 4.9099094785866013e+00 4.3489908342859378e+00 1 0 1
2229 1 8.7547316032473219e+00 5.1816015457055755e+00 6.4704863147800147e+00 -1 0 0
1228 1 4.0722309841490647e+00 3.0421012708438999e+00 4.6277979974910535e+00 2 0 1
1852 1 1.0773208318745757e+01 6.5519938602277952e+00 2.8307885085478910e+00 1 0 0
1837 1 4.0100498130475302e+00 1.1748154382268847e+01 8.5711346863656281e+00 0 0 0
1790 1 8.5916773525256342e+00 1.2336126493095643e+00 4.9539910904240863e+00 0 2 0
395 1 1.1546854439150223e+01 1.1637755405372888e+01 8.6662620435735178e+00 0 2 1
3418 1 1.0014933447625232e+01 2.1636191741136881e+00 2.2898514974515352e+00 1 0 0
1233 1 8.8237756477531426e-01 5.6256372746530277e+00 6.6197980360253830e+00 0 -1 1
2552 1 1.2159271723621055e+01 4.2814753503496616e+00 8.7315315073793194e+00 0 1 1
2708 1 3.6725668236182583e+00 7.1969699033115528e+00 4.5556052741295163e+00 0 0 -1
1009 1 5.2332619338736883e+00 5.2638041590610722e+00 7.5516515039883680e+00 1 0 0
1348 1 1.1016581944223971e+01 6.5674344325899794e+00 5.4683628278519665e+00 0 0 1
3884 1 7.6967250116485939e+00 3.9515272136471320e+00 2.5589478103565830e+00 1 0 0
352 1 1.2001751338083890e+00 1.2122606550871581e+01 3.7065709006724283e+00 1 0 1
921 1 8.4339620890760507e+00 8.7495883224220705e+00 9.7728574483866986e+00 1 1 1
1886 1 2.3920592453082130e+00 1.0166165128460191e+01 6.9098070289779807e+00 2 2 0
1020 1 6.4796247023192706e+00 7.7154011664353224e+00 4.7926208136983508e+00 0 1 0
3351 1 8.5804091485214968e+00 1.1470587206929260e+01 3.1694311863206348e+00 1 0 1
993 1 3.0719302426315735e+00 1.0162613656879822e+01 4.2168511684342622e+00 1 0 1
2948 1 1.3026416181938266e-01 1.1585843204378516e+01 8.6473368137278328e+00 0 1 1
93 1 1.0470187797706966e+01 9.7258402783029219e+00 4.8572667908293230e+00 0 0 0
992 1 3.7511793487479603e+00 6.3501469079523021e-01 9.7461044152926171e+00 0 2 1
4558 1 6.9366537129606689e+00 3.5224452764277707e+00 5.2682626401493708e+00 1 1 0
1001 1 1.2235237649347114e+01 2.4455734995218714e+00 4.5721549136970312e+00 0 1 0
3069 1 6.0180557927527341e+00 1.0623784001310398e+01 4.3399660052046354e+00 0 -1 1
2608 1 3.7393636767253255e+00 2.3511668308091780e+00 7.6690007347064446e+00 0 0 0
4330 1 6.8079797745417663e+00 1.6463043334946099e+00 7.8855208896980553e+00 2 1 1
3459 1 2.8164961119341365e+00 7.5335985935275271e+00 1.0214172780012724e+01 0 0 0
1819 1 3.1815157387889785e+00 7.2332741741019539e+00 7.5893505571364779e+00 1 0 0
3032 1 8.9695078602990144e+00 1.1333684391964265e+01 7.2216856856041263e+00 2 1 1
4328 1 5.0461009763811315e+00 4.6103955118218494e+00 9.9583278899294356e+00 0 1 1
923 1 9.6419510030161852e+00 2.8920977720303780e+00 7.6990519482610829e+00 0 0 1
33 1 7.1539142223706440e+00 7.1561927039842290e+00 7.4584951228973253e+00 0 0 1
500 1 1.0249867316551663e+01 6.6565438131042232e+00 9.1056459424631040e+00 2 1 1
163 1 1.1531448563588829e+00 3.5251273455080354e+00 8.1001607412559018e+00 1 0 0
1050 1 6.3802369540106927e+00 1.0150619167911580e+01 7.6081268465357015e+00 2 1 0
377 1 7.4049079876908328e+00 5.0553984448973721e-01 2.3235553575022490e+00 0 0 1
3770 1 8.4892488312936709e-01 2.0847524999896323e+00 5.2675270019485012e+00 -1 -1 0
2133 1 1.2024358922575439e+01 8.5182185853650285e+00 7.3603909487583534e+00 1 0 1
3728 1 4.0052987778194984e+00 1.5935135065803205e-01 5.1360305116790244e+00 -1 0 1
3745 1 7.1252549274284052e+00 2.7629186899257632e+00 1.0917315308491876e+01 1 0 1
2980 1 5.9077204606068756e-01 3.5615913990816104e+00 1.0987155118161141e+01 0 1 1
3017 1 7.7781142488742603e+00 6.7974651244090811e+00 2.5865872562333010e+00 0 2 1
4299 1 5.9527115945393387e-02 8.5014976053976046e+00 6.7632287426774820e+00 0 1 0
994 1 1.1848370951425460e+01 8.7772029889301546e+00 2.2568812196150123e+00 1 1 0
2144 1 7.3585206019575455e-01 2.8225206735860691e+00 1.4462937056317600e+01 1 0 0
2179 1 6.0448880134504064e+00 2.7894156114668539e-01 1.1379651295303614e+01 0 0 1
286 2 1.1074500000000002e+01 9.2355835810918343e+00 1.7010187321601769e+01 0 0 0
2638 1 7.0019278723669256e+00 3.4365620852035601e+00 1.3765827930302319e+01 0 0 0
3882 1 1.9965480612522162e+00 1.3927832633457531e+00 1.1964882012693963e+01 0 1 1
1026 1 9.9715397660676643e+00 3.3453332330725947e+00 1.4218801544488940e+01 0 1 0
2617 1 3.2663609189657157e+00 4.9001228675526637e-01 1.4513359117855899e+01 0 0 0
4232 1 3.7576259239173524e+00 3.4116455904105862e+00 1.4140309685596749e+01 0 0 0
1816 1 4.3225438484556150e-01 8.3039148830331868e+00 1.1303367853986158e+01 1 0 0
3819 1 2.9599890513938396e+00 5.0419741193499181e+00 1.1742877271415697e+01 0 0 1
4334 1 5.9179091046418399e+00 5.8738134993494810e+00 1.4313140052814783e+01 0 2 0
4199 1 3.0022804124555384e+00 6.6798400060312089e+00 1.4142632802071450e+01 0 1 0
3740 1 3.6365894203501592e-01 7.6810101160849271e+00 1.4316716332059045e+01 0 0 0
419 1 1.0229423123689008e+01 2.4159141551186969e+00 1.1156610569660652e+01 1 1 1
920 1 7.5507235424084334e+00 8.2373966983193174e+00 1.4907948546850987e+01 0 1 0
262 2 8.6134999999999984e+00 9.2355835810918343e+00 1.7010187321601769e+01 0 0 0
1246 1 9.8374596215504582e+00 6.3320837788082365e+00 1.4186316827674489e+01 0 0 1
2231 1 6.0220557359621329e+00 3.4190564615161007e-01 1.4120840866204368e+01 0 0 1
2875 1 6.4758937945072956e+00 6.5420993870560498e+00 1.1482340588435861e+01 -2 1 1
457 1 3.4178766929043261e+00 9.9776288235204511e+00 1.1097653737832280e+01 1 1 1
8 1 3.7907215764734370e+00 9.5671598240577147e+00 1.3831419394264353e+01 -1 1 -1
4617 1 6.3289019930899357e+00 1.0619566202641812e+01 1.4159817523327794e+01 0 1 1
2669 1 9.7496788857827390e+00 9.9539367370414134e+00 1.4009468738947950e+01 1 0 0
1248 1 8.9727985258685425e+00 5.1624562244009757e+00 1.1298822627198646e+01 1 0 1
193 2 0.0000000000000000e+00 2.8417180249513345e+00 1.7010187321601769e+01 0 0 0
194 2 0.0000000000000000e+00 0.0000000000000000e+00 1.7010187321601769e+01 0 0 0
195 2 1.2305000000000001e+00 7.1042950623783474e-01 1.7010187321601769e+01 0 0 0
199 2 1.2305000000000001e+00 2.1312885187134998e+00 1.7010187321601769e+01 0 0 0
200 2 2.4610000000000003e+00 2.8417180249513345e+00 1.7010187321601769e+01 0 0 0
201 2 2.4610000000000003e+00 0.0000000000000000e+00 1.7010187321601769e+01 0 0 0
202 2 3.6915000000000004e+00 7.1042950623783474e-01 1.7010187321601769e+01 0 0 0
210 2 3.6914999999999996e+00 2.1312885187134998e+00 1.7010187321601769e+01 0 0 0
211 2 4.9220000000000006e+00 2.8417180249513332e+00 1.7010187321601769e+01 0 0 0
212 2 4.9220000000000006e+00 0.0000000000000000e+00 1.7010187321601769e+01 0 0 0
213 2 6.1524999999999999e+00 7.1042950623783407e-01 1.7010187321601769e+01 0 0 0
225 2 6.1524999999999999e+00 2.1312885187134989e+00 1.7010187321601769e+01 0 0 0
226 2 7.3829999999999991e+00 2.8417180249513345e+00 1.7010187321601769e+01 0 0 0
227 2 7.3829999999999991e+00 0.0000000000000000e+00 1.7010187321601769e+01 0 0 0
228 2 8.6134999999999984e+00 7.1042950623783407e-01 1.7010187321601769e+01 0 0 0
244 2 8.6134999999999984e+00 2.1312885187135002e+00 1.7010187321601769e+01 0 0 0
245 2 9.8440000000000012e+00 2.8417180249513332e+00 1.7010187321601769e+01 0 0 0
246 2 9.8440000000000012e+00 0.0000000000000000e+00 1.7010187321601769e+01 0 0 0
247 2 1.1074500000000002e+01 7.1042950623783330e-01 1.7010187321601769e+01 0 0 0
267 2 1.1074500000000002e+01 2.1312885187135002e+00 1.7010187321601769e+01 0 0 0
197 2 0.0000000000000000e+00 4.2625770374269996e+00 1.7010187321601769e+01 0 0 0
198 2 1.2305000000000001e+00 4.9730065436648339e+00 1.7010187321601769e+01 0 0 0
206 2 1.2305000000000001e+00 6.3938655561404980e+00 1.7010187321601769e+01 0 0 0
208 2 2.4610000000000003e+00 4.2625770374269996e+00 1.7010187321601769e+01 0 0 0
209 2 3.6914999999999996e+00 4.9730065436648339e+00 1.7010187321601769e+01 0 0 0
221 2 3.6914999999999996e+00 6.3938655561404980e+00 1.7010187321601769e+01 0 0 0
196 2 0.0000000000000000e+00 7.1042950623783341e+00 1.7010187321601769e+01 0 0 0
207 2 2.4610000000000003e+00 7.1042950623783341e+00 1.7010187321601769e+01 0 0 0
223 2 4.9220000000000006e+00 4.2625770374269978e+00 1.7010187321601769e+01 0 0 0
224 2 6.1524999999999999e+00 4.9730065436648339e+00 1.7010187321601769e+01 0 0 0
240 2 6.1524999999999999e+00 6.3938655561404980e+00 1.7010187321601769e+01 0 0 0
242 2 7.3829999999999991e+00 4.2625770374269996e+00 1.7010187321601769e+01 0 0 0
222 2 4.9220000000000006e+00 7.1042950623783341e+00 1.7010187321601769e+01 0 0 0
241 2 7.3830000000000009e+00 7.1042950623783341e+00 1.7010187321601769e+01 0 0 0
243 2 8.6135000000000002e+00 4.9730065436648339e+00 1.7010187321601769e+01 0 0 0
263 2 8.6135000000000002e+00 6.3938655561404980e+00 1.7010187321601769e+01 0 0 0
265 2 9.8440000000000012e+00 4.2625770374270004e+00 1.7010187321601769e+01 0 0 0
266 2 1.1074500000000002e+01 4.9730065436648339e+00 1.7010187321601769e+01 0 0 0
287 2 1.1074500000000002e+01 6.3938655561404980e+00 1.7010187321601769e+01 0 0 0
264 2 9.8440000000000012e+00 7.1042950623783341e+00 1.7010187321601769e+01 0 0 0
204 2 0.0000000000000000e+00 8.5251540748539991e+00 1.7010187321601769e+01 0 0 0
205 2 1.2305000000000001e+00 9.2355835810918343e+00 1.7010187321601769e+01 0 0 0
219 2 2.4610000000000003e+00 8.5251540748539991e+00 1.7010187321601769e+01 0 0 0
220 2 3.6915000000000004e+00 9.2355835810918343e+00 1.7010187321601769e+01 0 0 0
203 2 0.0000000000000000e+00 1.1366872099805333e+01 1.7010187321601769e+01 0 0 0
217 2 1.2305000000000001e+00 1.0656442593567498e+01 1.7010187321601769e+01 0 0 0
218 2 2.4610000000000003e+00 1.1366872099805333e+01 1.7010187321601769e+01 0 0 0
236 2 3.6914999999999996e+00 1.0656442593567499e+01 1.7010187321601769e+01 0 0 0
259 2 6.1524999999999999e+00 1.0656442593567499e+01 1.7010187321601769e+01 0 0 0
237 2 4.9220000000000006e+00 1.1366872099805333e+01 1.7010187321601769e+01 0 0 0
260 2 7.3829999999999991e+00 1.1366872099805333e+01 1.7010187321601769e+01 0 0 0
238 2 4.9220000000000006e+00 8.5251540748539991e+00 1.7010187321601769e+01 0 0 0
239 2 6.1524999999999999e+00 9.2355835810918343e+00 1.7010187321601769e+01 0 0 0
261 2 7.3830000000000009e+00 8.5251540748539991e+00 1.7010187321601769e+01 0 0 0
308 2 1.2304999999999998e+01 1.1366872099805333e+01 1.7010187321601769e+01 0 0 0
284 2 9.8440000000000012e+00 1.1366872099805333e+01 1.7010187321601769e+01 0 0 0
307 2 1.1074500000000002e+01 1.0656442593567498e+01 1.7010187321601769e+01 0 0 0
285 2 9.8440000000000012e+00 8.5251540748539956e+00 1.7010187321601769e+01 0 0 0
283 2 8.6134999999999984e+00 1.0656442593567498e+01 1.7010187321601769e+01 0 0 0
2633 1 6.0526669579989054e+00 9.7915275845582528e+00 1.1372199553005169e+01 0 -1 0
3869 1 1.9866959122971029e+00 1.2073619463930951e+01 1.3992584926823289e+01 0 1 1
4524 1 1.0211097340886665e+01 1.0327424341449769e+01 1.1203727858249898e+01 0 1 1
4554 1 9.2491738769086247e+00 2.9882360722666190e-01 1.4103162239611120e+01 0 1 0
2086 1 1.2215533990388058e+01 7.4431138039804203e+00 1.3879095951982920e+01 1 1 1
4332 1 1.3918895817657517e+00 1.2200583684018733e+01 1.1200484977543075e+01 1 1 0
549 2 0.0000000000000000e+00 1.4208590124756650e+00 2.0027891722248903e+01 0 0 0
550 2 0.0000000000000000e+00 0.0000000000000000e+00 2.0027891722248903e+01 0 0 0
554 2 1.2305000000000001e+00 2.1312885187134998e+00 2.0027891722248903e+01 0 0 0
555 2 2.4610000000000003e+00 1.4208590124756650e+00 2.0027891722248903e+01 0 0 0
556 2 2.4610000000000003e+00 0.0000000000000000e+00 2.0027891722248903e+01 0 0 0
564 2 3.6914999999999996e+00 2.1312885187134998e+00 2.0027891722248903e+01 0 0 0
710 2 0.0000000000000000e+00 2.8417180249513345e+00 2.3045596122893791e+01 0 0 0
711 2 0.0000000000000000e+00 0.0000000000000000e+00 2.3045596122893791e+01 0 0 0
712 2 1.2305000000000001e+00 7.1042950623783474e-01 2.3045596122893791e+01 0 0 0
716 2 1.2305000000000001e+00 2.1312885187134998e+00 2.3045596122893791e+01 0 0 0
717 2 2.4610000000000003e+00 2.8417180249513345e+00 2.3045596122893791e+01 0 0 0
718 2 2.4610000000000003e+00 0.0000000000000000e+00 2.3045596122893791e+01 0 0 0
719 2 3.6915000000000004e+00 7.1042950623783474e-01 2.3045596122893791e+01 0 0 0
727 2 3.6914999999999996e+00 2.1312885187134998e+00 2.3045596122893791e+01 0 0 0
553 2 1.2305000000000001e+00 3.5521475311891644e+00 2.0027891722248903e+01 0 0 0
563 2 3.6914999999999996e+00 3.5521475311891644e+00 2.0027891722248903e+01 0 0 0
565 2 4.9220000000000006e+00 1.4208590124756650e+00 2.0027891722248903e+01 0 0 0
566 2 4.9220000000000006e+00 0.0000000000000000e+00 2.0027891722248903e+01 0 0 0
578 2 6.1524999999999999e+00 2.1312885187134989e+00 2.0027891722248903e+01 0 0 0
579 2 7.3829999999999991e+00 1.4208590124756659e+00 2.0027891722248903e+01 0 0 0
580 2 7.3829999999999991e+00 0.0000000000000000e+00 2.0027891722248903e+01 0 0 0
728 2 4.9220000000000006e+00 2.8417180249513332e+00 2.3045596122893791e+01 0 0 0
729 2 4.9220000000000006e+00 0.0000000000000000e+00 2.3045596122893791e+01 0 0 0
730 2 6.1524999999999999e+00 7.1042950623783407e-01 2.3045596122893791e+01 0 0 0
742 2 6.1524999999999999e+00 2.1312885187134989e+00 2.3045596122893791e+01 0 0 0
743 2 7.3829999999999991e+00 2.8417180249513345e+00 2.3045596122893791e+01 0 0 0
744 2 7.3829999999999991e+00 0.0000000000000000e+00 2.3045596122893791e+01 0 0 0
577 2 6.1524999999999999e+00 3.5521475311891644e+00 2.0027891722248903e+01 0 0 0
596 2 8.6134999999999984e+00 2.1312885187135002e+00 2.0027891722248903e+01 0 0 0
597 2 9.8440000000000012e+00 1.4208590124756659e+00 2.0027891722248903e+01 0 0 0
598 2 9.8440000000000012e+00 0.0000000000000000e+00 2.0027891722248903e+01 0 0 0
618 2 1.1074500000000002e+01 2.1312885187135002e+00 2.0027891722248903e+01 0 0 0
745 2 8.6134999999999984e+00 7.1042950623783407e-01 2.3045596122893791e+01 0 0 0
761 2 8.6134999999999984e+00 2.1312885187135002e+00 2.3045596122893791e+01 0 0 0
762 2 9.8440000000000012e+00 2.8417180249513332e+00 2.3045596122893791e+01 0 0 0
763 2 9.8440000000000012e+00 0.0000000000000000e+00 2.3045596122893791e+01 0 0 0
764 2 1.1074500000000002e+01 7.1042950623783330e-01 2.3045596122893791e+01 0 0 0
784 2 1.1074500000000002e+01 2.1312885187135002e+00 2.3045596122893791e+01 0 0 0
595 2 8.6134999999999984e+00 3.5521475311891657e+00 2.0027891722248903e+01 0 0 0
617 2 1.1074500000000002e+01 3.5521475311891644e+00 2.0027891722248903e+01 0 0 0
551 2 0.0000000000000000e+00 5.6834360499026637e+00 2.0027891722248903e+01 0 0 0
552 2 0.0000000000000000e+00 4.2625770374269996e+00 2.0027891722248903e+01 0 0 0
560 2 1.2305000000000001e+00 6.3938655561404980e+00 2.0027891722248903e+01 0 0 0
561 2 2.4610000000000003e+00 5.6834360499026637e+00 2.0027891722248903e+01 0 0 0
562 2 2.4610000000000003e+00 4.2625770374269996e+00 2.0027891722248903e+01 0 0 0
574 2 3.6914999999999996e+00 6.3938655561404980e+00 2.0027891722248903e+01 0 0 0
714 2 0.0000000000000000e+00 4.2625770374269996e+00 2.3045596122893791e+01 0 0 0
715 2 1.2305000000000001e+00 4.9730065436648339e+00 2.3045596122893791e+01 0 0 0
723 2 1.2305000000000001e+00 6.3938655561404980e+00 2.3045596122893791e+01 0 0 0
725 2 2.4610000000000003e+00 4.2625770374269996e+00 2.3045596122893791e+01 0 0 0
726 2 3.6914999999999996e+00 4.9730065436648339e+00 2.3045596122893791e+01 0 0 0
738 2 3.6914999999999996e+00 6.3938655561404980e+00 2.3045596122893791e+01 0 0 0
559 2 1.2305000000000001e+00 7.8147245686161639e+00 2.0027891722248903e+01 0 0 0
573 2 3.6914999999999996e+00 7.8147245686161639e+00 2.0027891722248903e+01 0 0 0
713 2 0.0000000000000000e+00 7.1042950623783341e+00 2.3045596122893791e+01 0 0 0
724 2 2.4610000000000003e+00 7.1042950623783341e+00 2.3045596122893791e+01 0 0 0
575 2 4.9220000000000006e+00 5.6834360499026637e+00 2.0027891722248903e+01 0 0 0
576 2 4.9220000000000006e+00 4.2625770374269978e+00 2.0027891722248903e+01 0 0 0
592 2 6.1524999999999999e+00 6.3938655561404980e+00 2.0027891722248903e+01 0 0 0
593 2 7.3829999999999991e+00 5.6834360499026637e+00 2.0027891722248903e+01 0 0 0
594 2 7.3829999999999991e+00 4.2625770374269996e+00 2.0027891722248903e+01 0 0 0
740 2 4.9220000000000006e+00 4.2625770374269978e+00 2.3045596122893791e+01 0 0 0
741 2 6.1524999999999999e+00 4.9730065436648339e+00 2.3045596122893791e+01 0 0 0
757 2 6.1524999999999999e+00 6.3938655561404980e+00 2.3045596122893791e+01 0 0 0
759 2 7.3829999999999991e+00 4.2625770374269996e+00 2.3045596122893791e+01 0 0 0
591 2 6.1524999999999999e+00 7.8147245686161639e+00 2.0027891722248903e+01 0 0 0
739 2 4.9220000000000006e+00 7.1042950623783341e+00 2.3045596122893791e+01 0 0 0
758 2 7.3830000000000009e+00 7.1042950623783341e+00 2.3045596122893791e+01 0 0 0
614 2 8.6135000000000002e+00 6.3938655561404980e+00 2.0027891722248903e+01 0 0 0
615 2 9.8440000000000012e+00 5.6834360499026637e+00 2.0027891722248903e+01 0 0 0
616 2 9.8440000000000012e+00 4.2625770374270004e+00 2.0027891722248903e+01 0 0 0
637 2 1.1074500000000002e+01 6.3938655561404980e+00 2.0027891722248903e+01 0 0 0
760 2 8.6135000000000002e+00 4.9730065436648339e+00 2.3045596122893791e+01 0 0 0
780 2 8.6135000000000002e+00 6.3938655561404980e+00 2.3045596122893791e+01 0 0 0
782 2 9.8440000000000012e+00 4.2625770374270004e+00 2.3045596122893791e+01 0 0 0
783 2 1.1074500000000002e+01 4.9730065436648339e+00 2.3045596122893791e+01 0 0 0
804 2 1.1074500000000002e+01 6.3938655561404980e+00 2.3045596122893791e+01 0 0 0
613 2 8.6135000000000002e+00 7.8147245686161639e+00 2.0027891722248903e+01 0 0 0
636 2 1.1074500000000002e+01 7.8147245686161639e+00 2.0027891722248903e+01 0 0 0
781 2 9.8440000000000012e+00 7.1042950623783341e+00 2.3045596122893791e+01 0 0 0
557 2 0.0000000000000000e+00 9.9460130873296642e+00 2.0027891722248903e+01 0 0 0
558 2 0.0000000000000000e+00 8.5251540748539991e+00 2.0027891722248903e+01 0 0 0
571 2 2.4610000000000003e+00 9.9460130873296642e+00 2.0027891722248903e+01 0 0 0
572 2 2.4610000000000003e+00 8.5251540748539991e+00 2.0027891722248903e+01 0 0 0
721 2 0.0000000000000000e+00 8.5251540748539991e+00 2.3045596122893791e+01 0 0 0
722 2 1.2305000000000001e+00 9.2355835810918343e+00 2.3045596122893791e+01 0 0 0
736 2 2.4610000000000003e+00 8.5251540748539991e+00 2.3045596122893791e+01 0 0 0
737 2 3.6915000000000004e+00 9.2355835810918343e+00 2.3045596122893791e+01 0 0 0
569 2 1.2305000000000001e+00 1.2077301606043163e+01 2.0027891722248903e+01 0 0 0
570 2 1.2305000000000001e+00 1.0656442593567498e+01 2.0027891722248903e+01 0 0 0
587 2 3.6914999999999996e+00 1.2077301606043163e+01 2.0027891722248903e+01 0 0 0
588 2 3.6914999999999996e+00 1.0656442593567499e+01 2.0027891722248903e+01 0 0 0
720 2 0.0000000000000000e+00 1.1366872099805333e+01 2.3045596122893791e+01 0 0 0
734 2 1.2305000000000001e+00 1.0656442593567498e+01 2.3045596122893791e+01 0 0 0
735 2 2.4610000000000003e+00 1.1366872099805333e+01 2.3045596122893791e+01 0 0 0
753 2 3.6914999999999996e+00 1.0656442593567499e+01 2.3045596122893791e+01 0 0 0
589 2 4.9220000000000006e+00 9.9460130873296642e+00 2.0027891722248903e+01 0 0 0
590 2 4.9220000000000006e+00 8.5251540748539991e+00 2.0027891722248903e+01 0 0 0
611 2 7.3830000000000009e+00 9.9460130873296642e+00 2.0027891722248903e+01 0 0 0
612 2 7.3830000000000009e+00 8.5251540748539991e+00 2.0027891722248903e+01 0 0 0
755 2 4.9220000000000006e+00 8.5251540748539991e+00 2.3045596122893791e+01 0 0 0
756 2 6.1524999999999999e+00 9.2355835810918343e+00 2.3045596122893791e+01 0 0 0
778 2 7.3830000000000009e+00 8.5251540748539991e+00 2.3045596122893791e+01 0 0 0
609 2 6.1524999999999999e+00 1.2077301606043163e+01 2.0027891722248903e+01 0 0 0
610 2 6.1524999999999999e+00 1.0656442593567499e+01 2.0027891722248903e+01 0 0 0
754 2 4.9220000000000006e+00 1.1366872099805333e+01 2.3045596122893791e+01 0 0 0
776 2 6.1524999999999999e+00 1.0656442593567499e+01 2.3045596122893791e+01 0 0 0
777 2 7.3829999999999991e+00 1.1366872099805333e+01 2.3045596122893791e+01 0 0 0
634 2 9.8440000000000012e+00 9.9460130873296642e+00 2.0027891722248903e+01 0 0 0
635 2 9.8440000000000012e+00 8.5251540748539956e+00 2.0027891722248903e+01 0 0 0
779 2 8.6134999999999984e+00 9.2355835810918343e+00 2.3045596122893791e+01 0 0 0
802 2 9.8440000000000012e+00 8.5251540748539956e+00 2.3045596122893791e+01 0 0 0
803 2 1.1074500000000002e+01 9.2355835810918343e+00 2.3045596122893791e+01 0 0 0
632 2 8.6135000000000002e+00 1.2077301606043163e+01 2.0027891722248903e+01 0 0 0
633 2 8.6134999999999984e+00 1.0656442593567498e+01 2.0027891722248903e+01 0 0 0
655 2 1.1074500000000002e+01 1.2077301606043163e+01 2.0027891722248903e+01 0 0 0
656 2 1.1074500000000002e+01 1.0656442593567498e+01 2.0027891722248903e+01 0 0 0
800 2 8.6134999999999984e+00 1.0656442593567498e+01 2.3045596122893791e+01 0 0 0
801 2 9.8440000000000012e+00 1.1366872099805333e+01 2.3045596122893791e+01 0 0 0
824 2 1.1074500000000002e+01 1.0656442593567498e+01 2.3045596122893791e+01 0 0 0
825 2 1.2304999999999998e+01 1.1366872099805333e+01 2.3045596122893791e+01 0 0 0
37 1 3.4496242894128302e+00 3.6840424538741572e+00 2.5853475460827500e+01 -1 0 0
928 1 3.3017723670183456e+00 8.9108084846345754e+00 2.8323343560634452e+01 0 -1 -1
4612 1 6.5520560337325175e+00 5.7504355277994323e-01 2.8369623049743808e+01 0 2 1
2245 1 4.3986022566516434e+00 1.0003108786454975e+00 2.5392429064370756e+01 0 1 0
2204 1 3.4219993745246957e-01 2.4242895451632842e+00 2.8407699692537669e+01 0 1 0
2555 1 9.2937304045066753e+00 2.1580283457074088e+00 2.5726774991819383e+01 1 1 0
1875 1 8.6997122744891708e+00 9.7311866014668276e+00 2.5445733519258894e+01 0 0 0
3361 1 7.3297799090432247e-01 3.8760343147807048e+00 2.5459775102967640e+01 0 0 -1
59 1 5.1130828629406784e+00 6.0826967387827979e+00 2.5401189465541453e+01 0 0 -1
4363 1 6.9945655773355568e+00 2.8042335201017821e-01 2.5570289297195501e+01 1 2 -1
1753 1 5.2476981055158483e+00 4.9900991061530107e+00 2.8076807917913921e+01 0 0 -1
955 1 7.8932393443823292e+00 4.7302625566220433e+00 2.6122459746078352e+01 1 0 -1
2716 1 2.5406349014041121e+00 4.1619537167653036e+00 2.8899238422308837e+01 0 1 -2
2625 1 9.5862041515312946e+00 6.9793648324759534e+00 2.5859081415907557e+01 0 0 -1
3426 1 6.1311718079995110e+00 9.9014784259929716e+00 2.6085678286640722e+01 1 0 -1
2707 1 1.3167081878253108e+00 1.0475769472196687e+01 2.5389835744760173e+01 1 1 -1
482 1 3.6011745645314113e+00 8.5716952764718926e+00 2.5548603514472770e+01 0 1 0
934 1 9.2500231247840823e+00 8.9018459470783586e+00 2.8373172835794591e+01 0 1 -1
1363 1 6.6654802639945743e+00 9.6684857995575335e+00 2.8869388497815212e+01 0 -1 0
3880 1 1.2126911538657501e+01 6.3533923404277344e+00 2.6141718905938117e+01 1 0 -1
1769 1 1.1825184414761326e+01 3.6665434329686994e+00 2.5939913881486852e+01 0 2 -1
6 1 1.0313813522714966e+01 1.2140679756388838e+01 2.5800563052462515e+01 1 1 -1
2246 1 5.3475150812805461e-01 8.4694804805490644e+00 2.7633772528181026e+01 0 -1 0
3500 1 1.0537016518114537e+01 1.1307287901211684e+01 2.8502146923748516e+01 -1 1 -1
3827 1 1.1447640506807771e+01 4.8203219096115267e-02 2.5541099114621332e+01 0 0 -1
3758 1 9.4205835624508900e+00 6.7652231736907520e-01 2.8383896713844958e+01 1 0 0
883 1 4.5707918880623649e-01 4.7716932535280581e+00 3.3074275273778788e+01 -1 1 -1
2916 1 3.7765670680272287e+00 1.7493101152688209e+00 3.0025857650996972e+01 0 1 -1
2114 1 3.3196401656627921e+00 9.8223498160198819e+00 3.6960076638909648e+01 -1 -1 -1
3486 1 1.1802428324419385e+01 4.3561125423573630e+00 3.7305613880849499e+01 1 1 0
4262 1 5.5155246404111891e+00 1.9152219456646924e+00 3.2481416349562139e+01 0 -1 0
358 1 7.2030661532540217e+00 4.3623770135400521e+00 3.1672105328476174e+01 1 1 -1
3439 1 1.1508190427742209e+01 4.5412519888003020e+00 3.0582477851402313e+01 0 0 -1
3863 1 5.5330593800902115e+00 1.1359786139569088e+01 3.7344716473510246e+01 0 0 -1
1218 1 1.6659582841901659e+00 6.0055820231492971e+00 3.0851275503055280e+01 1 -1 -1
3002 1 1.0673668700588387e+01 1.1176614380772021e+01 3.6473511026818365e+01 1 1 -1
4362 1 3.9872266489390551e+00 6.8888968334934084e+00 3.2072983448016139e+01 -1 0 0
1774 1 5.1984347594801550e+00 7.3533504869683508e+00 2.9593540190513444e+01 1 0 0
3388 1 8.4703277081124320e+00 9.1904339152089651e+00 3.3634206366388163e+01 1 0 -1
886 1 7.3985992957948037e+00 7.1687810030223380e+00 3.1474094921610906e+01 0 1 -1
2169 1 3.1473823347149175e+00 1.1383138812489385e+01 2.9658733264644248e+01 1 0 0
1342 1 9.5173188761807630e+00 3.3365100198908602e+00 3.2471859169780217e+01 1 0 1
2134 1 9.7394959815272593e+00 7.3279111302453614e-01 3.1424719028114836e+01 0 1 -1
1743 1 3.2955636363448897e+00 9.1180194426712848e+00 3.3740793618179346e+01 1 1 -1
2234 1 2.9813296255930486e+00 7.2032942466398291e+00 3.7459425604498897e+01 0 0 0
2979 1 8.7602639736471719e+00 1.1671443058462275e+01 3.4513661787756192e+01 0 0 0
2622 1 1.5259622740980894e+00 1.2127845241757667e+01 3.6437828847555267e+01 1 0 0
3488 1 1.0610223056448724e+01 7.8379767693591695e+00 3.5388431738485096e+01 0 1 0
2650 1 1.1040250139889867e+01 9.4926546143798980e+00 3.2399284437973201e+01 0 1 0
874 1 5.0301530801934069e+00 3.2903448997578248e+00 3.7302495092133952e+01 1 0 0
1339 1 1.4016413768928819e+00 3.2795049177472086e+00 3.5470687120321443e+01 1 1 -1
2593 1 1.1974298278869842e+00 5.0704331801633318e+00 3.7465766180038436e+01 1 0 1
2630 1 3.8433835785474422e+00 2.2602459206023244e+00 3.4628388976642739e+01 0 1 -1
2963 1 1.1006216647184555e+01 4.9797788165302190e+00 3.4952036976206031e+01 0 1 1
3478 1 7.4803465985045205e+00 1.7120555752005098e+00 3.5473670847244854e+01 0 0 -1
2997 1 1.0227016188676629e+01 1.7853785860571421e+00 3.5230944970443652e+01 1 0 0
1350 1 4.2174367658306249e+00 1.1227129183467360e+01 3.2188614545327823e+01 0 0 0
4566 1 3.2854958462358519e-01 8.8731980409440645e+00 3.3753994643090365e+01 -1 0 0
3845 1 6.7493725002433367e+00 1.0642271087522309e+01 3.1427734770623903e+01 1 0 -1
3736 1 5.8452164678833549e+00 8.5093406663525677e+00 3.5272379237181653e+01 1 1 -1
4622 1 5.0988323894963905e+00 4.9315568910917715e+00 3.3791035762657089e+01 -1 0 1
2982 1 5.2905044935343719e+00 6.1459675644045593e+00 3.6639700953992801e+01 0 0 0
535 1 1.0217746233560412e+01 7.1647338207671298e+00 3.0261900556792675e+01 1 0 0
1286 1 7.7325073935660669e+00 9.5172471722859502e+00 3.6944229177071570e+01 -1 1 0
2061 1 8.0334018746111724e+00 4.7744236567833749e+00 3.5176104010950418e+01 1 1 -1
487 1 2.3694812852704783e+00 5.6413013938511003e-01 3.2567955206705946e+01 0 1 1
3528 1 7.2910117099674547e+00 3.4667127885748332e+00 2.9063255642761511e+01 0 1 -1
949 1 5.2674578513513897e+00 1.3939874046345434e+01 3.4223149849825569e+00 0 0 0
1307 1 5.4811495960968264e+00 1.3074421602032057e+01 6.2849691754597403e+00 1 0 0
79 1 2.2938602699320838e+00 1.4692453871649288e+01 4.1712049081115028e+00 0 1 1
4540 1 6.8742547159099709e+00 1.6068655028749419e+01 7.0767244503818576e+00 -1 0 0
4652 1 8.8470021837855963e+00 2.2840921467875038e+01 9.0804756633980332e+00 0 1 1
3885 1 7.5330659741496886e+00 1.3641731715030120e+01 8.2967135105159127e+00 0 -1 0
2668 1 2.3053055514528085e+00 1.4032377241408918e+01 8.6561577768853262e+00 1 0 1
4375 1 7.8143524044537109e+00 2.1125233110153211e+01 2.6334227330155153e+00 -1 0 0
3715 1 3.2347626548014807e-01 1.6205092508256556e+01 2.8341848036032129e+00 -1 1 0
1389 1 4.3987171666737579e+00 1.7492482128373197e+01 7.5423134621317685e+00 -1 -1 0
3812 1 3.6497584439086328e+00 1.9806923984538916e+01 6.0329116060570431e+00 1 0 1
3367 1 3.6695367416276827e+00 1.5141921763428348e+01 6.4620292953427834e+00 1 1 1
3433 1 1.2028150658884160e+01 1.4006294344070518e+01 5.1367823284220933e+00 1 0 0
2160 1 4.8736936571784621e+00 1.9005140927937177e+01 3.2574001031803466e+00 -1 0 0
447 1 1.1246346877318109e+01 1.6615762393379541e+01 6.5314645727235332e+00 1 0 1
1712 1 8.1101442842290155e+00 1.4904575203155433e+01 2.9288540615507364e+00 0 1 0
2636 1 1.0396425552515497e+01 2.2384040109547389e+01 3.3950337956291929e+00 0 1 0
1800 1 6.2133438175746103e-01 2.2929880998794275e+01 5.1800624281449448e+00 0 0 -1
460 1 3.3048935400609749e+00 2.3403254872137399e+01 4.2459306239793584e+00 1 0 1
4528 1 1.1120017388281212e+01 2.0638491788807293e+01 5.3300031571717099e+00 0 1 1
1849 1 6.1700582061889122e+00 1.2593356366179208e+01 1.0523543272927412e+01 0 0 1
1812 1 6.9009271911507464e-01 1.9821225261643008e+01 5.4883922351856427e+00 1 -1 0
3709 1 1.0248663033101524e+01 1.4698842564745428e+01 9.5805286344547902e+00 1 0 0
14 1 1.1687553673281418e+01 1.6525180392170821e+01 2.9997356715413037e+00 0 2 0
4678 1 1.0763150220122203e+01 1.7995070321804779e+01 8.8370122850753781e+00 1 0 1
2128 1 8.2178722541158091e+00 1.6854568693166520e+01 9.6893479366026511e+00 2 1 1
2224 1 9.3786903747890946e+00 1.3339182844954539e+01 5.1851742258798570e+00 0 0 0
4568 1 3.3795803627925776e+00 1.6387854204414563e+01 1.0113535838113403e+01 1 -1 1
191 1 5.5175574811782138e+00 2.2028485790424995e+01 5.4620769303663943e+00 -1 0 0
2126 1 7.2059291388780737e+00 1.9104549831018311e+01 4.9827308266954136e+00 0 0 1
4537 1 8.8297410253187554e+00 1.6656492874804322e+01 4.9830820668820115e+00 1 1 1
28 1 4.0745690508776505e-01 1.5188060098923380e+01 6.5158578277733534e+00 0 -1 0
2993 1 6.9122610068163244e+00 1.9463811193295211e+01 7.8073920208813012e+00 0 -1 1
2164 1 9.7348907871674832e+00 2.0512192016107164e+01 7.9717889138101334e+00 0 0 1
3532 1 8.8336701408272755e-01 2.2361994212395288e+01 7.7527945963195410e+00 1 1 1
2071 1 3.0258094174206480e+00 2.1106045967435168e+01 8.5810817735202392e+00 1 1 0
3461 1 5.8879774761210850e+00 2.2446282527093388e+01 8.3930986411161896e+00 1 0 0
47 1 7.6618217181368369e+00 1.9582458057164988e+01 1.0627593224606100e+01 0 0 0
1254 1 5.7216640028614318e-01 1.7287185320750059e+01 9.8863328637316066e+00 0 -1 1
150 1 7.3000324733836948e+00 2.4186384844159981e+01 4.7304897486770763e+00 0 -1 0
2155 1 3.7868135968681913e+00 1.6517095235544868e+01 2.4441437040037779e+00 -1 0 1