LAMMPS data file via write_data, version 16 Mar 2018, timestep = 6000000

6337 atoms
2 atom types

0.0000000000000000e+00 4.9219999999999999e+01 xlo xhi
0.0000000000000000e+00 4.9019635930410494e+01 ylo yhi
1.4128437352132011e+00 5.8649156264783805e+01 zlo zhi

Masses

1 18.015
2 12.01

Atoms # atomic

2012 1 2.1535343243755691e+00 9.4577705767649167e-01 4.7415771591482718e+00 4 1 0
4967 1 1.9492869492528329e+00 1.2200226352563031e+00 2.0223909487715321e+00 3 0 0
3426 1 6.7228703155952418e+00 1.2885678389449131e+00 4.6720490886479835e+00 -1 2 1
3335 1 6.6439979871847834e+00 1.9236860771439466e+00 1.8489813817475755e+00 0 -4 0
4845 1 3.9403233456979154e+00 5.2738812996079627e+00 2.2677086459078994e+00 1 -2 0
407 1 8.7632474993715679e+00 6.1017147461986641e+00 1.8427561597387878e+00 0 0 0
347 1 8.5292078529830864e+00 5.8365835484469155e+00 4.6787332470977674e+00 2 1 0
269 1 1.4700847546820286e+00 9.0424420114294684e+00 2.4026794797740756e+00 3 1 1
6271 1 9.4625452115235908e-01 1.1593648119252517e+01 1.5596550858319986e+00 1 0 0
4792 1 5.7122859931552874e+00 9.7358162356798168e+00 2.1206846654551503e+00 -2 -1 1
6170 1 8.3807480224093940e+00 8.9573021144624239e+00 1.5088707546481004e+00 0 1 1
1874 1 4.3270372859601984e+00 2.4289952537731971e+00 5.7962300964458420e+00 -1 1 0
3120 1 4.6454471716726626e+00 2.2692133450131200e+00 8.3774082392304123e+00 -3 0 0
4553 1 8.5909350448202151e+00 3.1549305151565550e+00 5.3590960905469966e+00 3 1 1
3166 1 8.9039040827453917e+00 2.6703341708693795e+00 8.3162951541452657e+00 1 0 1
5268 1 1.5887307765039882e+00 5.9486899429212476e+00 8.3979776036286484e+00 2 3 1
375 1 4.3875098439078855e+00 5.0344390246273454e+00 5.2274714944031775e+00 0 1 1
174 1 1.6558365467120368e+00 6.0531623302781865e+00 5.7037058907394593e+00 -3 0 1
3689 1 6.2129551001916914e+00 6.8639064111072488e+00 5.9295631574082241e+00 1 0 1
4983 1 1.1705594973597240e+00 8.6506527208419417e+00 5.0144483415835488e+00 -1 0 0
6159 1 3.1995180776828009e+00 1.0369677029160130e+01 6.0234843266187914e+00 1 -1 1
1723 1 5.6444497837234149e+00 9.4779528150546746e+00 5.2979401353530573e+00 1 0 1
551 1 8.1204166710418768e+00 1.0461634900633143e+01 6.2769214008213492e+00 -1 0 1
3589 1 2.3058694750532696e+00 1.0154380595722996e+00 9.3759133655571087e+00 2 0 0
343 1 6.9086507653069642e+00 8.6101008308953342e-01 9.3440044510335376e+00 -1 -1 0
179 1 4.1033071127292668e+00 4.8673872302566528e+00 9.4951370054072761e+00 2 -1 0
4568 1 8.5422151022293633e+00 5.4047104212055457e+00 9.6482859168563202e+00 0 2 1
1877 1 6.1841169775233080e+00 6.6006669864283678e+00 8.7566343770689627e+00 -3 -1 0
1515 1 3.3506876458448169e+00 1.0041796136938096e+01 8.8348505793363348e+00 0 4 1
4968 1 1.3812825103513282e+00 8.2880692735649379e+00 9.7632180640469013e+00 0 -2 1
2033 1 6.0916609285159904e+00 9.1892138095775930e+00 9.7417559688284339e+00 3 1 0
3635 1 8.2176943780519842e+00 1.0713650130694694e+01 9.0338146435268172e+00 -1 0 1
2907 1 2.0206940323623064e+00 3.1283765635530170e+00 1.3211610135728231e+01 -1 1 1
4465 1 2.2042373183844570e+00 5.9412087216917098e-01 1.2245644379906025e+01 1 0 1
144 1 7.1419737308255336e+00 8.4482026258273346e-01 1.2520704681719220e+01 3 1 1
5293 1 6.7331823895850729e+00 3.5264426489523379e+00 1.3291525494323565e+01 0 0 0
168 1 4.2085498205478435e+00 4.7781692712965764e+00 1.2248176852070451e+01 4 -1 1
1240 1 3.9237550906411904e+00 7.2027255643985475e+00 1.3403571482670742e+01 0 1 0
5058 1 8.5768317800039124e+00 5.1970673521563828e+00 1.2378802546992841e+01 0 -2 0
6294 1 8.4494757684135831e+00 7.6030145879362774e+00 1.3479189105496641e+01 2 -3 1
4814 1 1.1452857937420136e+00 1.0837940791999424e+01 1.3516672464698242e+01 1 0 0
1397 1 1.3810674615937024e+00 8.1871206679608193e+00 1.2583592151321273e+01 1 0 0
1361 1 5.6529764183663165e+00 1.1295637590734547e+01 1.3932604695677364e+01 3 -5 0
3697 1 6.0403246836780040e+00 8.8833609806781961e+00 1.2624282958046868e+01 3 -1 1
435 1 4.6062205487792873e+00 1.7726755103097598e+00 1.6839119292388382e+01 2 2 0
1328 1 2.2035932095547892e+00 2.8567577987683159e+00 1.5966438304978453e+01 2 0 1
6207 1 6.4726290419756805e-02 1.1730317702424944e+00 1.6692655419523820e+01 0 -1 1
1994 1 9.1833284294294852e+00 1.9849745472808016e+00 1.6921953490134719e+01 -2 2 1
4631 1 6.7402920869507650e+00 3.0914069335913541e+00 1.6134376208414814e+01 1 -6 1
5222 1 1.4634681851539328e+00 5.4629071336322337e+00 1.6842720312955471e+01 1 1 0
5322 1 3.8861622173529047e+00 7.0114072932138090e+00 1.6218189088210007e+01 0 3 0
4528 1 6.4114408996943055e+00 5.8081568167607989e+00 1.6964337937087215e+01 -2 -2 0
6327 1 8.7008767466776238e+00 7.2240178000235931e+00 1.6168007684997860e+01 1 1 1
288 1 8.5486857462552601e-01 1.0539538444665105e+01 1.6234913932470377e+01 -4 1 0
3429 1 3.4213732457904236e+00 9.4488576491215888e+00 1.7198242882101884e+01 -2 0 0
6263 1 5.7686096490684013e+00 1.0976271121249113e+01 1.6488416429504476e+01 1 2 1
4750 1 7.9583632932241022e+00 9.9091173964069785e+00 1.7124829217940945e+01 2 0 0
1249 1 4.6050397744738687e+00 1.5337148987132241e+00 1.9703764933592687e+01 1 4 1
1657 1 1.9636389835811987e+00 2.6049297997758036e+00 2.0400670569052608e+01 -1 1 0
2901 1 9.1416260263987414e+00 1.6634885812101465e+00 1.9790127279289646e+01 0 0 1
3268 1 6.8746044125661312e+00 3.0062457232466646e+00 2.0603885084621069e+01 1 -1 0
5263 1 1.5505604520240510e+00 5.3781400767716443e+00 1.9647163923688499e+01 1 2 1
3293 1 3.7434671690367480e+00 6.4506247846586815e+00 2.0519157711447164e+01 1 1 0
2887 1 6.4074034413518701e+00 5.6700119774771940e+00 1.9713995574340803e+01 3 1 1
5295 1 8.7402065034961076e+00 7.0045031030471421e+00 2.0581476166529672e+01 1 0 1
12 1 3.6209651186469900e+00 9.3449473388619726e+00 2.0002816851488173e+01 0 -3 1
4731 1 1.0729893586861590e+00 1.0188646192401793e+01 2.1068914505071689e+01 3 -2 1
1539 1 8.1074433783987896e+00 9.7439551733162961e+00 1.9956447418436458e+01 2 0 0
478 1 5.8942877723323956e+00 1.0709548737480823e+01 2.0979179089278333e+01 3 1 1
1712 1 4.0603888069965937e+00 1.7467254043178100e+00 2.4192883784961598e+01 -1 1 0
2159 1 1.7687367178409230e+00 2.5637577512813770e+00 2.3212385063725570e+01 -3 0 1
4492 1 8.6465727742998606e+00 1.9391805108639468e+00 2.4362282269267038e+01 -3 1 1
2071 1 6.3593911167119108e+00 2.9020253434665397e+00 2.3286465543548861e+01 0 0 1
2006 1 1.4699780417538908e+00 5.1760546124766469e+00 2.4147894041815004e+01 1 1 0
1693 1 3.8882409843207109e+00 6.6410425726574864e+00 2.3235370848692284e+01 2 1 0
1518 1 6.2796657341056976e+00 5.5772158881121268e+00 2.4135467037485640e+01 0 3 1
1479 1 8.4927301407714744e+00 7.1364160981373805e+00 2.3713364489534065e+01 -2 -2 1
341 1 9.0622457806409074e-01 1.0101903970566411e+01 2.3774931575200320e+01 1 0 0
1334 1 3.5120287218616513e+00 9.0912361837352869e+00 2.4173404641370816e+01 0 0 1
6002 1 8.1204824758044243e+00 9.8075965976295301e+00 2.4294625594882142e+01 0 -1 1
329 1 5.5154320018011669e+00 1.0803863840805455e+01 2.3670793640233544e+01 2 -1 0
554 2 0.0000000000000000e+00 2.8417180249513345e+00 2.6734937554792456e+01 0 0 0
556 2 0.0000000000000000e+00 0.0000000000000000e+00 2.6734937554792456e+01 0 0 0
558 2 1.2305000000000001e+00 7.1042950623783474e-01 2.6734937554792456e+01 0 0 0
565 2 1.2305000000000001e+00 2.1312885187134998e+00 2.6734937554792456e+01 0 0 0
567 2 2.4610000000000003e+00 2.8417180249513345e+00 2.6734937554792456e+01 0 0 0
569 2 2.4610000000000003e+00 0.0000000000000000e+00 2.6734937554792456e+01 0 0 0
571 2 3.6915000000000004e+00 7.1042950623783474e-01 2.6734937554792456e+01 0 0 0
586 2 3.6914999999999996e+00 2.1312885187134998e+00 2.6734937554792456e+01 0 0 0
588 2 4.9220000000000006e+00 2.8417180249513332e+00 2.6734937554792456e+01 0 0 0
590 2 4.9220000000000006e+00 0.0000000000000000e+00 2.6734937554792456e+01 0 0 0
592 2 6.1524999999999999e+00 7.1042950623783407e-01 2.6734937554792456e+01 0 0 0
615 2 6.1524999999999999e+00 2.1312885187134989e+00 2.6734937554792456e+01 0 0 0
617 2 7.3829999999999991e+00 2.8417180249513345e+00 2.6734937554792456e+01 0 0 0
619 2 7.3829999999999991e+00 0.0000000000000000e+00 2.6734937554792456e+01 0 0 0
621 2 8.6134999999999984e+00 7.1042950623783407e-01 2.6734937554792456e+01 0 0 0
652 2 8.6134999999999984e+00 2.1312885187135002e+00 2.6734937554792456e+01 0 0 0
561 2 0.0000000000000000e+00 4.2625770374269996e+00 2.6734937554792456e+01 0 0 0
563 2 1.2305000000000001e+00 4.9730065436648339e+00 2.6734937554792456e+01 0 0 0
578 2 1.2305000000000001e+00 6.3938655561404980e+00 2.6734937554792456e+01 0 0 0
582 2 2.4610000000000003e+00 4.2625770374269996e+00 2.6734937554792456e+01 0 0 0
584 2 3.6914999999999996e+00 4.9730065436648339e+00 2.6734937554792456e+01 0 0 0
607 2 3.6914999999999996e+00 6.3938655561404980e+00 2.6734937554792456e+01 0 0 0
559 2 0.0000000000000000e+00 7.1042950623783341e+00 2.6734937554792456e+01 0 0 0
580 2 2.4610000000000003e+00 7.1042950623783341e+00 2.6734937554792456e+01 0 0 0
611 2 4.9220000000000006e+00 4.2625770374269978e+00 2.6734937554792456e+01 0 0 0
613 2 6.1524999999999999e+00 4.9730065436648339e+00 2.6734937554792456e+01 0 0 0
644 2 6.1524999999999999e+00 6.3938655561404980e+00 2.6734937554792456e+01 0 0 0
648 2 7.3829999999999991e+00 4.2625770374269996e+00 2.6734937554792456e+01 0 0 0
650 2 8.6135000000000002e+00 4.9730065436648339e+00 2.6734937554792456e+01 0 0 0
689 2 8.6135000000000002e+00 6.3938655561404980e+00 2.6734937554792456e+01 0 0 0
609 2 4.9220000000000006e+00 7.1042950623783341e+00 2.6734937554792456e+01 0 0 0
646 2 7.3830000000000009e+00 7.1042950623783341e+00 2.6734937554792456e+01 0 0 0
636 2 3.6914999999999996e+00 1.0656442593567499e+01 2.6734937554792456e+01 0 0 0
574 2 0.0000000000000000e+00 8.5251540748539991e+00 2.6734937554792456e+01 0 0 0
576 2 1.2305000000000001e+00 9.2355835810918343e+00 2.6734937554792456e+01 0 0 0
603 2 2.4610000000000003e+00 8.5251540748539991e+00 2.6734937554792456e+01 0 0 0
605 2 3.6915000000000004e+00 9.2355835810918343e+00 2.6734937554792456e+01 0 0 0
572 2 0.0000000000000000e+00 1.1366872099805333e+01 2.6734937554792456e+01 0 0 0
599 2 1.2305000000000001e+00 1.0656442593567498e+01 2.6734937554792456e+01 0 0 0
601 2 2.4610000000000003e+00 1.1366872099805333e+01 2.6734937554792456e+01 0 0 0
640 2 4.9220000000000006e+00 8.5251540748539991e+00 2.6734937554792456e+01 0 0 0
638 2 4.9220000000000006e+00 1.1366872099805333e+01 2.6734937554792456e+01 0 0 0
728 2 8.6134999999999984e+00 1.0656442593567498e+01 2.6734937554792456e+01 0 0 0
642 2 6.1524999999999999e+00 9.2355835810918343e+00 2.6734937554792456e+01 0 0 0
685 2 7.3830000000000009e+00 8.5251540748539991e+00 2.6734937554792456e+01 0 0 0
687 2 8.6134999999999984e+00 9.2355835810918343e+00 2.6734937554792456e+01 0 0 0
681 2 6.1524999999999999e+00 1.0656442593567499e+01 2.6734937554792456e+01 0 0 0
683 2 7.3829999999999991e+00 1.1366872099805333e+01 2.6734937554792456e+01 0 0 0
555 2 0.0000000000000000e+00 1.4208590124756650e+00 3.0030999999998553e+01 0 0 0
557 2 0.0000000000000000e+00 0.0000000000000000e+00 3.0030999999998553e+01 0 0 0
566 2 1.2305000000000001e+00 2.1312885187134998e+00 3.0030999999998553e+01 0 0 0
568 2 2.4610000000000003e+00 1.4208590124756650e+00 3.0030999999998553e+01 0 0 0
570 2 2.4610000000000003e+00 0.0000000000000000e+00 3.0030999999998553e+01 0 0 0
587 2 3.6914999999999996e+00 2.1312885187134998e+00 3.0030999999998553e+01 0 0 0
564 2 1.2305000000000001e+00 3.5521475311891644e+00 3.0030999999998553e+01 0 0 0
585 2 3.6914999999999996e+00 3.5521475311891644e+00 3.0030999999998553e+01 0 0 0
883 2 0.0000000000000000e+00 2.8417180249513345e+00 3.3327062445221848e+01 0 0 0
884 2 0.0000000000000000e+00 0.0000000000000000e+00 3.3327062445221848e+01 0 0 0
885 2 1.2305000000000001e+00 7.1042950623783474e-01 3.3327062445221848e+01 0 0 0
889 2 1.2305000000000001e+00 2.1312885187134998e+00 3.3327062445221848e+01 0 0 0
890 2 2.4610000000000003e+00 2.8417180249513345e+00 3.3327062445221848e+01 0 0 0
891 2 2.4610000000000003e+00 0.0000000000000000e+00 3.3327062445221848e+01 0 0 0
892 2 3.6915000000000004e+00 7.1042950623783474e-01 3.3327062445221848e+01 0 0 0
900 2 3.6914999999999996e+00 2.1312885187134998e+00 3.3327062445221848e+01 0 0 0
589 2 4.9220000000000006e+00 1.4208590124756650e+00 3.0030999999998553e+01 0 0 0
591 2 4.9220000000000006e+00 0.0000000000000000e+00 3.0030999999998553e+01 0 0 0
616 2 6.1524999999999999e+00 2.1312885187134989e+00 3.0030999999998553e+01 0 0 0
618 2 7.3829999999999991e+00 1.4208590124756659e+00 3.0030999999998553e+01 0 0 0
620 2 7.3829999999999991e+00 0.0000000000000000e+00 3.0030999999998553e+01 0 0 0
653 2 8.6134999999999984e+00 2.1312885187135002e+00 3.0030999999998553e+01 0 0 0
614 2 6.1524999999999999e+00 3.5521475311891644e+00 3.0030999999998553e+01 0 0 0
651 2 8.6134999999999984e+00 3.5521475311891657e+00 3.0030999999998553e+01 0 0 0
901 2 4.9220000000000006e+00 2.8417180249513332e+00 3.3327062445221848e+01 0 0 0
902 2 4.9220000000000006e+00 0.0000000000000000e+00 3.3327062445221848e+01 0 0 0
903 2 6.1524999999999999e+00 7.1042950623783407e-01 3.3327062445221848e+01 0 0 0
915 2 6.1524999999999999e+00 2.1312885187134989e+00 3.3327062445221848e+01 0 0 0
916 2 7.3829999999999991e+00 2.8417180249513345e+00 3.3327062445221848e+01 0 0 0
917 2 7.3829999999999991e+00 0.0000000000000000e+00 3.3327062445221848e+01 0 0 0
918 2 8.6134999999999984e+00 7.1042950623783407e-01 3.3327062445221848e+01 0 0 0
934 2 8.6134999999999984e+00 2.1312885187135002e+00 3.3327062445221848e+01 0 0 0
560 2 0.0000000000000000e+00 5.6834360499026637e+00 3.0030999999998553e+01 0 0 0
562 2 0.0000000000000000e+00 4.2625770374269996e+00 3.0030999999998553e+01 0 0 0
579 2 1.2305000000000001e+00 6.3938655561404980e+00 3.0030999999998553e+01 0 0 0
581 2 2.4610000000000003e+00 5.6834360499026637e+00 3.0030999999998553e+01 0 0 0
583 2 2.4610000000000003e+00 4.2625770374269996e+00 3.0030999999998553e+01 0 0 0
608 2 3.6914999999999996e+00 6.3938655561404980e+00 3.0030999999998553e+01 0 0 0
577 2 1.2305000000000001e+00 7.8147245686161639e+00 3.0030999999998553e+01 0 0 0
606 2 3.6914999999999996e+00 7.8147245686161639e+00 3.0030999999998553e+01 0 0 0
887 2 0.0000000000000000e+00 4.2625770374269996e+00 3.3327062445221848e+01 0 0 0
888 2 1.2305000000000001e+00 4.9730065436648339e+00 3.3327062445221848e+01 0 0 0
896 2 1.2305000000000001e+00 6.3938655561404980e+00 3.3327062445221848e+01 0 0 0
898 2 2.4610000000000003e+00 4.2625770374269996e+00 3.3327062445221848e+01 0 0 0
899 2 3.6914999999999996e+00 4.9730065436648339e+00 3.3327062445221848e+01 0 0 0
911 2 3.6914999999999996e+00 6.3938655561404980e+00 3.3327062445221848e+01 0 0 0
886 2 0.0000000000000000e+00 7.1042950623783341e+00 3.3327062445221848e+01 0 0 0
897 2 2.4610000000000003e+00 7.1042950623783341e+00 3.3327062445221848e+01 0 0 0
610 2 4.9220000000000006e+00 5.6834360499026637e+00 3.0030999999998553e+01 0 0 0
612 2 4.9220000000000006e+00 4.2625770374269978e+00 3.0030999999998553e+01 0 0 0
645 2 6.1524999999999999e+00 6.3938655561404980e+00 3.0030999999998553e+01 0 0 0
647 2 7.3829999999999991e+00 5.6834360499026637e+00 3.0030999999998553e+01 0 0 0
649 2 7.3829999999999991e+00 4.2625770374269996e+00 3.0030999999998553e+01 0 0 0
690 2 8.6135000000000002e+00 6.3938655561404980e+00 3.0030999999998553e+01 0 0 0
643 2 6.1524999999999999e+00 7.8147245686161639e+00 3.0030999999998553e+01 0 0 0
688 2 8.6135000000000002e+00 7.8147245686161639e+00 3.0030999999998553e+01 0 0 0
913 2 4.9220000000000006e+00 4.2625770374269978e+00 3.3327062445221848e+01 0 0 0
914 2 6.1524999999999999e+00 4.9730065436648339e+00 3.3327062445221848e+01 0 0 0
930 2 6.1524999999999999e+00 6.3938655561404980e+00 3.3327062445221848e+01 0 0 0
932 2 7.3829999999999991e+00 4.2625770374269996e+00 3.3327062445221848e+01 0 0 0
933 2 8.6135000000000002e+00 4.9730065436648339e+00 3.3327062445221848e+01 0 0 0
953 2 8.6135000000000002e+00 6.3938655561404980e+00 3.3327062445221848e+01 0 0 0
912 2 4.9220000000000006e+00 7.1042950623783341e+00 3.3327062445221848e+01 0 0 0
931 2 7.3830000000000009e+00 7.1042950623783341e+00 3.3327062445221848e+01 0 0 0
573 2 0.0000000000000000e+00 9.9460130873296642e+00 3.0030999999998553e+01 0 0 0
575 2 0.0000000000000000e+00 8.5251540748539991e+00 3.0030999999998553e+01 0 0 0
602 2 2.4610000000000003e+00 9.9460130873296642e+00 3.0030999999998553e+01 0 0 0
604 2 2.4610000000000003e+00 8.5251540748539991e+00 3.0030999999998553e+01 0 0 0
598 2 1.2305000000000001e+00 1.2077301606043163e+01 3.0030999999998553e+01 0 0 0
600 2 1.2305000000000001e+00 1.0656442593567498e+01 3.0030999999998553e+01 0 0 0
635 2 3.6914999999999996e+00 1.2077301606043163e+01 3.0030999999998553e+01 0 0 0
637 2 3.6914999999999996e+00 1.0656442593567499e+01 3.0030999999998553e+01 0 0 0
894 2 0.0000000000000000e+00 8.5251540748539991e+00 3.3327062445221848e+01 0 0 0
895 2 1.2305000000000001e+00 9.2355835810918343e+00 3.3327062445221848e+01 0 0 0
909 2 2.4610000000000003e+00 8.5251540748539991e+00 3.3327062445221848e+01 0 0 0
910 2 3.6915000000000004e+00 9.2355835810918343e+00 3.3327062445221848e+01 0 0 0
893 2 0.0000000000000000e+00 1.1366872099805333e+01 3.3327062445221848e+01 0 0 0
907 2 1.2305000000000001e+00 1.0656442593567498e+01 3.3327062445221848e+01 0 0 0
908 2 2.4610000000000003e+00 1.1366872099805333e+01 3.3327062445221848e+01 0 0 0
926 2 3.6914999999999996e+00 1.0656442593567499e+01 3.3327062445221848e+01 0 0 0
639 2 4.9220000000000006e+00 9.9460130873296642e+00 3.0030999999998553e+01 0 0 0
641 2 4.9220000000000006e+00 8.5251540748539991e+00 3.0030999999998553e+01 0 0 0
684 2 7.3830000000000009e+00 9.9460130873296642e+00 3.0030999999998553e+01 0 0 0
686 2 7.3830000000000009e+00 8.5251540748539991e+00 3.0030999999998553e+01 0 0 0
680 2 6.1524999999999999e+00 1.2077301606043163e+01 3.0030999999998553e+01 0 0 0
682 2 6.1524999999999999e+00 1.0656442593567499e+01 3.0030999999998553e+01 0 0 0
727 2 8.6135000000000002e+00 1.2077301606043163e+01 3.0030999999998553e+01 0 0 0
729 2 8.6134999999999984e+00 1.0656442593567498e+01 3.0030999999998553e+01 0 0 0
928 2 4.9220000000000006e+00 8.5251540748539991e+00 3.3327062445221848e+01 0 0 0
929 2 6.1524999999999999e+00 9.2355835810918343e+00 3.3327062445221848e+01 0 0 0
951 2 7.3830000000000009e+00 8.5251540748539991e+00 3.3327062445221848e+01 0 0 0
952 2 8.6134999999999984e+00 9.2355835810918343e+00 3.3327062445221848e+01 0 0 0
927 2 4.9220000000000006e+00 1.1366872099805333e+01 3.3327062445221848e+01 0 0 0
949 2 6.1524999999999999e+00 1.0656442593567499e+01 3.3327062445221848e+01 0 0 0
950 2 7.3829999999999991e+00 1.1366872099805333e+01 3.3327062445221848e+01 0 0 0
973 2 8.6134999999999984e+00 1.0656442593567498e+01 3.3327062445221848e+01 0 0 0
4962 1 4.4709023353845767e+00 2.4325371836934653e+00 3.6474974147249931e+01 1 -1 -1
3472 1 2.3183009160625385e+00 6.9766940476082373e-01 3.5650804192390957e+01 0 2 -1
4926 1 6.7899511446404786e+00 1.1186154693060755e+00 3.5747952395242237e+01 2 -1 -1
6081 1 9.0588763066809577e+00 2.4416610248641852e+00 3.6784438883663711e+01 0 1 0
5319 1 3.6387124087728795e+00 4.9839430535248184e+00 3.5679945085505786e+01 -1 0 0
6033 1 1.4308033322222529e+00 5.5892688204848300e+00 3.6856973835415701e+01 0 0 0
1856 1 8.7158425430387823e+00 5.0341682125082574e+00 3.6098005570365714e+01 -1 -1 -1
3711 1 6.0527829928770398e+00 6.2786773753239196e+00 3.6717501158685387e+01 -1 4 0
3547 1 1.0531602335425188e+00 8.1808196172235021e+00 3.5815589142623764e+01 2 -1 -1
4781 1 3.1893204436066123e+00 9.6381862381085686e+00 3.6708061985989836e+01 -1 0 0
1592 1 3.0261703845193728e+00 1.2054261983227526e+01 3.5644670774824682e+01 2 2 0
206 1 7.8102747498352318e+00 1.0066440836106997e+01 3.6919125407237189e+01 1 2 -1
5996 1 5.7032050536492882e+00 8.8462049812438348e+00 3.5749191273679287e+01 -1 1 0
1695 1 4.2066847518143797e+00 2.2888987407648762e+00 3.9229229931331162e+01 1 1 -1
200 1 2.2036687253774270e+00 4.7248399232919702e-01 4.0162376126402428e+01 3 1 -1
3039 1 8.6404519281852963e+00 2.3673664455010099e+00 3.9402867474303690e+01 -1 1 0
500 1 6.5177581585696824e+00 9.4998193285761445e-01 4.0323282151177949e+01 3 -2 0
6194 1 1.4677463390631356e+00 5.6133232257641028e+00 3.9724561239617763e+01 -2 1 0
4976 1 5.8756949717006526e+00 6.0855172656025056e+00 3.9454734544306966e+01 5 2 -1
4947 1 8.2682948375668328e+00 4.9806903386227273e+00 4.0414842622661936e+01 1 -2 0
4970 1 3.3219707399592995e+00 1.0025219166342417e+01 3.9580501411623310e+01 1 3 -1
1875 1 1.1262438151398799e+00 8.2242006431137522e+00 4.0352475844514558e+01 0 1 -1
1403 1 5.5712043460595790e+00 8.7686361212255370e+00 4.0556142441274872e+01 3 -1 0
3229 1 7.8456728670078499e+00 1.0170694744247408e+01 3.9715836730472972e+01 2 -1 -1
1906 1 1.9985663270800555e+00 3.3658822938351268e-01 4.2925832791561668e+01 -3 -3 -1
194 1 4.2059351510192986e+00 1.5632613748001258e+00 4.4099992961896561e+01 1 2 -1
3146 1 8.7434808544560934e+00 2.1549883374045757e+00 4.3816800817079880e+01 -2 -1 0
3238 1 6.6389184697922694e+00 5.9839606294696202e-01 4.3067021793648117e+01 0 -1 -1
2135 1 3.7925222562297898e+00 4.7713833222981004e+00 4.0786084613306507e+01 1 -1 0
1729 1 1.3609475715597030e+00 5.5724030343813578e+00 4.4190074536235748e+01 2 -1 -1
1345 1 3.7901352185359523e+00 4.2898207189834370e+00 4.3539447272316821e+01 -1 0 0
4530 1 1.1914612822622739e+00 8.0521682614507561e+00 4.3159421291346504e+01 3 -1 0
4446 1 8.1992508920882958e+00 4.7961106598790177e+00 4.3138385800666214e+01 1 1 0
3349 1 3.2278174416288157e+00 9.6443033875837347e+00 4.3967679961951227e+01 0 0 -1
3295 1 5.6383952037913367e+00 8.3383832406088789e+00 4.3287188026120454e+01 -2 -1 -1
6064 1 7.4885165661753348e+00 1.2017595719433965e+01 4.3276091031379075e+01 1 1 0
5103 1 7.5512857771950070e+00 9.5995784251452356e+00 4.4308825872668130e+01 -2 -1 -1
1889 1 4.1219729820855262e+00 1.2256231354902103e+00 4.6732639859222630e+01 0 2 -1
3212 1 1.8079868813923392e+00 2.4783654189428392e+00 4.7757405399506844e+01 0 3 0
3277 1 8.8031450972151184e+00 1.8554794042905902e+00 4.6544857138436974e+01 0 2 -1
6127 1 6.3259922753065734e+00 2.7805329002030787e+00 4.7453741368714816e+01 0 0 -1
3253 1 1.2908059821626960e+00 5.2288235403040009e+00 4.6820792298741658e+01 -1 1 -1
1501 1 5.8909437511271783e+00 5.5625156288259161e+00 4.7118005456711295e+01 1 2 -1
5234 1 8.1578402190493886e+00 6.8258003349894683e+00 4.7833515579901707e+01 1 1 -1
5140 1 5.7593951808481867e+00 5.7255175776621234e+00 4.4426399994126989e+01 -2 2 -1
1357 1 3.1420221704725853e+00 8.9126787714724607e+00 4.7055857000897447e+01 2 0 -1
3514 1 7.9350812708627441e+00 9.5174082368323134e+00 4.7052318221287521e+01 1 -1 -1
3462 1 5.5914680865712176e+00 1.0258128195640525e+01 4.7818760446488461e+01 -3 1 0
3047 1 1.9108915888461566e+00 2.0138757741788225e+00 5.0478207215768954e+01 0 -1 0
3210 1 4.1123531880378463e+00 3.6651180623101949e+00 5.1283604171549918e+01 1 -1 -1
2997 1 6.4387357965453811e+00 2.7118997885502165e+00 5.0059027980420581e+01 1 0 0
5215 1 8.5906004588743627e+00 3.8636680531694454e+00 5.1482862770745271e+01 4 3 -1
5080 1 6.7461799574339425e+00 1.5476915588161688e-01 5.1093210994330974e+01 2 -2 -1
6300 1 3.4557775473434384e+00 6.5462758198225570e+00 4.8230028664439445e+01 1 -2 0
1358 1 3.6474920704560159e+00 6.2582549312713631e+00 5.1054778231963198e+01 0 1 0
6286 1 8.1750635021901576e+00 6.8524010763099987e+00 5.0662785735393570e+01 -1 -1 0
4850 1 9.6767625256373502e-01 9.6735162049541934e+00 5.0740699518704609e+01 3 2 -1
4794 1 7.8995629642857645e-01 9.9438421413946116e+00 4.8022100116673002e+01 1 0 0
6298 1 5.7117272638012260e+00 1.0334063033866038e+01 5.0610938889761997e+01 0 -1 0
31 1 3.9328736092850374e+00 3.3776594966621500e+00 5.4448816519241937e+01 -2 1 0
1888 1 8.6614748204134226e+00 3.8746519266198631e+00 5.4365418730889658e+01 0 0 -1
4902 1 8.6621166635209743e+00 1.2398514031769921e+00 5.4868365973562739e+01 1 1 0
5040 1 1.3316153576996292e+00 6.6419919185998237e+00 5.4682840045191895e+01 0 2 -1
4785 1 1.1517553289306750e+00 7.1997840412823750e+00 5.1714252072121965e+01 1 -2 -1
6158 1 6.2860010146537952e+00 7.2666298241504093e+00 5.4646087279401854e+01 0 -3 0
1972 1 5.9131913566188157e+00 7.8498180049660000e+00 5.1969688704342985e+01 0 -1 0
4698 1 3.4434193477787893e+00 1.0676299263355935e+01 5.1892555361528821e+01 -2 -1 -1
5305 1 3.1577127908284335e+00 1.0757414372314818e+01 5.4956733898731180e+01 0 1 0
3540 1 7.5968034081620015e+00 1.1584387962962563e+01 5.2345546722741830e+01 3 1 -1
1303 1 4.0713682271111642e+00 7.7078165956034161e-01 5.5485062767877139e+01 0 4 0
3545 1 4.3621650681294186e+00 2.2705019986875910e-01 5.8257173308645740e+01 -1 1 -1
1964 1 1.8734262989583965e+00 3.9913184627372500e+00 5.8309299455509027e+01 0 -1 -1
6244 1 1.4819011679805461e+00 3.9942685490898850e+00 5.5611322893526349e+01 -2 -3 0
4844 1 8.8528244210830849e+00 6.6148245002613881e-01 5.7532468959770583e+01 -2 2 -1
4969 1 3.9213813406987383e+00 7.8541306910290620e+00 5.8430309104997981e+01 3 1 0
3144 1 3.6831440139227478e+00 8.1162577055884864e+00 5.5548041154364938e+01 1 0 0
1458 1 6.0648500508676992e+00 4.8259361279627209e+00 5.5640908409706654e+01 3 1 0
5084 1 6.3314903110546021e+00 4.6954707267106102e+00 5.8502459784637416e+01 1 2 0
2026 1 5.7949216052961683e-01 1.1883771285018589e+01 5.5914590968229113e+01 -1 0 0
4675 1 7.6114005167053058e+00 1.1342033377740295e+01 5.5187286215107569e+01 -2 2 0
344 1 8.5535954051632448e+00 8.8495307383760036e+00 5.5987798142215851e+01 -1 -1 0
4618 1 5.1882739558496498e+00 1.2119191535104576e+01 5.6320368748556128e+01 4 0 -1
1737 1 2.8443561282964547e+00 1.3066815351446801e+01 2.5718321481200670e+00 4 -2 0
1814 1 2.5231261175450812e+00 1.5808709607403944e+01 1.9719960606455964e+00 1 1 0
3447 1 7.7912673655920903e+00 1.3454436470025209e+01 2.8798875866853644e+00 0 1 0
3094 1 7.5730361443794054e+00 1.6100571456838999e+01 1.9240972313600972e+00 0 -1 0
1893 1 5.3444394283589274e+00 1.2367329864601613e+01 1.6483184787894603e+00 2 0 0
1400 1 3.2397658674652725e-02 1.6821086183885836e+01 3.0121369487921461e+00 7 1 1
3507 1 1.3855973941442623e-01 1.9280773844698288e+01 2.0064561817803801e+00 -2 -2 0
2119 1 4.9439394456772732e+00 1.9435468826505964e+01 2.2377297935195375e+00 0 2 1
3 1 5.1438419544995089e+00 1.6830120836946477e+01 2.9487343341542429e+00 3 -3 0
5027 1 9.8031125498103204e+00 1.7538306961837488e+01 2.8950550041287042e+00 -1 1 0
4959 1 2.4468004750859045e+00 2.0623867953517109e+01 3.3464306956095395e+00 1 0 0
5022 1 2.0384313483900964e+00 2.3165996411446535e+01 2.5114257437419170e+00 -1 0 0
3181 1 9.3316078563663023e+00 2.0476223085372180e+01 2.3219370673951980e+00 1 -6 0
1578 1 6.8526383979641592e+00 2.3632932040618428e+01 2.4663777496166004e+00 0 -1 1
71 1 6.8356669536272614e+00 2.0961999553983347e+01 3.3899623710380098e+00 1 -2 1
4819 1 3.1257254366905642e+00 1.3033484744960337e+01 5.4779233229484756e+00 -2 -1 0
207 1 8.7040978354321319e-01 1.3855255913542530e+01 6.5423014676267810e+00 0 0 1
1354 1 5.7348387244808006e+00 1.4171508547456762e+01 6.1362785379987717e+00 0 -3 1
1620 1 8.1414424023213225e+00 1.3059551905670808e+01 5.5555897105511383e+00 1 3 0
2063 1 6.0949075890339555e-01 1.6410884821312738e+01 5.6532046220141368e+00 2 0 1
4672 1 3.0195982389525242e+00 1.7806096842818921e+01 6.4584977684986562e+00 0 -1 1
3092 1 2.6271397127369749e+00 2.0368258016593888e+01 6.1432250849152297e+00 -1 2 1
4747 1 5.4245260225269014e+00 1.6959360459901657e+01 5.4121523484455558e+00 2 1 0
2091 1 7.5024323186501549e+00 1.8386089720480808e+01 6.4480477850285149e+00 -3 0 1
2036 1 4.6171150797708140e+00 2.2176783434097995e+01 6.9475921121781976e+00 -1 2 0
4840 1 4.2335723864094819e+00 2.4490181072406891e+01 5.8510928695229367e+00 2 1 0
4977 1 9.3993977434750207e+00 2.2091655016662273e+01 6.9503457707119045e+00 1 1 0
6123 1 7.0372045444794606e+00 2.0910142855100190e+01 6.0189647693356081e+00 2 -2 1
1791 1 6.5307136545960087e-01 1.3331970089053115e+01 9.2861831614278945e+00 0 2 1
3404 1 2.5248137449169294e-01 1.6068744167275991e+01 9.8889579156459142e+00 0 0 0
1274 1 3.1736074586313436e+00 1.2527120394304722e+01 9.8192424429055176e+00 0 -1 1
2001 1 5.3249795220741891e+00 1.4148492955118622e+01 9.0380226414679150e+00 3 0 0
3485 1 7.8121804173367719e+00 1.3107438007065966e+01 1.0176891885962068e+01 -3 0 0
5024 1 2.6348714795081309e+00 1.7712587784379409e+01 9.4532049386012549e+00 -3 1 0
239 1 2.3258627153253215e+00 2.0297734270326785e+01 1.0380482739366778e+01 1 -2 0
2104 1 5.2233352602035961e+00 1.6767203964180830e+01 1.0373248375413896e+01 0 2 0
3732 1 7.6164758304062135e+00 1.7766665384091933e+01 9.2610558061674020e+00 2 -2 1
4649 1 6.8267931281798253e+00 2.0268920170208581e+01 1.0257435605989627e+01 2 1 1
5129 1 4.8250208029115003e+00 2.1464709960622049e+01 9.6868170395954696e+00 1 0 0
238 1 4.0378483135652425e+00 2.4285050978467567e+01 1.0697927521926728e+01 -2 3 0
1833 1 1.4830252733271720e-01 2.1799901481138399e+01 9.5946408147668674e+00 1 2 0
4911 1 8.9577982615928136e+00 2.4277855999903874e+01 1.0588334895489668e+01 2 2 0
1638 1 8.9949225369863868e+00 2.1789893296103941e+01 9.6540590897072924e+00 1 -3 0
2024 1 3.2885739132276099e+00 1.2423391828717653e+01 1.2467555124270930e+01 2 5 0
6204 1 4.3317519793276849e-01 1.5959436432344244e+01 1.2679844964931604e+01 -1 3 1
1494 1 2.6667092993112989e+00 1.4793687147221481e+01 1.3645123897177040e+01 1 0 1
3263 1 7.5201706828984705e+00 1.5220068554757047e+01 1.3632015205385743e+01 1 -1 0
1694 1 5.0110485752947165e+00 1.6192896468096126e+01 1.3061381314039197e+01 3 0 0
2861 1 7.9539848308132406e+00 1.2474230138972155e+01 1.2928426323448575e+01 2 -2 1
5288 1 4.5155905771845415e+00 1.8783935625615356e+01 1.4235326127197856e+01 1 3 1
6226 1 2.4811477762028646e+00 2.0146301006647672e+01 1.3278209349843742e+01 0 2 0
493 1 1.6684400034085911e-01 1.8716492745452232e+01 1.3839893423258532e+01 -2 1 1
1706 1 6.7438275438250619e+00 2.0174928841579771e+01 1.3193535444257215e+01 3 3 0
1456 1 9.3924797548606112e+00 1.8958447033475689e+01 1.3720039448473791e+01 -2 1 1
2849 1 9.8176321136566767e+00 1.6480216161739822e+01 1.2890717172098803e+01 1 1 1