LAMMPS data file via write_data, version 16 Mar 2018, timestep = 100000

6337 atoms
2 atom types

0.0000000000000000e+00 4.9219999999999999e+01 xlo xhi
0.0000000000000000e+00 4.9019635930410494e+01 ylo yhi
2.5522818232672222e+00 5.7509718176731838e+01 zlo zhi

Masses

1 18.015
2 12.01

Atoms # atomic

70 1 1.9448966429405468e+00 7.8394179188014350e+00 6.1179208823556621e+00 0 1 1
3266 1 6.0304371003710884e+00 3.3236796765505958e+00 5.5504525068103856e+00 0 1 1
1429 1 8.6912534910330397e+00 3.2001027316452584e+00 6.3752167746266952e+00 0 0 0
189 1 6.0469205159093615e+00 9.0368218779535425e+00 3.1234361472203434e+00 1 0 0
5285 1 4.6943134510268205e+00 2.6961154148220214e+00 9.2360873482434975e+00 -1 0 0
3588 1 4.6731007080991160e+00 7.3937602577797517e+00 5.1675935117515843e+00 1 0 0
1741 1 4.1872856871057955e+00 4.8959308275587015e+00 3.9129781474481611e+00 0 -1 0
3236 1 8.3170177453977878e+00 5.6856348911986636e+00 4.0919465967516242e+00 1 0 1
1945 1 9.3778456711257281e+00 1.0168641616632669e+01 8.1917592936886265e+00 0 0 0
1578 1 7.1164327058389203e+00 6.8308559600948193e+00 6.3471556872978177e+00 1 0 1
4919 1 2.9488079641335672e+00 1.0579967238266466e+01 4.8271849360715287e+00 0 0 0
4853 1 1.6462331400425616e+00 8.0903403942785932e+00 2.9260562263344303e+00 0 0 1
1543 1 7.5011696026194548e+00 9.5475869237423083e+00 6.0949773896055319e+00 0 0 1
5057 1 6.5040979092024163e+00 1.1766041263003544e+01 9.0049736444888353e+00 0 0 0
4883 1 1.8869592500706835e+00 7.6068676861229134e-01 6.5991560572021539e+00 1 1 0
4845 1 4.3955930084150001e+00 1.2450394016295738e+00 6.6757593869760328e+00 1 1 0
410 1 2.0464536530923225e+00 5.1422050229094385e+00 5.9167305546582050e+00 0 1 0
6168 1 8.5955802595736075e-01 2.2832774420680249e+00 4.6272829245124125e+00 0 1 1
5127 1 4.8029370302384846e+00 1.3952505544188583e+00 3.7678328364406148e+00 0 0 0
1785 1 2.9940059070465006e+00 4.5342536307383083e+00 8.4984641729947192e+00 1 1 0
2883 1 8.8971994691166447e+00 5.9856305604571078e+00 8.3169330542284428e+00 0 0 1
4683 1 5.3111533915684657e+00 1.1159525727902766e+01 6.5256672720647639e+00 0 0 1
2043 1 7.9291798027852067e-01 1.1828262235069094e+00 8.9470361721163361e+00 1 1 0
6029 1 9.6002127094081740e+00 9.4183238351255358e+00 4.4081584466652632e+00 1 -1 1
3299 1 6.6829663566680308e-01 1.1366294119276981e+01 6.7279503808169920e+00 1 0 0
4515 1 3.0587447693888818e+00 1.1739615157672034e+01 8.2952868395267103e+00 -1 1 0
4565 1 5.3051918407405170e+00 6.4008799826926897e+00 8.7548847707357105e+00 1 0 1
6222 1 2.3754125330453513e+00 7.5575724385926399e+00 9.0534085823294053e+00 0 1 1
418 1 9.1714804319786420e+00 2.5683992381997756e-01 6.7264558203078231e+00 1 0 0
1397 1 4.4412569513763565e+00 4.6063441050624199e-01 1.0753999465783405e+01 0 0 0
2142 1 6.6522771623852428e-01 1.1756543680544699e+01 1.1682511752286718e+01 1 0 1
6072 1 8.7700338788062524e+00 8.5781774569489966e-01 1.1839929123414985e+01 1 0 1
322 1 6.4984044293844088e+00 4.5561668722019188e+00 1.0111030002801446e+01 0 1 0
5315 1 4.6562965104213925e+00 5.9509313100156476e+00 1.5578622770515132e+01 0 0 0
3416 1 9.3972324163631544e+00 7.4470092880744359e+00 1.0551682028451111e+01 0 0 1
1988 1 5.6514387345970860e+00 7.8827352438342109e+00 1.2336733025849849e+01 0 0 0
5182 1 7.5464223719699464e-02 7.6924342172735036e+00 1.0667340049510898e+01 0 1 0
1724 1 6.3348353134057733e+00 4.9785904854134833e+00 1.3009028237454743e+01 0 0 0
2120 1 2.7465851993360313e+00 1.0056366799238805e+01 1.0438727653676327e+01 0 1 1
26 1 7.0803164427105925e+00 1.0863720262678902e+01 1.3895415102486925e+01 -1 0 1
1677 1 7.3252726460296769e-01 3.6300884568375853e+00 1.0371188817257952e+01 0 1 0
6322 1 7.8516676411482473e+00 9.6254554717467897e+00 1.0735833134186450e+01 1 0 0
6209 1 2.7669672277808441e+00 3.2550313162352609e+00 1.2160275243480319e+01 1 1 1
3566 1 4.7956594726712884e+00 1.4559056807296706e+00 1.3268373213517517e+01 1 0 0
24 1 3.2604898453271494e+00 6.0871136075143024e+00 1.2790780487473997e+01 0 2 1
3247 1 7.0261530124717808e+00 7.9825844834477016e+00 1.5062016840109782e+01 0 0 1
5091 1 7.3501205052051510e+00 2.1877378312171456e+00 1.4091897305964837e+01 1 1 0
205 1 4.2785199971426202e+00 1.0387190270715116e+01 1.3108787649526482e+01 0 0 0
2015 1 2.0345631528670167e+00 8.4246026075636475e+00 1.3533764404309796e+01 1 0 0
5323 1 9.1628830784818884e+00 3.2743829642478990e+00 9.6955608455554199e+00 1 1 1
79 1 8.8539083158987779e+00 6.0607860266259639e+00 1.3151355432037731e+01 1 0 1
259 1 6.4488654980548454e-02 5.7385388057596276e-01 1.5017469984710564e+01 1 0 1
6195 1 6.3036437083420238e-01 3.1756595233123313e+00 1.4155159332857336e+01 -1 1 1
3440 1 2.6527845738014646e+00 1.5599884222138778e+00 1.7074981684686101e+01 1 1 0
129 1 3.0965920690578423e+00 4.4090788852399463e+00 1.7529508540659378e+01 1 1 1
3379 1 6.3340952670134225e+00 6.8687089975305937e-01 1.8188703000166939e+01 1 1 0
3565 1 6.0987798925653358e+00 5.0978695292294827e+00 1.8075938274792819e+01 0 -1 0
4902 1 1.0734252525841022e+00 6.8926977619806840e-01 1.9345468290556408e+01 1 1 1
2863 1 5.3708481719658883e+00 4.3171587295534710e+00 2.0613083704321006e+01 1 0 1
316 1 3.4338258084163735e+00 6.4049517054689264e-01 2.1481075030089944e+01 1 0 0
10 1 7.8275813856340530e+00 9.0930071474940597e+00 2.0468961128707996e+01 1 1 0
4972 1 7.9283612467986311e+00 7.3038652415022645e+00 1.8102588602829613e+01 0 0 0
6207 1 2.3421823462438613e+00 1.0726892666185075e+01 2.0982580809459506e+01 1 0 1
71 1 5.5890427496949613e+00 1.1556361966026023e+01 1.7510530843993326e+01 0 -1 1
5031 1 3.7217989635958655e+00 8.5067104848508812e+00 2.0195011397646113e+01 1 0 0
3571 1 8.1570918844533011e+00 5.4636829868954111e+00 2.2103627098840860e+01 1 0 0
1991 1 5.2929964868982919e+00 8.7296395348381548e+00 1.7485100920015789e+01 1 1 1
476 1 6.3234500324095730e+00 1.1541204649039802e+01 2.0325279265681115e+01 0 0 0
1959 1 2.7945699858094035e+00 8.1397706300657973e+00 1.6489933630072450e+01 0 1 0
417 1 2.6193418016806382e+00 4.7734401928812611e+00 2.0625884964242616e+01 0 0 0
3527 1 1.1830709128887997e+00 6.2333706850448776e+00 1.7940383496550382e+01 0 0 0
3160 1 9.2749259273162341e+00 9.2792847616521321e+00 1.6836628474160726e+01 1 1 1
1602 1 5.9943496478703171e+00 7.3568583303668182e+00 2.1518687366418590e+01 0 1 1
361 1 5.9708825286602627e+00 1.5668889874122145e+00 2.0866644002268664e+01 0 0 0
2837 1 1.3253914025019362e+00 7.1505255647875012e+00 2.1444194125450814e+01 0 0 1
6286 1 7.4990004135418165e+00 2.9274668665673147e+00 1.6873012764856501e+01 1 0 1
5013 1 5.0906253681988511e+00 1.1613292536401744e+01 2.2969830506819537e+01 1 0 0
1265 1 8.0713041818262194e+00 1.1732976319841764e+01 1.6336538262527931e+01 0 0 1
246 1 6.9906928635223116e+00 3.4916746766645095e+00 2.3437307027479594e+01 0 0 0
3312 1 4.5986182658055110e+00 4.4624041583163656e+00 2.4493195503433501e+01 1 0 0
3475 1 5.0984809281562535e+00 7.3649319049676985e+00 2.3960393823152767e+01 1 0 0
728 2 8.6134999999999984e+00 1.0656442593567498e+01 2.6866170994701044e+01 0 0 0
142 1 2.4981763627232167e+00 8.4902544336444965e+00 2.3739815619224046e+01 0 1 0
642 2 6.1524999999999999e+00 9.2355835810918343e+00 2.6866170994701044e+01 0 0 0
2002 1 9.3834523281066193e+00 1.9665394775448919e+00 2.4190791527037259e+01 1 1 0
3382 1 9.2681217928911330e+00 6.8939725455553829e+00 2.4405746794859969e+01 1 0 1
4786 1 8.5229868608891604e+00 9.3380950970045742e+00 2.3622260068992720e+01 0 1 0
4437 1 2.3776786989581020e+00 1.1125059974277958e+01 2.3937791247398987e+01 1 1 1
681 2 6.1524999999999999e+00 1.0656442593567499e+01 2.6866170994701044e+01 0 0 0
1359 1 6.1013150888181911e-01 4.4777120671669168e+00 2.4576055280816508e+01 1 0 1
5293 1 6.1163577908214082e+00 9.8390828024235759e+00 2.4575518926635688e+01 0 0 0
554 2 0.0000000000000000e+00 2.8417180249513345e+00 2.6866170994701044e+01 0 0 0
556 2 0.0000000000000000e+00 0.0000000000000000e+00 2.6866170994701044e+01 0 0 0
558 2 1.2305000000000001e+00 7.1042950623783474e-01 2.6866170994701044e+01 0 0 0
565 2 1.2305000000000001e+00 2.1312885187134998e+00 2.6866170994701044e+01 0 0 0
567 2 2.4610000000000003e+00 2.8417180249513345e+00 2.6866170994701044e+01 0 0 0
569 2 2.4610000000000003e+00 0.0000000000000000e+00 2.6866170994701044e+01 0 0 0
571 2 3.6915000000000004e+00 7.1042950623783474e-01 2.6866170994701044e+01 0 0 0
586 2 3.6914999999999996e+00 2.1312885187134998e+00 2.6866170994701044e+01 0 0 0
588 2 4.9220000000000006e+00 2.8417180249513332e+00 2.6866170994701044e+01 0 0 0
590 2 4.9220000000000006e+00 0.0000000000000000e+00 2.6866170994701044e+01 0 0 0
592 2 6.1524999999999999e+00 7.1042950623783407e-01 2.6866170994701044e+01 0 0 0
615 2 6.1524999999999999e+00 2.1312885187134989e+00 2.6866170994701044e+01 0 0 0
617 2 7.3829999999999991e+00 2.8417180249513345e+00 2.6866170994701044e+01 0 0 0
619 2 7.3829999999999991e+00 0.0000000000000000e+00 2.6866170994701044e+01 0 0 0
621 2 8.6134999999999984e+00 7.1042950623783407e-01 2.6866170994701044e+01 0 0 0
652 2 8.6134999999999984e+00 2.1312885187135002e+00 2.6866170994701044e+01 0 0 0
561 2 0.0000000000000000e+00 4.2625770374269996e+00 2.6866170994701044e+01 0 0 0
563 2 1.2305000000000001e+00 4.9730065436648339e+00 2.6866170994701044e+01 0 0 0
578 2 1.2305000000000001e+00 6.3938655561404980e+00 2.6866170994701044e+01 0 0 0
582 2 2.4610000000000003e+00 4.2625770374269996e+00 2.6866170994701044e+01 0 0 0
584 2 3.6914999999999996e+00 4.9730065436648339e+00 2.6866170994701044e+01 0 0 0
607 2 3.6914999999999996e+00 6.3938655561404980e+00 2.6866170994701044e+01 0 0 0
559 2 0.0000000000000000e+00 7.1042950623783341e+00 2.6866170994701044e+01 0 0 0
580 2 2.4610000000000003e+00 7.1042950623783341e+00 2.6866170994701044e+01 0 0 0
611 2 4.9220000000000006e+00 4.2625770374269978e+00 2.6866170994701044e+01 0 0 0
613 2 6.1524999999999999e+00 4.9730065436648339e+00 2.6866170994701044e+01 0 0 0
644 2 6.1524999999999999e+00 6.3938655561404980e+00 2.6866170994701044e+01 0 0 0
648 2 7.3829999999999991e+00 4.2625770374269996e+00 2.6866170994701044e+01 0 0 0
650 2 8.6135000000000002e+00 4.9730065436648339e+00 2.6866170994701044e+01 0 0 0
689 2 8.6135000000000002e+00 6.3938655561404980e+00 2.6866170994701044e+01 0 0 0
609 2 4.9220000000000006e+00 7.1042950623783341e+00 2.6866170994701044e+01 0 0 0
646 2 7.3830000000000009e+00 7.1042950623783341e+00 2.6866170994701044e+01 0 0 0
574 2 0.0000000000000000e+00 8.5251540748539991e+00 2.6866170994701044e+01 0 0 0
576 2 1.2305000000000001e+00 9.2355835810918343e+00 2.6866170994701044e+01 0 0 0
603 2 2.4610000000000003e+00 8.5251540748539991e+00 2.6866170994701044e+01 0 0 0
605 2 3.6915000000000004e+00 9.2355835810918343e+00 2.6866170994701044e+01 0 0 0
572 2 0.0000000000000000e+00 1.1366872099805333e+01 2.6866170994701044e+01 0 0 0
599 2 1.2305000000000001e+00 1.0656442593567498e+01 2.6866170994701044e+01 0 0 0
601 2 2.4610000000000003e+00 1.1366872099805333e+01 2.6866170994701044e+01 0 0 0
636 2 3.6914999999999996e+00 1.0656442593567499e+01 2.6866170994701044e+01 0 0 0
687 2 8.6134999999999984e+00 9.2355835810918343e+00 2.6866170994701044e+01 0 0 0
640 2 4.9220000000000006e+00 8.5251540748539991e+00 2.6866170994701044e+01 0 0 0
685 2 7.3830000000000009e+00 8.5251540748539991e+00 2.6866170994701044e+01 0 0 0
683 2 7.3829999999999991e+00 1.1366872099805333e+01 2.6866170994701044e+01 0 0 0
638 2 4.9220000000000006e+00 1.1366872099805333e+01 2.6866170994701044e+01 0 0 0
1898 1 5.0132204554149293e+00 1.0466151390355980e+00 2.4176351231315927e+01 0 1 0
1989 1 2.4746807133505722e+00 3.7870704673466489e-02 2.4404874334271700e+01 1 1 0
330 1 2.5196665586428417e+00 3.0476440348808400e+00 2.3210821578372933e+01 1 1 0
555 2 0.0000000000000000e+00 1.4208590124756650e+00 3.0030999999999565e+01 0 0 0
557 2 0.0000000000000000e+00 0.0000000000000000e+00 3.0030999999999565e+01 0 0 0
566 2 1.2305000000000001e+00 2.1312885187134998e+00 3.0030999999999565e+01 0 0 0
568 2 2.4610000000000003e+00 1.4208590124756650e+00 3.0030999999999565e+01 0 0 0
570 2 2.4610000000000003e+00 0.0000000000000000e+00 3.0030999999999565e+01 0 0 0
587 2 3.6914999999999996e+00 2.1312885187134998e+00 3.0030999999999565e+01 0 0 0
564 2 1.2305000000000001e+00 3.5521475311891644e+00 3.0030999999999565e+01 0 0 0
585 2 3.6914999999999996e+00 3.5521475311891644e+00 3.0030999999999565e+01 0 0 0
883 2 0.0000000000000000e+00 2.8417180249513345e+00 3.3195829005297981e+01 0 0 0
884 2 0.0000000000000000e+00 0.0000000000000000e+00 3.3195829005297981e+01 0 0 0
885 2 1.2305000000000001e+00 7.1042950623783474e-01 3.3195829005297981e+01 0 0 0
889 2 1.2305000000000001e+00 2.1312885187134998e+00 3.3195829005297981e+01 0 0 0
890 2 2.4610000000000003e+00 2.8417180249513345e+00 3.3195829005297981e+01 0 0 0
891 2 2.4610000000000003e+00 0.0000000000000000e+00 3.3195829005297981e+01 0 0 0
892 2 3.6915000000000004e+00 7.1042950623783474e-01 3.3195829005297981e+01 0 0 0
900 2 3.6914999999999996e+00 2.1312885187134998e+00 3.3195829005297981e+01 0 0 0
589 2 4.9220000000000006e+00 1.4208590124756650e+00 3.0030999999999565e+01 0 0 0
591 2 4.9220000000000006e+00 0.0000000000000000e+00 3.0030999999999565e+01 0 0 0
616 2 6.1524999999999999e+00 2.1312885187134989e+00 3.0030999999999565e+01 0 0 0
618 2 7.3829999999999991e+00 1.4208590124756659e+00 3.0030999999999565e+01 0 0 0
620 2 7.3829999999999991e+00 0.0000000000000000e+00 3.0030999999999565e+01 0 0 0
653 2 8.6134999999999984e+00 2.1312885187135002e+00 3.0030999999999565e+01 0 0 0
614 2 6.1524999999999999e+00 3.5521475311891644e+00 3.0030999999999565e+01 0 0 0
651 2 8.6134999999999984e+00 3.5521475311891657e+00 3.0030999999999565e+01 0 0 0
901 2 4.9220000000000006e+00 2.8417180249513332e+00 3.3195829005297981e+01 0 0 0
902 2 4.9220000000000006e+00 0.0000000000000000e+00 3.3195829005297981e+01 0 0 0
903 2 6.1524999999999999e+00 7.1042950623783407e-01 3.3195829005297981e+01 0 0 0
915 2 6.1524999999999999e+00 2.1312885187134989e+00 3.3195829005297981e+01 0 0 0
916 2 7.3829999999999991e+00 2.8417180249513345e+00 3.3195829005297981e+01 0 0 0
917 2 7.3829999999999991e+00 0.0000000000000000e+00 3.3195829005297981e+01 0 0 0
918 2 8.6134999999999984e+00 7.1042950623783407e-01 3.3195829005297981e+01 0 0 0
934 2 8.6134999999999984e+00 2.1312885187135002e+00 3.3195829005297981e+01 0 0 0
560 2 0.0000000000000000e+00 5.6834360499026637e+00 3.0030999999999565e+01 0 0 0
562 2 0.0000000000000000e+00 4.2625770374269996e+00 3.0030999999999565e+01 0 0 0
579 2 1.2305000000000001e+00 6.3938655561404980e+00 3.0030999999999565e+01 0 0 0
581 2 2.4610000000000003e+00 5.6834360499026637e+00 3.0030999999999565e+01 0 0 0
583 2 2.4610000000000003e+00 4.2625770374269996e+00 3.0030999999999565e+01 0 0 0
608 2 3.6914999999999996e+00 6.3938655561404980e+00 3.0030999999999565e+01 0 0 0
577 2 1.2305000000000001e+00 7.8147245686161639e+00 3.0030999999999565e+01 0 0 0
606 2 3.6914999999999996e+00 7.8147245686161639e+00 3.0030999999999565e+01 0 0 0
887 2 0.0000000000000000e+00 4.2625770374269996e+00 3.3195829005297981e+01 0 0 0
888 2 1.2305000000000001e+00 4.9730065436648339e+00 3.3195829005297981e+01 0 0 0
896 2 1.2305000000000001e+00 6.3938655561404980e+00 3.3195829005297981e+01 0 0 0
898 2 2.4610000000000003e+00 4.2625770374269996e+00 3.3195829005297981e+01 0 0 0
899 2 3.6914999999999996e+00 4.9730065436648339e+00 3.3195829005297981e+01 0 0 0
911 2 3.6914999999999996e+00 6.3938655561404980e+00 3.3195829005297981e+01 0 0 0
886 2 0.0000000000000000e+00 7.1042950623783341e+00 3.3195829005297981e+01 0 0 0
897 2 2.4610000000000003e+00 7.1042950623783341e+00 3.3195829005297981e+01 0 0 0
610 2 4.9220000000000006e+00 5.6834360499026637e+00 3.0030999999999565e+01 0 0 0
612 2 4.9220000000000006e+00 4.2625770374269978e+00 3.0030999999999565e+01 0 0 0
645 2 6.1524999999999999e+00 6.3938655561404980e+00 3.0030999999999565e+01 0 0 0
647 2 7.3829999999999991e+00 5.6834360499026637e+00 3.0030999999999565e+01 0 0 0
649 2 7.3829999999999991e+00 4.2625770374269996e+00 3.0030999999999565e+01 0 0 0
690 2 8.6135000000000002e+00 6.3938655561404980e+00 3.0030999999999565e+01 0 0 0
643 2 6.1524999999999999e+00 7.8147245686161639e+00 3.0030999999999565e+01 0 0 0
688 2 8.6135000000000002e+00 7.8147245686161639e+00 3.0030999999999565e+01 0 0 0
913 2 4.9220000000000006e+00 4.2625770374269978e+00 3.3195829005297981e+01 0 0 0
914 2 6.1524999999999999e+00 4.9730065436648339e+00 3.3195829005297981e+01 0 0 0
930 2 6.1524999999999999e+00 6.3938655561404980e+00 3.3195829005297981e+01 0 0 0
932 2 7.3829999999999991e+00 4.2625770374269996e+00 3.3195829005297981e+01 0 0 0
933 2 8.6135000000000002e+00 4.9730065436648339e+00 3.3195829005297981e+01 0 0 0
953 2 8.6135000000000002e+00 6.3938655561404980e+00 3.3195829005297981e+01 0 0 0
912 2 4.9220000000000006e+00 7.1042950623783341e+00 3.3195829005297981e+01 0 0 0
931 2 7.3830000000000009e+00 7.1042950623783341e+00 3.3195829005297981e+01 0 0 0
573 2 0.0000000000000000e+00 9.9460130873296642e+00 3.0030999999999565e+01 0 0 0
575 2 0.0000000000000000e+00 8.5251540748539991e+00 3.0030999999999565e+01 0 0 0
602 2 2.4610000000000003e+00 9.9460130873296642e+00 3.0030999999999565e+01 0 0 0
604 2 2.4610000000000003e+00 8.5251540748539991e+00 3.0030999999999565e+01 0 0 0
598 2 1.2305000000000001e+00 1.2077301606043163e+01 3.0030999999999565e+01 0 0 0
600 2 1.2305000000000001e+00 1.0656442593567498e+01 3.0030999999999565e+01 0 0 0
635 2 3.6914999999999996e+00 1.2077301606043163e+01 3.0030999999999565e+01 0 0 0
637 2 3.6914999999999996e+00 1.0656442593567499e+01 3.0030999999999565e+01 0 0 0
894 2 0.0000000000000000e+00 8.5251540748539991e+00 3.3195829005297981e+01 0 0 0
895 2 1.2305000000000001e+00 9.2355835810918343e+00 3.3195829005297981e+01 0 0 0
909 2 2.4610000000000003e+00 8.5251540748539991e+00 3.3195829005297981e+01 0 0 0
910 2 3.6915000000000004e+00 9.2355835810918343e+00 3.3195829005297981e+01 0 0 0
893 2 0.0000000000000000e+00 1.1366872099805333e+01 3.3195829005297981e+01 0 0 0
907 2 1.2305000000000001e+00 1.0656442593567498e+01 3.3195829005297981e+01 0 0 0
908 2 2.4610000000000003e+00 1.1366872099805333e+01 3.3195829005297981e+01 0 0 0
926 2 3.6914999999999996e+00 1.0656442593567499e+01 3.3195829005297981e+01 0 0 0
639 2 4.9220000000000006e+00 9.9460130873296642e+00 3.0030999999999565e+01 0 0 0
641 2 4.9220000000000006e+00 8.5251540748539991e+00 3.0030999999999565e+01 0 0 0
684 2 7.3830000000000009e+00 9.9460130873296642e+00 3.0030999999999565e+01 0 0 0
686 2 7.3830000000000009e+00 8.5251540748539991e+00 3.0030999999999565e+01 0 0 0
680 2 6.1524999999999999e+00 1.2077301606043163e+01 3.0030999999999565e+01 0 0 0
682 2 6.1524999999999999e+00 1.0656442593567499e+01 3.0030999999999565e+01 0 0 0
727 2 8.6135000000000002e+00 1.2077301606043163e+01 3.0030999999999565e+01 0 0 0
729 2 8.6134999999999984e+00 1.0656442593567498e+01 3.0030999999999565e+01 0 0 0
928 2 4.9220000000000006e+00 8.5251540748539991e+00 3.3195829005297981e+01 0 0 0
929 2 6.1524999999999999e+00 9.2355835810918343e+00 3.3195829005297981e+01 0 0 0
951 2 7.3830000000000009e+00 8.5251540748539991e+00 3.3195829005297981e+01 0 0 0
952 2 8.6134999999999984e+00 9.2355835810918343e+00 3.3195829005297981e+01 0 0 0
927 2 4.9220000000000006e+00 1.1366872099805333e+01 3.3195829005297981e+01 0 0 0
949 2 6.1524999999999999e+00 1.0656442593567499e+01 3.3195829005297981e+01 0 0 0
950 2 7.3829999999999991e+00 1.1366872099805333e+01 3.3195829005297981e+01 0 0 0
973 2 8.6134999999999984e+00 1.0656442593567498e+01 3.3195829005297981e+01 0 0 0
4876 1 7.5542476773857379e+00 7.7191569711435037e-01 3.6073371364706794e+01 0 1 -1
6143 1 3.3563239006264620e+00 3.8403747804274739e+00 3.5243646070321923e+01 1 1 0
4732 1 7.6670386288910279e+00 7.5329070348496856e+00 3.6101362473289278e+01 0 1 -1
5243 1 4.6886157903044472e+00 1.1606401562375264e+00 3.5662363818936868e+01 1 1 0
2829 1 3.0556756201648780e+00 6.6605251631038831e+00 3.6483166968980299e+01 1 0 0
3083 1 3.9775175305805130e+00 1.0958156995270175e+01 3.5905771753144414e+01 -1 0 0
2941 1 9.1874450603283575e-01 1.1598461961879371e+01 3.5533582195449526e+01 0 1 0
1371 1 5.2110944696390868e+00 8.5056226758209661e+00 3.5895501602090398e+01 0 0 0
165 1 8.9889715199027787e-01 8.8400875333338096e+00 3.6044143817426587e+01 1 0 -1
4460 1 1.0744487021990969e+00 2.1352897400944575e+00 3.5880440764589864e+01 0 1 0
1634 1 9.0156034603414401e+00 1.0178742355306479e+01 3.5665630415228989e+01 0 0 -1
6217 1 2.6663336894773413e+00 9.5115708483565053e-01 3.8227730281319523e+01 1 1 0
3152 1 9.7110914055044368e+00 2.1088295767677394e+00 3.8708734246087566e+01 -1 0 0
1362 1 7.6883573120720416e-01 8.1803376264651906e+00 4.2644731821280239e+01 1 0 -1
1639 1 2.5991999223219941e-01 5.4704750826323147e+00 4.3056902811520224e+01 2 1 -1
2906 1 7.9138396225213734e+00 7.8540160759043856e+00 4.1470318331030668e+01 0 0 0
2069 1 5.4239993323754314e+00 6.2173499508038237e+00 4.0976315060109002e+01 -1 0 0
6069 1 7.4736521624895447e-01 5.7876921262384142e+00 3.7888399113182544e+01 0 1 -1
6 1 6.5833122742300585e+00 1.8025489882147607e+00 3.8294277038273506e+01 1 1 0
1331 1 6.8677053160430575e+00 5.5794296602358333e+00 3.8506432335933837e+01 0 1 0
2952 1 1.7329923668916363e+00 3.3552726097608949e+00 3.9300220883689974e+01 1 0 0
3155 1 4.5116609620146786e+00 7.9994342481213936e+00 3.9008200540503282e+01 0 1 0
1505 1 1.8037390245074651e+00 9.0637117959578326e+00 3.8667954105553648e+01 0 0 -1
1470 1 2.2816563655161963e+00 1.1710943324397856e+01 3.8250072755854347e+01 0 1 -1
2091 1 7.5652055481089731e+00 9.0571408753172058e+00 3.8818455691706170e+01 0 0 0
159 1 2.4610247348946879e+00 3.4299791545167815e+00 4.2058798225118224e+01 0 0 0
4679 1 7.2553745029023053e+00 2.6069489384924287e+00 4.2265606755739562e+01 1 1 0
3351 1 2.8534289070086594e+00 1.1157694995662094e+01 4.2810619070033276e+01 0 1 -1
1751 1 4.8675680308219080e+00 4.1477579022619899e+00 4.2980348978030335e+01 0 0 -1
4650 1 3.5418692140952333e+00 8.4436286643597267e+00 4.1896875659034649e+01 1 1 0
4608 1 8.6768223659989232e+00 4.9430000179215456e+00 4.1505158296395905e+01 1 1 0
2028 1 4.7374647938536043e+00 3.7179877661963805e+00 3.7936432674309195e+01 0 0 0
5994 1 1.6455467790194793e+00 1.0802088001947268e+00 4.3246831705854930e+01 0 0 0
6229 1 6.7145685857694284e+00 3.1376948637171043e-01 4.0741920052050510e+01 0 1 0
2915 1 5.7272142522963199e+00 9.1153404289511926e+00 4.3446178521746639e+01 1 1 -1
1396 1 7.4659492447287263e+00 1.1616211110393229e+01 3.9379229541994583e+01 0 0 0
1356 1 8.8448950922041956e+00 9.7255964712985676e+00 4.3588842924894770e+01 0 0 0
299 1 9.7717019880804656e+00 4.8413480992394371e+00 3.9010049555554254e+01 0 1 -1
3040 1 3.4461871733206095e+00 1.0088394152588127e+00 4.5540883752171638e+01 0 1 0
4936 1 6.4583029513327830e+00 1.0570430099522939e+01 4.6925589030165590e+01 1 1 -1
1607 1 2.3830383493565623e+00 1.1367438408497527e+01 4.5628165333923768e+01 1 0 -1
2079 1 6.6829119990011687e+00 1.6970482659278805e+00 4.6582761653601615e+01 1 1 0
5284 1 2.7603018617328776e+00 5.6523486091694517e+00 4.6242329884470607e+01 1 1 0
6262 1 4.8929465398394445e+00 3.6423909355022297e+00 4.5650692856493016e+01 1 1 -1
2067 1 7.0882737213066029e+00 6.3786637939849111e+00 4.5631252393490492e+01 0 1 0
3534 1 8.5812824183401570e+00 8.6491617776140277e+00 4.9523260502018843e+01 0 0 -1
4996 1 1.4184502752226189e+00 8.2618349710206029e+00 4.6713479440394700e+01 1 -1 -1
4870 1 5.3976199262001312e-01 6.4718142329474180e+00 5.0515287068511157e+01 1 0 -1
1415 1 8.6074868979126844e+00 1.2068151050135774e+00 4.4204907855122563e+01 1 0 0
4942 1 1.7842875524352422e+00 1.2146914916067364e+00 4.7686664102013822e+01 1 0 0
5231 1 5.4022511657444037e+00 1.1690245688022856e+01 4.4443227089202438e+01 0 1 0
4605 1 9.0831462778460192e+00 2.2748407334009149e+00 4.7891775574037766e+01 1 -1 0
4512 1 9.8228765736301984e+00 4.7740001069310969e+00 4.8945689452238142e+01 0 0 0
3056 1 2.8955651427133917e+00 5.6237836741046241e+00 4.9377647512781238e+01 0 0 -1
4552 1 5.4075599726715513e+00 6.6128537846143853e+00 5.0525914695507218e+01 1 1 0
3253 1 5.8561340020644241e+00 9.4736870538352829e+00 5.0089675077770330e+01 1 1 -1
1588 1 7.5052362488401112e+00 6.3330539587712957e+00 4.8407369575804623e+01 0 1 -1
1861 1 4.8743333287858999e+00 7.6511228085642635e+00 4.5914771841220890e+01 0 0 -1
6078 1 3.7744895121426487e+00 1.0073652920665435e+01 4.7666404491545805e+01 1 1 0
3177 1 5.4928006286839635e+00 1.8608960855261996e+00 4.9341879475812824e+01 -1 1 -1
4947 1 8.3071163315052878e+00 8.7272124669476963e+00 4.5911296434747825e+01 0 1 0
1247 1 2.8627237668527772e+00 2.9156934049735757e+00 4.9648059669889996e+01 1 0 0
269 1 8.1262288555407878e+00 1.1910750022596019e+01 5.0538034001429658e+01 0 1 0
4609 1 1.2105160605315002e+00 1.2181368456136695e+01 4.9788923822974063e+01 1 0 0
1482 1 1.2445925854411057e+00 3.8059473295852264e+00 5.2054053145235301e+01 1 1 0
1832 1 9.5858423066298766e+00 3.4703307557985728e+00 5.5927929693167442e+01 1 0 -1
3685 1 3.9768210422094517e+00 1.0741199689185146e+01 5.7102549513464879e+01 0 0 0
398 1 2.6787882908303029e+00 1.8609011549589394e+00 5.7060696932526362e+01 0 0 -1
3093 1 9.1372547695367761e+00 1.1746841657797228e+01 5.3571190984622675e+01 1 1 0
15 1 3.9972251959645004e+00 6.9855274612788465e+00 5.3121959314387610e+01 0 0 0
4757 1 8.7963825579160755e+00 7.7541403153768469e+00 5.2692686821947149e+01 1 0 -1
2125 1 6.7750658483445312e+00 5.2571667783365719e+00 5.2704821756253402e+01 0 1 0
5143 1 1.9320497320793530e+00 8.2586368799121583e+00 5.2175047542826391e+01 1 0 -1
4865 1 9.7851474363455260e-01 1.0948703745354857e+01 5.3132870705322233e+01 0 1 -1
6279 1 3.7838053803456027e+00 1.1698597677409527e+01 5.3836234755084654e+01 1 1 -1
3553 1 5.1481574935522163e+00 9.1661294265167381e+00 5.4467101823288047e+01 0 0 0
3169 1 6.9210357229657697e+00 9.9143632831359554e+00 5.2551262879685325e+01 0 0 0
6120 1 3.8003983097596619e+00 4.1714871435572238e+00 5.5959420438310282e+01 0 1 -1
4695 1 5.6864258488193889e-02 2.4499666065155359e+00 5.5691528132676474e+01 1 0 0
1383 1 9.7138494574519818e+00 6.8470529981443367e+00 5.5212496128640360e+01 0 1 -1
6149 1 8.3670993134223242e+00 1.0484685022784825e+01 5.7261781492293544e+01 -1 1 0
1504 1 6.8839295850837443e+00 1.6862052883113290e+00 5.3598980678927518e+01 0 0 0
212 1 1.7813993872655156e+00 5.3890441432758225e+00 5.4419115018900193e+01 0 0 -1
4931 1 1.2813243435476473e+00 1.3161197879748301e+00 5.3132741148964769e+01 0 0 -1
3184 1 7.4230165773601549e+00 6.8273307978371118e+00 5.6692562441530001e+01 1 1 0
1569 1 6.5372961483095962e+00 4.3230877170400657e+00 5.5255233434410556e+01 0 0 0
4503 1 1.4646649603615758e+00 1.0520124549475314e+01 5.6330862375348069e+01 0 1 -1
6169 1 4.7685865368217835e+00 8.4002060564848346e-01 5.1953823046638391e+01 1 1 0
6147 1 8.9625822764678920e-01 8.0529078140058541e+00 5.4724357632549598e+01 -1 1 0
3013 1 9.1990731886400017e+00 4.5525130669026019e+00 5.1562164490124268e+01 0 0 0
6056 1 3.3430726789018208e+00 1.0697034556382262e+01 5.0641950022278323e+01 0 1 -1
3422 1 5.9607587812203446e+00 1.7385671562173283e-01 5.5559394498509398e+01 -1 1 -1
481 1 9.9493277957634907e-02 1.3469519068214590e+01 4.7971669580493632e+00 1 0 1
3467 1 8.5699837803623371e+00 2.2164501870373243e+01 6.3915610615741452e+00 0 0 0
5249 1 1.9566819358176504e+00 1.4835238506249038e+01 2.9139970081090341e+00 1 -1 0
3156 1 4.9333918926714206e+00 1.7668468865641152e+01 8.7699573385708991e+00 1 0 0
4811 1 5.6451702137413076e+00 1.3474644818849450e+01 5.1576187593316742e+00 0 0 0
4603 1 7.9142644766199224e+00 1.4822037967723910e+01 5.9055985903980339e+00 1 1 1
1259 1 3.1220035058076028e+00 1.9770832143448626e+01 2.8842332042176206e+00 0 1 1
1897 1 4.1349139175397314e+00 1.6989487427693515e+01 3.5865887824473450e+00 0 -1 0
4869 1 6.1351386382817887e+00 2.3619712015787300e+01 3.6215658669840773e+00 1 0 1
1834 1 8.6923826117905225e+00 1.4595584768854051e+01 8.5871852573388097e+00 0 0 0
3623 1 7.0736074265369702e+00 1.8982166322260646e+01 7.6732241283759839e+00 1 0 0
6212 1 3.8284525149754436e+00 2.1861696992280475e+01 5.1261653181763531e+00 1 1 0
6326 1 1.7606304918671072e+00 2.3821300220220781e+01 4.7560979285189902e+00 1 0 0
3314 1 8.6571693762967765e+00 2.2430844182319763e+01 3.5473544202608309e+00 1 0 1
3504 1 5.9311309036582633e+00 2.1363693799471246e+01 7.0952052861053287e+00 0 1 0
3301 1 7.8290447187471912e+00 1.3141227343631366e+01 2.8273647627589011e+00 1 0 1
222 1 1.2374619066864692e+00 1.5482065339665912e+01 6.6658771919250732e+00 0 0 0
2167 1 8.1962996432945925e+00 1.7573284289350518e+01 5.5552311535729091e+00 1 0 1
3228 1 1.9658100343517186e+00 2.4133483936939225e+01 8.5702908988366246e+00 0 -1 1
1749 1 2.1374008541841034e+00 2.0003596227879950e+01 7.1195093890982779e+00 0 -1 0
3437 1 3.1962891684939101e+00 1.7578918369469680e+01 6.4090708668760277e+00 0 0 0
3078 1 8.3114293391919514e+00 1.7928045782387827e+01 2.7095748201986014e+00 1 0 0
5113 1 2.6476087575050364e+00 1.4206317677511223e+01 8.5066429923124822e+00 1 0 0
2898 1 5.4816416851346119e+00 1.4913495378057373e+01 8.7954665550092059e+00 0 0 1
2165 1 1.3401926190905642e+00 1.4578245959512760e+01 1.1078467463916560e+01 1 1 1
1704 1 6.3142917828999812e+00 2.4003957359685089e+01 1.3821993715166910e+01 0 0 0
3293 1 5.4771494610587590e+00 1.4718891787414918e+01 1.1789678955336608e+01 -1 0 0
238 1 3.7999276387001393e+00 2.3639775529450176e+01 1.4801114225184993e+01 0 1 0
3397 1 6.6152516512535786e-01 1.8929249699276919e+01 1.5830843857345938e+01 1 0 0
4778 1 4.0671947889409434e+00 1.9186448224125851e+01 1.1143458275003466e+01 1 0 1
6106 1 7.2143386619480916e+00 1.9344364384104090e+01 1.0755860053987032e+01 0 0 1
3226 1 8.4020810426725330e+00 1.9021819203590564e+01 1.5784832792271340e+01 0 0 1
3470 1 3.1209503055591625e+00 1.2794208852568532e+01 1.4936362643670474e+01 0 0 0
5003 1 7.1283096574282636e+00 2.1996578213429149e+01 1.1848582842584445e+01 0 -1 0
5160 1 1.0356845912201118e+00 2.0591669683679729e+01 1.1956926741512280e+01 0 0 1
413 1 4.4962790360407073e-01 1.2812556604572489e+01 1.4471396712814244e+01 1 0 0