LAMMPS data file via write_data, version 16 Mar 2018, timestep = 8000000

4063 atoms
2 atom types

0.0000000000000000e+00 4.9219999999999999e+01 xlo xhi
0.0000000000000000e+00 4.9019635930410494e+01 ylo yhi
1.2072244888054673e+00 2.6732775511196390e+01 zlo zhi

Masses

1 18.015
2 12.01

Atoms # atomic

53 2 0.0000000000000000e+00 2.8417180249513345e+00 2.7993282142734186e+00 0 0 0
55 2 0.0000000000000000e+00 0.0000000000000000e+00 2.7993282142734186e+00 0 0 0
57 2 1.2305000000000001e+00 7.1042950623783474e-01 2.7993282142734186e+00 0 0 0
64 2 1.2305000000000001e+00 2.1312885187134998e+00 2.7993282142734186e+00 0 0 0
66 2 2.4610000000000003e+00 2.8417180249513345e+00 2.7993282142734186e+00 0 0 0
68 2 2.4610000000000003e+00 0.0000000000000000e+00 2.7993282142734186e+00 0 0 0
70 2 3.6915000000000004e+00 7.1042950623783474e-01 2.7993282142734186e+00 0 0 0
85 2 3.6914999999999996e+00 2.1312885187134998e+00 2.7993282142734186e+00 0 0 0
87 2 4.9220000000000006e+00 2.8417180249513332e+00 2.7993282142734186e+00 0 0 0
89 2 4.9220000000000006e+00 0.0000000000000000e+00 2.7993282142734186e+00 0 0 0
60 2 0.0000000000000000e+00 4.2625770374269996e+00 2.7993282142734186e+00 0 0 0
81 2 2.4610000000000003e+00 4.2625770374269996e+00 2.7993282142734186e+00 0 0 0
110 2 4.9220000000000006e+00 4.2625770374269978e+00 2.7993282142734186e+00 0 0 0
62 2 1.2305000000000001e+00 4.9730065436648339e+00 2.7993282142734186e+00 0 0 0
77 2 1.2305000000000001e+00 6.3938655561404980e+00 2.7993282142734186e+00 0 0 0
83 2 3.6914999999999996e+00 4.9730065436648339e+00 2.7993282142734186e+00 0 0 0
106 2 3.6914999999999996e+00 6.3938655561404980e+00 2.7993282142734186e+00 0 0 0
58 2 0.0000000000000000e+00 7.1042950623783341e+00 2.7993282142734186e+00 0 0 0
73 2 0.0000000000000000e+00 8.5251540748539991e+00 2.7993282142734186e+00 0 0 0
75 2 1.2305000000000001e+00 9.2355835810918343e+00 2.7993282142734186e+00 0 0 0
79 2 2.4610000000000003e+00 7.1042950623783341e+00 2.7993282142734186e+00 0 0 0
102 2 2.4610000000000003e+00 8.5251540748539991e+00 2.7993282142734186e+00 0 0 0
104 2 3.6915000000000004e+00 9.2355835810918343e+00 2.7993282142734186e+00 0 0 0
108 2 4.9220000000000006e+00 7.1042950623783341e+00 2.7993282142734186e+00 0 0 0
139 2 4.9220000000000006e+00 8.5251540748539991e+00 2.7993282142734186e+00 0 0 0
54 2 0.0000000000000000e+00 1.4208590124756650e+00 5.8471142038055328e+00 0 0 0
56 2 0.0000000000000000e+00 0.0000000000000000e+00 5.8471142038055328e+00 0 0 0
65 2 1.2305000000000001e+00 2.1312885187134998e+00 5.8471142038055328e+00 0 0 0
67 2 2.4610000000000003e+00 1.4208590124756650e+00 5.8471142038055328e+00 0 0 0
69 2 2.4610000000000003e+00 0.0000000000000000e+00 5.8471142038055328e+00 0 0 0
86 2 3.6914999999999996e+00 2.1312885187134998e+00 5.8471142038055328e+00 0 0 0
382 2 0.0000000000000000e+00 2.8417180249513345e+00 8.8949001933411935e+00 0 0 0
383 2 0.0000000000000000e+00 0.0000000000000000e+00 8.8949001933411935e+00 0 0 0
384 2 1.2305000000000001e+00 7.1042950623783474e-01 8.8949001933411935e+00 0 0 0
388 2 1.2305000000000001e+00 2.1312885187134998e+00 8.8949001933411935e+00 0 0 0
389 2 2.4610000000000003e+00 2.8417180249513345e+00 8.8949001933411935e+00 0 0 0
390 2 2.4610000000000003e+00 0.0000000000000000e+00 8.8949001933411935e+00 0 0 0
391 2 3.6915000000000004e+00 7.1042950623783474e-01 8.8949001933411935e+00 0 0 0
399 2 3.6914999999999996e+00 2.1312885187134998e+00 8.8949001933411935e+00 0 0 0
88 2 4.9220000000000006e+00 1.4208590124756650e+00 5.8471142038055328e+00 0 0 0
90 2 4.9220000000000006e+00 0.0000000000000000e+00 5.8471142038055328e+00 0 0 0
400 2 4.9220000000000006e+00 2.8417180249513332e+00 8.8949001933411935e+00 0 0 0
401 2 4.9220000000000006e+00 0.0000000000000000e+00 8.8949001933411935e+00 0 0 0
61 2 0.0000000000000000e+00 4.2625770374269996e+00 5.8471142038055328e+00 0 0 0
63 2 1.2305000000000001e+00 3.5521475311891644e+00 5.8471142038055328e+00 0 0 0
82 2 2.4610000000000003e+00 4.2625770374269996e+00 5.8471142038055328e+00 0 0 0
84 2 3.6914999999999996e+00 3.5521475311891644e+00 5.8471142038055328e+00 0 0 0
386 2 0.0000000000000000e+00 4.2625770374269996e+00 8.8949001933411935e+00 0 0 0
397 2 2.4610000000000003e+00 4.2625770374269996e+00 8.8949001933411935e+00 0 0 0
111 2 4.9220000000000006e+00 4.2625770374269978e+00 5.8471142038055328e+00 0 0 0
412 2 4.9220000000000006e+00 4.2625770374269978e+00 8.8949001933411935e+00 0 0 0
59 2 0.0000000000000000e+00 5.6834360499026637e+00 5.8471142038055328e+00 0 0 0
78 2 1.2305000000000001e+00 6.3938655561404980e+00 5.8471142038055328e+00 0 0 0
80 2 2.4610000000000003e+00 5.6834360499026637e+00 5.8471142038055328e+00 0 0 0
107 2 3.6914999999999996e+00 6.3938655561404980e+00 5.8471142038055328e+00 0 0 0
387 2 1.2305000000000001e+00 4.9730065436648339e+00 8.8949001933411935e+00 0 0 0
395 2 1.2305000000000001e+00 6.3938655561404980e+00 8.8949001933411935e+00 0 0 0
398 2 3.6914999999999996e+00 4.9730065436648339e+00 8.8949001933411935e+00 0 0 0
410 2 3.6914999999999996e+00 6.3938655561404980e+00 8.8949001933411935e+00 0 0 0
109 2 4.9220000000000006e+00 5.6834360499026637e+00 5.8471142038055328e+00 0 0 0
74 2 0.0000000000000000e+00 8.5251540748539991e+00 5.8471142038055328e+00 0 0 0
76 2 1.2305000000000001e+00 7.8147245686161639e+00 5.8471142038055328e+00 0 0 0
103 2 2.4610000000000003e+00 8.5251540748539991e+00 5.8471142038055328e+00 0 0 0
105 2 3.6914999999999996e+00 7.8147245686161639e+00 5.8471142038055328e+00 0 0 0
385 2 0.0000000000000000e+00 7.1042950623783341e+00 8.8949001933411935e+00 0 0 0
393 2 0.0000000000000000e+00 8.5251540748539991e+00 8.8949001933411935e+00 0 0 0
394 2 1.2305000000000001e+00 9.2355835810918343e+00 8.8949001933411935e+00 0 0 0
396 2 2.4610000000000003e+00 7.1042950623783341e+00 8.8949001933411935e+00 0 0 0
408 2 2.4610000000000003e+00 8.5251540748539991e+00 8.8949001933411935e+00 0 0 0
409 2 3.6915000000000004e+00 9.2355835810918343e+00 8.8949001933411935e+00 0 0 0
140 2 4.9220000000000006e+00 8.5251540748539991e+00 5.8471142038055328e+00 0 0 0
411 2 4.9220000000000006e+00 7.1042950623783341e+00 8.8949001933411935e+00 0 0 0
427 2 4.9220000000000006e+00 8.5251540748539991e+00 8.8949001933411935e+00 0 0 0
3243 1 5.1797903483900845e+00 1.8353880568941303e+00 1.1058867975703093e+01 -3 2 0
679 1 5.7108118993949271e+00 4.3984866422076738e+00 1.1991754655217614e+01 1 2 -1
3301 1 8.7818644274919011e-01 4.7017831590460686e+00 1.2079597340709860e+01 1 2 0
1998 1 6.0971890962926290e-01 2.1407095568536829e+00 1.1049619374090760e+01 1 2 0
3302 1 2.5514957011461088e+00 5.6228370041910625e-01 1.1513574547059658e+01 1 2 1
3921 1 3.3759910757493996e+00 5.6082224073274647e+00 1.1137799386176132e+01 0 3 0
685 1 4.0452385892415794e+00 8.1028267294870009e+00 1.1997912057652663e+01 4 -1 -1
2625 1 1.2919575616425190e+00 9.3747137439263000e+00 1.1968727018834752e+01 -2 0 0
1281 1 3.2867227889568640e+00 2.9737089154641692e+00 1.5645586910684873e+01 -1 2 2
618 1 1.4034616005407146e+00 4.6833674971313508e+00 1.4746524455853494e+01 3 3 0
668 1 2.7480480520874386e+00 3.6893717097177914e-01 1.4636344588654243e+01 -1 -3 1
2636 1 5.5087383075589944e+00 4.2984240226735739e+00 1.4774464842616242e+01 0 -1 1
3928 1 4.0476042055047214e+00 8.0845889814158056e+00 1.4565346040386677e+01 -2 -3 -1
583 1 1.6980747110561192e+00 7.3996359623101409e+00 1.5623930430456324e+01 3 1 1
620 1 2.0665349749153319e+00 7.5156200026307252e+00 1.8193473315579013e+01 1 0 0
1372 1 2.1551554685717714e-01 9.2849720628240444e+00 1.4349104829387766e+01 -1 0 0
2070 1 3.1753952667163823e+00 3.2041473988729283e+00 1.8252814898436689e+01 2 3 0
1260 1 5.6910554088621339e+00 4.3733715127900910e+00 2.1804873462428304e+01 -4 -4 -1
3920 1 5.7624871542032281e+00 4.0726150645254657e+00 1.9106018602647900e+01 2 -1 -1
3367 1 3.1874516982455243e+00 5.7590683044977620e-01 1.9456773094560255e+01 -1 -1 0
3924 1 3.1066475284692308e+00 3.2666812101990406e-01 2.2131499424991972e+01 1 2 1
1277 1 1.6450415327177250e+00 4.8572219540858681e+00 2.1938110581974456e+01 3 4 0
3287 1 2.5544916211926377e-02 9.3807783558698308e+00 2.1860424436722937e+01 3 0 0
543 1 1.4502068711844243e+00 4.9842147314804741e+00 1.9151104984240064e+01 0 -1 -1
631 1 4.1431343054003218e+00 8.4837013870649294e+00 2.1967095063773918e+01 1 -2 -1
3998 1 4.4461018289390877e+00 8.6052921319446938e+00 1.9210611336706272e+01 -3 0 0
2067 1 2.6105844554521007e+00 4.4165443445181657e-01 2.5636948432227285e+01 1 1 1
2738 1 3.1089275143408188e+00 3.4325816248667480e+00 2.5448205171899929e+01 1 -3 0
3940 1 3.3882601533970695e+00 2.8805470476625810e+00 2.2989074188535056e+01 1 -2 0
761 1 5.4053611492557980e+00 4.5343660708986882e+00 2.5862898250327113e+01 4 4 0
1295 1 7.8564672383045808e-01 4.9201424239003142e+00 2.5957054146710639e+01 0 -2 0
659 1 1.7798383209858368e+00 7.4402937119586863e+00 2.2846099614335479e+01 -3 3 -1
593 1 4.1441127146468704e+00 8.8728875484127272e+00 2.5968949561615503e+01 1 1 0
1364 1 1.6073279007773305e+00 7.5526413837455220e+00 2.5515339556839365e+01 -2 -1 -1
71 2 0.0000000000000000e+00 1.1366872099805333e+01 2.7993282142734186e+00 0 0 0
94 2 0.0000000000000000e+00 1.2787731112280996e+01 2.7993282142734186e+00 0 0 0
96 2 1.2305000000000001e+00 1.3498160618518829e+01 2.7993282142734186e+00 0 0 0
98 2 1.2305000000000001e+00 1.0656442593567498e+01 2.7993282142734186e+00 0 0 0
100 2 2.4610000000000003e+00 1.1366872099805333e+01 2.7993282142734186e+00 0 0 0
131 2 2.4610000000000003e+00 1.2787731112280996e+01 2.7993282142734186e+00 0 0 0
133 2 3.6915000000000004e+00 1.3498160618518829e+01 2.7993282142734186e+00 0 0 0
135 2 3.6914999999999996e+00 1.0656442593567499e+01 2.7993282142734186e+00 0 0 0
137 2 4.9220000000000006e+00 1.1366872099805333e+01 2.7993282142734186e+00 0 0 0
176 2 4.9220000000000006e+00 1.2787731112280996e+01 2.7993282142734186e+00 0 0 0
178 2 6.1524999999999990e+00 1.3498160618518829e+01 2.7993282142734186e+00 0 0 0
92 2 0.0000000000000000e+00 1.5629449137232333e+01 2.7993282142734186e+00 0 0 0
123 2 0.0000000000000000e+00 1.7050308149707998e+01 2.7993282142734186e+00 0 0 0
127 2 1.2305000000000001e+00 1.4919019630994494e+01 2.7993282142734186e+00 0 0 0
129 2 2.4610000000000003e+00 1.5629449137232328e+01 2.7993282142734186e+00 0 0 0
168 2 2.4610000000000003e+00 1.7050308149707998e+01 2.7993282142734186e+00 0 0 0
172 2 3.6915000000000004e+00 1.4919019630994494e+01 2.7993282142734186e+00 0 0 0
174 2 4.9220000000000006e+00 1.5629449137232333e+01 2.7993282142734186e+00 0 0 0
215 2 4.9220000000000006e+00 1.7050308149707998e+01 2.7993282142734186e+00 0 0 0
219 2 6.1524999999999990e+00 1.4919019630994494e+01 2.7993282142734186e+00 0 0 0
125 2 1.2305000000000001e+00 1.7760737655945832e+01 2.7993282142734186e+00 0 0 0
164 2 1.2305000000000001e+00 1.9181596668421495e+01 2.7993282142734186e+00 0 0 0
170 2 3.6914999999999996e+00 1.7760737655945832e+01 2.7993282142734186e+00 0 0 0
211 2 3.6914999999999996e+00 1.9181596668421495e+01 2.7993282142734186e+00 0 0 0
72 2 0.0000000000000000e+00 9.9460130873296642e+00 5.8471142038055328e+00 0 0 0
101 2 2.4610000000000003e+00 9.9460130873296642e+00 5.8471142038055328e+00 0 0 0
138 2 4.9220000000000006e+00 9.9460130873296642e+00 5.8471142038055328e+00 0 0 0
95 2 0.0000000000000000e+00 1.2787731112280996e+01 5.8471142038055328e+00 0 0 0
97 2 1.2305000000000001e+00 1.2077301606043163e+01 5.8471142038055328e+00 0 0 0
99 2 1.2305000000000001e+00 1.0656442593567498e+01 5.8471142038055328e+00 0 0 0
132 2 2.4610000000000003e+00 1.2787731112280996e+01 5.8471142038055328e+00 0 0 0
134 2 3.6914999999999996e+00 1.2077301606043163e+01 5.8471142038055328e+00 0 0 0
136 2 3.6914999999999996e+00 1.0656442593567499e+01 5.8471142038055328e+00 0 0 0
392 2 0.0000000000000000e+00 1.1366872099805333e+01 8.8949001933411935e+00 0 0 0
404 2 0.0000000000000000e+00 1.2787731112280996e+01 8.8949001933411935e+00 0 0 0
405 2 1.2305000000000001e+00 1.3498160618518829e+01 8.8949001933411935e+00 0 0 0
406 2 1.2305000000000001e+00 1.0656442593567498e+01 8.8949001933411935e+00 0 0 0
407 2 2.4610000000000003e+00 1.1366872099805333e+01 8.8949001933411935e+00 0 0 0
423 2 2.4610000000000003e+00 1.2787731112280996e+01 8.8949001933411935e+00 0 0 0
424 2 3.6915000000000004e+00 1.3498160618518829e+01 8.8949001933411935e+00 0 0 0
425 2 3.6914999999999996e+00 1.0656442593567499e+01 8.8949001933411935e+00 0 0 0
177 2 4.9220000000000006e+00 1.2787731112280996e+01 5.8471142038055328e+00 0 0 0
426 2 4.9220000000000006e+00 1.1366872099805333e+01 8.8949001933411935e+00 0 0 0
446 2 4.9220000000000006e+00 1.2787731112280996e+01 8.8949001933411935e+00 0 0 0
447 2 6.1524999999999990e+00 1.3498160618518829e+01 8.8949001933411935e+00 0 0 0
93 2 0.0000000000000000e+00 1.4208590124756663e+01 5.8471142038055328e+00 0 0 0
130 2 2.4610000000000003e+00 1.4208590124756663e+01 5.8471142038055328e+00 0 0 0
175 2 4.9220000000000006e+00 1.4208590124756663e+01 5.8471142038055328e+00 0 0 0
124 2 0.0000000000000000e+00 1.7050308149707998e+01 5.8471142038055328e+00 0 0 0
126 2 1.2305000000000001e+00 1.6339878643470165e+01 5.8471142038055328e+00 0 0 0
128 2 1.2305000000000001e+00 1.4919019630994494e+01 5.8471142038055328e+00 0 0 0
169 2 2.4610000000000003e+00 1.7050308149707998e+01 5.8471142038055328e+00 0 0 0
171 2 3.6915000000000004e+00 1.6339878643470165e+01 5.8471142038055328e+00 0 0 0
173 2 3.6915000000000004e+00 1.4919019630994494e+01 5.8471142038055328e+00 0 0 0
403 2 0.0000000000000000e+00 1.5629449137232333e+01 8.8949001933411935e+00 0 0 0
419 2 0.0000000000000000e+00 1.7050308149707998e+01 8.8949001933411935e+00 0 0 0
421 2 1.2305000000000001e+00 1.4919019630994494e+01 8.8949001933411935e+00 0 0 0
422 2 2.4610000000000003e+00 1.5629449137232328e+01 8.8949001933411935e+00 0 0 0
442 2 2.4610000000000003e+00 1.7050308149707998e+01 8.8949001933411935e+00 0 0 0
444 2 3.6915000000000004e+00 1.4919019630994494e+01 8.8949001933411935e+00 0 0 0
216 2 4.9220000000000006e+00 1.7050308149707998e+01 5.8471142038055328e+00 0 0 0
220 2 6.1524999999999990e+00 1.4919019630994494e+01 5.8471142038055328e+00 0 0 0
445 2 4.9220000000000006e+00 1.5629449137232333e+01 8.8949001933411935e+00 0 0 0
466 2 4.9220000000000006e+00 1.7050308149707998e+01 8.8949001933411935e+00 0 0 0
468 2 6.1524999999999990e+00 1.4919019630994494e+01 8.8949001933411935e+00 0 0 0
122 2 0.0000000000000000e+00 1.8471167162183658e+01 5.8471142038055328e+00 0 0 0
165 2 1.2305000000000001e+00 1.9181596668421495e+01 5.8471142038055328e+00 0 0 0
167 2 2.4610000000000003e+00 1.8471167162183658e+01 5.8471142038055328e+00 0 0 0
212 2 3.6914999999999996e+00 1.9181596668421495e+01 5.8471142038055328e+00 0 0 0
420 2 1.2305000000000001e+00 1.7760737655945832e+01 8.8949001933411935e+00 0 0 0
440 2 1.2305000000000001e+00 1.9181596668421495e+01 8.8949001933411935e+00 0 0 0
443 2 3.6914999999999996e+00 1.7760737655945832e+01 8.8949001933411935e+00 0 0 0
464 2 3.6914999999999996e+00 1.9181596668421495e+01 8.8949001933411935e+00 0 0 0
214 2 4.9220000000000006e+00 1.8471167162183658e+01 5.8471142038055328e+00 0 0 0
2782 1 2.1485371920618936e+00 1.1886774184234032e+01 1.1399619087501879e+01 3 -1 0
2755 1 4.8005955945638270e+00 1.3159818929839592e+01 1.1728626448582775e+01 1 -1 0
3352 1 3.6616786313866512e-01 1.3948154543805103e+01 1.1233904218483092e+01 5 1 1
3275 1 5.5218135352631235e+00 1.5916651753868949e+01 1.1957927445643650e+01 5 -1 0
2674 1 3.4288195973603832e+00 1.8058049207251660e+01 1.1571390292125741e+01 2 2 0
2007 1 6.8044931840535949e-01 1.7034941374920223e+01 1.1644513082774921e+01 0 -1 0
3944 1 5.1153829610079402e+00 1.0654432416756261e+01 1.5352170278827465e+01 3 0 -1
15 1 4.9791996746172300e+00 1.0915017075367762e+01 1.8024697295933613e+01 -2 3 -1
2762 1 7.4500066484550165e-01 1.1867296934555867e+01 1.5449310783923396e+01 2 2 0
3264 1 1.6635185870523314e-01 1.1701926840151785e+01 1.8190736535633910e+01 2 1 0
1325 1 3.3155514538526152e+00 1.2623477532968302e+01 1.4286786631252241e+01 3 0 0
3461 1 5.7870411844047593e+00 1.6042622744000827e+01 1.4704703699388856e+01 -2 -1 1
1303 1 3.1501637793318276e+00 1.5246088984051260e+01 1.5046546199735213e+01 0 -3 -1
737 1 3.5696384772810852e+00 1.5446730593363744e+01 1.7977352227882655e+01 0 0 0
1322 1 1.6457978594409537e+00 1.7148350022517153e+01 1.4207990540872668e+01 0 0 1
2606 1 5.9690244328087942e+00 1.8838600076244497e+01 1.5646114566296504e+01 -3 1 0
3449 1 2.8581899450371151e+00 1.2799715907893756e+01 1.8518442807438213e+01 0 3 0
719 1 2.8804178537542713e+00 1.2572765081577417e+01 2.1282864707468676e+01 -1 0 1
757 1 5.0193425490489316e+00 1.1118354785033244e+01 2.2345455817526954e+01 0 3 -1
1375 1 5.7039268276390072e+00 1.6552199900225038e+01 1.9142233244485396e+01 3 1 -1
1283 1 5.7511694494746823e+00 1.6123210005033663e+01 2.1896469681071004e+01 2 0 -1
1956 1 9.1293961641065258e-01 1.7124933059520497e+01 2.1694797435761075e+01 1 2 1
2666 1 1.3695745103229309e+00 1.7072802441613995e+01 1.8905173479001398e+01 0 -1 0
2099 1 3.2558278012945721e+00 1.5354267461637630e+01 2.2347333519431018e+01 -2 0 1
4016 1 5.9112499642271983e+00 1.9287160167604451e+01 1.8435447919833415e+01 0 -1 0
1439 1 2.2935605167094488e+00 1.2453509331111828e+01 2.5651953089189298e+01 2 1 -1
3280 1 4.5819387289367377e+00 1.1531169908487549e+01 2.5075881843927327e+01 2 0 0
1341 1 4.6474459135567148e-01 1.1805984025465749e+01 2.2888507344714263e+01 -6 1 0
585 1 2.9605029859063756e+00 1.5061398329801500e+01 2.4990001853633508e+01 -2 0 -1
629 1 9.6031073022995506e-01 1.6863376488134701e+01 2.5904053082952053e+01 3 0 0
2055 1 1.7175627142715812e+00 1.9573150089040002e+01 2.2509778140006311e+01 1 1 -2
2632 1 1.2988224947066371e+00 1.9407386135961406e+01 2.5235774333874623e+01 1 0 0
642 1 5.6167823580439373e+00 1.5629074388945243e+01 2.5258763191026581e+01 -1 1 0
121 2 0.0000000000000000e+00 1.9892026174659328e+01 2.7993282142734186e+00 0 0 0
166 2 2.4610000000000003e+00 1.9892026174659328e+01 2.7993282142734186e+00 0 0 0
213 2 4.9220000000000006e+00 1.9892026174659328e+01 2.7993282142734186e+00 0 0 0
158 2 0.0000000000000000e+00 2.4154603212086325e+01 2.7993282142734186e+00 0 0 0
160 2 0.0000000000000000e+00 2.1312885187134999e+01 2.7993282142734186e+00 0 0 0
162 2 1.2304999999999993e+00 2.2023314693372832e+01 2.7993282142734186e+00 0 0 0
203 2 1.2304999999999993e+00 2.3444173705848499e+01 2.7993282142734186e+00 0 0 0
205 2 2.4610000000000003e+00 2.4154603212086325e+01 2.7993282142734186e+00 0 0 0
207 2 2.4610000000000003e+00 2.1312885187134995e+01 2.7993282142734186e+00 0 0 0
209 2 3.6914999999999996e+00 2.2023314693372832e+01 2.7993282142734186e+00 0 0 0
250 2 3.6915000000000004e+00 2.3444173705848499e+01 2.7993282142734186e+00 0 0 0
252 2 4.9220000000000006e+00 2.4154603212086325e+01 2.7993282142734186e+00 0 0 0
254 2 4.9220000000000006e+00 2.1312885187134995e+01 2.7993282142734186e+00 0 0 0
256 2 6.1524999999999990e+00 2.2023314693372832e+01 2.7993282142734186e+00 0 0 0
777 2 0.0000000000000000e+00 2.5575462224561992e+01 2.7993282142734186e+00 0 0 0
779 2 1.2305000000000001e+00 2.6285891730799833e+01 2.7993282142734186e+00 0 0 0
787 2 1.2305000000000010e+00 2.7706750743275496e+01 2.7993282142734186e+00 0 0 0
791 2 2.4610000000000003e+00 2.5575462224561992e+01 2.7993282142734186e+00 0 0 0
793 2 3.6914999999999991e+00 2.6285891730799833e+01 2.7993282142734186e+00 0 0 0
809 2 3.6914999999999996e+00 2.7706750743275496e+01 2.7993282142734186e+00 0 0 0
813 2 4.9220000000000006e+00 2.5575462224561992e+01 2.7993282142734186e+00 0 0 0
839 2 6.1524999999999990e+00 2.7706750743275496e+01 2.7993282142734186e+00 0 0 0
775 2 0.0000000000000000e+00 2.8417180249513333e+01 2.7993282142734186e+00 0 0 0
789 2 2.4610000000000003e+00 2.8417180249513326e+01 2.7993282142734186e+00 0 0 0
811 2 4.9220000000000006e+00 2.8417180249513336e+01 2.7993282142734186e+00 0 0 0
163 2 1.2305000000000001e+00 2.0602455680897162e+01 5.8471142038055328e+00 0 0 0
210 2 3.6915000000000004e+00 2.0602455680897162e+01 5.8471142038055328e+00 0 0 0
418 2 0.0000000000000000e+00 1.9892026174659328e+01 8.8949001933411935e+00 0 0 0
441 2 2.4610000000000003e+00 1.9892026174659328e+01 8.8949001933411935e+00 0 0 0
465 2 4.9220000000000006e+00 1.9892026174659328e+01 8.8949001933411935e+00 0 0 0
159 2 0.0000000000000000e+00 2.2733744199610655e+01 5.8471142038055328e+00 0 0 0
161 2 0.0000000000000000e+00 2.1312885187134999e+01 5.8471142038055328e+00 0 0 0
204 2 1.2304999999999993e+00 2.3444173705848499e+01 5.8471142038055328e+00 0 0 0
206 2 2.4610000000000003e+00 2.2733744199610655e+01 5.8471142038055328e+00 0 0 0
208 2 2.4610000000000003e+00 2.1312885187134995e+01 5.8471142038055328e+00 0 0 0
251 2 3.6915000000000004e+00 2.3444173705848499e+01 5.8471142038055328e+00 0 0 0
437 2 0.0000000000000000e+00 2.4154603212086325e+01 8.8949001933411935e+00 0 0 0
438 2 0.0000000000000000e+00 2.1312885187134999e+01 8.8949001933411935e+00 0 0 0
439 2 1.2304999999999993e+00 2.2023314693372832e+01 8.8949001933411935e+00 0 0 0
460 2 1.2304999999999993e+00 2.3444173705848499e+01 8.8949001933411935e+00 0 0 0
461 2 2.4610000000000003e+00 2.4154603212086325e+01 8.8949001933411935e+00 0 0 0
462 2 2.4610000000000003e+00 2.1312885187134995e+01 8.8949001933411935e+00 0 0 0
463 2 3.6914999999999996e+00 2.2023314693372832e+01 8.8949001933411935e+00 0 0 0
484 2 3.6915000000000004e+00 2.3444173705848499e+01 8.8949001933411935e+00 0 0 0
253 2 4.9220000000000006e+00 2.2733744199610655e+01 5.8471142038055328e+00 0 0 0
255 2 4.9220000000000006e+00 2.1312885187134995e+01 5.8471142038055328e+00 0 0 0
485 2 4.9220000000000006e+00 2.4154603212086325e+01 8.8949001933411935e+00 0 0 0
486 2 4.9220000000000006e+00 2.1312885187134995e+01 8.8949001933411935e+00 0 0 0
487 2 6.1524999999999990e+00 2.2023314693372832e+01 8.8949001933411935e+00 0 0 0
776 2 0.0000000000000000e+00 2.6996321237037659e+01 5.8471142038055328e+00 0 0 0
778 2 0.0000000000000000e+00 2.5575462224561992e+01 5.8471142038055328e+00 0 0 0
780 2 1.2305000000000001e+00 2.4865032718324155e+01 5.8471142038055328e+00 0 0 0
788 2 1.2305000000000010e+00 2.7706750743275496e+01 5.8471142038055328e+00 0 0 0
790 2 2.4610000000000003e+00 2.6996321237037659e+01 5.8471142038055328e+00 0 0 0
792 2 2.4610000000000003e+00 2.5575462224561992e+01 5.8471142038055328e+00 0 0 0
794 2 3.6914999999999996e+00 2.4865032718324166e+01 5.8471142038055328e+00 0 0 0
810 2 3.6914999999999996e+00 2.7706750743275496e+01 5.8471142038055328e+00 0 0 0
1091 2 0.0000000000000000e+00 2.5575462224561992e+01 8.8949001933411935e+00 0 0 0
1092 2 1.2305000000000001e+00 2.6285891730799833e+01 8.8949001933411935e+00 0 0 0
1096 2 1.2305000000000010e+00 2.7706750743275496e+01 8.8949001933411935e+00 0 0 0
1098 2 2.4610000000000003e+00 2.5575462224561992e+01 8.8949001933411935e+00 0 0 0
1099 2 3.6914999999999991e+00 2.6285891730799833e+01 8.8949001933411935e+00 0 0 0
1107 2 3.6914999999999996e+00 2.7706750743275496e+01 8.8949001933411935e+00 0 0 0
812 2 4.9220000000000006e+00 2.6996321237037659e+01 5.8471142038055328e+00 0 0 0
814 2 4.9220000000000006e+00 2.5575462224561992e+01 5.8471142038055328e+00 0 0 0
816 2 6.1524999999999990e+00 2.4865032718324155e+01 5.8471142038055328e+00 0 0 0
840 2 6.1524999999999990e+00 2.7706750743275496e+01 5.8471142038055328e+00 0 0 0
1109 2 4.9220000000000006e+00 2.5575462224561992e+01 8.8949001933411935e+00 0 0 0
1122 2 6.1524999999999990e+00 2.7706750743275496e+01 8.8949001933411935e+00 0 0 0
786 2 1.2304999999999993e+00 2.9127609755751163e+01 5.8471142038055328e+00 0 0 0
808 2 3.6914999999999991e+00 2.9127609755751152e+01 5.8471142038055328e+00 0 0 0
1090 2 0.0000000000000000e+00 2.8417180249513333e+01 8.8949001933411935e+00 0 0 0
1097 2 2.4610000000000003e+00 2.8417180249513326e+01 8.8949001933411935e+00 0 0 0
838 2 6.1524999999999981e+00 2.9127609755751152e+01 5.8471142038055328e+00 0 0 0
1108 2 4.9220000000000006e+00 2.8417180249513336e+01 8.8949001933411935e+00 0 0 0
2045 1 1.7456097612828678e+00 2.2198036032579648e+01 1.1896564479748470e+01 2 -1 0
2681 1 4.0669858686816633e+00 2.0612616718715813e+01 1.2327367778388989e+01 1 -2 0
602 1 2.1922589473426739e+00 2.4919913261020920e+01 1.2325323472574093e+01 -2 -2 -1
1969 1 5.2417682296785388e+00 2.8363937807138477e+01 1.2036779158101107e+01 2 1 -1
2737 1 4.5424562621654800e+00 2.5749428768168844e+01 1.1303804821089646e+01 2 4 1
1317 1 7.7965937971373200e-01 2.9270841824107919e+01 1.2251381560884161e+01 -2 2 0
3414 1 4.6189203166953519e-02 2.6475211077178997e+01 1.1668408868130809e+01 1 -1 0
3987 1 4.4479398950391431e+00 2.3488976105278955e+01 1.5817078787904480e+01 0 -3 0
4013 1 1.8082956498110268e+00 1.9666869860252824e+01 1.5659580720171396e+01 2 -2 0
3284 1 4.2116271021573262e+00 2.0831122448664605e+01 1.5007268184666868e+01 4 3 -1
3380 1 1.6998492043942548e-01 2.1534279919909711e+01 1.4388335250683465e+01 2 1 0
3442 1 6.6844244109013573e-02 2.3987983158847090e+01 1.7926262005422068e+01 1 -1 0
2033 1 5.2053023058933583e+00 2.8484425457101256e+01 1.4839257097603193e+01 2 -1 0
3942 1 2.4114429946312907e+00 2.4917939196107167e+01 1.5060463589881190e+01 -3 0 -1
3338 1 2.8557759790877979e+00 2.7596144787828152e+01 1.6071592233968403e+01 -4 0 0
1409 1 2.1116371411531576e+00 1.9714105158141798e+01 1.8345753388580185e+01 2 1 0
3462 1 4.4213815011036690e+00 2.3483786064402722e+01 1.8492895243016669e+01 0 1 1
2657 1 4.0795037206227471e+00 2.1100757941022273e+01 1.9806753141613484e+01 0 -2 0
2591 1 5.4503520887164827e+00 2.8450073402632178e+01 2.2426200224894686e+01 1 0 0
3916 1 3.2122907760180683e+00 2.7779578839551267e+01 1.8728491777768021e+01 1 0 0
554 1 2.2982597491697625e+00 2.5119263895903757e+01 1.9164853819873457e+01 -1 2 0
2065 1 2.2726361229441530e+00 2.4956896835665979e+01 2.1975178984759324e+01 0 -2 -1
1997 1 5.6517395023316865e+00 2.8589974239339316e+01 1.9831512357093409e+01 -1 1 1
2027 1 4.3652315282633163e+00 2.0485214979454057e+01 2.2663904011482146e+01 2 -2 0
4024 1 4.1081376897379478e+00 2.0350407331455461e+01 2.5533166519443199e+01 -3 1 0
2050 1 4.2182960605500472e+00 2.3285342638023483e+01 2.3026764066956034e+01 -1 1 1
2698 1 4.2693828715248268e+00 2.2972575237414304e+01 2.5626924942261454e+01 0 -1 1
28 1 1.0051016180916150e-01 2.3614008724350047e+01 2.2944925476524027e+01 3 0 0
1974 1 7.2139061953409822e-01 2.9086033270675323e+01 2.5282833658163106e+01 2 -6 0
3260 1 5.4721106857831820e+00 2.8341484039985950e+01 2.5914124632704819e+01 -1 2 1
592 1 2.7741714790737975e+00 2.7392715335009012e+01 2.5458125541143367e+01 3 2 -1
3242 1 2.2733816076449074e+00 2.4747858118997943e+01 2.6031264234034090e+01 3 5 0
4000 1 2.9228405823291181e+00 2.7505862395340912e+01 2.2764156013893242e+01 2 -1 -1
783 2 0.0000000000000000e+00 2.9838039261988989e+01 2.7993282142734186e+00 0 0 0
785 2 1.2304999999999993e+00 3.0548468768226829e+01 2.7993282142734186e+00 0 0 0
805 2 2.4610000000000003e+00 2.9838039261988989e+01 2.7993282142734186e+00 0 0 0
807 2 3.6915000000000004e+00 3.0548468768226829e+01 2.7993282142734186e+00 0 0 0
835 2 4.9220000000000006e+00 2.9838039261988989e+01 2.7993282142734186e+00 0 0 0
781 2 0.0000000000000000e+00 3.2679757286940330e+01 2.7993282142734186e+00 0 0 0
797 2 0.0000000000000000e+00 3.4100616299415996e+01 2.7993282142734186e+00 0 0 0
801 2 1.2304999999999993e+00 3.1969327780702493e+01 2.7993282142734186e+00 0 0 0
803 2 2.4610000000000003e+00 3.2679757286940337e+01 2.7993282142734186e+00 0 0 0
827 2 2.4609999999999985e+00 3.4100616299415996e+01 2.7993282142734186e+00 0 0 0
831 2 3.6914999999999996e+00 3.1969327780702493e+01 2.7993282142734186e+00 0 0 0
833 2 4.9220000000000015e+00 3.2679757286940337e+01 2.7993282142734186e+00 0 0 0
865 2 4.9220000000000006e+00 3.4100616299415996e+01 2.7993282142734186e+00 0 0 0
799 2 1.2305000000000010e+00 3.4811045805653833e+01 2.7993282142734186e+00 0 0 0
829 2 3.6915000000000018e+00 3.4811045805653833e+01 2.7993282142734186e+00 0 0 0
795 2 0.0000000000000000e+00 3.6942334324367337e+01 2.7993282142734186e+00 0 0 0
819 2 0.0000000000000000e+00 3.8363193336842990e+01 2.7993282142734186e+00 0 0 0
823 2 1.2304999999999993e+00 3.6231904818129486e+01 2.7993282142734186e+00 0 0 0
825 2 2.4610000000000021e+00 3.6942334324367337e+01 2.7993282142734186e+00 0 0 0
857 2 2.4610000000000003e+00 3.8363193336842990e+01 2.7993282142734186e+00 0 0 0
861 2 3.6914999999999996e+00 3.6231904818129486e+01 2.7993282142734186e+00 0 0 0
863 2 4.9220000000000006e+00 3.6942334324367316e+01 2.7993282142734186e+00 0 0 0
902 2 4.9220000000000006e+00 3.8363193336842990e+01 2.7993282142734186e+00 0 0 0
821 2 1.2305000000000010e+00 3.9073622843080841e+01 2.7993282142734186e+00 0 0 0
859 2 3.6915000000000018e+00 3.9073622843080820e+01 2.7993282142734186e+00 0 0 0
782 2 0.0000000000000000e+00 3.1258898274464656e+01 5.8471142038055328e+00 0 0 0
784 2 0.0000000000000000e+00 2.9838039261988989e+01 5.8471142038055328e+00 0 0 0
804 2 2.4609999999999985e+00 3.1258898274464656e+01 5.8471142038055328e+00 0 0 0
806 2 2.4610000000000003e+00 2.9838039261988989e+01 5.8471142038055328e+00 0 0 0
1094 2 0.0000000000000000e+00 2.9838039261988989e+01 8.8949001933411935e+00 0 0 0
1095 2 1.2304999999999993e+00 3.0548468768226829e+01 8.8949001933411935e+00 0 0 0
1105 2 2.4610000000000003e+00 2.9838039261988989e+01 8.8949001933411935e+00 0 0 0
1106 2 3.6915000000000004e+00 3.0548468768226829e+01 8.8949001933411935e+00 0 0 0
834 2 4.9219999999999979e+00 3.1258898274464656e+01 5.8471142038055328e+00 0 0 0
836 2 4.9220000000000006e+00 2.9838039261988989e+01 5.8471142038055328e+00 0 0 0
1120 2 4.9220000000000006e+00 2.9838039261988989e+01 8.8949001933411935e+00 0 0 0
798 2 0.0000000000000000e+00 3.4100616299415996e+01 5.8471142038055328e+00 0 0 0
800 2 1.2304999999999993e+00 3.3390186793178160e+01 5.8471142038055328e+00 0 0 0
802 2 1.2304999999999993e+00 3.1969327780702493e+01 5.8471142038055328e+00 0 0 0
828 2 2.4609999999999985e+00 3.4100616299415996e+01 5.8471142038055328e+00 0 0 0
830 2 3.6914999999999978e+00 3.3390186793178160e+01 5.8471142038055328e+00 0 0 0
832 2 3.6914999999999996e+00 3.1969327780702493e+01 5.8471142038055328e+00 0 0 0