LAMMPS data file via write_data, version 16 Mar 2018, timestep = 100000

4063 atoms
2 atom types

0.0000000000000000e+00 4.9219999999999999e+01 xlo xhi
0.0000000000000000e+00 4.9019635930410494e+01 ylo yhi
1.7961203134055506e+00 2.6143879686593024e+01 zlo zhi

Masses

1 18.015
2 12.01

Atoms # atomic

53 2 0.0000000000000000e+00 2.8417180249513345e+00 3.3147617080942977e+00 0 0 0
55 2 0.0000000000000000e+00 0.0000000000000000e+00 3.3147617080942977e+00 0 0 0
57 2 1.2305000000000001e+00 7.1042950623783474e-01 3.3147617080942977e+00 0 0 0
64 2 1.2305000000000001e+00 2.1312885187134998e+00 3.3147617080942977e+00 0 0 0
66 2 2.4610000000000003e+00 2.8417180249513345e+00 3.3147617080942977e+00 0 0 0
68 2 2.4610000000000003e+00 0.0000000000000000e+00 3.3147617080942977e+00 0 0 0
70 2 3.6915000000000004e+00 7.1042950623783474e-01 3.3147617080942977e+00 0 0 0
85 2 3.6914999999999996e+00 2.1312885187134998e+00 3.3147617080942977e+00 0 0 0
87 2 4.9220000000000006e+00 2.8417180249513332e+00 3.3147617080942977e+00 0 0 0
89 2 4.9220000000000006e+00 0.0000000000000000e+00 3.3147617080942977e+00 0 0 0
60 2 0.0000000000000000e+00 4.2625770374269996e+00 3.3147617080942977e+00 0 0 0
81 2 2.4610000000000003e+00 4.2625770374269996e+00 3.3147617080942977e+00 0 0 0
110 2 4.9220000000000006e+00 4.2625770374269978e+00 3.3147617080942977e+00 0 0 0
62 2 1.2305000000000001e+00 4.9730065436648339e+00 3.3147617080942977e+00 0 0 0
77 2 1.2305000000000001e+00 6.3938655561404980e+00 3.3147617080942977e+00 0 0 0
83 2 3.6914999999999996e+00 4.9730065436648339e+00 3.3147617080942977e+00 0 0 0
106 2 3.6914999999999996e+00 6.3938655561404980e+00 3.3147617080942977e+00 0 0 0
58 2 0.0000000000000000e+00 7.1042950623783341e+00 3.3147617080942977e+00 0 0 0
73 2 0.0000000000000000e+00 8.5251540748539991e+00 3.3147617080942977e+00 0 0 0
75 2 1.2305000000000001e+00 9.2355835810918343e+00 3.3147617080942977e+00 0 0 0
79 2 2.4610000000000003e+00 7.1042950623783341e+00 3.3147617080942977e+00 0 0 0
102 2 2.4610000000000003e+00 8.5251540748539991e+00 3.3147617080942977e+00 0 0 0
104 2 3.6915000000000004e+00 9.2355835810918343e+00 3.3147617080942977e+00 0 0 0
108 2 4.9220000000000006e+00 7.1042950623783341e+00 3.3147617080942977e+00 0 0 0
139 2 4.9220000000000006e+00 8.5251540748539991e+00 3.3147617080942977e+00 0 0 0
54 2 0.0000000000000000e+00 1.4208590124756650e+00 6.2219177506428620e+00 0 0 0
56 2 0.0000000000000000e+00 0.0000000000000000e+00 6.2219177506428620e+00 0 0 0
65 2 1.2305000000000001e+00 2.1312885187134998e+00 6.2219177506428620e+00 0 0 0
67 2 2.4610000000000003e+00 1.4208590124756650e+00 6.2219177506428620e+00 0 0 0
69 2 2.4610000000000003e+00 0.0000000000000000e+00 6.2219177506428620e+00 0 0 0
86 2 3.6914999999999996e+00 2.1312885187134998e+00 6.2219177506428620e+00 0 0 0
382 2 0.0000000000000000e+00 2.8417180249513345e+00 9.1290737931911252e+00 0 0 0
383 2 0.0000000000000000e+00 0.0000000000000000e+00 9.1290737931911252e+00 0 0 0
384 2 1.2305000000000001e+00 7.1042950623783474e-01 9.1290737931911252e+00 0 0 0
388 2 1.2305000000000001e+00 2.1312885187134998e+00 9.1290737931911252e+00 0 0 0
389 2 2.4610000000000003e+00 2.8417180249513345e+00 9.1290737931911252e+00 0 0 0
390 2 2.4610000000000003e+00 0.0000000000000000e+00 9.1290737931911252e+00 0 0 0
391 2 3.6915000000000004e+00 7.1042950623783474e-01 9.1290737931911252e+00 0 0 0
399 2 3.6914999999999996e+00 2.1312885187134998e+00 9.1290737931911252e+00 0 0 0
88 2 4.9220000000000006e+00 1.4208590124756650e+00 6.2219177506428620e+00 0 0 0
90 2 4.9220000000000006e+00 0.0000000000000000e+00 6.2219177506428620e+00 0 0 0
400 2 4.9220000000000006e+00 2.8417180249513332e+00 9.1290737931911252e+00 0 0 0
401 2 4.9220000000000006e+00 0.0000000000000000e+00 9.1290737931911252e+00 0 0 0
61 2 0.0000000000000000e+00 4.2625770374269996e+00 6.2219177506428620e+00 0 0 0
63 2 1.2305000000000001e+00 3.5521475311891644e+00 6.2219177506428620e+00 0 0 0
82 2 2.4610000000000003e+00 4.2625770374269996e+00 6.2219177506428620e+00 0 0 0
84 2 3.6914999999999996e+00 3.5521475311891644e+00 6.2219177506428620e+00 0 0 0
386 2 0.0000000000000000e+00 4.2625770374269996e+00 9.1290737931911252e+00 0 0 0
397 2 2.4610000000000003e+00 4.2625770374269996e+00 9.1290737931911252e+00 0 0 0
111 2 4.9220000000000006e+00 4.2625770374269978e+00 6.2219177506428620e+00 0 0 0
412 2 4.9220000000000006e+00 4.2625770374269978e+00 9.1290737931911252e+00 0 0 0
59 2 0.0000000000000000e+00 5.6834360499026637e+00 6.2219177506428620e+00 0 0 0
78 2 1.2305000000000001e+00 6.3938655561404980e+00 6.2219177506428620e+00 0 0 0
80 2 2.4610000000000003e+00 5.6834360499026637e+00 6.2219177506428620e+00 0 0 0
107 2 3.6914999999999996e+00 6.3938655561404980e+00 6.2219177506428620e+00 0 0 0
387 2 1.2305000000000001e+00 4.9730065436648339e+00 9.1290737931911252e+00 0 0 0
395 2 1.2305000000000001e+00 6.3938655561404980e+00 9.1290737931911252e+00 0 0 0
398 2 3.6914999999999996e+00 4.9730065436648339e+00 9.1290737931911252e+00 0 0 0
410 2 3.6914999999999996e+00 6.3938655561404980e+00 9.1290737931911252e+00 0 0 0
109 2 4.9220000000000006e+00 5.6834360499026637e+00 6.2219177506428620e+00 0 0 0
74 2 0.0000000000000000e+00 8.5251540748539991e+00 6.2219177506428620e+00 0 0 0
76 2 1.2305000000000001e+00 7.8147245686161639e+00 6.2219177506428620e+00 0 0 0
103 2 2.4610000000000003e+00 8.5251540748539991e+00 6.2219177506428620e+00 0 0 0
105 2 3.6914999999999996e+00 7.8147245686161639e+00 6.2219177506428620e+00 0 0 0
385 2 0.0000000000000000e+00 7.1042950623783341e+00 9.1290737931911252e+00 0 0 0
393 2 0.0000000000000000e+00 8.5251540748539991e+00 9.1290737931911252e+00 0 0 0
394 2 1.2305000000000001e+00 9.2355835810918343e+00 9.1290737931911252e+00 0 0 0
396 2 2.4610000000000003e+00 7.1042950623783341e+00 9.1290737931911252e+00 0 0 0
408 2 2.4610000000000003e+00 8.5251540748539991e+00 9.1290737931911252e+00 0 0 0
409 2 3.6915000000000004e+00 9.2355835810918343e+00 9.1290737931911252e+00 0 0 0
140 2 4.9220000000000006e+00 8.5251540748539991e+00 6.2219177506428620e+00 0 0 0
411 2 4.9220000000000006e+00 7.1042950623783341e+00 9.1290737931911252e+00 0 0 0
427 2 4.9220000000000006e+00 8.5251540748539991e+00 9.1290737931911252e+00 0 0 0
3248 1 1.0133509204101518e+00 8.7865980266158292e+00 1.2535772094234188e+01 1 1 0
1240 1 5.2687420130520994e+00 3.6193924984612789e+00 1.1860980755652784e+01 1 1 1
2650 1 2.6539865065771764e+00 3.4945659784939074e+00 1.1445083861505266e+01 1 0 0
553 1 5.0336885562643454e+00 8.8337582323711157e+00 1.1153041505955434e+01 1 0 0
561 1 2.9325123511471181e+00 6.7235055606661858e+00 1.1499164342204434e+01 1 2 1
1244 1 2.7090960783798010e+00 7.8029215541082864e-01 1.1999441765862747e+01 0 1 1
2129 1 2.3703697319974754e-01 4.9837578575424333e+00 1.1724082579764056e+01 0 0 1
3448 1 3.9115598145273522e-01 2.4355109017616501e+00 1.6705367999804846e+01 1 0 0
1904 1 3.5102336646438621e+00 6.4447957605706065e+00 1.3996016766518556e+01 0 0 0
2762 1 3.3583117962335209e+00 2.1605903995101898e+00 1.6238396714267900e+01 1 1 0
1382 1 1.8145608233331187e+00 7.6273479313318493e+00 2.4446065204697490e+01 1 0 1
1930 1 4.8569293680332430e+00 4.0835575965849671e+00 1.4709089837212582e+01 0 1 0
1332 1 3.9689468363292897e+00 1.0722901403947223e-01 1.4553806540755421e+01 0 -1 -2
3263 1 5.7063906184652424e+00 9.3808792367978935e+00 1.6117664441575712e+01 2 1 0
39 1 1.3885727702284774e+00 7.2585667970711478e+00 1.5754653156987182e+01 0 0 0
3333 1 6.5245640874436295e-01 6.8555542993264309e+00 2.1729020466833518e+01 1 1 -1
765 1 5.9258358458346736e+00 7.4769348070216131e+00 1.3990128487811594e+01 0 0 0
3345 1 3.7019837162795253e+00 8.4309048642033986e+00 2.2222972252413072e+01 1 1 -1
2020 1 4.6824482346229983e+00 2.7914351636182158e+00 1.8706565022576285e+01 1 0 0
3257 1 2.2039540820536345e+00 9.2027865104858790e+00 1.8630642817491825e+01 1 0 0
1392 1 5.6013166784589918e+00 6.2658023020671809e+00 2.2313959281631320e+01 1 0 -1
2732 1 4.8604089436944031e+00 5.7592553616546907e+00 1.9052703055928625e+01 0 0 0
2110 1 2.1481350147043630e+00 2.4039580339699067e+00 2.2094055629514514e+01 -1 1 1
1357 1 1.9988236838487277e+00 4.8375419020541628e+00 2.5008538922672486e+01 0 1 1
3321 1 2.4766177832968177e+00 1.8028385463354155e+00 2.4786489214200266e+01 0 0 0
2089 1 5.0300100790318547e+00 3.8282095920127626e+00 2.4910494854194134e+01 1 1 0
1933 1 3.3450999199277596e+00 5.6473587990888785e-01 2.0552876467785808e+01 1 1 0
2573 1 4.7773378587851809e+00 3.8134044656338562e+00 2.1843232365137204e+01 1 0 0
1914 1 4.5554500124261477e+00 9.3156319020251352e+00 2.4859021835216211e+01 0 0 0
2012 1 2.3343018558251929e+00 6.6062009255606373e+00 1.9282643593111196e+01 1 -1 0
1986 1 5.3396516606564379e+00 6.4044938207393480e+00 2.4936884811170060e+01 0 0 0
3286 1 5.0703540583856210e-01 5.1714435191756385e+00 1.7643409612997239e+01 0 0 -1
3301 1 8.1971031335877742e-02 4.8420117552497137e+00 1.4469991241043413e+01 1 1 0
71 2 0.0000000000000000e+00 1.1366872099805333e+01 3.3147617080942977e+00 0 0 0
94 2 0.0000000000000000e+00 1.2787731112280996e+01 3.3147617080942977e+00 0 0 0
96 2 1.2305000000000001e+00 1.3498160618518829e+01 3.3147617080942977e+00 0 0 0
98 2 1.2305000000000001e+00 1.0656442593567498e+01 3.3147617080942977e+00 0 0 0
100 2 2.4610000000000003e+00 1.1366872099805333e+01 3.3147617080942977e+00 0 0 0
131 2 2.4610000000000003e+00 1.2787731112280996e+01 3.3147617080942977e+00 0 0 0
133 2 3.6915000000000004e+00 1.3498160618518829e+01 3.3147617080942977e+00 0 0 0
135 2 3.6914999999999996e+00 1.0656442593567499e+01 3.3147617080942977e+00 0 0 0
137 2 4.9220000000000006e+00 1.1366872099805333e+01 3.3147617080942977e+00 0 0 0
176 2 4.9220000000000006e+00 1.2787731112280996e+01 3.3147617080942977e+00 0 0 0
178 2 6.1524999999999990e+00 1.3498160618518829e+01 3.3147617080942977e+00 0 0 0
92 2 0.0000000000000000e+00 1.5629449137232333e+01 3.3147617080942977e+00 0 0 0
123 2 0.0000000000000000e+00 1.7050308149707998e+01 3.3147617080942977e+00 0 0 0
127 2 1.2305000000000001e+00 1.4919019630994494e+01 3.3147617080942977e+00 0 0 0
129 2 2.4610000000000003e+00 1.5629449137232328e+01 3.3147617080942977e+00 0 0 0
168 2 2.4610000000000003e+00 1.7050308149707998e+01 3.3147617080942977e+00 0 0 0
172 2 3.6915000000000004e+00 1.4919019630994494e+01 3.3147617080942977e+00 0 0 0
174 2 4.9220000000000006e+00 1.5629449137232333e+01 3.3147617080942977e+00 0 0 0
215 2 4.9220000000000006e+00 1.7050308149707998e+01 3.3147617080942977e+00 0 0 0
219 2 6.1524999999999990e+00 1.4919019630994494e+01 3.3147617080942977e+00 0 0 0
125 2 1.2305000000000001e+00 1.7760737655945832e+01 3.3147617080942977e+00 0 0 0
164 2 1.2305000000000001e+00 1.9181596668421495e+01 3.3147617080942977e+00 0 0 0
170 2 3.6914999999999996e+00 1.7760737655945832e+01 3.3147617080942977e+00 0 0 0
211 2 3.6914999999999996e+00 1.9181596668421495e+01 3.3147617080942977e+00 0 0 0
72 2 0.0000000000000000e+00 9.9460130873296642e+00 6.2219177506428620e+00 0 0 0
101 2 2.4610000000000003e+00 9.9460130873296642e+00 6.2219177506428620e+00 0 0 0
138 2 4.9220000000000006e+00 9.9460130873296642e+00 6.2219177506428620e+00 0 0 0
95 2 0.0000000000000000e+00 1.2787731112280996e+01 6.2219177506428620e+00 0 0 0
97 2 1.2305000000000001e+00 1.2077301606043163e+01 6.2219177506428620e+00 0 0 0
99 2 1.2305000000000001e+00 1.0656442593567498e+01 6.2219177506428620e+00 0 0 0
132 2 2.4610000000000003e+00 1.2787731112280996e+01 6.2219177506428620e+00 0 0 0
134 2 3.6914999999999996e+00 1.2077301606043163e+01 6.2219177506428620e+00 0 0 0
136 2 3.6914999999999996e+00 1.0656442593567499e+01 6.2219177506428620e+00 0 0 0
392 2 0.0000000000000000e+00 1.1366872099805333e+01 9.1290737931911252e+00 0 0 0
404 2 0.0000000000000000e+00 1.2787731112280996e+01 9.1290737931911252e+00 0 0 0
405 2 1.2305000000000001e+00 1.3498160618518829e+01 9.1290737931911252e+00 0 0 0
406 2 1.2305000000000001e+00 1.0656442593567498e+01 9.1290737931911252e+00 0 0 0
407 2 2.4610000000000003e+00 1.1366872099805333e+01 9.1290737931911252e+00 0 0 0
423 2 2.4610000000000003e+00 1.2787731112280996e+01 9.1290737931911252e+00 0 0 0
424 2 3.6915000000000004e+00 1.3498160618518829e+01 9.1290737931911252e+00 0 0 0
425 2 3.6914999999999996e+00 1.0656442593567499e+01 9.1290737931911252e+00 0 0 0
177 2 4.9220000000000006e+00 1.2787731112280996e+01 6.2219177506428620e+00 0 0 0
426 2 4.9220000000000006e+00 1.1366872099805333e+01 9.1290737931911252e+00 0 0 0
446 2 4.9220000000000006e+00 1.2787731112280996e+01 9.1290737931911252e+00 0 0 0
447 2 6.1524999999999990e+00 1.3498160618518829e+01 9.1290737931911252e+00 0 0 0
93 2 0.0000000000000000e+00 1.4208590124756663e+01 6.2219177506428620e+00 0 0 0
130 2 2.4610000000000003e+00 1.4208590124756663e+01 6.2219177506428620e+00 0 0 0
175 2 4.9220000000000006e+00 1.4208590124756663e+01 6.2219177506428620e+00 0 0 0
124 2 0.0000000000000000e+00 1.7050308149707998e+01 6.2219177506428620e+00 0 0 0
126 2 1.2305000000000001e+00 1.6339878643470165e+01 6.2219177506428620e+00 0 0 0
128 2 1.2305000000000001e+00 1.4919019630994494e+01 6.2219177506428620e+00 0 0 0
169 2 2.4610000000000003e+00 1.7050308149707998e+01 6.2219177506428620e+00 0 0 0
171 2 3.6915000000000004e+00 1.6339878643470165e+01 6.2219177506428620e+00 0 0 0
173 2 3.6915000000000004e+00 1.4919019630994494e+01 6.2219177506428620e+00 0 0 0
403 2 0.0000000000000000e+00 1.5629449137232333e+01 9.1290737931911252e+00 0 0 0
419 2 0.0000000000000000e+00 1.7050308149707998e+01 9.1290737931911252e+00 0 0 0
421 2 1.2305000000000001e+00 1.4919019630994494e+01 9.1290737931911252e+00 0 0 0
422 2 2.4610000000000003e+00 1.5629449137232328e+01 9.1290737931911252e+00 0 0 0
442 2 2.4610000000000003e+00 1.7050308149707998e+01 9.1290737931911252e+00 0 0 0
444 2 3.6915000000000004e+00 1.4919019630994494e+01 9.1290737931911252e+00 0 0 0
216 2 4.9220000000000006e+00 1.7050308149707998e+01 6.2219177506428620e+00 0 0 0
220 2 6.1524999999999990e+00 1.4919019630994494e+01 6.2219177506428620e+00 0 0 0
445 2 4.9220000000000006e+00 1.5629449137232333e+01 9.1290737931911252e+00 0 0 0
466 2 4.9220000000000006e+00 1.7050308149707998e+01 9.1290737931911252e+00 0 0 0
468 2 6.1524999999999990e+00 1.4919019630994494e+01 9.1290737931911252e+00 0 0 0
122 2 0.0000000000000000e+00 1.8471167162183658e+01 6.2219177506428620e+00 0 0 0
165 2 1.2305000000000001e+00 1.9181596668421495e+01 6.2219177506428620e+00 0 0 0
167 2 2.4610000000000003e+00 1.8471167162183658e+01 6.2219177506428620e+00 0 0 0
212 2 3.6914999999999996e+00 1.9181596668421495e+01 6.2219177506428620e+00 0 0 0
420 2 1.2305000000000001e+00 1.7760737655945832e+01 9.1290737931911252e+00 0 0 0
440 2 1.2305000000000001e+00 1.9181596668421495e+01 9.1290737931911252e+00 0 0 0
443 2 3.6914999999999996e+00 1.7760737655945832e+01 9.1290737931911252e+00 0 0 0
464 2 3.6914999999999996e+00 1.9181596668421495e+01 9.1290737931911252e+00 0 0 0
214 2 4.9220000000000006e+00 1.8471167162183658e+01 6.2219177506428620e+00 0 0 0
3922 1 3.4196323373797015e+00 1.0356709330979019e+01 1.3006652120831422e+01 1 0 0
1312 1 3.2134832518631709e+00 1.2982476051878212e+01 1.2058292967737499e+01 -1 -1 -1
1435 1 3.6319961379559542e+00 1.8970590748035381e+01 1.2235085979720678e+01 0 0 0
3410 1 1.1849692611825691e+00 1.5088402712340665e+01 1.1762211352377353e+01 1 0 0
4034 1 9.8255345672226180e-01 1.7725783837486116e+01 1.1821585429386314e+01 1 -1 -1
2037 1 5.5250360230083375e+00 1.4560188461289748e+01 1.1970461173218087e+01 0 0 0
1360 1 5.9466860756254674e+00 1.7326608131850083e+01 1.1805828292000534e+01 -1 0 -1
729 1 3.3816884020515525e+00 1.0897227164763455e+01 1.5854837979593622e+01 1 0 -1
1 1 3.1357480317087201e+00 1.3362707194828742e+01 1.5002439762564133e+01 0 0 0
1945 1 2.4263307741394588e-01 1.2528047975148361e+01 2.4089099668693017e+01 1 1 -1
1398 1 5.8276257771981155e-01 1.4843969746226874e+01 1.4836227479380909e+01 -1 1 -1
1995 1 6.6028818241500531e-01 1.7725853798561012e+01 1.4694596048923341e+01 1 0 0
1966 1 2.5274204888052687e-01 1.0504991118422625e+01 2.0623710410811263e+01 0 0 -1
1393 1 4.8491528710919063e+00 1.8617143961328818e+01 2.4691328606431817e+01 -1 1 -1
606 1 2.9457138274285963e+00 1.1652323635524191e+01 2.4789771485401829e+01 1 -2 -1
770 1 3.3067261239763419e+00 1.8683735307154524e+01 1.5168217997608131e+01 0 0 -1
2701 1 5.8353999137145438e+00 1.4375533454706220e+01 1.4989016683378454e+01 1 0 0
1257 1 4.2832966060196673e+00 1.2907320096550716e+01 1.8231975979288066e+01 0 1 -1
3967 1 2.4428840368388260e+00 1.3670645138558069e+01 2.0559788044510107e+01 0 1 0
4040 1 9.3201741376248071e-01 1.5132187627331383e+01 2.2356317894880981e+01 1 0 0
2087 1 3.5214964289967998e+00 1.8822172704616467e+01 1.8344087541781967e+01 2 1 0
1950 1 2.2280927706402922e+00 1.8288179965833027e+01 2.5536029651063721e+01 1 1 0
1316 1 4.7345191960812238e+00 1.7855177542962796e+01 2.2131118460102549e+01 -1 -1 0
1948 1 1.6835937715017164e+00 1.5614496071803156e+01 2.5185988268881829e+01 1 0 -1
709 1 1.4958155394859463e+00 1.6862291812856725e+01 1.7415501372382820e+01 -1 0 -1
2594 1 1.6171569512295514e+00 1.3981815654908425e+01 1.7605029225288479e+01 1 0 -1
2607 1 2.6342675103983066e+00 1.1299238848819334e+01 2.1858659656155837e+01 2 0 -1
3352 1 5.7892775265544749e-01 1.0159155494014565e+01 1.6262550290023658e+01 1 0 1
2682 1 4.0248162567858872e+00 1.4212807943544624e+01 2.5006458906775350e+01 0 -2 0
3973 1 4.2939376566551974e+00 1.5215600125060476e+01 2.2348840122579325e+01 0 0 -1
693 1 5.7911038623671658e+00 1.7180212764614399e+01 1.4749259594885990e+01 1 0 0
2060 1 2.2334438052494527e+00 1.8701860650148081e+01 2.0866657062093651e+01 0 0 0
3926 1 4.4620532993290949e+00 1.0473535612354317e+01 1.9310438229273096e+01 1 0 -1
121 2 0.0000000000000000e+00 1.9892026174659328e+01 3.3147617080942977e+00 0 0 0
166 2 2.4610000000000003e+00 1.9892026174659328e+01 3.3147617080942977e+00 0 0 0
213 2 4.9220000000000006e+00 1.9892026174659328e+01 3.3147617080942977e+00 0 0 0
158 2 0.0000000000000000e+00 2.4154603212086325e+01 3.3147617080942977e+00 0 0 0
160 2 0.0000000000000000e+00 2.1312885187134999e+01 3.3147617080942977e+00 0 0 0
162 2 1.2304999999999993e+00 2.2023314693372832e+01 3.3147617080942977e+00 0 0 0
203 2 1.2304999999999993e+00 2.3444173705848499e+01 3.3147617080942977e+00 0 0 0
205 2 2.4610000000000003e+00 2.4154603212086325e+01 3.3147617080942977e+00 0 0 0
207 2 2.4610000000000003e+00 2.1312885187134995e+01 3.3147617080942977e+00 0 0 0
209 2 3.6914999999999996e+00 2.2023314693372832e+01 3.3147617080942977e+00 0 0 0
250 2 3.6915000000000004e+00 2.3444173705848499e+01 3.3147617080942977e+00 0 0 0
252 2 4.9220000000000006e+00 2.4154603212086325e+01 3.3147617080942977e+00 0 0 0
254 2 4.9220000000000006e+00 2.1312885187134995e+01 3.3147617080942977e+00 0 0 0
256 2 6.1524999999999990e+00 2.2023314693372832e+01 3.3147617080942977e+00 0 0 0
777 2 0.0000000000000000e+00 2.5575462224561992e+01 3.3147617080942977e+00 0 0 0
779 2 1.2305000000000001e+00 2.6285891730799833e+01 3.3147617080942977e+00 0 0 0
787 2 1.2305000000000010e+00 2.7706750743275496e+01 3.3147617080942977e+00 0 0 0
791 2 2.4610000000000003e+00 2.5575462224561992e+01 3.3147617080942977e+00 0 0 0
793 2 3.6914999999999991e+00 2.6285891730799833e+01 3.3147617080942977e+00 0 0 0
809 2 3.6914999999999996e+00 2.7706750743275496e+01 3.3147617080942977e+00 0 0 0
813 2 4.9220000000000006e+00 2.5575462224561992e+01 3.3147617080942977e+00 0 0 0
839 2 6.1524999999999990e+00 2.7706750743275496e+01 3.3147617080942977e+00 0 0 0
775 2 0.0000000000000000e+00 2.8417180249513333e+01 3.3147617080942977e+00 0 0 0
789 2 2.4610000000000003e+00 2.8417180249513326e+01 3.3147617080942977e+00 0 0 0
811 2 4.9220000000000006e+00 2.8417180249513336e+01 3.3147617080942977e+00 0 0 0
163 2 1.2305000000000001e+00 2.0602455680897162e+01 6.2219177506428620e+00 0 0 0
210 2 3.6915000000000004e+00 2.0602455680897162e+01 6.2219177506428620e+00 0 0 0
418 2 0.0000000000000000e+00 1.9892026174659328e+01 9.1290737931911252e+00 0 0 0
441 2 2.4610000000000003e+00 1.9892026174659328e+01 9.1290737931911252e+00 0 0 0
465 2 4.9220000000000006e+00 1.9892026174659328e+01 9.1290737931911252e+00 0 0 0
159 2 0.0000000000000000e+00 2.2733744199610655e+01 6.2219177506428620e+00 0 0 0
161 2 0.0000000000000000e+00 2.1312885187134999e+01 6.2219177506428620e+00 0 0 0
204 2 1.2304999999999993e+00 2.3444173705848499e+01 6.2219177506428620e+00 0 0 0
206 2 2.4610000000000003e+00 2.2733744199610655e+01 6.2219177506428620e+00 0 0 0
208 2 2.4610000000000003e+00 2.1312885187134995e+01 6.2219177506428620e+00 0 0 0
251 2 3.6915000000000004e+00 2.3444173705848499e+01 6.2219177506428620e+00 0 0 0
437 2 0.0000000000000000e+00 2.4154603212086325e+01 9.1290737931911252e+00 0 0 0
438 2 0.0000000000000000e+00 2.1312885187134999e+01 9.1290737931911252e+00 0 0 0
439 2 1.2304999999999993e+00 2.2023314693372832e+01 9.1290737931911252e+00 0 0 0
460 2 1.2304999999999993e+00 2.3444173705848499e+01 9.1290737931911252e+00 0 0 0
461 2 2.4610000000000003e+00 2.4154603212086325e+01 9.1290737931911252e+00 0 0 0
462 2 2.4610000000000003e+00 2.1312885187134995e+01 9.1290737931911252e+00 0 0 0
463 2 3.6914999999999996e+00 2.2023314693372832e+01 9.1290737931911252e+00 0 0 0
484 2 3.6915000000000004e+00 2.3444173705848499e+01 9.1290737931911252e+00 0 0 0
253 2 4.9220000000000006e+00 2.2733744199610655e+01 6.2219177506428620e+00 0 0 0
255 2 4.9220000000000006e+00 2.1312885187134995e+01 6.2219177506428620e+00 0 0 0
485 2 4.9220000000000006e+00 2.4154603212086325e+01 9.1290737931911252e+00 0 0 0
486 2 4.9220000000000006e+00 2.1312885187134995e+01 9.1290737931911252e+00 0 0 0
487 2 6.1524999999999990e+00 2.2023314693372832e+01 9.1290737931911252e+00 0 0 0
776 2 0.0000000000000000e+00 2.6996321237037659e+01 6.2219177506428620e+00 0 0 0
778 2 0.0000000000000000e+00 2.5575462224561992e+01 6.2219177506428620e+00 0 0 0
780 2 1.2305000000000001e+00 2.4865032718324155e+01 6.2219177506428620e+00 0 0 0
788 2 1.2305000000000010e+00 2.7706750743275496e+01 6.2219177506428620e+00 0 0 0
790 2 2.4610000000000003e+00 2.6996321237037659e+01 6.2219177506428620e+00 0 0 0
792 2 2.4610000000000003e+00 2.5575462224561992e+01 6.2219177506428620e+00 0 0 0
794 2 3.6914999999999996e+00 2.4865032718324166e+01 6.2219177506428620e+00 0 0 0
810 2 3.6914999999999996e+00 2.7706750743275496e+01 6.2219177506428620e+00 0 0 0
1091 2 0.0000000000000000e+00 2.5575462224561992e+01 9.1290737931911252e+00 0 0 0
1092 2 1.2305000000000001e+00 2.6285891730799833e+01 9.1290737931911252e+00 0 0 0
1096 2 1.2305000000000010e+00 2.7706750743275496e+01 9.1290737931911252e+00 0 0 0
1098 2 2.4610000000000003e+00 2.5575462224561992e+01 9.1290737931911252e+00 0 0 0
1099 2 3.6914999999999991e+00 2.6285891730799833e+01 9.1290737931911252e+00 0 0 0
1107 2 3.6914999999999996e+00 2.7706750743275496e+01 9.1290737931911252e+00 0 0 0
812 2 4.9220000000000006e+00 2.6996321237037659e+01 6.2219177506428620e+00 0 0 0
814 2 4.9220000000000006e+00 2.5575462224561992e+01 6.2219177506428620e+00 0 0 0
816 2 6.1524999999999990e+00 2.4865032718324155e+01 6.2219177506428620e+00 0 0 0
840 2 6.1524999999999990e+00 2.7706750743275496e+01 6.2219177506428620e+00 0 0 0
1109 2 4.9220000000000006e+00 2.5575462224561992e+01 9.1290737931911252e+00 0 0 0
1122 2 6.1524999999999990e+00 2.7706750743275496e+01 9.1290737931911252e+00 0 0 0
786 2 1.2304999999999993e+00 2.9127609755751163e+01 6.2219177506428620e+00 0 0 0
808 2 3.6914999999999991e+00 2.9127609755751152e+01 6.2219177506428620e+00 0 0 0
1090 2 0.0000000000000000e+00 2.8417180249513333e+01 9.1290737931911252e+00 0 0 0
1097 2 2.4610000000000003e+00 2.8417180249513326e+01 9.1290737931911252e+00 0 0 0
838 2 6.1524999999999981e+00 2.9127609755751152e+01 6.2219177506428620e+00 0 0 0
1108 2 4.9220000000000006e+00 2.8417180249513336e+01 9.1290737931911252e+00 0 0 0
1338 1 3.7183143076310938e+00 2.1614884032923236e+01 1.2055534048390385e+01 1 0 0
1963 1 1.1943961731519630e+00 2.2766506196281515e+01 1.1904708412151615e+01 0 0 -1
572 1 5.8758540868242104e+00 2.7616590042952573e+01 1.1597186003091922e+01 0 1 -1
1326 1 2.7591092900091136e+00 2.7140803527663227e+01 1.1862613338315020e+01 1 -1 0
2015 1 4.2880163293817763e-01 2.5548665701012943e+01 1.1723401325762870e+01 0 1 0
2004 1 3.0617292107359584e-01 2.9281901505549502e+01 1.3739184031892657e+01 1 1 -1
2652 1 9.6176460237508998e-01 2.2519277079219716e+01 1.4580501493671393e+01 0 0 0
1246 1 3.8206448490370497e+00 2.1636096855175573e+01 1.5127939685201229e+01 0 0 0
1932 1 1.3004339220785621e+00 2.5228808299505648e+01 2.1962100055419633e+01 2 0 -1
761 1 3.1344231192753589e+00 2.1446443554556506e+01 1.7891614345303424e+01 2 0 0
3264 1 7.0420437363790445e-01 2.4095300433302498e+01 2.4508869486970461e+01 0 0 0
1985 1 4.7469775777691723e+00 2.2199790129757382e+01 2.1890203099750366e+01 1 1 0
3380 1 2.7559051389627029e+00 2.7671201867020070e+01 1.5019959100106218e+01 0 0 0
591 1 5.4241515117483727e+00 2.7186299205085419e+01 1.4247442668206805e+01 1 0 -1
3432 1 2.0341598425151570e+00 2.0990731205371478e+01 2.2231452677103135e+01 0 0 0
1320 1 2.5873886649363104e-01 2.4487818830015971e+01 1.9556133242848716e+01 0 -1 0
2760 1 4.1135969760965896e+00 2.4881679299683366e+01 2.2152193197228542e+01 0 1 0
3928 1 1.0744906469572006e+00 2.1134275594084929e+01 2.4803745337691808e+01 1 0 -1
4008 1 1.7628216222710755e+00 2.5432949521354683e+01 1.7255841710901670e+01 -1 0 -1
3907 1 3.9555180312276770e+00 2.7713135883565752e+01 1.7959260807610477e+01 1 0 0
32 1 5.6458433617458734e+00 2.1560928387665459e+01 1.9206507867879701e+01 0 1 0
669 1 5.5204352208269212e+00 2.1399286644901714e+01 2.4593011962743518e+01 0 -1 -1
4019 1 3.2014875864393999e+00 2.8190287159422347e+01 2.4844076645808187e+01 0 -1 -1
3950 1 4.5774482312687059e+00 2.5782415390420656e+01 2.4865778824635527e+01 0 1 0
1297 1 5.1596730261726638e+00 2.7118247064031181e+01 2.0947992227583804e+01 0 -2 0
1243 1 9.3170506686931209e-01 2.1753175545161142e+01 1.9618199998150644e+01 -1 0 1
3919 1 3.3124233681428250e+00 2.2920129651849180e+01 2.5538116714402982e+01 0 0 0
609 1 7.8993100236042846e-01 2.5438620855817987e+01 1.4705560635143632e+01 1 0 0
1962 1 2.8295730745757774e-01 2.7651927347657061e+01 2.1879065996130443e+01 2 0 0
2113 1 3.2745087212967636e+00 2.8739655091574726e+01 2.2099298504223754e+01 1 0 1
582 1 1.0519525444802031e+00 2.8793892342741366e+01 1.9448252059151088e+01 0 0 0
1298 1 4.1749301194681532e-01 2.8501749419662207e+01 2.4486014897448399e+01 0 0 0
783 2 0.0000000000000000e+00 2.9838039261988989e+01 3.3147617080942977e+00 0 0 0
785 2 1.2304999999999993e+00 3.0548468768226829e+01 3.3147617080942977e+00 0 0 0
805 2 2.4610000000000003e+00 2.9838039261988989e+01 3.3147617080942977e+00 0 0 0
807 2 3.6915000000000004e+00 3.0548468768226829e+01 3.3147617080942977e+00 0 0 0
835 2 4.9220000000000006e+00 2.9838039261988989e+01 3.3147617080942977e+00 0 0 0
781 2 0.0000000000000000e+00 3.2679757286940330e+01 3.3147617080942977e+00 0 0 0
797 2 0.0000000000000000e+00 3.4100616299415996e+01 3.3147617080942977e+00 0 0 0
801 2 1.2304999999999993e+00 3.1969327780702493e+01 3.3147617080942977e+00 0 0 0
803 2 2.4610000000000003e+00 3.2679757286940337e+01 3.3147617080942977e+00 0 0 0
827 2 2.4609999999999985e+00 3.4100616299415996e+01 3.3147617080942977e+00 0 0 0
831 2 3.6914999999999996e+00 3.1969327780702493e+01 3.3147617080942977e+00 0 0 0
833 2 4.9220000000000015e+00 3.2679757286940337e+01 3.3147617080942977e+00 0 0 0
865 2 4.9220000000000006e+00 3.4100616299415996e+01 3.3147617080942977e+00 0 0 0
799 2 1.2305000000000010e+00 3.4811045805653833e+01 3.3147617080942977e+00 0 0 0
829 2 3.6915000000000018e+00 3.4811045805653833e+01 3.3147617080942977e+00 0 0 0
795 2 0.0000000000000000e+00 3.6942334324367337e+01 3.3147617080942977e+00 0 0 0
819 2 0.0000000000000000e+00 3.8363193336842990e+01 3.3147617080942977e+00 0 0 0
823 2 1.2304999999999993e+00 3.6231904818129486e+01 3.3147617080942977e+00 0 0 0
825 2 2.4610000000000021e+00 3.6942334324367337e+01 3.3147617080942977e+00 0 0 0
857 2 2.4610000000000003e+00 3.8363193336842990e+01 3.3147617080942977e+00 0 0 0
861 2 3.6914999999999996e+00 3.6231904818129486e+01 3.3147617080942977e+00 0 0 0
863 2 4.9220000000000006e+00 3.6942334324367316e+01 3.3147617080942977e+00 0 0 0
902 2 4.9220000000000006e+00 3.8363193336842990e+01 3.3147617080942977e+00 0 0 0
821 2 1.2305000000000010e+00 3.9073622843080841e+01 3.3147617080942977e+00 0 0 0
859 2 3.6915000000000018e+00 3.9073622843080820e+01 3.3147617080942977e+00 0 0 0
782 2 0.0000000000000000e+00 3.1258898274464656e+01 6.2219177506428620e+00 0 0 0
784 2 0.0000000000000000e+00 2.9838039261988989e+01 6.2219177506428620e+00 0 0 0
804 2 2.4609999999999985e+00 3.1258898274464656e+01 6.2219177506428620e+00 0 0 0
806 2 2.4610000000000003e+00 2.9838039261988989e+01 6.2219177506428620e+00 0 0 0
1094 2 0.0000000000000000e+00 2.9838039261988989e+01 9.1290737931911252e+00 0 0 0
1095 2 1.2304999999999993e+00 3.0548468768226829e+01 9.1290737931911252e+00 0 0 0
1105 2 2.4610000000000003e+00 2.9838039261988989e+01 9.1290737931911252e+00 0 0 0
1106 2 3.6915000000000004e+00 3.0548468768226829e+01 9.1290737931911252e+00 0 0 0
834 2 4.9219999999999979e+00 3.1258898274464656e+01 6.2219177506428620e+00 0 0 0
836 2 4.9220000000000006e+00 2.9838039261988989e+01 6.2219177506428620e+00 0 0 0
1120 2 4.9220000000000006e+00 2.9838039261988989e+01 9.1290737931911252e+00 0 0 0
798 2 0.0000000000000000e+00 3.4100616299415996e+01 6.2219177506428620e+00 0 0 0
800 2 1.2304999999999993e+00 3.3390186793178160e+01 6.2219177506428620e+00 0 0 0
802 2 1.2304999999999993e+00 3.1969327780702493e+01 6.2219177506428620e+00 0 0 0
828 2 2.4609999999999985e+00 3.4100616299415996e+01 6.2219177506428620e+00 0 0 0
830 2 3.6914999999999978e+00 3.3390186793178160e+01 6.2219177506428620e+00 0 0 0
832 2 3.6914999999999996e+00 3.1969327780702493e+01 6.2219177506428620e+00 0 0 0
1093 2 0.0000000000000000e+00 3.2679757286940330e+01 9.1290737931911252e+00 0 0 0
1101 2 0.0000000000000000e+00 3.4100616299415996e+01 9.1290737931911252e+00 0 0 0
1103 2 1.2304999999999993e+00 3.1969327780702493e+01 9.1290737931911252e+00 0 0 0