
# Create simulation box and atoms

read_data data.ML_graphite_m500atm_250K
  orthogonal box = (0 0 1.82651) to (49.22 49.0196 26.1135)
  8 by 5 by 2 MPI processor grid
  reading atoms ...
  4063 atoms
  reading velocities ...
  4063 velocities
group water type 1
1303 atoms in group water
group graphite type 2
2760 atoms in group graphite

# Define potential

pair_style sw
pair_coeff * * MLC_e.sw mW C


# Fix graphite atoms in place

fix 5 graphite setforce 0.0 0.0 0.0
velocity graphite set 0.0 0.0 0.0


# Equilibration of molecular water

# Add velocity/set timestep

velocity	    water create ${TEMP} ${SEED} rot yes dist gaussian
velocity	    water create 250 ${SEED} rot yes dist gaussian
velocity	    water create 250 32075 rot yes dist gaussian
timestep	    5.0

# Define output

compute			1 water msd
compute			3 water temp
thermo	    	50
thermo_style	custom step temp press vol etotal ke pe c_1[4] c_3

# Neighbor lists

neigh_modify    delay 0 every 1 check yes

# Set fixes

fix             1 water momentum 10 linear 1 1 1 rescale
fix             2 water nve
fix             3 water temp/csvr ${TEMP} ${TEMP} 500.0 ${SEED}
fix             3 water temp/csvr 250 ${TEMP} 500.0 ${SEED}
fix             3 water temp/csvr 250 250 500.0 ${SEED}
fix             3 water temp/csvr 250 250 500.0 32075
fix             4 water press/berendsen z ${PRES} ${PRES} 1000.0 modulus 20000
fix             4 water press/berendsen z -500 ${PRES} 1000.0 modulus 20000
fix             4 water press/berendsen z -500 -500 1000.0 modulus 20000

# Run 0.5 ns equilibration

dump		    1 all atom 2000 ${DIR}/eq.${NAME}-${TEMP}.dump
dump		    1 all atom 2000 run_15/eq.${NAME}-${TEMP}.dump
dump		    1 all atom 2000 run_15/eq.het_freeze_15-${TEMP}.dump
dump		    1 all atom 2000 run_15/eq.het_freeze_15-250.dump

reset_timestep  0

run	            100000
Neighbor list info ...
  update every 1 steps, delay 0 steps, check yes
  max neighbors/atom: 2000, page size: 100000
  master list distance cutoff = 6.67472
  ghost atom cutoff = 6.67472
  binsize = 3.33736, bins = 15 15 8
  1 neighbor lists, perpetual/occasional/extra = 1 0 0
  (1) pair sw, perpetual
      attributes: full, newton on
      pair build: full/bin/atomonly
      stencil: full/bin/3d
      bin: standard
Per MPI rank memory allocation (min/avg/max) = 4.096 | 4.284 | 4.472 Mbytes
Step Temp Press Volume TotEng KinEng PotEng c_1[4] c_3 
       0    80.132939   -1249.8493    58598.323   -12595.461    970.25367   -13565.715            0          250 
      50    80.266692   -1357.1169    58504.208   -12620.959    971.87315   -13592.832   0.52242063    250.41728 
     100    79.464869   -954.23881    58514.431   -12625.404    962.16464   -13587.569   0.93157058    247.91574 
     150    79.675885   -1011.7978    58521.149   -12622.793    964.71963   -13587.513    1.1901897    248.57407 
     200    81.755699   -1168.2374    58550.462   -12637.417    989.90213   -13627.319    1.3950425    255.06271 
     250    81.898146   -1419.8055    58586.825   -12612.761    991.62689   -13604.388    1.6949352    255.50712 
     300     81.83908   -858.11662    58568.166   -12625.179    990.91171    -13616.09    1.9510669    255.32284 
     350    81.137711   -1204.8389    58561.282   -12605.519     982.4195   -13587.938    2.2031358     253.1347 
     400    81.897286   -822.98653    58540.125   -12617.447    991.61647   -13609.063    2.4198942    255.50444 
     450    80.341451   -455.39767    58620.145   -12623.551    972.77834   -13596.329    2.6450024    250.65052 
     500    79.566161   -1097.8092    58591.158    -12652.05    963.39109   -13615.441    2.8568755    248.23176 
     550    81.132503   -993.56914    58605.713   -12619.335    982.35644   -13601.691    3.1588111    253.11845 
     600     78.22083   -1339.0409    58576.813   -12637.253    947.10176   -13584.355    3.4509042    244.03457 
     650    78.324896   -536.75484    58562.357   -12643.664    948.36179   -13592.026    3.5939485    244.35924 
     700    79.343213   -1255.5146    58533.372    -12618.96    960.69162   -13579.652    3.6602408     247.5362 
     750    83.508992   -920.46354    58582.987   -12576.128    1011.1311   -13587.259    3.7340107    260.53266 
     800     81.79787   -895.31807    58569.754   -12603.717    990.41274    -13594.13    3.8296532    255.19428 
     850    80.107094   -1245.8402    58623.919   -12637.672    969.94073   -13607.613    4.0122667    249.91937 
     900    78.440166   -833.36983    58713.838   -12666.663    949.75748    -13616.42    4.1507473    244.71886 
     950     79.80096   -1039.2902    58750.957   -12683.832    966.23405   -13650.067    4.3371969    248.96429 
    1000    76.195354   -1172.2577    58738.993   -12701.057    922.57719   -13623.634    4.5526439    237.71546 
    1050    78.007437   -962.18067    58678.349   -12653.625    944.51798   -13598.143    4.7174279    243.36882 
    1100    81.437845   -901.60737    58669.518   -12647.681    986.05354   -13633.735    4.8743394    254.07107 
    1150    78.582562    -1359.243    58651.406   -12620.453    951.48162   -13571.935    5.1293135    245.16311 
    1200     82.09277   -979.54852    58705.286   -12612.516     993.9834   -13606.499    5.3036984    256.11431 
    1250    78.664798   -686.51255     58730.22   -12638.519    952.47734   -13590.997    5.4966286    245.41967 
    1300    79.746626   -1194.0652    58729.832   -12625.662    965.57617   -13591.238     5.659671    248.79477 
    1350    81.168046   -1722.8134    58690.685   -12610.065     982.7868   -13592.852    5.9030562    253.22934 
    1400    80.785549   -1058.8264    58667.332   -12623.203     978.1555   -13601.358    6.1259498    252.03602 
    1450    79.386927   -778.39347    58682.173   -12637.707    961.22092   -13598.928    6.5273201    247.67258 
    1500    78.890371   -1164.8134    58722.493   -12655.131    955.20859    -13610.34    6.6795773    246.12342 
    1550    77.758026   -964.60965    58773.817   -12652.097     941.4981   -13593.595    6.8717754    242.59071 
    1600    79.314747   -976.87416    58722.073   -12608.879    960.34696   -13569.226    7.0114898    247.44739 
    1650    79.533413   -986.56621    58708.694   -12600.295    962.99458   -13563.289    7.1684235    248.12959 
    1700    83.788342   -880.97962      58667.9   -12553.871    1014.5135   -13568.385    7.3473297    261.40418 
    1750    82.083439    -1280.371    58680.171   -12554.987    993.87042   -13548.857    7.5932807     256.0852 
    1800    85.339873   -623.85646    58731.741   -12563.171    1033.2995    -13596.47     7.864947    266.24467 
    1850    80.353439   -981.72949    58774.989   -12577.121    972.92349   -13550.045    8.1077463    250.68792 
    1900     78.66373   -936.25111    58816.624   -12614.606    952.46441    -13567.07    8.1968251    245.41634 
    1950    77.372168   -783.50297    58901.233   -12622.163    936.82611   -13558.989    8.5900752     241.3869 
    2000    83.722374   -1275.5446     58968.13   -12609.538    1013.7147   -13623.252    8.9248553    261.19837 
    2050    79.006961   -1002.2737    58950.235   -12684.555    956.62027   -13641.176    9.2279627    246.48715 
    2100    78.941918   -1376.7813    58854.811   -12678.107    955.83272   -13633.939    9.3324962    246.28423 
    2150    76.592787   -946.45754    58823.589   -12693.698    927.38932   -13621.087    9.5972756    238.95538 
    2200    80.868402    -1133.461    58854.337   -12676.788    979.15869   -13655.947    9.8834411    252.29451 
    2250    80.890894   -1188.1793    58842.512   -12657.112    979.43102   -13636.543    10.083809    252.36468 
    2300    78.765303   -1093.8688    58775.641   -12650.226    953.69427    -13603.92    10.277998    245.73323 
    2350    79.435029   -1016.4371     58781.99   -12647.232    961.80333   -13609.035    10.329034    247.82265 
    2400    77.246099   -1279.5885    58754.021   -12660.106    935.29966   -13595.406    10.302553    240.99359 
    2450    78.957919   -1253.0965    58731.545   -12672.652    956.02646   -13628.678    10.484809    246.33415 
    2500     80.41338    -933.1479    58753.422   -12652.796    973.64927   -13626.446    10.554175    250.87492 
    2550     76.95838   -1258.3931    58777.973   -12671.243    931.81595   -13603.059    10.759195    240.09596 
    2600    77.968511   -873.09262    58808.024    -12668.37    944.04666   -13612.417    10.929237    243.24738 
    2650    77.139127   -1406.5976    58803.596   -12700.996    934.00444       -13635    11.143704    240.65986 
    2700    82.169983    -998.8133    58795.759   -12677.145    994.91829   -13672.064    11.324668     256.3552 
    2750    78.663846   -865.47365    58837.242   -12677.238    952.46582   -13629.703    11.730824     245.4167 
    2800    78.190567   -1001.2076    58823.066   -12660.708    946.73533   -13607.444    11.972748    243.94016 
    2850    78.617211   -1246.2327    58799.145   -12683.672    951.90116   -13635.573    12.254957    245.27121 
    2900    79.964112   -1075.7919     58753.66   -12651.147     968.2095   -13619.356    12.353858    249.47329 
    2950    77.486089   -878.34153    58792.946   -12690.564    938.20547   -13628.769    12.477518    241.74231 
    3000     78.69918   -1162.5997    58760.089   -12708.918    952.89364   -13661.812     12.50583    245.52694 
    3050     77.49315    -1070.876    58754.247   -12710.749    938.29097    -13649.04    12.629216    241.76434 
    3100    79.214989   -947.84969    58727.621   -12685.983    959.13908   -13645.122     12.82112    247.13616 
    3150    82.314208   -932.47933    58700.978   -12670.642    996.66458   -13667.307    13.012051    256.80515 
    3200    80.038383   -774.01042    58717.989   -12639.775    969.10878   -13608.884    13.234981      249.705 
    3250    79.548734   -871.06908    58760.321   -12625.027    963.18008   -13588.207    13.610769    248.17739 
    3300    81.540872   -1096.4342    58759.034   -12627.735    987.30099   -13615.036    13.891873    254.39249 
    3350    81.200396   -948.49134    58788.147   -12613.171    983.17849    -13596.35    14.235775    253.33027 
    3400    82.331877   -924.07233    58812.733   -12571.247    996.87852   -13568.126    14.309248    256.86028 
    3450    81.022921   -998.63776    58885.437   -12564.334    981.02962   -13545.364    14.293527    252.77658 
    3500    79.564764    -1109.529    58849.474   -12577.795    963.37418   -13541.169    14.290312     248.2274 
    3550    82.624802   -1200.7264    58849.269   -12549.383    1000.4253   -13549.808    14.332264    257.77415 
    3600    82.839392   -1390.5779    58792.281   -12581.045    1003.0235   -13584.068    14.458931    258.44363 
    3650    81.838871   -938.00475    58735.415   -12574.535    990.90918   -13565.444    14.587767    255.32219 
    3700    80.889104   -982.11657    58688.712   -12594.967    979.40935   -13574.377    14.766981    252.35909 
    3750    80.909503   -851.38963    58646.383   -12618.052    979.65634   -13597.708    15.081894    252.42273 
    3800    80.553032   -978.49322    58592.887   -12631.742    975.34017   -13607.082    15.386799    251.31061 
    3850    79.477294   -898.59049    58600.977    -12633.12    962.31508   -13595.435    15.540917    247.95451 
    3900    78.702683   -972.90374     58584.41   -12630.153    952.93606   -13583.089    15.831458    245.53786 
    3950    75.950915   -1118.7562    58565.407    -12638.24    919.61751   -13557.858    15.990933    236.95285 
    4000    79.270858   -1159.8025    58539.652   -12617.761    959.81555   -13577.576    16.191499    247.31047 
    4050    80.430665   -1001.1531    58560.186   -12591.719    973.85855   -13565.578    16.568657    250.92885 
    4100    81.845795    -1111.251    58530.731    -12565.97    990.99302   -13556.963      16.8514    255.34379 
    4150     82.74219   -1024.2478     58558.56   -12557.924    1001.8466    -13559.77    17.111201    258.14038 
    4200    81.082536    -1234.018    58597.687   -12579.881    981.75144   -13561.633    17.394243    252.96257 
    4250    79.345323   -1234.3723    58572.499   -12546.596    960.71717   -13507.313    17.437496    247.54278 
    4300    79.515289   -1356.6161    58538.454   -12559.532    962.77513   -13522.307    17.591923    248.07305 
    4350    79.309795   -1123.1738    58458.849   -12591.747    960.28699   -13552.034    17.820434    247.43194 
    4400     83.12046   -754.02524    58401.752   -12547.896    1006.4267   -13554.323    18.128945    259.32051 
    4450    83.350291   -1212.7832     58401.94   -12573.421    1009.2095    -13582.63    18.350571    260.03754 
    4500    79.167274   -839.18058     58358.21   -12552.155    958.56135   -13510.716    18.525823     246.9873 
    4550    79.178909   -1088.1923    58358.435   -12574.224    958.70222   -13532.926    18.638167     247.0236 
    4600    81.660774   -643.26542    58404.116   -12567.054    988.75277   -13555.806     18.74499    254.76656 
    4650     78.13396   -1029.1963    58376.737   -12600.502    946.04993   -13546.552    19.107705    243.76355 
    4700    80.582723   -756.17639    58343.815   -12599.502    975.69968   -13575.201    19.437975    251.40324 
    4750    80.402861   -657.04233    58349.213   -12581.353    973.52189   -13554.875    19.698692     250.8421 
    4800    80.830255   -695.45989    58373.147   -12575.116     978.6968   -13553.812    19.920124     252.1755 
    4850    80.801462   -1168.7364    58394.236   -12552.264    978.34818   -13530.612    20.296347    252.08567 
    4900    83.305373   -822.16319    58431.843   -12532.385    1008.6657   -13541.051    20.595423    259.89741 
    4950    83.496181   -1078.1622    58491.055   -12545.514     1010.976    -13556.49     20.88663     260.4927 
    5000    85.295615   -795.07479    58482.385   -12539.653    1032.7636   -13572.417     21.05988     266.1066 
    5050     81.85618   -1349.9466    58472.762   -12535.271    991.11875    -13526.39    21.117872    255.37619 
    5100    84.546073   -1011.9045    58472.531   -12528.344    1023.6881   -13552.032    21.200465    263.76816 
    5150    84.634786    -1076.527    58508.848   -12553.543    1024.7623   -13578.306    21.257082    264.04493 
    5200    81.245266   -1286.4071    58534.962   -12546.909    983.72178    -13530.63    21.443214    253.47025 
    5250    83.025612   -956.61408    58521.636   -12587.097    1005.2783   -13592.376    21.602138     259.0246 
    5300    81.424641    -1145.191    58509.068   -12567.218    985.89366   -13553.111    21.844067    254.02987 
    5350    84.281213   -891.81758    58576.641   -12591.648    1020.4812   -13612.129    22.066283    262.94185 
    5400    80.801449   -889.16234    58621.093   -12582.351    978.34802   -13560.699    22.558361    252.08563 
    5450    86.578537   -1022.1846    58683.992   -12564.514    1048.2973   -13612.811    22.781965    270.10908 
    5500     80.57461   -872.64065    58741.602   -12572.183    975.60144   -13547.785    23.030736    251.37793 
    5550    81.072808   -1032.2448    58730.795    -12567.61    981.63365   -13549.243    23.346321    252.93222 
    5600    84.864091   -1170.2507    58752.994   -12550.181    1027.5387    -13577.72    23.537561    264.76032 
    5650     83.22898   -958.96241    58741.919   -12563.616    1007.7407   -13571.356    23.664818    259.65908 
    5700    85.177424   -1400.7956    58767.119    -12564.41    1031.3325   -13595.742    23.719815    265.73786 
    5750    82.886183    -1017.535    58777.836   -12577.262    1003.5901   -13580.852    23.893794    258.58961 
    5800    82.178271    -1025.378     58804.38   -12558.864    995.01865   -13553.883    24.169626    256.38106 
    5850     84.75774   -713.67975    58738.998   -12569.838     1026.251   -13596.089    24.396644    264.42852 
    5900    81.541003   -1478.3654    58758.921   -12605.324    987.30258   -13592.627    24.624173     254.3929 
    5950    82.858782   -951.77147    58764.193   -12602.549    1003.2583   -13605.807    24.922197    258.50413 
    6000    79.314554    -1335.956    58749.525    -12592.99    960.34462   -13553.335    24.856084    247.44679 
    6050    78.005737    -714.4253    58757.201   -12589.012    944.49739    -13533.51    25.137299    243.36352 
    6100    81.073752   -1415.2937     58708.03   -12573.512    981.64508   -13555.157    25.591905    252.93516 
    6150    81.522368    -996.6319    58670.931   -12588.171    987.07694   -13575.248    25.863006    254.33476 
    6200    80.249578   -1223.6942     58614.95   -12597.112    971.66593   -13568.778    26.030912    250.36389 
    6250    85.822103   -1128.7358     58631.72   -12555.511    1039.1384   -13594.649    26.349746    267.74914 
    6300    78.699422   -1229.7525    58643.777   -12589.324    952.89657    -13542.22    26.910583    245.52769 
    6350    82.388398   -1201.1786    58655.064   -12587.016    997.56288   -13584.579    26.967224    257.03662 
    6400    82.647039   -1382.2256    58607.483   -12603.735    1000.6945   -13604.429    26.950994    257.84353 
    6450    82.904949   -1387.3195    58580.611   -12576.991    1003.8173   -13580.808    27.300613    258.64816 
    6500    79.571958   -1356.8289     58512.69   -12591.686    963.46128   -13555.148    27.651532    248.24984 
    6550    78.531384   -1065.5592    58521.652   -12604.151    950.86195   -13555.013    28.332255    245.00344 
    6600    79.825538   -580.14084    58550.271   -12600.934    966.53164   -13567.465    28.576433    249.04096 
    6650    81.152167   -1103.5505    58590.447    -12617.49    982.59453   -13600.085    28.783995     253.1798 
    6700    79.378462   -1039.1484    58612.936    -12628.05    961.11842   -13589.168    28.878662    247.64617 
    6750    77.397244   -988.11212    58626.839   -12625.634    937.12973   -13562.764    29.083583    241.46513 
    6800    79.601097   -1417.0946    58588.848   -12618.393     963.8141   -13582.208    29.062696    248.34075 
    6850    77.964303   -1425.8325    58605.501   -12622.519    943.99571   -13566.515    29.219299    243.23425 
    6900    81.580414   -1291.0494    58537.563   -12584.839    987.77977   -13572.618    29.603799    254.51586 
    6950    84.735095   -1161.9993    58523.994   -12588.655    1025.9768   -13614.632    29.775514    264.35788 
    7000    81.160363   -1162.7425    58512.896   -12609.417    982.69376    -13592.11    29.810244    253.20537 
    7050    82.583573   -1155.5415     58493.54    -12603.66    999.92607   -13603.586    30.056388    257.64553 
    7100    80.347639   -999.74611    58502.103   -12652.343    972.85326   -13625.196    30.178838    250.66982 
    7150    77.524973   -850.91975    58512.851   -12685.149    938.67628   -13623.825    30.334704    241.86363 
    7200    78.324776   -947.02173    58535.028   -12696.822    948.36033   -13645.183    30.603712    244.35886 
    7250    76.090371   -1014.6625     58611.17   -12702.308    921.30605   -13623.614    30.636592    237.38793 
    7300    79.492302   -806.75488    58651.941   -12685.515     962.4968   -13648.012    31.193838    248.00133 
    7350    77.987951   -1069.9856    58744.231   -12670.393    944.28205   -13614.675    31.457758    243.30803 
    7400    79.133062   -679.74498    58876.316    -12649.81    958.14711   -13607.957     31.58334    246.88057 
    7450    80.182838   -1353.6079    58895.403   -12631.539    970.85785   -13602.397    31.553746    250.15568 
    7500    80.553949   -1189.4484    58962.784   -12613.232    975.35127   -13588.583    31.922754    251.31347 
    7550    77.660297   -1166.2043    58916.958   -12633.326     940.3148    -13573.64    32.176311    242.28581 
    7600    79.024723   -1366.9679    58922.205   -12632.918    956.83533   -13589.753    32.182271    246.54257 
    7650    79.241797   -959.06204    58960.774   -12636.118    959.46367   -13595.582    32.664928     247.2198 
    7700    79.124904   -1590.4147     58868.04   -12614.704    958.04832   -13572.752    32.593141    246.85511 
    7750    75.247597    -1338.253    58825.463   -12639.848     911.1017    -13550.95    32.479856    234.75863 
    7800    79.933706   -1139.2648    58803.033   -12624.127    967.84134   -13591.968    32.670755    249.37843 
    7850    79.653898   -1059.6526    58790.277   -12607.412    964.45342   -13571.865    32.688073    248.50548 
    7900    79.779025   -679.33793    58816.014   -12657.762    965.96845   -13623.731     32.98575    248.89585 
    7950    80.772967   -1174.6475    58790.408   -12613.745    978.00315   -13591.748    33.023294    251.99677 
    8000    79.621294   -1083.2284    58760.981   -12595.628    964.05865   -13559.687    33.275985    248.40376 
    8050    80.576424   -984.43273    58745.372   -12595.814     975.6234   -13571.438    33.525638    251.38359 
    8100    77.494262   -1311.1451    58704.316   -12620.335    938.30443    -13558.64    34.029896    241.76781 
    8150     78.99362   -1048.4801    58641.892   -12635.781    956.45874    -13592.24    34.405766    246.44553 
    8200    78.302634    -991.9684    58606.246   -12633.854    948.09224   -13581.946    34.420345    244.28978 
    8250    79.572089   -789.86816    58624.899   -12626.363    963.46287   -13589.826    34.529186    248.25025 
    8300    78.405795   -910.61043    58637.286    -12617.98    949.34131   -13567.321    34.224319    244.61163 
    8350     79.45716   -826.51809    58636.211   -12635.543     962.0713   -13597.614    34.320843    247.89169 
    8400    80.818924    -916.4837    58643.989   -12632.456    978.55961   -13611.016    34.571829    252.14015 
    8450    80.040367   -1355.8022    58619.393   -12621.014     969.1328   -13590.146    34.559454    249.71119 
    8500    78.260261   -1085.4486    58578.368   -12623.192    947.57919   -13570.771    34.686687    244.15759 
    8550    78.996121   -1193.5339    58566.976   -12605.768    956.48902   -13562.257    34.967745    246.45334 
    8600    81.613476   -1054.2373    58546.462   -12570.508    988.18008   -13558.688    35.127203      254.619 
    8650    81.525657   -765.62104    58556.199   -12536.311    987.11677   -13523.427    35.153305    254.34502 
    8700    81.408786   -760.16081    58538.588   -12544.701    985.70169   -13530.403    35.263597    253.98041 
    8750    82.519993    -926.1566    58490.753   -12527.998    999.15624   -13527.155    35.625528    257.44717 
    8800     80.11972   -887.86279    58528.973   -12546.558    970.09361   -13516.652    35.783699    249.95876 
    8850     79.16361   -1047.2413    58562.034    -12554.48    958.51698   -13512.996     35.69644    246.97587 
    8900    81.995788   -928.26419    58599.698   -12547.711    992.80914   -13540.521    35.839055    255.81174 
    8950     83.35843   -914.13754    58677.853   -12514.643    1009.3081   -13523.951    36.196798    260.06294 
    9000    79.218137   -1073.9695    58722.272   -12547.091     959.1772   -13506.268    36.406995    247.14598 
    9050    83.021036   -1144.9876    58719.118   -12545.488    1005.2229    -13550.71    36.345482    259.01033 
    9100    79.864678   -1088.7808    58678.367   -12574.463    967.00554   -13541.468    36.587685    249.16307 
    9150    80.567739   -838.35572    58636.923   -12578.616    975.51824   -13554.134     36.96349    251.35649 
    9200    81.993913   -1194.0487     58629.63   -12616.827    992.78644   -13609.614    37.446686     255.8059 
    9250    77.101747   -1317.6818    58585.948    -12622.82    933.55184   -13556.372    37.565978    240.54324 
    9300      81.3223    -852.1501     58544.31    -12622.42     984.6545   -13607.075     37.75227    253.71058 
    9350    78.935429   -946.81132    58583.876   -12625.181    955.75415   -13580.935    37.962293    246.26399 
    9400    78.164106   -725.94004    58549.848   -12674.236    946.41493   -13620.651    37.803449     243.8576 
    9450     80.52719   -1082.8227    58562.687   -12666.444    975.02727   -13641.471    38.008504    251.22999 
    9500    77.820033   -1277.6256    58573.723   -12655.683    942.24889   -13597.932    38.269779    242.78416 
    9550    77.016906   -1191.3774    58568.274   -12642.636    932.52458   -13575.161    38.564927    240.27855 
    9600    78.147838   -894.43295     58594.15    -12628.97    946.21797   -13575.188    38.788237    243.80685 
    9650    78.195944   -1286.5649    58532.429   -12626.005    946.80044   -13572.805    38.868221    243.95693 
    9700    79.266906   -900.51191    58521.543   -12635.798     959.7677   -13595.565    39.160638    247.29814 
    9750    78.097088   -852.78803    58572.189   -12630.204    945.60348   -13575.807    39.423226    243.64852 
    9800    78.615774   -1062.1234    58597.731   -12607.861    951.88375   -13559.745    39.381178    245.26672 
    9850    78.705529   -1150.7769    58599.148   -12622.313    952.97051   -13575.283     39.54339    245.54674 
    9900    80.208218   -778.25389    58614.274    -12633.27    971.16515   -13604.435     39.68505    250.23486 
    9950    78.260295    -1113.618    58602.545   -12670.339     947.5796   -13617.919    39.463724     244.1577 
   10000    78.738084   -1267.5618    58601.153   -12667.859    953.36469   -13621.223    39.578327    245.64831 
   10050    75.664047   -1093.0905    58548.567   -12658.258    916.14409   -13574.402    39.799633    236.05788 
   10100    79.577985   -1269.4554    58537.153   -12638.205    963.53425   -13601.739     40.05164    248.26864 
   10150    79.239934   -867.73528    58526.212   -12684.233    959.44112   -13643.674    40.493838    247.21399 
   10200    76.388626   -974.04355    58513.487   -12696.797    924.91733   -13621.714     40.58181    238.31843 
   10250     78.81609   -1443.1428    58481.357   -12681.068    954.30919   -13635.377    40.425688    245.89167 
   10300    79.358705   -1022.6088    58483.934   -12674.868     960.8792   -13635.747    40.648222    247.58453 
   10350    79.418437   -1241.4405    58519.176   -12653.505    961.60245   -13615.107    41.150552    247.77089 
   10400     81.37082   -983.03717    58532.527   -12639.777      985.242   -13625.019    41.108472    253.86196 
   10450     77.97063   -976.92684     58570.62   -12662.607    944.07232   -13606.679    41.440544    243.25399 
   10500    80.087347   -1128.6816    58566.002   -12662.859    969.70164    -13632.56    41.761404    249.85776 
   10550    80.108615   -1229.5217    58544.655   -12655.816    969.95915   -13625.775    42.090048    249.92411 
   10600    81.143828   -1292.5278    58478.817   -12647.509    982.49356   -13630.002     42.29735    253.15378 
   10650    78.407029   -1103.1392    58475.493   -12634.826    949.35627   -13584.183     42.53553    244.61548 
   10700    79.295747   -856.02901    58463.081   -12644.104    960.11691   -13604.221    42.683657    247.38811 
   10750    79.070523   -1128.9819    58507.591   -12635.146    957.38988   -13592.536    42.741986    246.68546 
   10800     79.40371   -847.35031    58533.361   -12638.582    961.42412   -13600.006     42.70025    247.72494 
   10850    82.726573   -860.21384    58504.182   -12612.261    1001.6575   -13613.918    42.844579    258.09166 
   10900    80.598709   -1345.5991    58531.057   -12594.256    975.89323   -13570.149    42.881989    251.45312 
   10950    80.099209   -985.25908    58509.371   -12606.038    969.84526   -13575.884    42.706179    249.89477 
   11000    81.632469   -1049.1423    58544.143   -12578.671    988.41005   -13567.081    43.171616    254.67826 
   11050    81.323505   -1293.7306    58553.291   -12584.463     984.6691   -13569.132    43.381296    253.71435 
   11100    82.024814   -1507.7904    58549.328   -12578.751    993.16058   -13571.911    43.412833     255.9023 
   11150    81.666116   -683.33627    58585.708   -12573.711    988.81745   -13562.529    43.472978    254.78323 
   11200    83.342888     -923.554    58605.326   -12544.804    1009.1199   -13553.924    43.333838    260.01445 
   11250     82.84614    -1038.614    58603.856    -12544.78    1003.1052   -13547.885    43.572923    258.46469 
   11300    80.826924   -1464.0623    58581.921   -12557.608    978.65647   -13536.265    43.853442     252.1651 
   11350    82.868575   -1160.4071    58597.884   -12570.036    1003.3769   -13573.413    43.983755    258.53468 
   11400    81.994266   -1029.3236    58600.383   -12599.464    992.79071   -13592.255    44.347041      255.807 
   11450    80.277552   -1152.1964      58606.1   -12611.978    972.00465   -13583.983    44.780835    250.45116 
   11500    75.976497   -1095.1674    58585.732   -12628.418    919.92725   -13548.345    45.246123    237.03266 
   11550    77.540435   -982.50215    58566.605   -12687.007    938.86349    -13625.87    45.258233    241.91186 
   11600    78.370971   -987.74885    58572.221   -12695.164    948.91966   -13644.084    45.315085    244.50298 
   11650    75.993487    -644.1508    58585.545   -12681.983    920.13297   -13602.116    45.306288    237.08567 
   11700    77.811182   -993.95849    58610.073   -12642.537    942.14172   -13584.679    45.726921    242.75654 
   11750     80.37743   -995.15271    58670.288   -12612.916    973.21397   -13586.129    45.939236    250.76276 
   11800    80.772644    -1012.225    58657.347   -12637.354    977.99925   -13615.354    46.036978    251.99576 
   11850    75.894201   -749.59345      58670.9   -12622.765    918.93082   -13541.696    46.400445    236.77592 
   11900    82.177812   -705.51238    58698.722   -12615.207    995.01309    -13610.22     46.54776    256.37962 
   11950    80.861548   -744.07483    58783.367   -12603.821     979.0757   -13582.896    46.530946    252.27312 
   12000    80.673975   -1210.0387    58766.874   -12615.801    976.80456   -13592.606    46.694862    251.68793 
   12050    79.827794   -1225.3318    58733.821   -12579.706    966.55896   -13546.265    47.064009      249.048 
   12100    80.874001   -1297.0787    58672.281   -12572.437    979.22648   -13551.663    47.469759    252.31197 
   12150     84.65055   -791.47628    58640.777   -12563.495    1024.9531   -13588.449    47.657451    264.09411 
   12200    82.219442   -1346.5073    58650.936   -12606.134    995.51715   -13601.651    48.094265     256.5095 
   12250    78.463461   -824.16712    58658.331   -12641.879    950.03954   -13591.919    48.342817    244.79153 
   12300    78.303903   -1098.5984    58685.648   -12659.243    948.10761   -13607.351      48.5207    244.29374 
   12350    77.645221   -917.35357    58679.509   -12650.472    940.13225   -13590.604    48.754528    242.23878 
   12400    77.000366   -951.41858    58671.495   -12670.175    932.32431     -13602.5    48.915526    240.22695 
   12450    79.270843   -703.97403    58719.117   -12612.456    959.81537   -13572.271    49.018156    247.31042 
   12500    82.138576   -974.24793    58737.011   -12616.975    994.53801   -13611.513    48.927267    256.25722 
   12550    83.183243   -842.35012    58737.818   -12617.837    1007.1869   -13625.024    49.085759    259.51638 
   12600    77.213758   -1074.4433    58626.666   -12665.407    934.90808   -13600.315    49.833249    240.89269 
   12650    77.665976   -1053.5622    58563.486   -12667.768    940.38356   -13608.151    50.015442    242.30353 
   12700    80.891864   -1049.0614    58533.017   -12640.474    979.44277   -13619.917    50.023245    252.36771 
   12750    81.256393   -978.05198    58509.712   -12628.124     983.8565   -13611.981    50.263151    253.50497 
   12800     80.30317   -902.04569    58550.868   -12649.143    972.31483   -13621.458    50.537558    250.53109 
   12850    76.517267   -1085.2934    58555.838   -12690.298    926.47492   -13616.773    50.864166    238.71977 
   12900    78.061362    -1213.637    58499.542    -12652.63     945.1709   -13597.801    50.786331    243.53706 
   12950    79.056675   -809.81525    58472.753   -12633.865    957.22221   -13591.087    50.843612    246.64225 
   13000    80.204043   -881.39118    58482.105   -12618.811     971.1146   -13589.926    51.031858    250.22183 
   13050    80.138973   -1094.2195    58451.635   -12627.774    970.32673   -13598.101    51.441725    250.01882 
   13100    80.876873   -965.24585    58384.476   -12625.404    979.26126   -13604.665    51.994099    252.32094 
   13150     81.57215   -943.76863    58354.565   -12628.766    987.67971   -13616.446    52.437545    254.49007 
   13200    77.882428   -800.06224    58333.152   -12647.775    943.00436   -13590.779    52.566946    242.97882 
   13250    78.758886   -1046.4343    58338.103   -12621.507    953.61657   -13575.123    52.839917    245.71321 
   13300    78.178226   -1071.4226    58306.018   -12642.633    946.58591   -13589.219    53.040139    243.90166 
   13350    79.658424   -1214.3121    58203.589   -12612.112    964.50822    -13576.62    53.053721     248.5196 
   13400    80.744166   -1051.5138    58177.165   -12582.833    977.65444   -13560.487    52.737738    251.90692 
   13450    75.645699   -847.84623    58149.337   -12618.399    915.92193   -13534.321    52.818533    236.00064 
   13500    78.419921    -878.4413    58150.042   -12622.338    949.51236    -13571.85     52.87432     244.6557 
   13550    78.590622   -849.51403    58117.854   -12611.614    951.57921   -13563.193    52.903959    245.18825 
   13600    81.446239   -1244.3135    58119.845   -12626.663    986.15517   -13612.818    53.121274    254.09725 
   13650    80.848924   -563.27845    58112.077   -12648.795    978.92285   -13627.718    53.392889    252.23374 
   13700    80.129797   -1036.3975     58149.21   -12644.768    970.21562   -13614.983    53.587869     249.9902 
   13750    80.515347   -957.98006    58206.123   -12637.494    974.88388   -13612.377    53.734507    251.19304 
   13800    80.106022    -1115.528    58240.154   -12597.694    969.92775   -13567.622    53.503518    249.91602 
   13850      84.0247   -1337.2144    58272.251   -12589.398    1017.3753   -13606.773    53.446301    262.14158 
   13900    81.582647   -1257.2673    58332.813   -12584.111     987.8068   -13571.917    53.368511    254.52282 
   13950    82.044782   -827.39919    58293.625   -12596.134    993.40236   -13589.536    53.338266     255.9646 
   14000    79.389636   -1204.9604    58338.918   -12626.681    961.25372   -13587.935    53.453346    247.68103 
   14050     77.62236   -1028.0312    58382.533   -12628.802    939.85545   -13568.657    53.641668    242.16745 
   14100    78.400697   -1322.7222    58292.998   -12612.243    949.27959   -13561.522    54.053388    244.59572 
   14150    83.256942   -958.94126    58230.295   -12582.065    1008.0793   -13590.144    54.351275    259.74631 
   14200    82.214652   -870.93195    58223.734   -12590.103    995.45915   -13585.562    54.491004    256.49456 
   14250    81.326343   -834.19771    58187.193   -12619.356    984.70346    -13604.06    54.929996     253.7232 
   14300    83.026486   -1040.0949    58213.636   -12601.951    1005.2889    -13607.24    55.465948    259.02733 
   14350     81.04889   -793.55886     58207.16   -12598.995    981.34404   -13580.339    55.524257     252.8576 
   14400    78.856403   -1031.7511    58227.967   -12630.569    954.79731   -13585.366    55.647485    246.01744 
   14450    80.598005   -930.54407    58226.147   -12604.701     975.8847   -13580.586     55.51872    251.45092 
   14500    79.765826   -1290.7665    58273.888   -12577.161    965.80864   -13542.969    55.954817    248.85467 
   14550    80.802468   -689.13657     58300.38   -12587.457    978.36036   -13565.817    56.182456    252.08881 
   14600    77.133751    -934.2423    58371.037   -12575.838    933.93935   -13509.777    56.446935    240.64309 
   14650    78.713325   -905.81787    58383.714   -12561.311    953.06491   -13514.375    56.814224    245.57107 
   14700    82.596054   -1305.6637    58347.504   -12545.499    1000.0772   -13545.576    56.743633    257.68446 
   14750    81.430856   -635.25914    58398.532   -12552.006    985.96891   -13537.975    56.819971    254.04926 
   14800    79.572035   -615.54747    58487.108   -12540.056    963.46221   -13503.518     57.06657    248.25008 
   14850    83.591761   -952.00663    58500.258   -12546.643    1012.1333   -13558.777     57.25618    260.79089 
   14900    85.472939    -1002.315    58519.039   -12533.908    1034.9107   -13568.819    57.606267    266.65981 
   14950    81.970285   -777.57556    58489.135   -12537.119    992.50035    -13529.62    57.578554    255.73218 
   15000    79.889821   -1308.3149    58517.767   -12536.551    967.30998   -13503.861    58.165452    249.24151 
   15050    82.608159   -1313.1706    58540.282   -12566.401    1000.2238   -13566.625    58.413681    257.72223 
   15100    82.167516   -1104.0611     58522.27   -12586.505    994.88842   -13581.393    58.933686     256.3475 
   15150    78.229405   -1057.8908    58496.465   -12609.431    947.20558   -13556.637     59.43405    244.06132 
   15200    80.083451   -1451.2562    58421.565   -12618.662    969.65447   -13588.317    59.832481    249.84561 
   15250    76.778846   -1213.3474    58367.246   -12642.449    929.64214   -13572.091    60.386563    239.53585 
   15300    78.313687   -1112.7152    58328.729   -12636.699    948.22607   -13584.925     60.40325    244.32427 
   15350    78.695894   -1149.3904    58352.586   -12629.151    952.85385   -13582.004    60.927146    245.51668 
   15400    77.145475   -1065.8132    58316.766   -12636.886     934.0813   -13570.967    60.871782    240.67966 
   15450     79.48784   -813.00861    58313.204   -12635.666    962.44277   -13598.109    61.207495    247.98741 
   15500    78.073457   -1201.2608    58340.298   -12659.973    945.31736    -13605.29    61.299928     243.5748 
   15550    79.280863   -808.93302    58403.864   -12651.685    959.93669   -13611.622    61.781606    247.34168 
   15600    80.272134    -621.8719    58537.476   -12599.844    971.93904   -13571.783    61.793595    250.43426 
   15650    80.322371   -963.29592    58561.289   -12601.054    972.54732   -13573.601    62.195007    250.59099 
   15700     79.40457   -594.41178    58596.612   -12622.705    961.43453    -13584.14    62.437653    247.72762 
   15750    82.913281   -456.86577     58650.36    -12594.73    1003.9182   -13598.648    62.869726    258.67415 
   15800    81.123088    -1072.756    58694.572   -12601.785    982.24244   -13584.027    63.595382    253.08908 
   15850    80.530876   -837.67382    58765.489   -12583.206    975.07191   -13558.278    63.834566    251.24149 
   15900    83.341592   -914.82047    58776.596   -12576.881    1009.1042   -13585.985    63.806325     260.0104 
   15950    82.677349   -836.49319    58787.229   -12541.555    1001.0615   -13542.616      63.8204    257.93809 
   16000    84.615327   -1296.0717    58779.436   -12509.141    1024.5266   -13533.668    64.090154    263.98422 
   16050    84.011272   -789.62967    58736.477   -12520.548    1017.2127    -13537.76    64.178825    262.09968 
   16100    83.394442   -1413.8269    58657.075   -12535.312    1009.7441   -13545.056     64.31629    260.17529 
   16150    83.581489   -1517.6211    58562.212   -12529.154    1012.0089   -13541.163    64.301201    260.75884 
   16200    81.664538   -773.99263    58505.438   -12551.719    988.79835   -13540.517    64.225953    254.77831 
   16250     83.50858   -1201.5578    58439.041   -12569.558    1011.1261   -13580.684    64.208014    260.53138 
   16300     82.66634   -962.75705    58437.968   -12580.549    1000.9282   -13581.477    64.947993    257.90374 
   16350    78.899645   -837.27293    58460.522   -12616.818    955.32089   -13572.139    65.186335    246.15235 
   16400    81.038434   -545.20664     58502.21   -12608.627    981.21745   -13589.845    65.472359    252.82498 
   16450    80.042668   -865.00675    58521.677    -12608.22    969.16066   -13577.381    65.945204    249.71837 
   16500    79.327397   -1165.5002    58474.746   -12635.277    960.50012   -13595.777    65.642329    247.48686 
   16550    79.988296   -1022.3176    58459.997   -12653.151    968.50233   -13621.653    65.811428    249.54874 
   16600    81.004495   -665.61038    58525.204   -12635.438    980.80651   -13616.245    65.919576    252.71909 
   16650    80.994356     -750.176    58540.044   -12629.952    980.68374   -13610.635    65.919371    252.68746 
   16700    82.479752   -1119.7029     58557.47   -12590.845      998.669   -13589.514    66.002661    257.32162 
   16750    78.785824   -1185.8782    58566.946   -12607.097    953.94273    -13561.04    65.841074    245.79725 
   16800    78.222367   -1147.6446    58569.978   -12612.399    947.12036   -13559.519    65.963584    244.03937 
   16850    79.801255   -1037.2398    58554.256   -12612.029    966.23762   -13578.267    66.250215    248.96521 
   16900    82.137503   -1030.3947    58609.202   -12602.416    994.52503   -13596.941    66.689554    256.25387 
   16950    79.718653   -974.27781     58603.57   -12581.421    965.23747   -13546.659    66.624488     248.7075 
   17000    82.736121   -528.39984    58667.462   -12593.972    1001.7731   -13595.745    66.904518    258.12145 
   17050    81.858428   -883.95028     58711.28   -12620.536    991.14597   -13611.682     66.76285    255.38321 
   17100    79.380117   -1132.2472    58686.611   -12616.875    961.13846   -13578.014    67.044452    247.65133 
   17150      79.6673   -751.43438    58693.137   -12646.709    964.61568   -13611.325    67.156743    248.54729 
   17200    78.638116   -749.02964     58689.72   -12642.379    952.15428   -13594.533    67.028771    245.33643 
   17250    82.115774   -805.67346     58673.99   -12619.685    994.26193   -13613.947    67.023736    256.18608 
   17300    82.240132   -729.54921    58664.032   -12619.058    995.76767   -13614.825    67.585949    256.57405 
   17350    82.431791   -905.41505    58707.812   -12602.921    998.08828   -13601.009    67.629167    257.17199 
   17400    83.027455   -625.29188    58757.887   -12580.615    1005.3006   -13585.916    68.081482    259.03036 
   17450    81.273291   -689.89651    58831.302   -12594.539    984.06111     -13578.6    68.206978    253.55769 
   17500    82.532436   -727.78879    58853.328   -12599.134    999.30689   -13598.441     68.62302    257.48599 
   17550    80.248314   -521.26755    58875.858   -12620.615    971.65063   -13592.265     68.78168    250.35995 
   17600    81.679279   -897.02614    58933.069   -12616.749    988.97683   -13605.726    69.206407     254.8243 
   17650    81.376978   -902.88376    58931.275   -12624.075    985.31656   -13609.392    69.279548    253.88117 
   17700    79.612008   -801.02048     58934.97   -12686.726    963.94621   -13650.673     69.29198    248.37479 
   17750    79.897655   -804.56534    58929.184   -12675.794    967.40484   -13643.199    69.334745    249.26596 
   17800    80.058802   -986.86892    58948.236   -12652.033    969.35601   -13621.389    69.301071     249.7687 
   17850    79.240138   -1223.0979    58925.872   -12663.477    959.44358   -13622.921    69.574063    247.21462 
   17900    78.809059   -862.55724    58925.785   -12644.841    954.22406   -13599.065      69.6856    245.86974 
   17950    78.895857   -1201.6264    58925.851   -12630.521    955.27502   -13585.796    69.823548    246.14053 
   18000    80.809507   -994.25621    58888.657   -12642.904    978.44559   -13621.349     69.96495    252.11077 
   18050    78.311064   -1169.1152    58808.453    -12628.19    948.19431   -13576.385    69.862328    244.31608 
   18100    81.702447   -1740.1705    58761.882   -12631.979    989.25735   -13621.236    70.174027    254.89657 
   18150    79.258374    -854.2297    58747.742   -12644.462    959.66439   -13604.126    70.616728    247.27152 
   18200    80.173409   -873.89478     58701.38   -12649.076    970.74368    -13619.82    70.403656    250.12626 
   18250     85.25865   -997.93503    58621.254   -12592.502     1032.316   -13624.818    70.478346    265.99127 
   18300    81.970564   -760.38744    58575.566   -12596.305    992.50372   -13588.809    70.627782    255.73305 
   18350    81.177082   -971.13183    58583.219   -12606.329    982.89621   -13589.225    70.820791    253.25753 
   18400    82.841203   -907.94359     58572.69   -12579.955    1003.0455   -13583.001    70.964173    258.44928 
   18450    82.227852   -1127.3946    58578.335   -12570.283    995.61898   -13565.901    71.400582    256.53574 
   18500    80.164472   -1157.9355    58549.478   -12567.534    970.63547   -13538.169    71.243781    250.09838 
   18550    81.855086    -1046.486    58530.059   -12581.964    991.10551    -13573.07    71.079605    255.37278 
   18600    81.266807   -837.25222    58495.051   -12570.614    983.98259   -13554.596    71.499677    253.53746 
   18650    82.027444   -1073.2778    58474.081   -12560.636    993.19243   -13553.828    71.692307    255.91051 
   18700    78.447818   -983.84577    58460.639   -12593.156    949.85013   -13543.006    72.031489    244.74273 
   18750    83.406771   -1247.8779     58396.89   -12548.964    1009.8934   -13558.858    71.981004    260.21375 
   18800    83.398481   -1020.6809    58380.106    -12525.19     1009.793   -13534.983    72.080654    260.18789 
   18850    81.994449   -939.42585    58378.456   -12537.523    992.79293   -13530.316    71.990604    255.80757 
   18900    84.377223   -703.81089    58403.764    -12561.14    1021.6437   -13582.783    72.450494    263.24138 
   18950    82.670591   -1100.3143    58424.572   -12555.734    1000.9797   -13556.713    72.977989    257.91701 
   19000     84.09003     -1223.35    58378.068   -12553.609    1018.1663   -13571.776    73.115004    262.34539 
   19050    80.589412   -920.46148    58387.188   -12573.292    975.78067   -13549.073    73.258615    251.42411 
   19100    79.489519   -591.55621    58349.144   -12590.268     962.4631   -13552.731    73.775294    247.99265 
   19150    82.293828   -1058.1686    58309.779   -12590.197    996.41782   -13586.615    73.890746    256.74157 
   19200    79.254224    -1151.681    58286.785   -12600.194    959.61414   -13559.808    74.084954    247.25857 
   19250    80.054295   -942.05181    58380.561   -12582.068    969.30144    -13551.37    74.934352    249.75464 
   19300    83.314471   -1092.8618    58415.923   -12579.072    1008.7758   -13587.848    75.433516    259.92579 
   19350    81.143539   -792.93121    58436.242   -12575.184    982.49006   -13557.674    75.430061    253.15288 
   19400     79.25632   -1213.3303    58460.072   -12594.539    959.63952   -13554.178     75.42597    247.26511 
   19450    80.616184   -1075.4672    58462.938   -12577.007    976.10483   -13553.112    75.622342    251.50764 
   19500    80.892294   -1114.6692    58459.118   -12557.833    979.44797   -13537.281    75.706732    252.36905 
   19550    79.415234   -1335.6801    58447.627   -12561.866    961.56365    -13523.43    75.840156    247.76089 
   19600    80.697029   -1041.0996    58380.018   -12604.396     977.0837   -13581.479    76.074068    251.75986 
   19650    77.959953   -1160.1697    58323.687   -12612.037    943.94304    -13555.98    76.436985    243.22068 
   19700    81.820428   -725.17021    58389.183   -12593.358    990.68587   -13584.043     76.72333    255.26465 
   19750     78.34854   -1414.3591    58377.183    -12609.36    948.64808   -13558.008    77.042069      244.433 
   19800    79.625787   -1312.7333    58349.439   -12613.077    964.11304    -13577.19    76.973687    248.41778 
   19850    81.472586   -1007.9605    58354.339   -12595.388    986.47418   -13581.862    77.045202    254.17945 
   19900    82.981932   -753.39009    58431.205   -12560.593    1004.7494   -13565.343    77.257443    258.88833 
   19950    79.669773   -958.22038    58463.646   -12589.782    964.64563   -13554.427     77.64299    248.55501 
   20000    79.591741   -1200.6272    58511.183   -12600.885    963.70081   -13564.585     77.62556    248.31156 
   20050    80.999231   -1090.6263    58514.293   -12580.026    980.74277   -13560.769    77.765116    252.70267 
   20100    80.001565   -1073.0242    58505.992   -12555.736    968.66298   -13524.399    78.047606    249.59014 
   20150    82.396705   -1046.1594    58504.962   -12529.766    997.66346   -13527.429    78.084044    257.06253 
   20200    84.607203    -1291.672    58416.927   -12520.297    1024.4283   -13544.725    78.094402    263.95888 
   20250    80.914448   -1227.0691    58348.393   -12511.231    979.71622   -13490.947    78.911309    252.43816 
   20300    81.367191   -740.02504    58390.167   -12502.409    985.19806   -13487.607    79.178033    253.85064 
   20350    81.464178   -1024.7846    58419.019   -12514.487    986.37238   -13500.859    78.965525    254.15322 
   20400    80.961378   -539.10453    58449.226    -12545.84    980.28445   -13526.124    79.410152    252.58458 
   20450    79.252289   -1080.7506     58482.53   -12573.978    959.59071   -13533.569    79.892426    247.25253 
   20500     80.50912   -860.17187    58526.713   -12560.184    974.80848   -13534.992    80.025983    251.17361 
   20550    80.307854   -1027.5576    58554.278   -12554.546    972.37154   -13526.918    80.582158     250.5457 
   20600    78.557584   -1262.0213    58548.796   -12582.929    951.17919   -13534.108    80.484994    245.08518 
   20650    81.653305   -647.92346    58518.692   -12576.566    988.66233   -13565.228    80.537229    254.74326 
   20700    81.389371    -746.4941    58606.558   -12537.285    985.46661   -13522.751    80.598759    253.91984 
   20750    82.249971   -1080.1593     58689.27   -12523.981    995.88679   -13519.868    80.674419    256.60475 
   20800    81.255345   -967.67662    58710.586   -12549.696    983.84381    -13533.54    80.742721     253.5017 
   20850    82.880241   -499.88943    58721.969   -12552.438    1003.5181   -13555.956    80.702931    258.57108 
   20900    81.177413   -796.71192    58718.491   -12576.304     982.9002   -13559.204    80.542722    253.25856 
   20950    82.406181   -723.54073    58728.222   -12555.974    997.77819   -13553.752    80.815917    257.09209 
   21000    79.866271   -1054.4853    58734.542   -12579.865    967.02483    -13546.89    80.707003    249.16804 
   21050    79.395712   -996.29398    58748.743   -12596.489    961.32728   -13557.816    80.922904    247.69999 
   21100     78.64485   -1032.2905    58756.797   -12602.038    952.23581   -13554.273    80.991018    245.35744 
   21150     78.97518    -1006.121    58733.136   -12629.871    956.23546   -13586.106    81.363868      246.388 
   21200    80.884061   -1210.3558    58763.139    -12637.86    979.34829   -13617.209    81.444838    252.34336 
   21250    78.455319   -1049.4513    58764.771     -12627.3    949.94095   -13577.241    81.499215    244.76613 
   21300    81.001277   -1132.7238    58793.398   -12597.651    980.76754   -13578.418    81.224263    252.70905 
   21350    80.242073    -1147.403     58742.93   -12614.685    971.57507    -13586.26    81.334281    250.34048 
   21400    79.062902   -879.67175    58688.302   -12636.238     957.2976   -13593.535    81.682647    246.66168 
   21450    81.336627   -587.25256    58742.217    -12635.91    984.82798   -13620.738    82.047282    253.75528 
   21500    79.601449    -1235.769    58775.594   -12647.841    963.81836   -13611.659    82.591563    248.34185 
   21550    78.377393   -710.63728      58750.6   -12653.498    948.99742   -13602.495    82.327022    244.52302 
   21600    80.757239   -767.89873     58811.64   -12648.633    977.81272   -13626.446    82.878661     251.9477 
   21650    80.562804    -918.3408    58869.895   -12646.918     975.4585   -13622.376    83.378957     251.3411 
   21700    77.631556   -1107.0232    58861.521    -12634.29    939.96679   -13574.257    83.404606    242.19614 
   21750    79.275486    -910.6415     58824.46   -12633.297    959.87159   -13593.169    83.395494     247.3249 
   21800    77.326703   -913.66914     58839.38   -12681.434    936.27562    -13617.71    83.212871    241.24506 
   21850    79.911307   -805.87731    58845.087   -12680.725    967.57014   -13648.295    83.674417    249.30855 
   21900    82.366524   -1115.0719    58907.059   -12672.533    997.29803   -13669.831    84.011773    256.96837 
   21950    77.798603   -909.21249    58939.969   -12677.837    941.98941   -13619.826    84.372231     242.7173 
   22000    79.509873   -1073.7046    58955.575   -12654.986    962.70956   -13617.695    84.419883    248.05615 
   22050    77.657283    -872.6885    58932.828   -12651.962     940.2783    -13592.24    84.301075    242.27641 
   22100    77.864968   -1348.8823    58872.986   -12666.744    942.79296   -13609.537    84.316008    242.92435 
   22150    80.701147    -1263.323    58831.374   -12636.971    977.13356   -13614.104    84.402534     251.7727 
   22200    81.768413   -1052.4159     58812.75   -12626.991    990.05606   -13617.047    85.003136    255.10237 
   22250    80.977559   -1002.5082    58786.513   -12627.867    980.48037   -13608.347    84.880068    252.63506 
   22300    80.845305   -1246.8254    58747.599    -12641.87    978.87903   -13620.749     85.34768    252.22245 
   22350    80.714863   -573.72801    58726.329   -12629.571    977.29963    -13606.87    85.736214    251.81549 
   22400    80.594083   -964.44324    58791.801   -12656.286    975.83722   -13632.123    85.564841    251.43868 
   22450    79.793197   -696.11629    58815.327   -12662.239    966.14005   -13628.379     85.67862    248.94007 
   22500    81.585255   -985.72893    58822.463   -12657.825    987.83838   -13645.663    86.057082    254.53096 
   22550    77.801705   -882.58468    58809.741   -12681.151    942.02696   -13623.178    86.490982    242.72698 
   22600    78.128569   -1230.5955    58765.526   -12706.066    945.98466   -13652.051    86.501969    243.74674 
   22650    78.452677    -952.6866    58750.985   -12708.537    949.90897   -13658.446    86.501287    244.75789 
   22700      77.4339   -816.30144     58798.06   -12676.734    937.57357   -13614.308    87.000221    241.57949 
   22750    78.869567   -822.00997    58780.351   -12670.812    954.95669   -13625.769    87.050277    246.05851 
   22800     81.89646   -999.75178    58809.348   -12651.985    991.60646   -13643.591    86.814482    255.50186 
   22850    79.507593   -1367.4543    58799.129   -12654.921    962.68195   -13617.603    86.471325    248.04904 
   22900    78.153434    -1256.968    58722.291   -12670.823    946.28571   -13617.109    87.067047    243.82431 
   22950    78.977357   -1466.2123    58661.621   -12658.519    956.26182   -13614.781     87.56118     246.3948 
   23000    81.683534    -1509.057    58620.273   -12645.316    989.02835   -13634.344      87.7989    254.83757 
   23050    80.534434   -1262.8208    58586.866   -12637.349    975.11499   -13612.464    88.086318    251.25259 
   23100     82.39024   -476.17488    58592.704   -12624.625    997.58518    -13622.21    87.716475    257.04236 
   23150    81.580632   -755.52512    58673.383   -12617.703     987.7824   -13605.486    88.058806    254.51653 
   23200    79.914919   -1030.1006    58680.887   -12621.716    967.61387    -13589.33    88.346108    249.31982 
   23250    81.311139   -959.24735    58670.753   -12664.734    984.51937   -13649.254    88.482104    253.67577 
   23300    78.328919   -991.52421    58652.699    -12676.91     948.4105   -13625.321     89.11999    244.37179 
   23350    78.378072   -1039.8505    58610.808   -12702.861    949.00564   -13651.867    89.441352    244.52514 
   23400    79.209149   -899.48188    58616.164   -12677.302    959.06837    -13636.37    89.410993    247.11794 
   23450    81.736565    -901.5946    58634.422   -12636.919    989.67045   -13626.589    89.613254    255.00302 
   23500     80.60194   -668.82971    58662.077    -12628.89    975.93235   -13604.822     89.69209     251.4632 
   23550    82.616055   -1364.4741    58670.003   -12600.569    1000.3194   -13600.889    90.308173    257.74686 
   23600    81.214717   -1111.1149    58689.679    -12603.61    983.35189   -13586.962    90.545279    253.37495 
   23650    81.781553   -814.79282    58601.942    -12622.91    990.21517   -13613.125    90.385705    255.14337 
   23700    80.608883   -998.10108    58590.788   -12607.347    976.01642   -13583.363    90.150564    251.48486 
   23750    82.542141   -1171.7253    58580.184   -12598.338     999.4244   -13597.763    90.135964    257.51626 
   23800     84.10799   -1189.3537    58569.698   -12602.774    1018.3838   -13621.158    89.845488    262.40142 
   23850    80.460049   -1220.2766    58517.047   -12601.079    974.21433   -13575.294     89.89381    251.02052 
   23900    81.787092   -1178.2062    58514.463   -12611.063    990.28223   -13601.345    90.048755    255.16065 
   23950    79.394825    -980.0089    58498.948   -12625.582    961.31655   -13586.898    90.435824    247.69722 
   24000    79.439291   -1042.6533    58480.534   -12605.233    961.85494   -13567.088    90.519783    247.83594 
   24050    78.259793   -696.79243    58513.914     -12631.5    947.57352   -13579.073    90.795762    244.15613 
   24100    79.416023   -1034.8842    58558.464   -12608.822    961.57321   -13570.395     91.05555    247.76335 
   24150    81.507673   -608.25157    58569.843   -12585.555    986.89902   -13572.454    91.537983    254.28892 
   24200    81.392317   -1100.5142    58595.201   -12564.222    985.50228   -13549.725    91.789668    253.92903 
   24250    80.565379    -1142.792    58570.466   -12588.907    975.48967   -13564.396     92.02712    251.34913 
   24300    79.537589   -1175.2208    58529.798    -12602.48    963.04514   -13565.525     92.44781    248.14262 
   24350    80.313812   -863.66176     58599.06   -12633.557    972.44369   -13606.001    93.136443    250.56429 
   24400    77.137942   -1028.8923    58604.804   -12650.788    933.99009   -13584.778    93.213995    240.65616 
   24450    79.415105   -1273.3357    58572.073   -12646.317     961.5621   -13607.879     93.51776    247.76049 
   24500    74.701616   -1131.2571    58579.829   -12640.011    904.49094   -13544.502    93.755721    233.05527 
   24550    79.816217   -764.34346    58555.712     -12644.4    966.41878   -13610.819    93.562917    249.01188 
   24600    77.737714   -1149.1366     58568.67   -12657.985    941.25216   -13599.237    94.088717    242.52734 
   24650    78.413017   -1148.0912    58546.259     -12643.3    949.42876   -13592.729    94.064201    244.63416 
   24700    79.574847   -1092.4899    58533.036   -12641.939    963.49626   -13605.435    94.160018    248.25886 
   24750    78.993488   -1282.1652    58525.105   -12659.813    956.45714   -13616.271    94.159021    246.44512 
   24800    77.826036   -946.65798    58525.133   -12664.812    942.32157   -13607.134    94.252254    242.80289 
   24850    77.554756   -1034.1861    58495.162   -12663.841    939.03689   -13602.878    94.415433    241.95654 
   24900    79.244138   -935.97457    58522.877   -12651.004    959.49202   -13610.496    94.910216     247.2271 
   24950    77.403807   -1090.2105    58544.106   -12650.882     937.2092   -13588.091    94.823313    241.48561 
   25000    79.269885   -739.87906    58540.038    -12680.63    959.80376   -13640.434    94.832258    247.30743 
   25050    78.410405   -885.69229    58523.745    -12647.99    949.39714   -13597.387    94.775344    244.62601 
   25100    80.686031   -842.22867    58516.578   -12636.298    976.95053   -13613.249     94.74958    251.72554 
   25150    78.205693   -681.27481    58505.349   -12640.828    946.91847   -13587.746    95.026056    243.98735 
   25200    78.249147   -1180.5477    58473.236   -12663.683    947.44462   -13611.127     95.61282    244.12292 
   25250    77.554048    -832.8594    58466.398   -12661.992    939.02832    -13601.02    95.838619    241.95433 
   25300    80.426558   -815.72954    58403.022   -12657.223    973.80882   -13631.032    95.860157    250.91604 
   25350    76.980932   -486.42944    58401.288   -12685.434      932.089   -13617.523    95.797449    240.16632 
   25400    76.260725   -868.29841    58409.736    -12657.11     923.3687   -13580.478    95.568271     237.9194 
   25450    78.145125   -867.07809    58426.033   -12644.843    946.18511   -13591.028    95.590273    243.79838 
   25500    75.996374   -1423.7877     58386.45   -12661.538    920.16793   -13581.706    95.723332    237.09468 
   25550     82.41065     -1184.09    58344.031   -12648.504    997.83231   -13646.336    95.633391    257.10604 
   25600    77.891264   -1141.6539    58324.846   -12631.364    943.11135   -13574.475    95.533852    243.00639 
   25650    79.424712   -1270.0321    58348.684   -12616.415    961.67842   -13578.093    96.058658    247.79046 
   25700    79.898006   -1049.5568     58363.88   -12606.073    967.40909   -13573.482    96.204648    249.26705 
   25750    78.815804   -990.93109    58432.941   -12601.004    954.30573    -13555.31    96.500759    245.89078 
   25800    78.514148   -1261.7238    58496.314   -12592.827    950.65327    -13543.48    96.853282    244.94967 
   25850      81.6081    -1002.478    58520.758   -12569.154    988.11499   -13557.269     97.23397    254.60223 
   25900    79.064048   -1173.7616    58552.825   -12559.466    957.31149   -13516.777    97.580014    246.66526 
   25950    79.532048   -1067.0601    58523.157   -12571.405    962.97804   -13534.383    97.288719    248.12533 
   26000    81.597106   -867.30116    58506.866   -12584.685    987.98188   -13572.667    97.550839    254.56793 
   26050    79.446031   -1012.0693    58475.675   -12592.198    961.93654   -13554.134    97.690968    247.85697 
   26100    79.173212   -729.25115    58458.402   -12605.762    958.63324   -13564.395     97.90006    247.00583 
   26150    78.540638    -1045.805     58439.68     -12610.6    950.97401   -13561.574    98.092494    245.03231 
   26200       83.808   -996.95894    58404.213   -12569.232    1014.7515   -13583.983    98.033638    261.46551 
   26250    82.797439   -959.59272    58405.976   -12556.448    1002.5156   -13558.964    98.168263    258.31275 
   26300    81.398393   -1149.8243    58452.124   -12580.175    985.57585   -13565.751    98.625245    253.94798 
   26350    79.298259   -1242.2935    58413.901   -12604.551    960.14732   -13564.699    99.244283    247.39595 
   26400    75.675048   -459.57538    58418.153   -12633.339    916.27729   -13549.616    99.231341     236.0922 
   26450    81.860817   -882.04577    58458.838   -12601.647     991.1749   -13592.822    99.561975    255.39066 
   26500    82.190344   -723.29837    58507.581   -12587.173    995.16483   -13582.338     100.0657    256.41872 
   26550    83.170872   -1346.0531    58561.091   -12560.987    1007.0371   -13568.024    100.34768    259.47779 
   26600    82.905348   -598.68809     58618.59     -12575.7    1003.8221   -13579.522    100.40584     258.6494 
   26650    79.797384    -990.5644    58662.675   -12585.342    966.19075   -13551.533    100.69814    248.95313 
   26700    80.833181   -1081.0259    58667.059   -12550.868    978.73223     -13529.6    100.89018    252.18462 
   26750    80.249992   -1019.0451    58606.931   -12537.502    971.67095   -13509.173     101.6548    250.36518 
   26800    79.045017   -1247.9651     58548.48   -12583.772    957.08106   -13540.853    102.16017    246.60588 
   26850    77.671815   -1027.8571    58485.552   -12571.655    940.45426    -13512.11    102.56621    242.32175 
   26900    78.140927   -965.40168    58522.118   -12568.597    946.13428   -13514.731    103.09601    243.78529 
   26950    80.309096   -1044.7577    58539.005    -12588.66    972.38659   -13561.046     102.8532    250.54958 
   27000    78.759877   -1276.0063    58510.886   -12609.496    953.62856   -13563.125    103.26249     245.7163 
   27050    81.278941   -603.34504    58499.115   -12585.294    984.12951   -13569.423    103.23406    253.57531 
   27100    81.870684   -1272.1202    58531.561   -12576.718    991.29437   -13568.012    103.46702    255.42144 
   27150    78.219667   -979.55431    58484.385   -12595.913    947.08768       -13543    103.95432    244.03094 
   27200    78.343251   -916.75402    58459.033   -12607.013    948.58404   -13555.597    104.27811     244.4165 
   27250    79.289615   -995.46931    58447.343   -12598.124    960.04266   -13558.167    104.59662    247.36898 
   27300    78.089446     -554.799    58505.515   -12601.439    945.51095    -13546.95    104.11689    243.62468 
   27350    81.327801   -1071.4122    58512.142    -12592.98    984.72112   -13577.701    104.49707    253.72775 
   27400    82.977498   -1043.2581    58539.672   -12607.015    1004.6957   -13611.711    104.84983     258.8745 
   27450    81.588868   -1100.2352    58501.762   -12608.531    987.88213   -13596.413    105.01108    254.54223 
   27500    81.620634   -1226.3395    58531.931   -12602.255    988.26675   -13590.522    105.20435    254.64133 
   27550    80.633388   -1248.7962    58552.842   -12611.193    976.31313   -13587.507      105.551    251.56131 
   27600    81.512906   -994.38875    58567.499   -12616.146    986.96237   -13603.108    105.94361    254.30524 
   27650    79.253936   -1096.1949    58556.706   -12609.769    959.61065   -13569.379    106.31013    247.25767 
   27700    82.241884   -1078.3955    58580.267   -12605.705    995.78888   -13601.494     106.4844    256.57952 
   27750    79.889239   -780.20637    58544.095   -12600.647    967.30293    -13567.95    106.68944     249.2397 
   27800    81.339456   -1453.2683    58469.176    -12583.11    984.86223   -13567.972    106.59731    253.76411 
   27850    81.954022   -1276.8879    58448.643   -12559.836    992.30343   -13552.139    106.87613    255.68144 
   27900    82.510589   -1453.9144    58419.105   -12555.419    999.04237   -13554.462    107.28801    257.41783 
   27950    83.041715   -986.43483    58403.899   -12560.972    1005.4733   -13566.445    107.66603    259.07484 
   28000    82.902381   -878.66057    58416.761   -12575.446    1003.7862   -13579.232    107.88218    258.64015 
   28050    78.218569    -1250.519    58403.834   -12583.967    947.07438   -13531.041    107.67041    244.02752 
   28100    79.871236   -981.24361    58338.333   -12606.118    967.08495   -13573.203    107.46689    249.18353 
   28150    77.989458   -1112.5626    58385.888   -12636.254    944.30029   -13580.554    107.80604    243.31273 
   28200    83.234549   -531.95372    58452.844   -12604.637    1007.8081   -13612.445    107.73026    259.67645 
   28250    82.317744   -912.88624    58475.349   -12607.168    996.70739   -13603.875    108.07413    256.81619 
   28300    77.318933   -1223.0988    58539.014   -12638.498    936.18153    -13574.68    108.31972    241.22082 
   28350    81.078482   -1311.1778    58491.855   -12597.827    981.70235   -13579.529    108.41952    252.94992 
   28400    83.480952   -1098.3957    58491.708   -12598.605    1010.7916   -13609.396    108.56958    260.44518 
   28450    80.927516   -1079.3716    58493.443   -12608.721    979.87444   -13588.595    108.69973    252.47893 
   28500    79.976402   -1110.4974    58548.077   -12626.438    968.35831   -13594.796    108.74204    249.51163 
   28550    79.288949    -1160.245    58541.579   -12657.883     960.0346   -13617.918    109.04241    247.36691 
   28600    79.362357   -1162.5684    58602.819    -12623.38    960.92342   -13584.303    109.23888    247.59593 
   28650    77.266687   -793.18187    58614.453   -12635.468    935.54894   -13571.017     109.5596    241.05782 
   28700    80.166175   -1270.3069    58610.129   -12631.429    970.65608   -13602.085    109.54854    250.10369 
   28750    78.100514   -1166.7573    58628.884   -12639.128    945.64497   -13584.773    109.41092    243.65921 
   28800    80.868245    -951.0415    58582.977   -12598.027    979.15679   -13577.184    109.70165    252.29402 
   28850    80.905336   -625.13421    58573.783   -12603.087    979.60589   -13582.693    109.61695    252.40974 
   28900    84.837847   -1121.9906    58538.737   -12592.168    1027.2209   -13619.389    109.65014    264.67845 
   28950    82.595086   -795.07111    58551.729   -12583.669    1000.0655   -13583.735    110.04057    257.68144 
   29000    81.949388   -951.89577    58599.475   -12557.238    992.24733   -13549.486    110.64304    255.66699 
   29050    81.429179   -865.26379    58638.458   -12585.863    985.94861   -13571.812    111.05312    254.04403 
   29100    82.159104   -735.06106    58735.292   -12595.335    994.78657   -13590.122    111.17899    256.32126 
   29150    82.823911    -776.6687    58774.779    -12584.85    1002.8361   -13587.686    111.61354    258.39533 
   29200    81.715566   -1157.4895    58744.814   -12589.936    989.41619   -13579.353    111.54126     254.9375 
   29250    82.589884   -1186.3745    58758.354   -12576.731    1000.0025   -13576.733    112.06048    257.66521 
   29300    79.838435   -818.34128    58799.838   -12595.172    966.68779    -13561.86     111.8817     249.0812 
   29350      81.2121   -1483.0172    58815.435   -12591.281     983.3202   -13574.601    112.25901    253.36678 
   29400    79.386744   -1218.9269    58777.974   -12612.204     961.2187   -13573.423    112.24849    247.67201 
   29450    81.954717   -1329.7033    58755.732   -12580.892    992.31184   -13573.204    112.67096    255.68361 
   29500    82.615796   -726.77258    58700.684   -12597.691    1000.3162   -13598.007     112.7366    257.74606 
   29550    80.295024   -1093.7473    58703.863   -12629.768     972.2162   -13601.984    112.83464    250.50567 
   29600    79.963051   -1414.8319    58688.914   -12635.999    968.19665   -13604.196    112.99978    249.46998 
   29650     79.07175   -1105.8152    58675.373   -12597.416    957.40474   -13554.821    113.20006    246.68929 
   29700    80.182498   -812.85355    58708.542   -12633.892    970.85373   -13604.746    113.16459    250.15461 
   29750    79.125768   -1033.1564     58757.76   -12665.947    958.05879   -13624.006    113.18414    246.85781 
   29800     76.87099   -1096.5492    58812.692   -12678.417    930.75783   -13609.174    113.41099    239.82332 
   29850    79.317368    -990.4532    58777.815   -12685.169    960.37869   -13645.548    113.67489    247.45557 
   29900    80.468115   -802.62575    58794.342    -12680.95    974.31199   -13655.262    113.60191    251.04569 
   29950    82.595898   -1346.4593    58781.005   -12662.244    1000.0753   -13662.319    113.59583    257.68398 
   30000    80.577339   -530.66479    58758.823   -12645.808    975.63448   -13621.442    113.42021    251.38644 
   30050    81.501288   -901.27453    58760.882   -12662.891     986.8217   -13649.713    113.97101      254.269 
   30100    76.354999    -1447.212    58692.437     -12671.2    924.51018    -13595.71     114.1804    238.21352 
   30150    79.910842   -1229.8878     58709.41   -12679.616     967.5645   -13647.181    114.09453     249.3071 
   30200    77.732983   -920.24308    58695.197   -12683.423    941.19488   -13624.618    114.64175    242.51258 
   30250    77.270997   -1116.7611    58675.337   -12660.944    935.60113   -13596.546    114.64017    241.07127 
   30300    79.560574   -1143.4738     58632.56   -12674.711    963.32344   -13638.035    115.11984    248.21433 
   30350    77.016192   -896.99019    58628.027   -12641.711    932.51594   -13574.227    115.37117    240.27632 
   30400    78.869508   -1001.5044    58615.198    -12654.09    954.95598   -13609.046    115.09562    246.05833 
   30450    77.659901   -1268.8452    58583.382   -12659.105       940.31   -13599.415    114.93214    242.28458 
   30500     79.48812    -872.5497     58590.47   -12693.942    962.44616   -13656.388    115.28486    247.98828 
   30550    81.448747   -1158.8108    58625.707   -12692.912    986.18554   -13679.097     115.5845    254.10508 
   30600    78.034906   -844.32127    58705.722   -12692.886    944.85058   -13637.737    116.21785    243.45452 
   30650    79.093747   -1066.3002    58757.589   -12679.903    957.67108   -13637.575    116.59974    246.75791 
   30700    77.431388   -854.85412    58855.772   -12699.676    937.54316   -13637.219    116.81094    241.57166 
   30750    78.547164   -709.08832    58915.496   -12694.996    951.05302   -13646.049    116.77751    245.05267 
   30800    79.555733   -627.67377    58987.194   -12686.766    963.26483    -13650.03    116.79942    248.19922 
   30850    80.755239   -1477.2175    58989.698   -12651.633    977.78851   -13629.422    116.85261    251.94146 
   30900    79.891184   -652.92974    58963.144     -12644.9    967.32649   -13612.227    117.37542    249.24577 
   30950     79.60383   -990.43103    58986.901   -12627.417    963.84719   -13591.264    117.28356    248.34928 
   31000    80.319286   -931.37882    59051.058   -12617.527    972.50997   -13590.037    117.78023    250.58137 
   31050    79.600613   -749.66264    59063.272   -12595.896    963.80824   -13559.704    118.38284    248.33924 
   31100    81.693045   -1106.6607    59107.906   -12589.973    989.14351   -13579.117    118.20018    254.86724 
   31150      79.1486   -1024.7542    59137.476   -12623.639    958.33524   -13581.974    118.29203    246.92904 
   31200    80.359077   -1102.5274    59140.769   -12596.786    972.99175   -13569.777    118.08888    250.70551 
   31250     81.98974   -540.43248    59169.747   -12604.765    992.73591   -13597.501    118.48533    255.79288 
   31300    78.429125    -1101.764     59207.73   -12635.856    949.62381   -13585.479    119.03845    244.68441 
   31350     80.20822   -1196.1657     59200.83   -12649.021    971.16517   -13620.186    118.94965    250.23486 
   31400    78.095199   -1187.8394    59147.441   -12669.285     945.5806   -13614.865    118.99276    243.64262 
   31450    78.727414   -902.13188    59066.117   -12675.604     953.2355   -13628.839    119.09139    245.61502 
   31500    80.828025   -1090.4419    59014.612     -12661.8     978.6698    -13640.47    119.24745    252.16854 
   31550    79.541196   -712.14335    58945.111   -12663.019    963.08881   -13626.108     119.5767    248.15387 
   31600    80.812467   -899.24314    58976.636   -12658.241    978.48142   -13636.723    119.77969       252.12 
   31650    77.732374   -1180.6916    58999.729   -12683.607    941.18751   -13624.795     119.5987    242.51068 
   31700    79.892267   -691.61365    58958.527   -12684.558     967.3396   -13651.898    119.53489    249.24915 
   31750    80.382038   -1037.8488    58923.463   -12665.974    973.26977   -13639.244    119.45509    250.77714 
   31800    78.567438   -818.87163    58930.332   -12673.192    951.29851    -13624.49    119.31211    245.11593 
   31850    79.462883    -1172.799    58901.838    -12666.13     962.1406    -13628.27    119.38443    247.90955 
   31900    80.752039   -1197.5881    58908.244   -12664.748    977.74976   -13642.498    118.91085    251.93148 
   31950    79.137207   -740.10159    58893.796   -12674.204    958.19729   -13632.402     118.7799     246.8935 
   32000    76.331533   -1297.4648    58879.157   -12694.556    924.22605   -13618.782    118.91593    238.14031 
   32050    81.438767   -938.42054    58841.998   -12652.813     986.0647   -13638.878    118.76408    254.07394 
   32100    78.792489   -1068.9889    58885.385   -12618.906    954.02343    -13572.93    118.98269    245.81804 
   32150    81.040044   -881.67603    58889.447   -12642.008    981.23694   -13623.245    119.46382       252.83 
   32200    78.409048    -1140.585    58835.509   -12658.844    949.38071   -13608.225    119.63839    244.62178 
   32250    78.617086   -1097.4572    58807.996   -12671.061    951.89964   -13622.961    119.64159    245.27082 
   32300    76.735026   -1298.9677    58861.873   -12701.599    929.11157    -13630.71    119.78093    239.39914 
   32350    77.817633   -1250.0919    58875.382   -12711.338    942.21983   -13653.558    120.13205    242.77667 
   32400    80.081726   -977.75656    58885.182   -12696.748    969.63357   -13666.381    120.00036    249.84022 
   32450     78.68829   -1153.5239     58857.15    -12667.29    952.76178   -13620.052    120.52781    245.49296 
   32500    79.153977   -1130.7483    58860.875   -12671.621    958.40034   -13630.022    121.08824    246.94582 
   32550    82.095628   -1139.0414    58856.281   -12628.654      994.018   -13622.672    120.89087    256.12323 
   32600    79.213353   -1047.3176    58905.331   -12639.417    959.11928   -13598.536    121.26117    247.13106 
   32650    80.181365   -932.41748    58965.103   -12652.064    970.84001   -13622.904    121.14353    250.15108 
   32700    77.431284   -1133.7512    58954.583   -12650.035    937.54189   -13587.577    121.42592    241.57133 
   32750    81.138525   -811.70426    58957.983   -12610.231    982.42935    -13592.66    121.88385    253.13724 
   32800     78.77914   -1188.3174     58939.28   -12586.815     953.8618   -13540.677    121.98025     245.7764 
   32850    81.756799   -1238.2638    58952.188   -12554.625    989.91545    -13544.54    122.29533    255.06614 
   32900    79.446752   -996.36587    58907.085   -12571.121    961.94528   -13533.066    122.59561    247.85922 
   32950    80.314159   -914.86344     58927.01   -12579.135    972.44788   -13551.583    122.74642    250.56537 
   33000    80.847278   -1048.9685    58930.957   -12579.837    978.90291    -13558.74    122.59702     252.2286 
   33050    80.129977   -1142.9566     58981.76    -12585.79     970.2178   -13556.008    122.90224    249.99076 
   33100    84.171926   -800.84406    58972.401   -12558.205    1019.1579   -13577.363    123.10803     262.6009 
   33150    82.439044   -878.46441    59046.223   -12563.637     998.1761   -13561.813    123.35177    257.19462 
   33200    79.203366   -890.05035    59120.872   -12584.531    958.99835   -13543.529    123.71199     247.0999 
   33250    80.725789   -1203.5972     59178.39   -12623.636    977.43193   -13601.068    124.15686    251.84958 
   33300    80.667989   -903.51287    59186.761   -12630.083    976.73208   -13606.815    124.33685    251.66926 
   33350    80.331584   -1111.7613    59146.237   -12643.373    972.65887   -13616.032    124.44679    250.61974 
   33400     78.93078   -986.95477     59094.51   -12629.888    955.69786   -13585.586    124.64021    246.24948 
   33450    81.736091   -795.33245    59094.732   -12639.501    989.66472   -13629.165     124.5999    255.00154 
   33500    78.466309   -848.86377    59079.893   -12631.788    950.07403   -13581.862    125.18564    244.80042 
   33550    77.326657   -943.16772    59115.371   -12673.365    936.27506    -13609.64    124.90449    241.24492 
   33600    80.804254    -1114.644    59045.505   -12648.409    978.38198   -13626.791    125.16524    252.09438 
   33650    79.996677   -1050.2053    59051.867   -12667.611     968.6038   -13636.215    124.86057    249.57489 
   33700    79.656929   -1046.8755    59041.148   -12682.561    964.49011   -13647.051    125.14673    248.51493 
   33750    81.914822   -1061.2772     59058.78   -12643.038    991.82879   -13634.867    125.20577    255.55914 
   33800    77.268361   -1261.2953     59135.24   -12693.493    935.56921   -13629.062    124.96837    241.06304 
   33850    76.221617   -989.97728    59079.863   -12667.273    922.89519   -13590.168    125.17062     237.7974 
   33900    76.277593   -812.81202    59049.385   -12694.397    923.57294    -13617.97    125.52095    237.97203 
   33950    75.985498   -1055.3457    58993.599   -12704.936    920.03624   -13624.973     125.3922    237.06075 
[...]
   92000    80.038415   -816.42926    58974.746   -12652.572    969.10916   -13621.681    341.11363     249.7051 
   92050     78.21628   -953.94427    58904.911   -12680.802    947.04666   -13627.849    340.93361    244.02038 
   92100    79.977955     -962.609    58895.298   -12652.005    968.37711   -13620.382    341.38277    249.51648 
   92150      77.2328   -939.70433    58859.241   -12665.642    935.13864   -13600.781    341.90527     240.9521 
   92200    80.718141   -1168.8881    58887.676   -12651.044    977.33932   -13628.383    342.06149    251.82572 
   92250    77.720947   -933.22869     58862.17   -12660.176    941.04915   -13601.225    342.80508    242.47503 
   92300    76.564545   -797.23094    58887.335     -12664.4    927.04738   -13591.448    341.87955    238.86727 
   92350    81.719445    -1110.927    58914.542   -12624.537    989.46316       -13614    342.10196     254.9496 
   92400    80.289189   -938.52172    58921.295   -12630.738    972.14555   -13602.883    342.19667    250.48747 
   92450    81.092798   -1161.5947    58934.343   -12617.119    981.87569   -13598.995    342.89158    252.99458 
   92500    78.867566   -1088.3606     58923.58   -12610.172    954.93247   -13565.104    343.93236    246.05227 
   92550    81.802464   -571.76985    58953.098   -12619.249    990.46836   -13609.717    343.78701    255.20861 
   92600    83.255136   -987.01298    58970.086   -12630.923    1008.0574    -13638.98    344.44603    259.74068 
   92650    84.793099   -913.83356    58987.008    -12601.72    1026.6791   -13628.399    344.50145    264.53884 
   92700    81.083234    -905.1576    58967.306   -12606.267    981.75988   -13588.027    344.66104    252.96474 
   92750    82.430402   -1550.9804    58979.086   -12603.504    998.07146   -13601.575    344.58576    257.16766 
   92800    81.067677   -894.53761    59009.716   -12601.526    981.57152   -13583.098    344.96548    252.91621 
   92850    81.477236   -1003.1991    59056.844   -12584.309    986.53048    -13570.84    344.95273    254.19396 
   92900    82.446143    -832.3537     59104.05   -12580.835    998.26206   -13579.097     345.0043    257.21677 
   92950     84.30643   -1204.9314    59126.845    -12603.17    1020.7865   -13623.957    344.66483    263.02052 
   93000    79.017917   -1146.9451    59164.089   -12618.135    956.75292   -13574.888    345.79845    246.52133 
   93050    80.227618   -812.76106    59131.056   -12614.949    971.40004   -13586.349    345.44261    250.29538 
   93100    78.256228   -712.69329    59164.944    -12619.04    947.53035   -13566.571    344.99844    244.14501 
   93150    83.649604   -1015.3625    59204.302   -12621.643    1012.8336   -13634.477    344.44943    260.97135 
   93200    79.756706   -1036.0146      59172.7   -12622.758    965.69822   -13588.457    344.48412    248.82622 
   93250    82.295009     -1325.97    59104.755   -12588.364    996.43212   -13584.796    344.10827    256.74526 
   93300    79.500855   -1075.2296    59052.229   -12601.077    962.60036   -13563.677    343.96512    248.02801 
   93350      78.3457   -1172.4543    59055.775   -12614.493    948.61369   -13563.106    343.58756    244.42414 
   93400    79.447046   -1003.3615    58961.089   -12612.048    961.94884   -13573.996    343.96015    247.86014 
   93450    79.388506   -933.30172    58950.123   -12604.895    961.24003   -13566.135     343.5849     247.6775 
   93500    81.952927   -992.23428    58984.739   -12583.067    992.29017   -13575.357     343.9197    255.67803 
   93550    82.702172   -1116.5574    58935.449    -12562.63    1001.3621   -13563.992    344.33679    258.01553 
   93600    83.147965   -1062.8637    58946.148   -12589.368    1006.7598   -13596.128     344.7497    259.40633 
   93650    84.415343   -1151.3244    58942.466   -12571.635    1022.1052    -13593.74    345.36892    263.36031 
   93700    82.268812   -1173.0042    58872.584   -12595.787    996.11493   -13591.902    345.84074    256.66353 
   93750    81.122095   -1004.2553    58870.902   -12612.396    982.23041   -13594.626    345.66843    253.08598 
   93800    80.484688   -1139.9244    58865.388   -12645.665    974.51266   -13620.177    345.71566    251.09739 
   93850    81.038752   -1068.1056    58821.992   -12630.342     981.2213   -13611.563    345.31738    252.82597 
   93900    81.839811   -883.76483      58826.2   -12596.345    990.92056   -13587.265    345.50805    255.32513 
   93950    81.771242   -874.61054    58855.009   -12583.985    990.09032   -13574.075    345.49437     255.1112 
   94000     80.28507   -1043.1962    58809.934   -12591.149    972.09567   -13563.244    345.86429    250.47462 
   94050     81.02325   -971.93914    58811.574   -12618.823     981.0336   -13599.856    345.57999     252.7776 
   94100    82.537388   -579.45142    58843.075   -12607.814    999.36686   -13607.181    345.71923    257.50144 
   94150    79.881231   -1273.8898    58833.564    -12612.69    967.20597   -13579.896    346.85051    249.21471 
   94200    76.798302   -882.59808     58808.29   -12625.961    929.87771   -13555.839    348.03283    239.59654 
   94250    81.070321   -815.28793    58845.557    -12641.23    981.60353   -13622.833    347.83862    252.92446 
   94300    78.091784   -1059.9675    58849.039   -12661.538    945.53926   -13607.077    348.55211    243.63197 
   94350    77.777854   -1238.1378     58807.34   -12625.018    941.73818   -13566.756    348.97588    242.65257 
   94400    81.809957   -1173.5323    58784.283   -12565.087    990.55909   -13555.647    348.58267    255.23199 
   94450    83.218224   -1173.2278     58763.13   -12558.275    1007.6105   -13565.885    349.12076    259.62552 
   94500    80.489535   -1224.5519    58744.984    -12577.23    974.57135   -13551.801    350.32327    251.11251 
   94550     76.59699   -1060.4384    58686.262   -12571.251    927.44022   -13498.692    349.63805    238.96849 
   94600    77.900134   -1610.5043    58587.639   -12599.702    943.21875   -13542.921    349.33927    243.03406 
   94650    80.652356   -911.53213    58512.578   -12579.613     976.5428   -13556.155    348.34084    251.62048 
   94700    82.440344   -1145.0944    58453.369   -12554.562    998.19184   -13552.754    348.48676    257.19868 
   94750      80.8722   -953.41952    58471.843   -12549.233    979.20468   -13528.438    348.80075    252.30636 
   94800     82.57779   -1065.4593    58470.114   -12543.463    999.85604   -13543.319    348.46374    257.62748 
   94850    82.552535   -1390.7342    58407.034   -12569.908    999.55026   -13569.458    349.04592    257.54869 
   94900     82.77159   -805.71509    58386.807   -12572.875    1002.2026   -13575.078    348.99468     258.2321 
   94950     79.88116   -1098.6903    58374.674   -12573.596    967.20511   -13540.801     348.5658    249.21449 
   95000    79.695625    -1084.044    58333.821   -12584.245    964.95864   -13549.203    348.87861    248.63566 
   95050    77.626898   -1101.4432    58307.841   -12610.399    939.91039    -13550.31    349.19379    242.18161 
   95100     79.16648   -966.22368    58264.983   -12623.565    958.55173   -13582.117    348.96538    246.98482 
   95150     80.43577   -1087.4783    58264.747   -12614.434    973.92036   -13588.354    349.39033    250.94478 
   95200     78.42918   -1075.6319    58239.487   -12606.705    949.62446   -13556.329    350.78792    244.68458 
   95250    79.619965   -1125.6683    58205.861   -12633.529    964.04255   -13597.572    351.14625    248.39961 
   95300    79.544391   -1200.4324    58191.033   -12638.256    963.12749   -13601.383    350.69261    248.16384 
   95350    77.400256   -887.94513    58223.723   -12613.174     937.1662    -13550.34    350.48922    241.47453 
   95400    78.845312   -1238.5062    58228.081    -12615.97    954.66301   -13570.633    351.24724    245.98284 
   95450     81.12896   -849.64533    58233.219    -12597.45    982.31354   -13579.763    351.74518     253.1074 
   95500    77.110181   -1184.8878    58288.691   -12624.231    933.65395   -13557.884    352.02569    240.56955 
   95550    77.373979   -1191.1122    58331.116   -12650.833    936.84804   -13587.681    351.62856    241.39255 
   95600    77.165067   -1204.7418    58380.588   -12615.409    934.31852   -13549.728    351.59053    240.74079 
   95650    77.435448   -888.13876     58409.73   -12640.092    937.59231   -13577.684    351.47487    241.58433 
   95700    79.458583   -1002.7109    58385.943   -12644.396    962.08853   -13606.485    351.48365    247.89613 
   95750    82.542065   -1120.4216    58422.903   -12620.772    999.42349   -13620.195    351.15206    257.51603 
   95800    77.400255   -619.35341    58463.256   -12615.308    937.16619   -13552.475    351.43198    241.47453 
   95850    78.851581   -1147.2236    58443.661   -12633.443    954.73892   -13588.182    352.60485     246.0024 
   95900    81.192463   -1075.0827    58389.146   -12640.826    983.08244   -13623.908    353.09895    253.30552 
   95950     79.57964   -903.48157    58414.129   -12628.431    963.55429   -13591.985    353.06938    248.27381 
   96000    81.616304   -1326.3028    58399.131   -12607.595    988.21433    -13595.81    353.49516    254.62782 
   96050     79.39506   -824.55051    58363.773   -12578.922    961.31939   -13540.241    354.41799    247.69795 
   96100    79.312683   -847.98842     58402.57   -12611.311    960.32197   -13571.633    355.34576    247.44095 
   96150    77.489679   -971.64674    58458.404   -12629.543    938.24894   -13567.791    354.75311    241.75351 
   96200    77.513717   -1218.7938    58478.467    -12630.78    938.53999    -13569.32    355.27021    241.82851 
   96250    78.724229   -1058.2421    58480.622   -12620.927    953.19694   -13574.124    355.55087    245.60508 
   96300    76.962098   -1362.4079    58503.964   -12611.309    931.86096    -13543.17    355.43051    240.10756 
   96350    78.335796   -1107.5093    58468.688   -12618.098    948.49376   -13566.591    355.45508    244.39324 
   96400    77.718907   -1241.7805    58441.914   -12605.711    941.02444   -13546.735    355.98833    242.46866 
   96450    80.689915   -602.03893    58396.643   -12602.773    976.99756   -13579.771    356.11094    251.73766 
   96500    75.269195   -642.11598     58450.56   -12615.111     911.3632   -13526.474    356.11167    234.82601 
   96550    77.218188   -535.59858    58482.627   -12613.792    934.96172   -13548.754    356.14146    240.90651 
   96600    78.173541   -996.21697    58553.851   -12616.431    946.52918    -13562.96    355.91428    243.88704 
   96650    79.383674   -1008.9032    58573.616   -12602.144    961.18153   -13563.326    355.46077    247.66243 
   96700     79.88729   -1135.7642    58553.489   -12650.374    967.27934   -13617.653    355.64253    249.23362 
   96750    78.965561   -1222.4899    58562.899   -12641.641    956.11899    -13597.76     356.5472    246.35799 
   96800    80.820919   -789.77339    58520.127   -12659.833    978.58376   -13638.416    356.81646    252.14637 
   96850    78.784555   -1121.0756    58532.553   -12665.741    953.92737   -13619.668     356.8352    245.79329 
   96900     74.58975   -1027.6211     58599.25   -12676.676    903.13645   -13579.813    355.55186    232.70627 
   96950    75.359534   -711.83326    58682.277   -12682.581    912.45703   -13595.038    356.04509    235.10785 
   97000    74.167778   -979.88267    58749.282   -12680.339    898.02719   -13578.366    356.62018     231.3898 
   97050    79.049172   -1032.2383    58758.828   -12647.761    957.13136   -13604.893    357.78546    246.61884 
   97100    78.987874   -1068.3304    58793.763   -12611.085    956.38916   -13567.474    358.73741    246.42761 
   97150    78.246244   -937.90505    58803.103   -12638.838    947.40947   -13586.247    358.74009    244.11386 
   97200    78.714593   -1203.0957    58747.429   -12667.101    953.08026   -13620.182    358.90938    245.57502 
   97250    78.629998   -1518.6844    58721.015   -12640.917    952.05598   -13592.973    359.34552     245.3111 
   97300    80.462972   -1074.0865    58722.548   -12673.083    974.24973   -13647.333    359.80772    251.02964 
   97350     78.86834   -980.49121    58752.289   -12657.141    954.94184   -13612.083    360.16459    246.05468 
   97400     79.77955   -807.61465    58773.588   -12632.219    965.97482   -13598.194    360.51779    248.89749 
   97450    79.154781   -1116.0867    58855.242   -12638.773    958.41008   -13597.183    361.75727    246.94833 
   97500    77.829008   -810.89494    58914.401   -12659.184    942.35755   -13601.542    361.54347    242.81216 
   97550    78.375886   -1404.4318    58935.079   -12661.392    948.97918   -13610.372    361.81751    244.51832 
   97600    78.079777   -609.50719    58956.724   -12658.587    945.39388   -13603.981    362.07217    243.59451 
   97650     76.45266   -1118.3645    58940.928   -12673.684    925.69267   -13599.376    362.40689    238.51821 
   97700    79.384346   -1212.2561    58967.863   -12659.954    961.18967   -13621.143    362.13108    247.66453 
   97750    78.858307   -804.80122    58941.341   -12662.789    954.82036    -13617.61    361.46352    246.02338 
   97800    78.142361   -1390.0765     58962.44   -12657.844    946.15165   -13603.996    362.61057    243.78976 
   97850    79.724743    -844.7838    58992.103   -12649.375    965.31121   -13614.687    361.28141     248.7265 
   97900    77.780086   -1141.9484    59087.036   -12637.376     941.7652   -13579.141    361.73819    242.65953 
   97950    78.769072   -599.25193    59165.551   -12612.431     953.7399   -13566.171    361.32241    245.74499 
   98000    78.379852   -992.06971    59218.945   -12629.626     949.0272   -13578.654    361.78366    244.53069 
   98050    79.092862   -1025.7022    59211.511   -12607.215    957.66036   -13564.876    361.48502    246.75515 
   98100    79.842422   -1411.3198    59164.254   -12628.302    966.73607   -13595.038    361.90022    249.09364 
   98150    80.343202   -1104.5619    59136.648   -12644.122    972.79954   -13616.921    362.11183    250.65598 
   98200    80.206119   -1341.6621    59104.259   -12642.417    971.13973   -13613.557    362.50138    250.22831 
   98250    78.729774   -807.73493    59103.143    -12624.89    953.26407   -13578.154    362.41453    245.62238 
   98300    80.423789   -1070.1208    59023.454   -12595.822     973.7753   -13569.597    362.96356     250.9074 
   98350    79.969585    -1285.681    59002.794   -12584.522    968.27576   -13552.798    362.34665    249.49036 
   98400    79.899395   -1143.1254    58984.665   -12616.551    967.42591   -13583.977    362.63664    249.27139 
   98450    79.058526   -948.16228     59032.26   -12666.547    957.24462   -13623.792    362.50402    246.64803 
   98500    80.388763   -937.98367    58988.214   -12687.198    973.35119   -13660.549    362.02397    250.79812 
   98550     78.82917   -1324.3154      58972.1   -12670.814    954.46756   -13625.281    362.04873    245.93248 
   98600     79.79859   -703.19838    58942.398   -12658.992    966.20535   -13625.198    363.09377    248.95689 
   98650    79.738476   -1112.9182    58910.083   -12652.837    965.47749   -13618.314    363.67172    248.76935 
   98700    81.402193   -741.35997    58920.299   -12624.457    985.62186   -13610.079    363.71594    253.95984 
   98750    80.278458   -746.65753    58990.051   -12615.353    972.01562   -13587.369    364.05242    250.45399 
   98800    78.635821   -1008.7778      59000.8   -12627.417    952.12649   -13579.543    364.44444    245.32927 
   98850    80.972767   -1306.3562     58984.35   -12649.651    980.42235   -13630.073    363.97544    252.62011 
   98900    79.752271   -1366.5308    58906.672   -12633.448    965.64452   -13599.092    364.12383    248.81239 
   98950     81.54472   -1089.6605     58834.44   -12607.761    987.34758   -13595.109    364.56152     254.4045 
   99000    80.883531    -1167.205    58876.811   -12650.028    979.34187    -13629.37    364.62229    252.34171 
   99050    79.123632   -778.25369    58853.082   -12646.962    958.03292   -13604.995    364.85356    246.85115 
   99100    78.998064   -1307.6408    58837.652   -12617.862    956.51254   -13574.375    365.36797     246.4594 
   99150    82.482898   -1282.5035    58795.352   -12629.687    998.70708   -13628.394    365.89642    257.33144 
   99200    81.129291   -767.88216    58723.277   -12607.551    982.31755   -13589.869     366.7107    253.10843 
   99250    81.099897   -994.10758     58728.54   -12621.155    981.96165   -13603.117    366.16425    253.01673 
   99300    79.712548   -956.93491    58702.773   -12624.879    965.16355   -13590.043    366.40349    248.68846 
   99350    82.090566   -1076.4218     58672.14    -12574.39    993.95672   -13568.347    366.38908    256.10744 
   99400    80.454781   -944.92953    58681.334   -12605.147    974.15054   -13579.298    366.58258    251.00409 
   99450    78.532463   -1158.2392    58625.623   -12624.899    950.87503   -13575.774    366.02373    245.00681 
   99500    80.084576   -715.17425    58656.063   -12577.646    969.66809   -13547.314    366.14723    249.84912 
   99550    79.165373   -925.77761    58719.962   -12595.324    958.53833   -13553.862    366.19611    246.98137 
   99600    81.859753   -1299.3548     58736.43   -12593.879    991.16202   -13585.041    366.40949    255.38734 
   99650    78.831965   -932.81508    58723.449   -12593.032     954.5014   -13547.533    365.93181     245.9412 
   99700    80.889481   -1069.8913    58740.029   -12607.209    979.41391   -13586.623    366.22192    252.36027 
   99750    79.337003   -860.69295    58742.388   -12615.349    960.61643   -13575.965    366.39424    247.51682 
   99800      83.9915   -645.85238    58708.364   -12614.062    1016.9733   -13631.035    366.87131      262.038 
   99850    82.439392   -826.15449    58726.322   -12608.663    998.18031   -13606.844    367.24009    257.19571 
   99900    81.429824   -1193.4092    58715.527   -12624.104    985.95642    -13610.06    366.65469    254.04604 
   99950    78.955569   -1200.1682    58740.131    -12640.08    955.99801   -13596.078    367.28015    246.32682 
  100000    79.668178   -1007.1994    58744.971   -12635.402    964.62632   -13600.028    367.59605    248.55003 
Loop time of 82.0362 on 80 procs for 100000 steps with 4063 atoms

Performance: 526.597 ns/day, 0.046 hours/ns, 1218.974 timesteps/s
99.5% CPU use with 80 MPI tasks x no OpenMP threads

MPI task timing breakdown:
Section |  min time  |  avg time  |  max time  |%varavg| %total
---------------------------------------------------------------
Pair    | 48.101     | 51.48      | 57.099     |  29.5 | 62.75
Neigh   | 0.47077    | 1.0934     | 2.0045     |  59.2 |  1.33
Comm    | 14.529     | 21.073     | 24.491     |  55.8 | 25.69
Output  | 0.12818    | 0.13171    | 0.25966    |   4.0 |  0.16
Modify  | 6.5125     | 7.2976     | 8.1264     |  12.6 |  8.90
Other   |            | 0.96       |            |       |  1.17

Nlocal:    50.7875 ave 86 max 21 min
Histogram: 27 13 0 0 0 0 2 9 17 12
Nghost:    718.2 ave 755 max 683 min
Histogram: 9 13 4 7 4 10 9 7 14 3
Neighs:    0 ave 0 max 0 min
Histogram: 80 0 0 0 0 0 0 0 0 0
FullNghs:  5597.32 ave 11118 max 1207 min
Histogram: 40 0 0 0 0 0 1 8 16 15

Total # of neighbors = 447786
Ave neighs/atom = 110.211
Neighbor list builds = 5727
Dangerous builds = 0

write_data		${DIR}/data.eq-${NAME}-${TEMP}
write_data		run_15/data.eq-${NAME}-${TEMP}
write_data		run_15/data.eq-het_freeze_15-${TEMP}
write_data		run_15/data.eq-het_freeze_15-250
undump          1

reset_timestep  0

unfix           2
unfix           3
unfix           4


################################################
#######         Run Simulation         #########
################################################

log				${DIR}/log.run_${NAME}
log				run_15/log.run_${NAME}
log				run_15/log.run_het_freeze_15
