LAMMPS data file via write_data, version 29 Oct 2020, timestep = 300638

3155 atoms
1 atom types

0.0 49.22 xlo xhi
0.0 49.019635930410494 ylo yhi
-0.5197190550111621 40.51971905501177 zlo zhi

Masses

1 18.015

Atoms # atomic

1108 1 2.3429178574311655 2.6884296431658226 1.4891067067382049 1 0 0
2302 1 7.326148296946024 2.9626360434504204 1.2197326416128684 0 0 1
980 1 3.5144914124779723 10.017176938578764 13.311070106572508 0 1 1
2682 1 14.287952554093746 1.2552700431440156 2.5527445908766837 1 1 0
2078 1 0.36562255535171423 14.666441976274024 7.598292970508502 1 0 0
798 1 4.008234157426631 7.111784525670813 0.9215850562931865 0 1 1
624 1 5.746253684225668 6.4105056866707635 3.2745637943883117 0 1 0
864 1 7.56412560628572 4.457204510475095 3.413290693707662 0 1 1
456 1 11.980780042038639 5.605034557949843 2.95638095237131 0 0 1
78 1 0.014013329577182609 10.501272098848421 13.35871155326438 0 0 0
1666 1 3.8718101242891545 0.4144135322232344 19.14431063220532 0 1 0
1508 1 0.6020187303724674 18.801513068931545 14.790522073920698 1 0 0
419 1 8.222500450467807 8.039384342808408 2.4123064968411696 0 0 0
2693 1 11.20457529731256 7.353589087544552 1.10612211325759 1 1 1
790 1 15.579550361851409 7.006225223159262 1.7454772436063992 0 1 1
2102 1 3.5459879099929 9.830505823595766 0.6590322009528258 1 0 0
1978 1 8.922533633687584 12.606162429144936 3.045096928546789 0 0 1
340 1 11.710728234529517 10.301319584146617 2.0416747366656978 0 0 1
1510 1 7.883959823024825 7.919822866463208 19.588320848601757 0 0 0
560 1 2.939900694181347 14.467849712192397 1.9498997058635856 0 1 0
700 1 5.995916591935694 0.33768139664033947 1.1757601612188169 0 1 0
2056 1 5.54253995482978 15.415089871307828 1.7254090766422967 0 0 0
2852 1 10.520314571637707 12.417980262310728 0.550140887266633 1 0 0
2643 1 6.602941327886508 12.643031250236405 1.2312409313025674 0 0 1
972 1 13.24708264808477 5.081076138377289 17.737230325143212 0 1 0
196 1 15.207967571246888 3.1799935599420857 16.33434655583214 0 1 0
279 1 10.026829980856315 17.47953586829292 0.9100679853495243 0 0 1
1621 1 11.822114240724392 20.04585996501957 3.2277037067624756 0 0 0
1632 1 13.609270598926216 15.619052694019262 4.227771292290355 0 0 0
1182 1 12.997136456154085 17.52398848701563 2.424738687812732 0 0 0
1097 1 0.5346101832761228 13.197683762424738 10.315492862397722 0 0 0
1013 1 0.20049311867563127 18.880718639069013 1.3872420123333251 0 0 1
1168 1 14.520334914010101 16.458696986814708 19.019082175929906 1 0 -1
214 1 16.281795630267535 3.20609795939342 9.845039770004005 0 1 0
1312 1 1.0280267370501115 14.560941751811868 14.90256783191313 1 0 0
202 1 15.097179086370247 20.80615785031274 1.5795308404695545 0 0 0
2778 1 2.5535967549949357 21.388074129278177 1.6982120514929373 1 0 0
87 1 15.534855377972619 18.17367213247908 2.019831197819396 0 0 0
2618 1 10.842790201961593 21.61988312243023 0.568885119938315 0 0 1
1581 1 15.165975657170677 2.028515537485742 19.145745346347407 0 1 0
1707 1 11.583344703283455 24.47024676577598 18.828368447100914 0 0 0
1403 1 0.9037493082210325 23.895410190624165 11.323021890709953 0 0 1
2627 1 1.1052810429331175 0.6689296046275347 2.7155486288144393 1 0 0
2353 1 4.569041924692728 1.9319608902655836 4.911368418111284 1 0 0
2173 1 9.662234316498232 1.0817081657150536 5.102819599830616 1 0 0
375 1 12.288040789327981 1.9035609347389937 5.559561674461566 0 0 0
104 1 15.584120735031847 3.567449563781406 3.217872716895072 0 0 0
1595 1 3.797631097976974 4.140605420502867 3.62499354570647 1 1 1
492 1 1.7317404303247188 5.561531671334691 5.1668240691367675 0 0 1
542 1 7.246217828152261 2.76908707221008 5.6468404250753785 0 1 0
2740 1 12.002547413841414 2.6921209750315414 2.830436268308171 0 0 0
1664 1 14.999991562515417 4.046657720284714 5.985010246488979 0 1 0
147 1 3.143297820981293 7.933180336538535 6.0160384739827935 0 0 0
3134 1 5.521561868747224 8.717463163613955 4.501895575166322 0 1 0
1389 1 9.478423072121364 6.152093524236024 4.199837634353806 0 0 1
1801 1 7.786027929496602 9.555142711331355 5.994574367476513 0 1 0
679 1 8.934964423678682 6.612501938418367 6.741288030584883 0 1 0
2486 1 14.384353411751436 6.374970961391147 4.31232695412289 1 0 0
1425 1 13.609677960543927 7.861402920608284 6.557099894304258 0 0 1
1792 1 4.935431708155208 11.020273664400474 2.763130742620223 1 0 0
2410 1 3.528219206887351 12.647777862580089 4.391479936141087 0 0 1
871 1 9.771199404155748 9.942555212917117 4.026444901134282 0 1 0
2533 1 7.472751134203482 12.161037743341076 6.688069511344019 1 0 1
316 1 14.181696429367234 11.212558625641215 3.1942551651865894 0 0 0
250 1 13.629941571794756 10.432967873235286 5.734629613334565 0 0 0
2111 1 2.413489313763877 15.793276030634237 5.577917751881309 1 0 0
1843 1 6.815180460500336 15.320932971060559 18.295982960747413 0 0 0
365 1 10.821078939451565 14.6227699169645 4.052440945485432 0 0 1
273 1 14.54721178239758 13.779404789052567 2.2713824737466775 0 0 1
931 1 10.152505451902204 2.105462251815309 0.8399594155021443 0 1 1
2749 1 0.07425005195649703 5.764501539531842 3.0698170197905807 1 1 0
2250 1 6.5297582275696335 17.13165366950998 3.704999096049869 1 0 0
2244 1 5.6384989522663105 16.635339053843687 6.2691533841862395 1 0 0
2342 1 9.252670847023325 17.091051125983924 3.7702188294951164 1 0 0
418 1 13.71658300095685 19.701725465590272 5.547256775396263 0 1 0
2773 1 14.553905493411186 17.22729742992069 6.520383271371393 0 1 0
8 1 2.679271130363335 18.951502750729492 3.475955657000234 0 0 0
1208 1 1.5069591069115273 19.120089265650556 5.843929137891289 0 0 0
1976 1 5.537703275387842 19.73450888168959 2.954093532241097 0 0 1
625 1 9.730573784954906 22.458493469865132 4.085871778868363 0 0 1
1890 1 16.11304998816757 11.341146897564844 6.530701227404693 0 0 0
1838 1 14.620707947805155 21.93728359809754 3.7653222580306593 0 0 0
1172 1 3.149854678651175 23.853980848958372 3.215325416989607 1 0 0
883 1 4.846283080510088 23.40471700132202 5.391527877551921 0 0 1
2788 1 6.857015588287162 21.785266525911112 4.236312004662183 0 0 0
161 1 7.809061320638744 23.75678409679 2.3405255363675765 0 -1 0
178 1 16.082341978854632 20.697953196407084 15.103948537399214 0 0 0
353 1 15.84072852776144 22.416848907433774 19.571077508250497 0 -1 0
2536 1 2.3092407325221695 1.9350071750594446 6.8025711956566814 1 0 1
1171 1 3.951573788955658 1.5492544283714333 9.186265221228386 0 0 0
1524 1 11.144388510043985 1.9397439053686125 9.356796635618434 0 0 1
2481 1 0.2210648876544087 17.637084303371942 10.541151637623013 1 0 1
1738 1 1.1178885235278078 4.276817597391404 7.614977540719052 0 1 0
2467 1 8.552191167378492 3.3813209028394935 9.827471003023524 1 0 1
487 1 12.517579523657279 3.900354672881675 7.719604386239347 0 0 1
2045 1 11.975094670695029 20.856687985198114 19.069891252613136 0 0 1
237 1 4.5572554299270305 6.2215809074336965 7.686736560772528 0 0 0
2734 1 7.108440518789121 4.8274878758888615 7.775588067317174 1 0 0
377 1 11.617535382564446 6.449930487830152 7.747052475664702 0 0 1
263 1 16.070623476359106 6.972922106108565 7.917921063323529 0 0 0
752 1 1.6261138839917866 9.834060933997332 7.015240745331638 0 1 0
3036 1 3.981614341081938 12.952799074088366 11.97248933896144 0 1 1
251 1 6.751634834687888 10.880842865508548 9.27410572014956 0 0 0
2168 1 11.499514697229618 11.420919633491593 7.147173311615769 0 0 0
1114 1 12.403784849396164 13.253633398103801 8.962239420889295 0 -1 0
2510 1 14.18521413844305 0.3462587426463168 7.1787312013615585 1 1 1
1178 1 1.2965075982295626 12.335558806229143 5.968940195010876 1 0 0
110 1 6.2447313206574435 19.59072108337416 0.25465679592383217 0 0 1
2960 1 5.0259516172216365 13.907787805028727 6.237000037248439 0 0 1
2621 1 5.435766727534484 16.249746484478877 9.44300759250002 0 0 0
271 1 9.955275437279534 13.225749203807943 6.1110238267631 0 0 0
521 1 10.494958243404918 15.396461195107513 8.302566306388956 0 1 0
2529 1 12.535094592202546 17.24335430225488 8.522085741512402 1 0 1
2188 1 0.3135840960115245 10.59829214057846 9.475201872940206 1 0 0
1153 1 3.6306791699798344 18.012230207162876 7.73558988969101 1 0 0
328 1 2.2285895092885766 16.09991839011936 9.308208013673632 0 0 0
2518 1 9.795752354523703 19.58781826243557 5.08184875116818 1 0 1
2014 1 11.046865032493981 19.221590994429114 7.799920622478612 0 0 1
124 1 15.875877554658395 4.9148430455498255 13.697265096184159 0 0 0
100 1 1.7392310542879494 21.27557407978468 8.028492248850919 0 0 0
2487 1 5.744248370000705 20.148835744110297 8.665176057547594 1 0 1
155 1 7.864207342516628 20.93189857400994 6.807099059051229 0 0 0
1604 1 12.955394183688469 20.96046199401874 7.655445007168175 0 0 0
1925 1 15.81312161177471 20.507210774077503 8.197831533165587 0 0 1
427 1 1.7199954006954485 14.384801779794103 18.208594311740754 0 0 0
2834 1 4.189310674315921 22.07967437901889 7.705655744403576 1 1 0
686 1 9.511862570491978 22.851163999551346 7.502598505185978 0 0 0
399 1 12.536845294236167 23.80119091638825 7.879084369889539 0 0 0
1668 1 11.703587991132553 24.342387071100134 10.80896457215071 0 1 0
2337 1 4.988502445614126 3.494726668710656 11.219100533709964 1 0 1
11 1 11.900967244016439 2.7135028056961104 11.880714150670434 0 0 0
408 1 15.853391973056288 0.22679837546873033 12.185257920178357 0 0 0
2247 1 1.9282525729162074 6.515131246499788 11.266677698232414 1 0 0
558 1 3.0738761282660145 4.847214170452185 9.569150793202153 0 1 0
298 1 7.496409517649815 4.62549449452643 12.068256545490875 0 0 0
294 1 10.29803522078754 4.69895980485641 13.355239173379488 0 0 0
892 1 13.817027060236523 4.543412112713724 10.09214445854756 0 1 1
215 1 2.3503056853300004 9.042278701773377 10.8023377278683 1 0 0
1706 1 4.882596752986789 8.63132681219557 9.674733998254682 0 0 0
2306 1 6.975326684435434 7.244999650317416 10.973607981117286 1 0 0
2586 1 10.235290381091469 7.181294553476086 12.734977023389348 0 0 0
1619 1 8.436908318822681 8.694794368166923 8.68506491573734 1 1 0
2959 1 12.210358508669952 7.454057408666624 10.456673677166537 0 1 0
3142 1 15.056074066883454 7.099637271297359 10.374869486561776 0 1 1
1673 1 3.107232965916274 0.4272602086670046 16.1709412340265 0 1 -1
929 1 6.178562792349345 11.456250332689043 13.558564116810937 0 1 0
1310 1 9.191773395810937 11.455274697807877 11.371794305167057 0 -1 0
2957 1 7.6291325279365765 9.255768559063505 12.918553249115423 1 1 0
1836 1 10.785000819753261 10.036247956719793 9.383858224815702 0 1 0
1323 1 6.287885397521264 23.53199391497884 -0.2242318341580669 0 -1 1
695 1 13.330529684442034 9.984162132491608 11.232280133062241 0 0 0
1940 1 0.4303686842522244 19.894890038693617 18.805999488831645 1 0 0
791 1 1.9307497299935175 15.133124385018412 12.325456858751767 0 0 0
151 1 4.474921323973637 13.40684598130712 9.192372079309122 0 0 0
473 1 13.969164770682225 17.212220224984755 11.15345254785449 -1 0 0
1282 1 7.130156037899667 18.252479985739072 17.634486199222184 0 -1 0
2135 1 4.811855013867456 16.267983515560616 12.111133480938864 1 0 0
1033 1 8.069448449727664 15.889938251242466 9.877185300818121 0 0 1
1560 1 10.559267252137747 19.40727608596348 10.655825785864929 0 1 0
1273 1 12.540611863219207 19.259592727710526 12.438658193248632 0 0 0
1224 1 4.532425373941947 19.785441339954318 13.442922587232093 0 0 0
1571 1 6.654813008237134 20.030341811329762 11.305662290203715 0 0 0
2464 1 8.448244859308987 18.09241491876918 11.961175448388692 1 0 1
1026 1 9.935594439604136 21.929744205253836 10.290877747574116 0 1 0
1232 1 11.218670193178621 21.889367463412082 13.116370442187497 0 0 0
718 1 14.655097437851042 21.405994389854612 12.455947620767608 0 0 0
476 1 15.02858055707985 20.014655586123656 18.03150794924528 0 0 1
372 1 3.2120829473422527 21.966910738061987 12.24866641563169 0 0 0
3034 1 4.082561276453545 23.635350784279098 9.938875985415876 0 0 0
1206 1 7.749788204778024 22.546145265130743 12.195529189093559 0 0 -1
1068 1 13.948003168126084 24.065643335612503 13.152168904271479 0 -1 0
1782 1 16.22569561026232 1.0138543984999737 8.546130733467036 0 1 0
3033 1 10.083390704245021 24.350903456860394 0.8900823691204711 1 0 1
239 1 5.679531949161388 1.1918796294296232 15.10507216199317 0 0 0
2153 1 0.15356268322614333 0.8305886585508261 12.951252307415134 1 0 0
934 1 3.19489783138888 1.7661360177739072 12.945627495123663 0 1 1
1747 1 6.856037079639449 21.256073665604386 17.488747819828404 0 0 0
3082 1 7.121439082159374 1.0746836820612975 10.456064108301245 1 1 1
358 1 12.832753791510752 1.534493003933027 15.58357680495935 0 0 0
2267 1 0.3161265100473504 22.414268244701347 0.857215284326193 1 0 0
1748 1 6.036000336189854 3.5526246090035447 16.521371625271513 0 1 0
1598 1 8.27385994625483 3.679095482681204 17.70020574646558 0 1 0
1644 1 11.69779317098262 8.111309086623939 14.62758037981587 1 1 0
200 1 14.606440169049677 2.8008221555151755 12.539524910129579 0 0 0
1023 1 2.9710173183918167 4.667546296247747 13.251463586582451 0 1 0
149 1 0.5260394168340046 3.6510018343396218 13.918705849438119 0 1 0
2427 1 5.513269576981806 5.111307142548115 14.583429667441788 1 0 1
2883 1 9.850556692397804 10.176902942089928 14.666259497758384 1 0 0
2116 1 11.14373634763535 7.032277640563713 17.078621233224375 1 0 0
825 1 13.637962007977697 10.104715604592185 14.103204409436294 0 1 0
2534 1 0.3266573512816781 10.213101491077092 17.4088523453011 1 0 0
941 1 6.857616704215778 7.420261395980157 15.17637984795451 0 1 0
2090 1 5.220289110585066 9.196731296073224 16.63376897544914 1 0 0
881 1 10.97292468019545 12.07601148139147 13.432804133430846 0 1 0
809 1 13.180951505051059 12.545498849620099 11.797468044474419 0 0 1
737 1 1.5349358255229497 11.919580264783425 15.23024357962362 0 0 0
514 1 6.79714294824467 14.53597292909208 13.394579037653187 0 1 0
387 1 5.844417988285692 14.166929962266574 15.890876370535109 0 0 1
1542 1 7.267691339386839 13.39456324925338 10.718416853243898 0 0 0
128 1 9.059963569535876 13.972134544567734 17.071340294803736 0 0 -1
2452 1 11.287026040946575 14.489334611309626 15.269202483247737 1 0 1
1298 1 13.847992442690053 14.916427803934992 13.298757031440354 0 0 0
1289 1 12.665952325556203 17.261086682002055 14.268403630837602 0 0 0
1783 1 1.2387110547586564 16.385488252606876 3.030483149534153 1 1 0
1431 1 2.832742341139121 17.25061551482513 14.729347929785096 0 0 0
3126 1 3.6781947037894973 15.789434373816048 16.832171347369034 1 0 0
2128 1 15.01449360187285 18.15172178059214 16.039813157493356 0 -1 0
1377 1 2.992551128857071 20.13230640286436 18.131711553716567 0 -1 0
2416 1 8.677708089313146 18.522627735012342 14.946759869353532 1 0 0
2220 1 11.114865447872788 18.639548725674516 16.207075144497185 0 0 0
1407 1 8.313227055004715 8.709033715651174 -0.13592884657522933 0 0 1
2110 1 1.8995670510909903 22.565964530527552 15.951262497091255 1 0 -1
2550 1 4.696951031324802 21.451831808769164 15.77326630508589 1 0 1
3010 1 8.927620157125139 21.309734482648285 14.489814575054734 1 0 0
808 1 11.971139702007548 21.27464386724398 16.031286302757515 0 0 0
1620 1 5.959257909648954 22.966764918045357 19.613792383925404 1 0 0
601 1 9.794178519537901 22.54352630114295 17.161302366267083 0 0 0
184 1 14.195771311253155 22.818831550671042 15.666133818670541 0 0 0
1094 1 1.7730757788853273 3.273303559392668 16.721271506757247 1 1 0
1304 1 4.488971991206137 17.85055148535411 18.446415947365743 1 0 0
165 1 0.4452884527794192 23.65065469031174 18.162335527691944 0 0 0
24 1 11.155759482064266 13.366338447094247 19.104674515397043 0 0 -1
3139 1 15.534990842776331 2.3817000883795734 -0.08863512197461564 0 1 1
2291 1 10.988353788489182 1.3469239363047587 17.541892254925365 1 0 0
208 1 16.06728989173029 9.779462855330452 1.1368667769463916 0 0 0
2696 1 2.4520422591642657 5.954555965247731 15.785864147446228 1 1 0
1691 1 4.173614669110062 3.1927146958516994 18.318228284099987 0 0 0
530 1 11.558435523113738 0.5952792440746731 13.486450512983867 1 1 0
400 1 0.703102546335043 21.52694783904153 13.875223294479053 0 0 0
878 1 10.895193631744277 4.109432539207881 16.0920748478641 0 1 0
1327 1 11.416072436217135 17.84307523681554 18.793242666011373 0 0 0
141 1 15.84129415197543 24.198332782857612 17.568693086237424 0 0 -1
410 1 8.535148397527538 6.497021516268825 17.312329513689615 0 0 1
416 1 5.141301363632773 23.875266400650602 14.127530945161373 0 0 1
1676 1 14.194927940593312 7.804642480279823 19.005737134716554 0 0 -1
1386 1 14.017508596771076 6.316895895980376 15.219102678060358 0 0 0
643 1 2.6380476153250303 8.325466488580973 17.548674640944252 0 1 -1
907 1 8.772378242518103 11.170384549994262 17.19948330047436 0 0 0
234 1 6.651438818835538 10.198830113630114 18.700054706361342 0 0 0
677 1 10.745691001157262 10.697831960024194 19.256562726125548 0 0 -1
2757 1 13.170658950312534 10.218679470938072 18.641414685966733 0 0 0
1840 1 16.368881284682683 14.643687116322551 16.877909575029555 0 1 0
2076 1 14.095676879081473 11.774422340853913 16.243953627201627 1 0 0
1699 1 2.721674220203458 11.807115785149115 18.597256418284125 1 1 0
2412 1 4.302666826003002 11.724753672414433 15.94854261679549 1 0 1
290 1 15.957534910236161 11.91389569573189 12.974456654678098 0 0 0
877 1 1.3144099278577024 20.083242304367786 10.723012335431699 1 1 1
2721 1 13.363766417549662 14.274056144407734 17.062266134691008 1 0 0
2305 1 3.883302314192572 1.3216219089553618 -0.35746011431576863 1 0 0
1279 1 15.171980966850601 12.62814675992827 9.09377440918678 0 0 0
413 1 2.6479355106077573 12.42455147433034 -0.1495572087209975 0 0 -1
194 1 9.126474060916756 15.368414817293859 0.0012042531764307023 0 0 1
914 1 0.6313447632990624 4.815406369334995 0.5647358235641129 0 1 1
2871 1 0.8188580434079332 10.185289795483346 1.6315172235212274 1 1 0
2266 1 13.638036279919184 6.27615982532001 -0.07659594224256897 1 0 1
1452 1 0.35420740974326975 12.629178191058696 3.1324341427482336 1 0 0
325 1 15.994745358311649 8.068414548614644 16.58118584006544 0 0 0
2140 1 16.014692322981826 10.44224514730069 10.462668511745198 0 0 0
2030 1 7.884952428961608 24.402957340744724 15.44366596581972 0 0 0
888 1 15.441133062991712 16.942025227538238 -0.3573610674216141 0 0 1
1324 1 13.8869359225699 13.92752273581242 -0.4812783286105926 0 0 2
1982 1 8.298488444064725 2.185911717517733 19.966465137739046 1 1 0
1954 1 9.09617659809255 19.769551377613585 -0.3687242675097977 0 0 1
528 1 0.7191893088674529 17.062046918975923 33.41078996639005 0 1 0
490 1 10.373900934179483 18.749490191519513 38.322858530745776 0 0 0
1322 1 1.0319343252333693 19.146999342187172 31.6292532978902 0 0 0
661 1 2.3512215864083754 5.240232999890274 22.361771863771366 0 1 -1
258 1 14.972063131184186 14.722820604971709 21.176051318315793 0 0 0
503 1 4.5436969538609535 2.9289330028676908 22.866486510117426 0 0 0
942 1 7.401363921154186 2.5600179231233895 22.503323743214253 0 1 0
287 1 8.765446653620783 4.9785130548444645 22.523259437520526 0 0 0
3118 1 12.717211153607026 3.4920686203807842 20.694198163210526 1 1 0
171 1 0.7774434045715558 20.73324231309158 23.070951402697315 0 0 0
1342 1 2.7524710237202683 6.2853143621761856 24.891607970232947 1 0 0
317 1 0.2528479991367609 7.020466430532515 20.062646938946852 0 0 0
257 1 6.718898646610634 6.475905332123871 21.451238281254362 0 0 -1
1652 1 3.03744002830598 7.720638514094727 20.345956430608283 0 1 0
1962 1 11.564376474358912 5.484924610714494 22.069522602160344 0 1 0
1641 1 5.213790012896554 11.739197917441794 20.3811024905979 0 1 0
1044 1 13.44640030396085 8.977866956933026 23.19060266021838 0 1 0
653 1 1.4750789013448333 9.395379179417718 24.018889332043827 0 0 0
2313 1 14.13255436189476 22.211792213492064 37.53663656972596 0 -1 -1
2108 1 3.596460053669214 10.10487782956319 22.370318653864786 1 0 0
1590 1 12.100223030093245 11.33563016322648 23.467205458593227 0 0 0
2616 1 4.577006482228707 5.196767740749682 20.749726723182178 1 0 0
1246 1 0.14533607445775565 1.8346266977343435 22.43654316683013 0 0 -1
1765 1 3.4195780401272917 12.936462789017694 23.158110670090874 0 1 0
2262 1 6.274950921448329 12.83629767986303 25.16557146020912 1 0 -1
2417 1 9.393280568494593 10.58385118038439 23.11473342883277 0 0 1
976 1 13.477412340605783 15.618824652538397 23.389088133058483 0 0 0
2554 1 11.16166737814065 13.924582972653772 23.907682566714833 1 0 0
247 1 14.421714858960105 12.90514294324079 24.64865466511349 0 0 0
1014 1 15.64106096789775 11.929049037486518 33.247192265551845 0 1 0
434 1 7.513056873255033 13.865442407254326 20.71114738289047 0 0 0
2891 1 5.404601320313491 14.80590387732415 22.479247162991047 1 0 0
1757 1 2.4548622667447972 15.309243697349158 31.486983193412613 0 0 -1
108 1 11.593154525723405 17.16644644674221 21.811813385253725 0 0 -1
2935 1 1.9438632724657505 8.747202050197842 39.47646678427795 1 1 0
646 1 4.728671599089654 17.573072123898893 21.674271152986197 0 0 0
2005 1 1.1566373423077587 23.02169859755735 39.20590735175941 0 1 0
917 1 6.675013317875523 0.6307411752545954 26.595002757845208 0 1 0
1764 1 14.306028047171374 19.927341579088633 23.17670930273109 0 1 -1
122 1 9.917366058611444 8.809422522968664 21.108286863448438 0 0 0
789 1 6.932924043759097 19.090341885879763 22.02801460802833 0 0 0
70 1 15.658815892496591 7.245295808675504 36.301685784250274 0 0 0
652 1 6.143895337113208 23.98653572616869 23.750450048828142 0 0 0
2382 1 13.378491700115376 23.0540317618115 20.809276727600455 0 -1 1
445 1 15.106396275136744 15.50386960933511 28.260377204068316 0 0 0
1005 1 3.0488705192702446 3.4613891854980925 25.40438911758098 0 1 1
2311 1 0.10524917813075647 5.207991027573468 30.791009011165997 1 0 -1
2359 1 8.693735451817801 0.9368030371555743 24.42593851904207 0 1 0
1145 1 14.390634920670553 2.7068366231420975 25.524552235816838 1 0 0
2324 1 10.27808730457207 14.512321871677488 21.35012653055284 1 0 0
415 1 5.853319779509825 3.7669344781031517 26.80100324430667 0 0 0
1072 1 6.332718910541921 6.274098849259507 26.745320475855603 0 0 -1
1759 1 8.622865358926786 5.929929966805269 25.309699629139487 0 1 0
292 1 14.768346841575555 2.4464077526731516 22.389547054106416 0 0 0
2735 1 1.755307914878254 1.1440985899772855 26.50130173643045 1 1 0
1262 1 0.19182336579486192 10.614843488897886 28.15650453175119 0 0 -1
2274 1 13.288210963987524 12.255979407906777 20.980169920885597 1 0 -1
1762 1 4.88933774417148 7.956562017561347 25.44824061363659 0 1 0
2892 1 13.089213382393174 5.027597993060806 24.390125143494057 1 1 0
893 1 13.399190201105954 7.649935932463467 25.83120016791233 0 0 -1
794 1 1.4778652739819675 11.5062111819653 25.822634652520502 0 0 0
1301 1 6.142065621255923 8.871100711930056 23.243655218824138 1 0 0
364 1 7.004652235838435 11.778391187957315 22.784912985370816 0 0 0
35 1 11.17014015545138 11.15546058069719 26.211121283859406 0 0 -1
2082 1 2.4040591497882717 5.752944596464703 39.8365407193463 1 0 -1
2003 1 0.002141849232020286 18.11995874966892 27.412985205565835 0 0 0
606 1 4.019693654205294 12.566877219492984 26.588525044133398 0 0 0
1194 1 9.142183383922438 14.869694906484497 25.689317292865997 0 0 0
2827 1 13.401250210673227 12.386408093320945 27.148126462018173 0 1 0
2539 1 6.572350702027307 15.548657076874186 24.80252538456274 1 0 0
554 1 11.993369787858644 18.5605598140992 27.125482575181554 0 0 -1
522 1 13.80545750054177 17.75120224857758 24.976144490348084 0 0 0
1885 1 9.628380084989248 20.64761610049928 20.338236421644403 0 0 1
749 1 1.9548761057150696 18.16140193234413 23.266597878469913 0 0 0
2692 1 16.126480620881644 18.642783577277353 38.493831400738244 1 0 0
822 1 5.782025571734125 21.194568736853473 23.80831620105234 0 0 0
2542 1 8.030831061028502 17.79730179497662 24.433733092663328 1 0 0
1130 1 7.375801564119766 19.91435230831577 25.983018470258703 0 0 0
1999 1 10.764487708604253 18.62121845663236 24.093687734971144 0 0 0
1784 1 15.98028396522058 8.855748372767133 22.700686612107848 0 0 -1
2401 1 3.210369139788337 22.01626017565299 22.788278520315284 1 0 0
464 1 3.963784047105782 21.117482914327596 26.02356933244506 0 -1 0
1442 1 8.663969371056174 21.950821828755046 24.91911823595267 0 -1 0
2968 1 10.394435649817675 21.240859403272594 22.864966627457072 0 0 0
2949 1 13.031842767841532 22.258603815311112 23.44635787276049 0 1 0
1587 1 14.32449610800026 24.400062534172687 25.233058321510025 0 0 -1
576 1 1.1145950879768713 1.4616272696297354 29.132286999810667 0 0 0
2750 1 4.162780303982821 0.14347461259029537 27.922353493838408 1 1 0
919 1 7.198915059180544 24.485049177518825 28.760250064832846 0 0 0
453 1 7.926719839084689 0.5991308673410577 28.787653693027607 0 0 0
796 1 12.394751178460371 0.921514204786931 27.012875447574825 0 1 0
720 1 9.846910847807454 2.366233504067583 26.783967886114926 0 1 1
698 1 3.389045804457923 4.275319262117011 28.602934522842443 0 1 -1
439 1 11.073575031539944 4.72220565912779 26.282783605035974 0 0 0
274 1 7.157351609115797 6.550578573807215 29.403444243458257 0 0 0
2615 1 11.313774513175492 5.8633488149815465 28.85633442011607 1 0 0
2444 1 14.184118638884465 6.295638653458381 28.451347603628122 1 0 0
2546 1 1.5547022422667633 6.515265336739246 28.850032557046184 1 0 0
1897 1 4.68151785203198 10.08889076955433 27.27470440371963 1 1 0
1981 1 8.406468067520898 8.803181565874743 25.00481175412892 0 1 0
2659 1 10.84867459641557 8.067962242316721 26.83912401533259 1 1 -1
295 1 13.983140707558857 8.25845317802866 30.412208002916977 0 0 0
2521 1 15.782133476023354 8.834925136450469 26.949594398259777 0 0 0
2767 1 2.454690560754545 9.244298532601874 29.279200459053882 1 1 0
426 1 7.678151432557298 9.661771033062756 27.442797841485838 0 0 0
1343 1 5.537762955070274 8.671953902385923 29.877596290217294 0 0 0
1519 1 11.313254048311538 10.318282233934887 29.221859332910917 0 0 0
1772 1 15.20655735450246 10.900033660825331 28.644940917008004 0 0 0
2132 1 13.920001060236318 11.347673755390733 31.071952728287457 1 0 -1
332 1 0.939040623000438 14.609792489986436 27.44383917438453 0 0 0
118 1 0.8193203220631331 12.89189894846314 30.649295595659513 0 -1 -1
1811 1 4.184475335513372 14.727282810851227 28.37766330022769 0 0 0
902 1 8.66180714551893 12.335458761346793 26.73626997060839 0 0 0
2138 1 8.687635530920184 12.64924644474207 29.402265930073323 1 0 0
2817 1 12.416270709976702 14.634639606513128 28.384357810514434 0 0 -1
2779 1 12.789430245180307 1.9392869213957753 30.024883432551583 1 1 0
1944 1 4.617383756685238 16.708237039844494 26.43895756882626 0 0 1
2677 1 6.732076527956088 14.712072793380315 29.70868952161704 1 0 -1
1669 1 10.25142403386845 16.349163287701035 27.616208447609377 0 0 -1
1953 1 8.561179784890069 17.267357534088724 29.701109485558355 0 0 0
2639 1 0.3045448011515077 19.078382224246543 38.13708797106158 0 0 0
2334 1 2.3999506207820858 18.52258100691555 26.05647080263265 1 0 -1
1732 1 2.417350888861602 22.013825242023884 30.395762088190633 1 1 -1
2489 1 5.341826841227679 19.144118664347044 27.697124091584914 1 0 0
1509 1 8.744233432330534 20.097933662555235 28.53526485477599 0 -1 0
37 1 11.106550890102755 21.118625403228112 26.678011931964708 0 0 0
72 1 13.415135624511569 19.174803048785975 29.516735220858934 -1 0 0
54 1 15.275066727558407 21.02998347114608 28.358540882918998 0 0 0
2806 1 5.824740021449426 7.864385556126257 39.807653910572164 1 1 0
2275 1 1.254053366914075 21.575390775644564 25.70298856292572 1 0 0
2961 1 4.167977468628028 22.23772971989642 28.723791889681635 0 0 0
2413 1 16.16624138649539 7.8106965093187055 31.897960937442605 1 0 0
2162 1 3.63915280986364 22.96185519311451 37.237254383590866 1 0 -1
1955 1 13.130166580049108 22.824994649551062 27.286957667168853 0 0 0
543 1 3.434563993316452 2.0994668756923525 30.61301663496879 0 1 0
2083 1 8.710272314781482 2.675473813083648 33.66972677175539 1 0 -1
721 1 14.122761649713842 4.098919233378015 31.686757504786055 0 1 0
1048 1 12.530951375075421 17.684770253605578 40.29264996777447 0 0 -1
2724 1 1.68026536355317 3.3675512611229665 32.34001616816324 1 1 -1
782 1 15.770666573494534 11.03035795768495 20.630235390562785 0 1 0
655 1 4.5118759852816375 5.856481687827213 30.65499073015068 0 1 0
2218 1 7.558901747227656 4.5190896118217205 35.56281307274593 1 0 -1
76 1 6.111751067058789 2.634792273099778 29.447533372657638 0 0 -1
2096 1 9.608769494845065 4.876192336747428 30.934284072323273 0 0 -1
222 1 12.523398635360492 6.862524985190569 32.41322132371181 0 0 -1
1281 1 0.005545799313833786 0.0011956230229870357 24.563455540033203 1 0 -1
164 1 1.2415168321028012 8.829640205111046 33.568581586654005 0 0 -1
1534 1 5.849089502474598 7.651347328205528 33.96993334866414 1 0 0
660 1 5.016818576209737 9.741617932840018 32.56802195605278 0 0 -1
2073 1 9.233165048688532 8.080661457283906 29.462173887767214 1 0 0
2522 1 6.972268266907336 4.134930357488155 31.534528534433313 1 0 0
604 1 14.266751632939316 8.207857188855247 34.023530988700536 0 1 -1
746 1 8.44342170189461 24.497836854729698 38.9933845089422 0 0 -1
2273 1 0.9863958235305036 24.132198346298296 33.566382150560294 1 0 -1
2532 1 7.531149162134095 10.969666925186804 31.287008438255732 1 0 0
2924 1 10.097061302766539 10.439460517302575 32.49270804516768 1 0 0
2204 1 9.823590878923072 7.7761559044489985 32.25413434654205 0 0 -1
1453 1 10.33044999234978 24.398448936378994 21.886500427512573 0 0 1
2295 1 12.722279715008185 10.520486086918618 33.75852460759802 0 0 -1
2441 1 5.267263827775678 12.217654244173985 33.5863810599422 1 0 0
516 1 11.254277457380477 12.697353664274713 35.555103680155774 0 1 -1
1594 1 12.097507499033846 13.75654063197223 30.84568937439347 0 0 0
86 1 13.765263517904474 15.115593436978038 32.39628160392512 0 0 0
243 1 2.2866223690577896 17.118497541238277 29.03955288235115 0 0 0
1443 1 7.933316207664147 18.697294690917218 33.228693792804634 1 0 -1
2922 1 3.720181681342434 19.347270523964266 30.298850935902934 1 1 0
2114 1 9.468259844584974 15.004939521282092 31.610616546450466 1 0 0
3086 1 10.981369517718605 17.676523701294606 32.86165620474731 1 1 0
1161 1 13.947093716074017 17.782393992076447 31.855563664768642 1 0 -1
2428 1 5.967890091093406 20.241578195239768 31.786167331201273 1 0 0
185 1 10.583286275454455 19.883677697072244 30.688598627046215 0 0 -1
446 1 11.596651167409528 21.46818548360152 32.89784210735525 0 0 -1