LAMMPS data file via write_data, version 16 Mar 2018, timestep = 8000000

4545 atoms
2 atom types

0.0000000000000000e+00 4.9219999999999999e+01 xlo xhi
0.0000000000000000e+00 4.9019635930410494e+01 ylo yhi
7.2556071784217124e-01 3.2909779068675235e+01 zlo zhi

Masses

1 18.015
2 12.01

Atoms # atomic

91 2 0.0000000000000000e+00 2.8417180249513345e+00 2.3302103071397826e+00 0 0 0
93 2 0.0000000000000000e+00 0.0000000000000000e+00 2.3302103071397826e+00 0 0 0
95 2 1.2305000000000001e+00 7.1042950623783474e-01 2.3302103071397826e+00 0 0 0
102 2 1.2305000000000001e+00 2.1312885187134998e+00 2.3302103071397826e+00 0 0 0
104 2 2.4610000000000003e+00 2.8417180249513345e+00 2.3302103071397826e+00 0 0 0
106 2 2.4610000000000003e+00 0.0000000000000000e+00 2.3302103071397826e+00 0 0 0
108 2 3.6915000000000004e+00 7.1042950623783474e-01 2.3302103071397826e+00 0 0 0
123 2 3.6914999999999996e+00 2.1312885187134998e+00 2.3302103071397826e+00 0 0 0
125 2 4.9220000000000006e+00 2.8417180249513332e+00 2.3302103071397826e+00 0 0 0
127 2 4.9220000000000006e+00 0.0000000000000000e+00 2.3302103071397826e+00 0 0 0
129 2 6.1524999999999999e+00 7.1042950623783407e-01 2.3302103071397826e+00 0 0 0
152 2 6.1524999999999999e+00 2.1312885187134989e+00 2.3302103071397826e+00 0 0 0
154 2 7.3829999999999991e+00 2.8417180249513345e+00 2.3302103071397826e+00 0 0 0
156 2 7.3829999999999991e+00 0.0000000000000000e+00 2.3302103071397826e+00 0 0 0
158 2 8.6134999999999984e+00 7.1042950623783407e-01 2.3302103071397826e+00 0 0 0
189 2 8.6134999999999984e+00 2.1312885187135002e+00 2.3302103071397826e+00 0 0 0
191 2 9.8440000000000012e+00 2.8417180249513332e+00 2.3302103071397826e+00 0 0 0
193 2 9.8440000000000012e+00 0.0000000000000000e+00 2.3302103071397826e+00 0 0 0
195 2 1.1074500000000002e+01 7.1042950623783330e-01 2.3302103071397826e+00 0 0 0
234 2 1.1074500000000002e+01 2.1312885187135002e+00 2.3302103071397826e+00 0 0 0
98 2 0.0000000000000000e+00 4.2625770374269996e+00 2.3302103071397826e+00 0 0 0
100 2 1.2305000000000001e+00 4.9730065436648339e+00 2.3302103071397826e+00 0 0 0
115 2 1.2305000000000001e+00 6.3938655561404980e+00 2.3302103071397826e+00 0 0 0
119 2 2.4610000000000003e+00 4.2625770374269996e+00 2.3302103071397826e+00 0 0 0
121 2 3.6914999999999996e+00 4.9730065436648339e+00 2.3302103071397826e+00 0 0 0
144 2 3.6914999999999996e+00 6.3938655561404980e+00 2.3302103071397826e+00 0 0 0
96 2 0.0000000000000000e+00 7.1042950623783341e+00 2.3302103071397826e+00 0 0 0
117 2 2.4610000000000003e+00 7.1042950623783341e+00 2.3302103071397826e+00 0 0 0
148 2 4.9220000000000006e+00 4.2625770374269978e+00 2.3302103071397826e+00 0 0 0
150 2 6.1524999999999999e+00 4.9730065436648339e+00 2.3302103071397826e+00 0 0 0
181 2 6.1524999999999999e+00 6.3938655561404980e+00 2.3302103071397826e+00 0 0 0
185 2 7.3829999999999991e+00 4.2625770374269996e+00 2.3302103071397826e+00 0 0 0
146 2 4.9220000000000006e+00 7.1042950623783341e+00 2.3302103071397826e+00 0 0 0
183 2 7.3830000000000009e+00 7.1042950623783341e+00 2.3302103071397826e+00 0 0 0
187 2 8.6135000000000002e+00 4.9730065436648339e+00 2.3302103071397826e+00 0 0 0
226 2 8.6135000000000002e+00 6.3938655561404980e+00 2.3302103071397826e+00 0 0 0
230 2 9.8440000000000012e+00 4.2625770374270004e+00 2.3302103071397826e+00 0 0 0
232 2 1.1074500000000002e+01 4.9730065436648339e+00 2.3302103071397826e+00 0 0 0
273 2 1.1074500000000002e+01 6.3938655561404980e+00 2.3302103071397826e+00 0 0 0
228 2 9.8440000000000012e+00 7.1042950623783341e+00 2.3302103071397826e+00 0 0 0
111 2 0.0000000000000000e+00 8.5251540748539991e+00 2.3302103071397826e+00 0 0 0
113 2 1.2305000000000001e+00 9.2355835810918343e+00 2.3302103071397826e+00 0 0 0
140 2 2.4610000000000003e+00 8.5251540748539991e+00 2.3302103071397826e+00 0 0 0
142 2 3.6915000000000004e+00 9.2355835810918343e+00 2.3302103071397826e+00 0 0 0
109 2 0.0000000000000000e+00 1.1366872099805333e+01 2.3302103071397826e+00 0 0 0
136 2 1.2305000000000001e+00 1.0656442593567498e+01 2.3302103071397826e+00 0 0 0
138 2 2.4610000000000003e+00 1.1366872099805333e+01 2.3302103071397826e+00 0 0 0
173 2 3.6914999999999996e+00 1.0656442593567499e+01 2.3302103071397826e+00 0 0 0
177 2 4.9220000000000006e+00 8.5251540748539991e+00 2.3302103071397826e+00 0 0 0
179 2 6.1524999999999999e+00 9.2355835810918343e+00 2.3302103071397826e+00 0 0 0
222 2 7.3830000000000009e+00 8.5251540748539991e+00 2.3302103071397826e+00 0 0 0
175 2 4.9220000000000006e+00 1.1366872099805333e+01 2.3302103071397826e+00 0 0 0
218 2 6.1524999999999999e+00 1.0656442593567499e+01 2.3302103071397826e+00 0 0 0
220 2 7.3829999999999991e+00 1.1366872099805333e+01 2.3302103071397826e+00 0 0 0
224 2 8.6134999999999984e+00 9.2355835810918343e+00 2.3302103071397826e+00 0 0 0
269 2 9.8440000000000012e+00 8.5251540748539956e+00 2.3302103071397826e+00 0 0 0
271 2 1.1074500000000002e+01 9.2355835810918343e+00 2.3302103071397826e+00 0 0 0
265 2 8.6134999999999984e+00 1.0656442593567498e+01 2.3302103071397826e+00 0 0 0
267 2 9.8440000000000012e+00 1.1366872099805333e+01 2.3302103071397826e+00 0 0 0
312 2 1.1074500000000002e+01 1.0656442593567498e+01 2.3302103071397826e+00 0 0 0
314 2 1.2304999999999998e+01 1.1366872099805333e+01 2.3302103071397826e+00 0 0 0
92 2 0.0000000000000000e+00 1.4208590124756650e+00 5.5395094857351168e+00 0 0 0
94 2 0.0000000000000000e+00 0.0000000000000000e+00 5.5395094857351168e+00 0 0 0
103 2 1.2305000000000001e+00 2.1312885187134998e+00 5.5395094857351168e+00 0 0 0
105 2 2.4610000000000003e+00 1.4208590124756650e+00 5.5395094857351168e+00 0 0 0
107 2 2.4610000000000003e+00 0.0000000000000000e+00 5.5395094857351168e+00 0 0 0
124 2 3.6914999999999996e+00 2.1312885187134998e+00 5.5395094857351168e+00 0 0 0
420 2 0.0000000000000000e+00 2.8417180249513345e+00 8.7488086643299461e+00 0 0 0
421 2 0.0000000000000000e+00 0.0000000000000000e+00 8.7488086643299461e+00 0 0 0
422 2 1.2305000000000001e+00 7.1042950623783474e-01 8.7488086643299461e+00 0 0 0
426 2 1.2305000000000001e+00 2.1312885187134998e+00 8.7488086643299461e+00 0 0 0
427 2 2.4610000000000003e+00 2.8417180249513345e+00 8.7488086643299461e+00 0 0 0
428 2 2.4610000000000003e+00 0.0000000000000000e+00 8.7488086643299461e+00 0 0 0
429 2 3.6915000000000004e+00 7.1042950623783474e-01 8.7488086643299461e+00 0 0 0
437 2 3.6914999999999996e+00 2.1312885187134998e+00 8.7488086643299461e+00 0 0 0
101 2 1.2305000000000001e+00 3.5521475311891644e+00 5.5395094857351168e+00 0 0 0
122 2 3.6914999999999996e+00 3.5521475311891644e+00 5.5395094857351168e+00 0 0 0
126 2 4.9220000000000006e+00 1.4208590124756650e+00 5.5395094857351168e+00 0 0 0
128 2 4.9220000000000006e+00 0.0000000000000000e+00 5.5395094857351168e+00 0 0 0
153 2 6.1524999999999999e+00 2.1312885187134989e+00 5.5395094857351168e+00 0 0 0
155 2 7.3829999999999991e+00 1.4208590124756659e+00 5.5395094857351168e+00 0 0 0
157 2 7.3829999999999991e+00 0.0000000000000000e+00 5.5395094857351168e+00 0 0 0
438 2 4.9220000000000006e+00 2.8417180249513332e+00 8.7488086643299461e+00 0 0 0
439 2 4.9220000000000006e+00 0.0000000000000000e+00 8.7488086643299461e+00 0 0 0
440 2 6.1524999999999999e+00 7.1042950623783407e-01 8.7488086643299461e+00 0 0 0
452 2 6.1524999999999999e+00 2.1312885187134989e+00 8.7488086643299461e+00 0 0 0
453 2 7.3829999999999991e+00 2.8417180249513345e+00 8.7488086643299461e+00 0 0 0
454 2 7.3829999999999991e+00 0.0000000000000000e+00 8.7488086643299461e+00 0 0 0
151 2 6.1524999999999999e+00 3.5521475311891644e+00 5.5395094857351168e+00 0 0 0
190 2 8.6134999999999984e+00 2.1312885187135002e+00 5.5395094857351168e+00 0 0 0
192 2 9.8440000000000012e+00 1.4208590124756659e+00 5.5395094857351168e+00 0 0 0
194 2 9.8440000000000012e+00 0.0000000000000000e+00 5.5395094857351168e+00 0 0 0
235 2 1.1074500000000002e+01 2.1312885187135002e+00 5.5395094857351168e+00 0 0 0
455 2 8.6134999999999984e+00 7.1042950623783407e-01 8.7488086643299461e+00 0 0 0
471 2 8.6134999999999984e+00 2.1312885187135002e+00 8.7488086643299461e+00 0 0 0
472 2 9.8440000000000012e+00 2.8417180249513332e+00 8.7488086643299461e+00 0 0 0
473 2 9.8440000000000012e+00 0.0000000000000000e+00 8.7488086643299461e+00 0 0 0
474 2 1.1074500000000002e+01 7.1042950623783330e-01 8.7488086643299461e+00 0 0 0
494 2 1.1074500000000002e+01 2.1312885187135002e+00 8.7488086643299461e+00 0 0 0
188 2 8.6134999999999984e+00 3.5521475311891657e+00 5.5395094857351168e+00 0 0 0
233 2 1.1074500000000002e+01 3.5521475311891644e+00 5.5395094857351168e+00 0 0 0
97 2 0.0000000000000000e+00 5.6834360499026637e+00 5.5395094857351168e+00 0 0 0
99 2 0.0000000000000000e+00 4.2625770374269996e+00 5.5395094857351168e+00 0 0 0
116 2 1.2305000000000001e+00 6.3938655561404980e+00 5.5395094857351168e+00 0 0 0
118 2 2.4610000000000003e+00 5.6834360499026637e+00 5.5395094857351168e+00 0 0 0
120 2 2.4610000000000003e+00 4.2625770374269996e+00 5.5395094857351168e+00 0 0 0
145 2 3.6914999999999996e+00 6.3938655561404980e+00 5.5395094857351168e+00 0 0 0
424 2 0.0000000000000000e+00 4.2625770374269996e+00 8.7488086643299461e+00 0 0 0
425 2 1.2305000000000001e+00 4.9730065436648339e+00 8.7488086643299461e+00 0 0 0
433 2 1.2305000000000001e+00 6.3938655561404980e+00 8.7488086643299461e+00 0 0 0
435 2 2.4610000000000003e+00 4.2625770374269996e+00 8.7488086643299461e+00 0 0 0
436 2 3.6914999999999996e+00 4.9730065436648339e+00 8.7488086643299461e+00 0 0 0
448 2 3.6914999999999996e+00 6.3938655561404980e+00 8.7488086643299461e+00 0 0 0
114 2 1.2305000000000001e+00 7.8147245686161639e+00 5.5395094857351168e+00 0 0 0
143 2 3.6914999999999996e+00 7.8147245686161639e+00 5.5395094857351168e+00 0 0 0
423 2 0.0000000000000000e+00 7.1042950623783341e+00 8.7488086643299461e+00 0 0 0
434 2 2.4610000000000003e+00 7.1042950623783341e+00 8.7488086643299461e+00 0 0 0
147 2 4.9220000000000006e+00 5.6834360499026637e+00 5.5395094857351168e+00 0 0 0
149 2 4.9220000000000006e+00 4.2625770374269978e+00 5.5395094857351168e+00 0 0 0
182 2 6.1524999999999999e+00 6.3938655561404980e+00 5.5395094857351168e+00 0 0 0
184 2 7.3829999999999991e+00 5.6834360499026637e+00 5.5395094857351168e+00 0 0 0
186 2 7.3829999999999991e+00 4.2625770374269996e+00 5.5395094857351168e+00 0 0 0
450 2 4.9220000000000006e+00 4.2625770374269978e+00 8.7488086643299461e+00 0 0 0
451 2 6.1524999999999999e+00 4.9730065436648339e+00 8.7488086643299461e+00 0 0 0
467 2 6.1524999999999999e+00 6.3938655561404980e+00 8.7488086643299461e+00 0 0 0
469 2 7.3829999999999991e+00 4.2625770374269996e+00 8.7488086643299461e+00 0 0 0
180 2 6.1524999999999999e+00 7.8147245686161639e+00 5.5395094857351168e+00 0 0 0
449 2 4.9220000000000006e+00 7.1042950623783341e+00 8.7488086643299461e+00 0 0 0
468 2 7.3830000000000009e+00 7.1042950623783341e+00 8.7488086643299461e+00 0 0 0
227 2 8.6135000000000002e+00 6.3938655561404980e+00 5.5395094857351168e+00 0 0 0
229 2 9.8440000000000012e+00 5.6834360499026637e+00 5.5395094857351168e+00 0 0 0
231 2 9.8440000000000012e+00 4.2625770374270004e+00 5.5395094857351168e+00 0 0 0
274 2 1.1074500000000002e+01 6.3938655561404980e+00 5.5395094857351168e+00 0 0 0
470 2 8.6135000000000002e+00 4.9730065436648339e+00 8.7488086643299461e+00 0 0 0
490 2 8.6135000000000002e+00 6.3938655561404980e+00 8.7488086643299461e+00 0 0 0
492 2 9.8440000000000012e+00 4.2625770374270004e+00 8.7488086643299461e+00 0 0 0
493 2 1.1074500000000002e+01 4.9730065436648339e+00 8.7488086643299461e+00 0 0 0
514 2 1.1074500000000002e+01 6.3938655561404980e+00 8.7488086643299461e+00 0 0 0
225 2 8.6135000000000002e+00 7.8147245686161639e+00 5.5395094857351168e+00 0 0 0
272 2 1.1074500000000002e+01 7.8147245686161639e+00 5.5395094857351168e+00 0 0 0
491 2 9.8440000000000012e+00 7.1042950623783341e+00 8.7488086643299461e+00 0 0 0
110 2 0.0000000000000000e+00 9.9460130873296642e+00 5.5395094857351168e+00 0 0 0
112 2 0.0000000000000000e+00 8.5251540748539991e+00 5.5395094857351168e+00 0 0 0
139 2 2.4610000000000003e+00 9.9460130873296642e+00 5.5395094857351168e+00 0 0 0
141 2 2.4610000000000003e+00 8.5251540748539991e+00 5.5395094857351168e+00 0 0 0
431 2 0.0000000000000000e+00 8.5251540748539991e+00 8.7488086643299461e+00 0 0 0
432 2 1.2305000000000001e+00 9.2355835810918343e+00 8.7488086643299461e+00 0 0 0
446 2 2.4610000000000003e+00 8.5251540748539991e+00 8.7488086643299461e+00 0 0 0
447 2 3.6915000000000004e+00 9.2355835810918343e+00 8.7488086643299461e+00 0 0 0
135 2 1.2305000000000001e+00 1.2077301606043163e+01 5.5395094857351168e+00 0 0 0
137 2 1.2305000000000001e+00 1.0656442593567498e+01 5.5395094857351168e+00 0 0 0
172 2 3.6914999999999996e+00 1.2077301606043163e+01 5.5395094857351168e+00 0 0 0
174 2 3.6914999999999996e+00 1.0656442593567499e+01 5.5395094857351168e+00 0 0 0
430 2 0.0000000000000000e+00 1.1366872099805333e+01 8.7488086643299461e+00 0 0 0
444 2 1.2305000000000001e+00 1.0656442593567498e+01 8.7488086643299461e+00 0 0 0
445 2 2.4610000000000003e+00 1.1366872099805333e+01 8.7488086643299461e+00 0 0 0
463 2 3.6914999999999996e+00 1.0656442593567499e+01 8.7488086643299461e+00 0 0 0
176 2 4.9220000000000006e+00 9.9460130873296642e+00 5.5395094857351168e+00 0 0 0
178 2 4.9220000000000006e+00 8.5251540748539991e+00 5.5395094857351168e+00 0 0 0
221 2 7.3830000000000009e+00 9.9460130873296642e+00 5.5395094857351168e+00 0 0 0
223 2 7.3830000000000009e+00 8.5251540748539991e+00 5.5395094857351168e+00 0 0 0
465 2 4.9220000000000006e+00 8.5251540748539991e+00 8.7488086643299461e+00 0 0 0
466 2 6.1524999999999999e+00 9.2355835810918343e+00 8.7488086643299461e+00 0 0 0
488 2 7.3830000000000009e+00 8.5251540748539991e+00 8.7488086643299461e+00 0 0 0
217 2 6.1524999999999999e+00 1.2077301606043163e+01 5.5395094857351168e+00 0 0 0
219 2 6.1524999999999999e+00 1.0656442593567499e+01 5.5395094857351168e+00 0 0 0
464 2 4.9220000000000006e+00 1.1366872099805333e+01 8.7488086643299461e+00 0 0 0
486 2 6.1524999999999999e+00 1.0656442593567499e+01 8.7488086643299461e+00 0 0 0
487 2 7.3829999999999991e+00 1.1366872099805333e+01 8.7488086643299461e+00 0 0 0
268 2 9.8440000000000012e+00 9.9460130873296642e+00 5.5395094857351168e+00 0 0 0
270 2 9.8440000000000012e+00 8.5251540748539956e+00 5.5395094857351168e+00 0 0 0
489 2 8.6134999999999984e+00 9.2355835810918343e+00 8.7488086643299461e+00 0 0 0
512 2 9.8440000000000012e+00 8.5251540748539956e+00 8.7488086643299461e+00 0 0 0
513 2 1.1074500000000002e+01 9.2355835810918343e+00 8.7488086643299461e+00 0 0 0
264 2 8.6135000000000002e+00 1.2077301606043163e+01 5.5395094857351168e+00 0 0 0
266 2 8.6134999999999984e+00 1.0656442593567498e+01 5.5395094857351168e+00 0 0 0
311 2 1.1074500000000002e+01 1.2077301606043163e+01 5.5395094857351168e+00 0 0 0
313 2 1.1074500000000002e+01 1.0656442593567498e+01 5.5395094857351168e+00 0 0 0
510 2 8.6134999999999984e+00 1.0656442593567498e+01 8.7488086643299461e+00 0 0 0
511 2 9.8440000000000012e+00 1.1366872099805333e+01 8.7488086643299461e+00 0 0 0
534 2 1.1074500000000002e+01 1.0656442593567498e+01 8.7488086643299461e+00 0 0 0
535 2 1.2304999999999998e+01 1.1366872099805333e+01 8.7488086643299461e+00 0 0 0
5 1 2.3917103231300074e+00 1.2222167283079846e+00 1.1344771795372527e+01 0 -2 0
3745 1 9.5409790849322000e+00 1.7330042738793081e-01 1.1702075185182265e+01 3 -1 -2
3021 1 7.2195732838889226e+00 1.2902754362727233e+00 1.1274307169105230e+01 4 1 -1
1349 1 1.1669283744714599e+01 4.4906650398893841e+00 1.1608251112234981e+01 -1 0 0
3708 1 1.1864331072197634e+01 1.8440805675303322e+00 1.1133528243912110e+01 1 0 -1
2893 1 2.1081711806707535e+00 3.9078482481722348e+00 1.1163017725926268e+01 4 0 0
742 1 9.5772967067983341e+00 8.3759326624838284e+00 1.4176358275374678e+01 -2 -2 0
3686 1 7.2162537940499698e+00 4.1833763351511584e+00 1.1734009992383692e+01 2 0 0
3624 1 4.5257632031172372e+00 5.0913615117169417e+00 1.1841777966715743e+01 -1 2 -1
16 1 9.3669049943352984e+00 5.8046656466701361e+00 1.0976866068425208e+01 -1 0 -1
2330 1 1.9537578425973940e+00 9.1107216413448295e+00 1.1590448190995598e+01 1 5 0
3064 1 9.6398628733458942e+00 1.0800631015921882e+01 1.5405232350643203e+01 6 0 1
3688 1 4.2578469878873371e+00 7.6984280653722221e+00 1.1621339145561574e+01 4 1 0
3890 1 6.8407985381123231e+00 9.5615721136290954e+00 1.1215638198905829e+01 2 -1 0
2995 1 9.3957287114397303e+00 8.3518574320177308e+00 1.1473528587829666e+01 0 -3 0
751 1 1.3539853839978753e+00 8.9894243984353617e-01 1.4182952175839262e+01 3 -3 -1
3893 1 1.1635171265927517e+00 3.3914373755521936e+00 1.5226573179300633e+01 0 1 -1
1499 1 5.9050633541663409e+00 3.3482517417028101e-01 1.4025133496818881e+01 -3 2 -1
3732 1 5.8845049438079666e+00 2.7958938223751724e+00 1.5253050632406424e+01 -3 -2 -1
3766 1 1.1808314302602959e+01 4.2692602475466046e+00 1.4270124564793823e+01 0 -1 0
1579 1 9.7801937599872595e+00 2.7354110900654005e+00 1.5380717705546077e+01 4 1 0
4483 1 3.6579718579572060e+00 4.5739996731499257e+00 1.4367391194834626e+01 -2 0 0
1649 1 3.7462901299825511e+00 7.4252298793516882e+00 1.5005231390476803e+01 0 1 1
883 1 7.7761052509519413e+00 4.5690292187709982e+00 1.4359822359801049e+01 4 0 0
3788 1 7.4241707328276219e+00 7.2668209850184198e+00 1.5327927877164775e+01 0 4 0
1661 1 1.0058210532970975e+01 6.6014275116480656e-02 1.4432918014311349e+01 0 0 0
3094 1 5.2534598249427944e+00 1.1499806219342624e+01 1.5081090556724224e+01 0 1 0
2933 1 1.5138702332558076e+00 8.9500983701214913e+00 1.4468609048504739e+01 0 2 0
2920 1 1.1680005717327722e+00 1.1563528073943189e+01 1.5612744931337540e+01 0 -1 0
2898 1 5.7846395925589844e+00 8.8961295120380388e+00 1.3829166924018100e+01 1 0 0
2253 1 1.1662912410084457e+01 9.9817926141130400e+00 1.1032945615566119e+01 5 5 0
4458 1 1.1712494462507767e+01 6.8303348698980288e+00 1.4995888039154501e+01 -1 2 0
1594 1 2.3085108763092537e+00 1.1918896994680699e+01 1.1498300271721622e+01 1 -4 0
1625 1 7.5762134838058171e-01 3.1504081819628555e+00 1.7951086561938308e+01 4 2 -1
3152 1 7.6386187330090627e-01 5.8477334597530251e-01 1.9084960233755886e+01 -1 2 0
3653 1 5.5258345628812906e+00 2.7588175644980923e+00 1.7897301073477731e+01 -2 4 -1
3067 1 9.0451726557401468e-01 1.1899868203521935e+01 2.5137432907434889e+01 5 -3 0
1548 1 9.6686264647563149e+00 2.9919650888778091e+00 1.8179459120844257e+01 -1 -1 0
2901 1 9.8922300612292489e+00 2.2785334099218757e-01 1.8956683682342785e+01 1 0 1
725 1 3.1210418660968600e+00 4.5013598158327568e+00 1.8698712385048996e+01 0 -3 0
871 1 3.1242995258576265e+00 7.0727329839832693e+00 1.7772522233078309e+01 -3 -5 1
2882 1 7.6373815229221753e+00 4.4390796059260422e+00 1.8853705754709569e+01 0 -3 0
2208 1 7.4082075070371314e+00 7.2182257065907152e+00 1.7935580522273533e+01 -3 -3 0
1610 1 1.1869566252396138e+01 7.3089987829912886e+00 2.4965443689177871e+01 3 2 1
55 1 5.3639935431839394e+00 2.7545568520963071e-01 1.8870011223952023e+01 4 -3 1
673 1 9.8602919403784017e-01 8.4823695433928989e+00 1.8839315611667310e+01 2 -4 0
3692 1 8.4076316659097328e-01 1.1141185346150634e+01 1.8280599813108417e+01 2 0 0
868 1 5.2868860410209502e+00 1.1468673119008011e+01 1.7856856549059895e+01 3 -3 0
3805 1 5.4342740724218492e+00 8.7186407938632460e+00 1.8801626153683582e+01 0 1 0
1516 1 9.8178740804477247e+00 8.5252147991982437e+00 1.8848015933705568e+01 -3 -1 0
34 1 9.8716542797497535e+00 1.1181792502058380e+01 1.7958760674690577e+01 -1 -2 0
1489 1 9.4995521660159732e-01 6.2033772065130199e-01 2.1715644876616729e+01 -1 1 0
1587 1 6.5656533337539780e-01 3.4017000232899375e+00 2.2477011281248195e+01 1 -1 1
3701 1 5.4066281183958980e+00 3.4929472220074391e+00 2.2355035067865479e+01 4 0 0
2187 1 5.6945478556522868e+00 4.5440736504307894e-01 2.1683172277684257e+01 -4 -1 0
3659 1 9.9940647082053609e+00 3.1857359759228263e+00 2.2114233659896584e+01 -5 6 0
3108 1 9.8944323716347657e+00 4.1200237255081318e-01 2.1569020553027645e+01 1 5 0
3086 1 3.1676300064483622e+00 4.5266287797004443e+00 2.1454918663110679e+01 1 -2 0
2885 1 3.3546381092015438e+00 7.0903490256585995e+00 2.2465627690905226e+01 1 4 -1
1371 1 7.4159092207468635e+00 7.5163037130341381e+00 2.2269853324655294e+01 2 -4 1
3061 1 7.8492156899881076e+00 4.8454881677551080e+00 2.1491970200791783e+01 1 -1 0
2189 1 8.3816051905163462e+00 1.1120689904803411e+01 3.2133316952899904e+01 -1 0 1
772 1 1.0717285849145062e+01 9.9062782685374060e+00 3.1819379700620875e+01 1 -3 -1
1461 1 8.8757881119527615e-01 1.1337432814628064e+01 2.2342901370762544e+01 4 9 0
3716 1 1.1879849422572815e+00 8.6093146138439778e+00 2.1509962211866021e+01 -1 1 -1
2285 1 5.3348186900579000e+00 1.1400264216784947e+01 2.2417799512172369e+01 0 0 0
773 1 5.2758751730927642e+00 8.6619085073467570e+00 2.1591561595439906e+01 5 0 0
1370 1 9.7945174309605783e+00 1.1332465564154740e+01 2.2216298226450423e+01 1 -1 -1
2126 1 9.6431588352123470e+00 8.6127370474170135e+00 2.1482002554312288e+01 -1 -3 -1
853 1 1.1465431539297193e+00 3.4440597268473900e+00 2.5148597152133032e+01 0 -2 0
3051 1 3.4897335286981703e+00 2.1874346181755304e+00 2.6018867940010349e+01 0 1 0
3103 1 3.6925458814848025e+00 2.1766224769262688e+00 2.9037966783242332e+01 -1 1 1
3076 1 5.6583992317922149e+00 3.6287690219149358e+00 2.5147057118755914e+01 1 -2 -1
3050 1 7.8032573306515687e+00 1.9620942872537843e+00 2.5925132453258414e+01 1 -3 1
583 1 1.0094940561364984e+01 3.1584422719443492e+00 2.4952150608953140e+01 0 1 0
3658 1 8.8471673214339415e+00 1.0855151394940577e+01 2.8889505920605057e+01 1 -1 -1
2209 1 3.1858602310651287e+00 7.4442641376325724e+00 2.5196579931315966e+01 -1 0 -1
2174 1 9.4888898172479108e-01 5.9131559444482589e+00 2.6102216424169953e+01 -1 1 0
3629 1 7.6945221106521089e+00 7.2591445838678901e+00 2.5126738996699896e+01 1 3 1
819 1 5.2502630572960189e+00 6.1429451581438785e+00 2.6274463342170232e+01 0 1 0
4450 1 9.7166375342478251e+00 5.6598903301461378e+00 2.6136796924040429e+01 0 4 0
628 1 1.1983531298570936e+01 7.2832126749953963e+00 2.2149321533047512e+01 1 -3 0
802 1 1.2110918301891857e+01 7.3814596069129186e+00 1.7876656017499670e+01 5 -3 -1
2154 1 3.1801018737142002e+00 1.0293663259591630e+01 2.6059518431540106e+01 3 2 0
3626 1 6.4472290414930784e+00 9.5390441599047318e+00 2.8941317527895816e+01 3 -1 -1
3077 1 5.5316045531569253e+00 1.1639580280975865e+01 2.5252048858331364e+01 2 5 1
6 1 7.6151349996940940e+00 9.8899120108013925e+00 2.6105641919002458e+01 -5 -4 0
3126 1 1.1944448278741495e+01 1.0100210341462901e+01 2.5839580925171642e+01 -5 1 -1
15 1 9.5112247469569766e+00 1.1707413038260057e+01 2.5054086349198791e+01 2 3 -1
3127 1 1.1158553157317328e+01 9.6769590145047797e+00 2.8645291269439625e+01 -2 -4 0
2264 1 1.2904701287723774e+00 9.6213519128862679e-01 2.9047244011907889e+01 3 4 0
4496 1 1.5255892537883378e+00 8.3304207888580362e-01 3.1828772050126027e+01 1 -2 -1
1377 1 4.1799798053971191e+00 2.2877330940148126e+00 3.2060511989550797e+01 -2 2 0
2838 1 6.2327178301546704e+00 1.1970131015285128e+00 2.9494547239848202e+01 -1 5 0
1397 1 6.6597392145276304e+00 8.5009751912689890e-01 3.2275401428805225e+01 1 -5 0
2322 1 1.1309869268041037e+01 1.5650027502680641e+00 2.8881228135829645e+01 -1 2 0
635 1 8.5569034340860988e+00 2.5786958395585535e+00 2.8889580922560430e+01 1 -3 0
3760 1 9.0048205362261022e+00 2.6534310218173354e+00 3.1802531700562920e+01 0 2 -1
1478 1 1.1418714641238223e+01 1.7820516034677147e+00 3.1659492212086743e+01 8 -3 -1
3726 1 3.9654445401758109e+00 5.1304458614586492e+00 2.9039269483430854e+01 -2 2 0
1351 1 1.3037321292299888e+00 6.3408802655403491e+00 2.8458298845415577e+01 -1 0 0
3827 1 1.6452334539960245e+00 6.4828952225111074e+00 3.2022067879419382e+01 4 1 0
3734 1 3.8949751118590230e+00 5.1437505674951627e+00 3.2076192089128483e+01 1 1 0
699 1 6.3494813384566990e+00 6.7911145693795083e+00 2.8784643712590004e+01 -3 1 0
3122 1 6.3076886647173698e+00 6.9351347075280776e+00 3.1795066566074325e+01 1 -2 0
2368 1 1.1229357098509384e+01 6.9877627574016223e+00 2.8873109713379659e+01 2 -2 0
4445 1 8.7775181978684742e+00 5.2438427572564423e+00 2.8967140061409495e+01 1 6 0
4465 1 1.0859079281162906e+01 7.3220231791548827e+00 3.1467439614694758e+01 -1 2 0
758 1 8.8139732660345107e+00 5.5625872763242556e+00 3.1790431044317994e+01 0 2 0
3753 1 3.7295176759795186e+00 1.0423440242489267e+01 2.8725289372452572e+01 1 -2 0
655 1 3.6859950848822245e+00 1.0494081041591835e+01 3.1725000081616148e+01 -1 2 -1
2889 1 1.2410638303577852e+00 9.0318679631124272e+00 2.8957934899209135e+01 0 2 0
3770 1 1.1685960439617185e+00 9.2396998848644092e+00 3.1853981612717202e+01 2 1 -1
2151 1 6.3159417019511732e+00 9.6674346255509374e+00 3.1823155580231017e+01 -4 -3 0
3714 1 1.2109240153493399e+01 4.6540808475651154e+00 1.8502930057950209e+01 0 -2 0
132 2 0.0000000000000000e+00 1.2787731112280996e+01 2.3302103071397826e+00 0 0 0
134 2 1.2305000000000001e+00 1.3498160618518829e+01 2.3302103071397826e+00 0 0 0
169 2 2.4610000000000003e+00 1.2787731112280996e+01 2.3302103071397826e+00 0 0 0
171 2 3.6915000000000004e+00 1.3498160618518829e+01 2.3302103071397826e+00 0 0 0
130 2 0.0000000000000000e+00 1.5629449137232333e+01 2.3302103071397826e+00 0 0 0
165 2 1.2305000000000001e+00 1.4919019630994494e+01 2.3302103071397826e+00 0 0 0
167 2 2.4610000000000003e+00 1.5629449137232328e+01 2.3302103071397826e+00 0 0 0
210 2 3.6915000000000004e+00 1.4919019630994494e+01 2.3302103071397826e+00 0 0 0
214 2 4.9220000000000006e+00 1.2787731112280996e+01 2.3302103071397826e+00 0 0 0
216 2 6.1524999999999990e+00 1.3498160618518829e+01 2.3302103071397826e+00 0 0 0
261 2 7.3829999999999991e+00 1.2787731112280996e+01 2.3302103071397826e+00 0 0 0
212 2 4.9220000000000006e+00 1.5629449137232333e+01 2.3302103071397826e+00 0 0 0
257 2 6.1524999999999990e+00 1.4919019630994494e+01 2.3302103071397826e+00 0 0 0
259 2 7.3829999999999991e+00 1.5629449137232333e+01 2.3302103071397826e+00 0 0 0
263 2 8.6135000000000002e+00 1.3498160618518835e+01 2.3302103071397826e+00 0 0 0
308 2 9.8440000000000012e+00 1.2787731112280996e+01 2.3302103071397826e+00 0 0 0
310 2 1.1074500000000002e+01 1.3498160618518829e+01 2.3302103071397826e+00 0 0 0
304 2 8.6135000000000002e+00 1.4919019630994494e+01 2.3302103071397826e+00 0 0 0
306 2 9.8440000000000012e+00 1.5629449137232328e+01 2.3302103071397826e+00 0 0 0
346 2 1.1074500000000002e+01 1.4919019630994494e+01 2.3302103071397826e+00 0 0 0
161 2 0.0000000000000000e+00 1.7050308149707998e+01 2.3302103071397826e+00 0 0 0
206 2 2.4610000000000003e+00 1.7050308149707998e+01 2.3302103071397826e+00 0 0 0
159 2 0.0000000000000000e+00 1.9892026174659328e+01 2.3302103071397826e+00 0 0 0
163 2 1.2305000000000001e+00 1.7760737655945832e+01 2.3302103071397826e+00 0 0 0
202 2 1.2305000000000001e+00 1.9181596668421495e+01 2.3302103071397826e+00 0 0 0
204 2 2.4610000000000003e+00 1.9892026174659328e+01 2.3302103071397826e+00 0 0 0
208 2 3.6914999999999996e+00 1.7760737655945832e+01 2.3302103071397826e+00 0 0 0
249 2 3.6914999999999996e+00 1.9181596668421495e+01 2.3302103071397826e+00 0 0 0
253 2 4.9220000000000006e+00 1.7050308149707998e+01 2.3302103071397826e+00 0 0 0
300 2 7.3830000000000009e+00 1.7050308149707998e+01 2.3302103071397826e+00 0 0 0
251 2 4.9220000000000006e+00 1.9892026174659328e+01 2.3302103071397826e+00 0 0 0
255 2 6.1524999999999999e+00 1.7760737655945832e+01 2.3302103071397826e+00 0 0 0
296 2 6.1524999999999999e+00 1.9181596668421495e+01 2.3302103071397826e+00 0 0 0
298 2 7.3829999999999991e+00 1.9892026174659328e+01 2.3302103071397826e+00 0 0 0
342 2 9.8440000000000012e+00 1.7050308149707998e+01 2.3302103071397826e+00 0 0 0
376 2 1.2304999999999998e+01 1.7050308149707998e+01 2.3302103071397826e+00 0 0 0
302 2 8.6134999999999984e+00 1.7760737655945832e+01 2.3302103071397826e+00 0 0 0
338 2 8.6135000000000002e+00 1.9181596668421495e+01 2.3302103071397826e+00 0 0 0
340 2 9.8440000000000012e+00 1.9892026174659335e+01 2.3302103071397826e+00 0 0 0
344 2 1.1074500000000002e+01 1.7760737655945835e+01 2.3302103071397826e+00 0 0 0
372 2 1.1074500000000002e+01 1.9181596668421495e+01 2.3302103071397826e+00 0 0 0
196 2 0.0000000000000000e+00 2.4154603212086325e+01 2.3302103071397826e+00 0 0 0
198 2 0.0000000000000000e+00 2.1312885187134999e+01 2.3302103071397826e+00 0 0 0
200 2 1.2304999999999993e+00 2.2023314693372832e+01 2.3302103071397826e+00 0 0 0
241 2 1.2304999999999993e+00 2.3444173705848499e+01 2.3302103071397826e+00 0 0 0
243 2 2.4610000000000003e+00 2.4154603212086325e+01 2.3302103071397826e+00 0 0 0
245 2 2.4610000000000003e+00 2.1312885187134995e+01 2.3302103071397826e+00 0 0 0
247 2 3.6914999999999996e+00 2.2023314693372832e+01 2.3302103071397826e+00 0 0 0
288 2 3.6915000000000004e+00 2.3444173705848499e+01 2.3302103071397826e+00 0 0 0
290 2 4.9220000000000006e+00 2.4154603212086325e+01 2.3302103071397826e+00 0 0 0
292 2 4.9220000000000006e+00 2.1312885187134995e+01 2.3302103071397826e+00 0 0 0
294 2 6.1524999999999990e+00 2.2023314693372832e+01 2.3302103071397826e+00 0 0 0
330 2 6.1524999999999999e+00 2.3444173705848499e+01 2.3302103071397826e+00 0 0 0
332 2 7.3830000000000009e+00 2.4154603212086336e+01 2.3302103071397826e+00 0 0 0
334 2 7.3829999999999991e+00 2.1312885187134999e+01 2.3302103071397826e+00 0 0 0
336 2 8.6135000000000002e+00 2.2023314693372832e+01 2.3302103071397826e+00 0 0 0
364 2 8.6134999999999984e+00 2.3444173705848499e+01 2.3302103071397826e+00 0 0 0
366 2 9.8440000000000012e+00 2.4154603212086336e+01 2.3302103071397826e+00 0 0 0
368 2 9.8440000000000012e+00 2.1312885187134999e+01 2.3302103071397826e+00 0 0 0
370 2 1.1074500000000002e+01 2.2023314693372832e+01 2.3302103071397826e+00 0 0 0
390 2 1.1074500000000002e+01 2.3444173705848499e+01 2.3302103071397826e+00 0 0 0
133 2 0.0000000000000000e+00 1.2787731112280996e+01 5.5395094857351168e+00 0 0 0
170 2 2.4610000000000003e+00 1.2787731112280996e+01 5.5395094857351168e+00 0 0 0
442 2 0.0000000000000000e+00 1.2787731112280996e+01 8.7488086643299461e+00 0 0 0
443 2 1.2305000000000001e+00 1.3498160618518829e+01 8.7488086643299461e+00 0 0 0
461 2 2.4610000000000003e+00 1.2787731112280996e+01 8.7488086643299461e+00 0 0 0
462 2 3.6915000000000004e+00 1.3498160618518829e+01 8.7488086643299461e+00 0 0 0