
# Create simulation box and atoms

read_data data.ML_graphite_1atm_240K
  orthogonal box = (0 0 1.76685) to (49.22 49.0196 31.8685)
  4 by 4 by 2 MPI processor grid
  reading atoms ...
  4545 atoms
  reading velocities ...
  4545 velocities
group water type 1
1785 atoms in group water
group graphite type 2
2760 atoms in group graphite

# Define potential

pair_style sw
pair_coeff * * MLC_e.sw mW C


# Fix graphite atoms in place

fix 5 graphite setforce 0.0 0.0 0.0
velocity graphite set 0.0 0.0 0.0


# Equilibration of molecular water

# Add velocity/set timestep

velocity	    water create ${TEMP} ${SEED} rot yes dist gaussian
velocity	    water create 240 ${SEED} rot yes dist gaussian
velocity	    water create 240 28154 rot yes dist gaussian
timestep	    5.0

# Define output

compute			1 water msd
compute			3 water temp
thermo	    	50
thermo_style	custom step temp press vol etotal ke pe c_1[4] c_3

# Neighbor lists

neigh_modify    delay 0 every 1 check yes

# Set fixes

fix             1 water momentum 10 linear 1 1 1 rescale
fix             2 water nve
fix             3 water temp/csvr ${TEMP} ${TEMP} 500.0 ${SEED}
fix             3 water temp/csvr 240 ${TEMP} 500.0 ${SEED}
fix             3 water temp/csvr 240 240 500.0 ${SEED}
fix             3 water temp/csvr 240 240 500.0 28154
fix             4 water press/berendsen z ${PRES} ${PRES} 1000.0 modulus 20000
fix             4 water press/berendsen z 1 ${PRES} 1000.0 modulus 20000
fix             4 water press/berendsen z 1 1 1000.0 modulus 20000

# Run 0.5 ns equilibration

dump		    1 all atom 2000 ${DIR}/eq.${NAME}-${TEMP}.dump
dump		    1 all atom 2000 run_8/eq.${NAME}-${TEMP}.dump
dump		    1 all atom 2000 run_8/eq.het_freeze_8-${TEMP}.dump
dump		    1 all atom 2000 run_8/eq.het_freeze_8-240.dump

reset_timestep  0

run	            100000
Neighbor list info ...
  update every 1 steps, delay 0 steps, check yes
  max neighbors/atom: 2000, page size: 100000
  master list distance cutoff = 6.67472
  ghost atom cutoff = 6.67472
  binsize = 3.33736, bins = 15 15 10
  1 neighbor lists, perpetual/occasional/extra = 1 0 0
  (1) pair sw, perpetual
      attributes: full, newton on
      pair build: full/bin/atomonly
      stencil: full/bin/3d
      bin: standard
Per MPI rank memory allocation (min/avg/max) = 4.115 | 4.302 | 4.489 Mbytes
Step Temp Press Volume TotEng KinEng PotEng c_1[4] c_3 
       0    94.225352   -657.89738    72627.636   -17236.286    1276.2636    -18512.55            0          240 
      50    94.612178   -293.90274    72692.538   -17242.062    1281.5031   -18523.565   0.51452773    240.98528 
     100     93.31373   -732.06092    72613.166   -17241.271    1263.9159   -18505.187   0.89706166    237.67802 
     150    95.125979   -818.89214    72582.007   -17222.757    1288.4624   -18511.219    1.2120476    242.29397 
     200    96.531661   -548.57581    72508.076   -17172.152    1307.5021   -18479.654    1.4577985    245.87437 
     250    96.914869   -235.02891    72522.655   -17175.784    1312.6926   -18488.477      1.66999    246.85043 
     300    94.315943   -687.52073    72523.714   -17172.675    1277.4907   -18450.165    1.8974841    240.23074 
     350    94.339981   -524.60497    72502.252   -17187.157    1277.8163   -18464.974    2.0603708    240.29197 
     400    95.083814   -421.65422    72497.947   -17190.772    1287.8913   -18478.664     2.272187    242.18657 
     450    92.510003   -323.05532    72513.276    -17204.89    1253.0296    -18457.92    2.5388005    235.63086 
     500    92.797783   -660.06446        72529   -17254.934    1256.9275   -18511.861    2.7755378    236.36386 
     550    96.570439   -394.14941    72498.115   -17236.773    1308.0274   -18544.801    2.9194294    245.97314 
     600    96.386401   -472.73858    72461.528   -17235.408    1305.5346   -18540.942    3.1626917    245.50437 
     650    91.058673   -681.39467    72431.638   -17275.551    1233.3716   -18508.923     3.454664     231.9342 
     700    94.527252   -458.74004    72414.215   -17252.601    1280.3528   -18532.954    3.7565499    240.76897 
     750    93.026489   -224.45589    72371.686   -17257.632    1260.0253   -18517.657    4.0439402    236.94639 
     800    95.309939   -631.80539    72382.717   -17253.608    1290.9541   -18544.562    4.2597009    242.76254 
     850    95.733998   -327.21063    72355.229   -17245.282    1296.6979    -18541.98    4.5916839    243.84265 
     900    90.983411   -322.63801    72398.315   -17251.788    1232.3522   -18484.141      4.88027     231.7425 
     950     91.59873   -684.46878    72410.665   -17268.105    1240.6866   -18508.792    5.1112377    233.30977 
    1000    94.321945   -413.20817    72400.072   -17263.839     1277.572   -18541.411    5.3874057    240.24603 
    1050    92.854223   -433.17081    72412.623    -17242.68     1257.692   -18500.371    5.5075957    236.50762 
    1100    96.104814   -442.02247    72398.895   -17240.273    1301.7206   -18541.994    5.6021379    244.78715 
    1150    94.704271   -191.56969    72428.658   -17242.787    1282.7505   -18525.537    5.6961641    241.21985 
    1200    95.776717   -287.15619    72420.218   -17246.822    1297.2766   -18544.099    5.9678269    243.95146 
    1250    90.309667   -295.88534     72440.53   -17272.332    1223.2264   -18495.559    6.2624234    230.02642 
    1300    91.784009   -441.21965    72440.235    -17272.69    1243.1961   -18515.887    6.5587287    233.78169 
    1350    93.005315   -385.08543     72502.36    -17234.29    1259.7385   -18494.028    6.7958868    236.89246 
    1400    90.805377   -471.31836    72513.616   -17218.379    1229.9407    -18448.32    6.9946904    231.28903 
    1450    92.579493   -122.39538     72530.08   -17235.388    1253.9708   -18489.359    7.3063677    235.80786 
    1500    95.240834   -246.87577    72588.348   -17216.729    1290.0181   -18506.747    7.6819659    242.58652 
    1550    94.632839   -435.16603    72579.531   -17192.786     1281.783   -18474.569    7.8189845     241.0379 
    1600    94.166353   -398.63894    72647.098   -17208.072    1275.4645   -18483.537    7.9864615    239.84972 
    1650    94.846632   -599.65793    72657.268   -17205.524    1284.6787   -18490.202    8.2337091    241.58245 
    1700    93.760492   -490.24788     72688.37   -17214.238    1269.9672   -18484.205    8.4062556    238.81596 
    1750    94.316747   -475.35467    72736.438   -17235.632    1277.5016   -18513.133    8.7753641    240.23279 
    1800    94.281525   -308.41169    72787.347   -17235.555    1277.0245    -18512.58    9.0969923    240.14308 
    1850    90.794244   -494.20056    72842.156   -17252.607      1229.79   -18482.397    9.2599763    231.26068 
    1900    94.485523   -267.63791     72901.61   -17220.819    1279.7876   -18500.606    9.3223191    240.66268 
    1950    93.175531   -417.58433    72944.483   -17211.973     1262.044   -18474.017    9.4771965    237.32602 
    2000    95.166711   -649.51925     72916.36   -17214.361    1289.0142   -18503.375    9.5531429    242.39772 
    2050    93.579644   -624.28684    72931.127   -17221.039    1267.5176   -18488.557    9.7677312    238.35533 
    2100    96.178232   -761.73274    72894.166   -17201.455     1302.715    -18504.17    9.8435062    244.97415 
    2150    95.590631   -556.89566     72884.69   -17230.282    1294.7561   -18525.038    10.061613    243.47748 
    2200    93.038337   -802.19005    72855.761   -17257.438    1260.1858   -18517.624    10.249364    236.97657 
    2250    93.456798   -483.77219    72829.861   -17228.603    1265.8537   -18494.457     10.54525    238.04243 
    2300    96.233298   -658.41857     72795.84   -17207.697    1303.4609   -18511.158    10.775321    245.11441 
    2350    98.916734   -752.06547    72767.347   -17200.279    1339.8075   -18540.086    10.848822    251.94935 
    2400    95.425057   -430.43025    72733.436   -17200.722    1292.5134   -18493.236     10.91729    243.05575 
    2450    96.688641   -778.90991    72764.114   -17164.696    1309.6284   -18474.325    11.242675    246.27421 
    2500    96.673001   -529.78662    72787.044   -17152.038    1309.4165   -18461.455    11.485695    246.23437 
    2550    96.111856   -733.03359    72818.655   -17167.561    1301.8159   -18469.376    11.773379    244.80509 
    2600    94.901396    -517.4646    72797.751   -17174.476    1285.4205   -18459.897    12.076827    241.72194 
    2650    94.029174   -203.58905     72823.32   -17216.145    1273.6064   -18489.752     12.27727    239.50032 
    2700    97.707518   -472.40168     72893.39   -17199.931    1323.4289    -18523.36    12.466126    248.86937 
    2750    95.923696   -438.20172    72959.011   -17189.692    1299.2674   -18488.959     12.87129    244.32583 
    2800     94.99586   -277.63692    73007.661   -17185.939       1286.7   -18472.639    13.199835    241.96255 
    2850    93.955362   -687.09348    73009.463   -17219.277    1272.6067   -18491.884    13.490419    239.31231 
    2900    97.111668   -281.02247    73011.981   -17224.572    1315.3582    -18539.93    13.656263    247.35169 
    2950    93.300288   -575.48498    73050.896   -17236.474    1263.7338   -18500.208    13.796447    237.64378 
    3000      93.7034   -570.23138    73026.592    -17231.58    1269.1939   -18500.774    14.058904    238.67054 
    3050    94.369194    -316.4897    73034.394   -17233.915    1278.2119   -18512.127    14.335769    240.36638 
    3100    96.975274   -359.70819    73020.168   -17199.774    1313.5108   -18513.284    14.499893    247.00428 
    3150    96.697173   -310.70006    73033.426   -17147.816     1309.744    -18457.56    14.645976    246.29594 
    3200    97.538325    -258.2046     73024.95   -17164.878    1321.1372   -18486.015    14.812841    248.43842 
    3250    95.639815    -396.3101    72974.003    -17169.67    1295.4222   -18465.093     15.15612    243.60276 
    3300    97.321932   -465.76414    72991.021   -17147.671    1318.2062   -18465.877    15.353166    247.88725 
    3350    96.887179    -247.3176    72967.655   -17161.634    1312.3176   -18473.951    15.640735     246.7799 
    3400    92.098714   -587.61033    72987.014   -17187.675    1247.4587   -18435.134    15.866349    234.58327 
    3450    97.352641   -536.64567    72939.817   -17206.227    1318.6221   -18524.849    15.974073    247.96547 
    3500    93.672934   -700.51693    72926.425   -17168.771    1268.7812   -18437.552    16.360207    238.59294 
    3550    95.834558   -571.84494    72857.879   -17195.245      1298.06   -18493.305     16.52319    244.09879 
    3600    94.895269   -365.19401    72868.109   -17156.203    1285.3375   -18441.541    16.706837    241.70633 
    3650    92.635199   -616.87076    72863.737   -17205.107    1254.7253   -18459.832    16.967732    235.94974 
    3700    96.135857   -401.95129    72807.016   -17177.626     1302.141   -18479.767    17.343783    244.86622 
    3750    96.152151   -345.12869    72753.254   -17185.742    1302.3617   -18488.104    17.682749    244.90772 
    3800    97.541159   -404.82559    72794.072   -17186.287    1321.1756   -18507.463    17.946397    248.44564 
    3850    96.038109   -231.28989    72799.165   -17197.975    1300.8171   -18498.792    18.218826    244.61725 
    3900    97.395681    -623.4113     72873.23   -17144.699    1319.2051   -18463.905    18.542228     248.0751 
    3950     96.05172   -147.02943    72888.879   -17138.433    1301.0014   -18439.434     18.74608    244.65191 
    4000    95.977873    -589.4702    72859.956   -17152.932    1300.0012   -18452.933     18.89697    244.46382 
    4050    96.648141   -62.046325    72783.871    -17183.88    1309.0798   -18492.959    19.029048    246.17105 
    4100    95.072724   -121.44533    72816.559   -17188.682    1287.7411   -18476.424    19.323228    242.15833 
    4150    93.438286   -456.03819    72786.663   -17221.219     1265.603   -18486.822    19.737936    237.99527 
    4200    95.795089   -130.83076     72798.65   -17211.975    1297.5254   -18509.501    20.062355    243.99825 
    4250    97.799843   -312.92588    72874.087    -17172.88    1324.6794   -18497.559    20.568952    249.10453 
    4300    94.391252   -138.69103    72932.034   -17211.137    1278.5107   -18489.648    20.834969    240.42256 
    4350    92.741298   -351.66075    72959.696   -17249.095    1256.1624   -18505.257    21.138675    236.21999 
    4400    96.482396   -520.45351     72946.46   -17243.266    1306.8348   -18550.101    21.242092    245.74888 
    4450    95.667895   -217.29389    72890.871   -17246.126    1295.8026   -18541.929    21.461341    243.67428 
    4500    92.086374   -504.99524    72857.167   -17255.878    1247.2916    -18503.17    21.873898    234.55184 
    4550     96.90974   -455.40876    72882.656   -17281.259    1312.6231   -18593.882     22.14356    246.83736 
    4600    92.549487   -438.67223    72886.259   -17288.143    1253.5644   -18541.707    22.312536    235.73143 
    4650    94.642597   -588.98924    72943.175   -17291.825    1281.9151    -18573.74     22.45292    241.06276 
    4700     95.65261   -511.10775    73006.779   -17309.837    1295.5956   -18605.432    22.591503    243.63535 
    4750    94.871618   -164.80362    73059.462   -17301.038    1285.0172   -18586.055    22.695697    241.64609 
    4800    91.898351   -380.20224    73075.396    -17353.47    1244.7449   -18598.215    23.125021    234.07293 
    4850    93.362408   -389.73516    73031.609   -17294.637    1264.5752   -18559.213     23.31088    237.80201 
    4900    92.525891   -516.96531    73035.422   -17256.167    1253.2448   -18509.412    23.545085    235.67133 
    4950    94.131037    22.247381    73033.529   -17264.148    1274.9862   -18539.134    23.692451    239.75977 
    5000     91.30933   -616.46796    73013.012   -17249.325    1236.7667   -18486.091    23.876593    232.57264 
    5050    93.795193   -201.93059    72986.906   -17244.964    1270.4372   -18515.401    24.046719    238.90435 
    5100    94.995139   -344.62106    72926.588   -17235.134    1286.6902   -18521.825      24.2172    241.96071 
    5150    97.083253   -478.16807     72847.48    -17256.25    1314.9733   -18571.223    24.522895    247.27932 
    5200    90.388368   -295.05448    72835.631   -17257.913    1224.2924   -18482.205    24.900486    230.22687 
    5250    92.846515    -379.6543    72811.351   -17298.357    1257.5876   -18555.944    25.137968    236.48798 
    5300    91.602524   -599.61175    72777.543   -17293.587    1240.7379   -18534.325    25.314845    233.31943 
    5350    90.311731   -364.80764    72759.024   -17299.115    1223.2544    -18522.37    25.671254    230.03167 
    5400    93.415686   -564.75723    72734.194   -17289.943    1265.2969   -18555.239    25.774852    237.93771 
    5450    91.984573   -324.30038    72692.367   -17293.366    1245.9127   -18539.279    26.036891    234.29254 
    5500    91.748712   -637.46796     72708.63   -17282.588     1242.718   -18525.306    26.254159    233.69179 
    5550    95.826403    21.381607    72740.395   -17254.932    1297.9495   -18552.882    26.462176    244.07801 
    5600      94.3621   -517.57675    72772.148   -17261.465    1278.1159   -18539.581    26.699847    240.34831 
    5650    92.457569   -305.01455    72714.309   -17287.486    1252.3194   -18539.806    26.821091    235.49731 
    5700    91.713905   -622.20136    72706.407    -17293.77    1242.2466   -18536.017    27.065491    233.60313 
    5750    91.875309   -544.67868    72647.153   -17298.434    1244.4328   -18542.867     27.22798    234.01424 
    5800    92.755755   -474.82486    72642.776   -17324.629    1256.3582   -18580.987    27.475119    236.25681 
    5850    90.726711   -665.68034    72578.009   -17327.025    1228.8752     -18555.9     27.57997    231.08866 
    5900    90.185367   -544.22891    72585.463   -17308.678    1221.5428   -18530.221    27.829735    229.70981 
    5950    91.554816   -446.33611    72530.854   -17274.179    1240.0917   -18514.271    28.148116    233.19792 
    6000    93.053644   -100.31677    72536.296   -17271.359    1260.3931   -18531.752     28.33537    237.01556 
    6050    94.728719   -810.99975    72598.923   -17213.015    1283.0816   -18496.097    28.607228    241.28212 
    6100    97.448674   -420.93432    72639.485    -17163.17    1319.9229   -18483.092    28.962157    248.21007 
    6150    95.669589   -838.85583    72650.371   -17173.034    1295.8255    -18468.86     29.05432     243.6786 
    6200    95.951325   -307.00567    72699.447   -17177.126    1299.6416   -18476.767    29.163786     244.3962 
    6250     95.41993   -318.91407    72747.853   -17180.554    1292.4439   -18472.998    29.252437    243.04269 
    6300    93.168254   -460.08892      72745.2   -17192.843    1261.9454   -18454.789    29.503213    237.30748 
    6350    94.519313   -530.84439    72685.983   -17193.098    1280.2453   -18473.343    29.695385    240.74874 
    6400    93.262095   -422.88926    72677.822   -17195.688    1263.2165   -18458.905    30.088476     237.5465 
    6450    93.284175   -560.55856    72654.861   -17165.553    1263.5156   -18429.068    30.216703    237.60274 
    6500    98.156085   -390.31956    72640.872   -17177.473    1329.5046   -18506.978    30.238022    250.01191 
    6550    94.604329    -412.0484    72682.896   -17197.517    1281.3968   -18478.914    30.303734    240.96529 
    6600    95.710473   -324.62293    72736.751   -17166.946    1296.3793   -18463.326    30.395481    243.78273 
    6650    94.229028   -220.86952    72750.383   -17186.207    1276.3134    -18462.52    30.444655    240.00936 
    6700    93.154133   -553.36095    72771.485   -17209.836    1261.7542   -18471.591    30.694901    237.27151 
    6750    94.554305   -425.30166    72767.963   -17219.614    1280.7192   -18500.333     31.07378    240.83787 
    6800    92.751648   -294.00218    72825.411   -17223.324    1256.3026   -18479.627    31.451322    236.24635 
    6850    95.529288   -529.98724     72863.95   -17188.078    1293.9252   -18482.003    31.903304    243.32124 
    6900    96.624722   -781.63165    72858.041    -17222.56    1308.7626   -18531.322    32.345488     246.1114 
    6950     92.65555   -394.31358    72904.996   -17228.812     1255.001   -18483.813      32.4648    236.00158 
    7000    93.992841   -781.15639    72873.693    -17206.33    1273.1143   -18479.444    32.634689    239.40777 
    7050    97.711802   -478.52558    72868.511   -17175.703    1323.4869    -18499.19     32.80671    248.88029 
    7100    96.096284   -834.65009    72857.082   -17132.031     1301.605   -18433.636    33.244405    244.76542 
    7150    94.674096   -781.42889    72866.213   -17127.283    1282.3418   -18409.625    33.515421    241.14299 
    7200    96.653401   -655.33992    72875.051     -17145.2    1309.1511   -18454.351    33.824277    246.18445 
    7250    96.768953   -545.13757    72886.603   -17157.474    1310.7162    -18468.19    34.267144    246.47877 
    7300    94.063124   -675.31512    72845.996   -17197.572    1274.0663   -18471.639    34.525631    239.58679 
    7350    93.333225   -715.52717    72744.653   -17202.208    1264.1799   -18466.388    34.805485    237.72768 
    7400     94.26914   -387.69972    72675.839   -17231.771    1276.8567   -18508.628    34.989178    240.11153 
    7450    92.391877   -86.779391    72658.763     -17259.2    1251.4296   -18510.629    35.327436    235.32998 
    7500    91.970723   -716.65273    72647.991   -17239.719    1245.7251   -18485.444     35.77424    234.25727 
    7550    93.871557   -509.81064    72643.375   -17207.723    1271.4715   -18479.195    35.966424    239.09885 
    7600    94.292722   -397.33854    72673.502   -17192.674    1277.1761    -18469.85     36.36837     240.1716 
    7650    90.519933   -684.75684     72621.04   -17215.052    1226.0745   -18441.126    36.618463    230.56198 
    7700    91.070865   -607.15863    72563.991   -17234.585    1233.5367   -18468.122    36.670644    231.96525 
    7750    91.568875    -296.0755    72537.642   -17216.995    1240.2822   -18457.277    36.812539    233.23373 
    7800    91.436285   -687.12857    72524.925    -17209.09    1238.4863   -18447.576    36.907524    232.89601 
    7850    96.956479   -591.47115    72479.516    -17211.74    1313.2562   -18524.996     37.22608    246.95641 
    7900    94.244065   -160.54292    72523.325   -17207.196    1276.5171   -18483.713    37.344114    240.04766 
    7950     95.09173    43.892205    72586.742   -17184.097    1287.9985   -18472.096    37.417613    242.20674 
    8000    95.656512   -460.84463    72690.828   -17198.043    1295.6484   -18493.691    37.820609    243.64529 
    8050    92.997811   -771.47635    72724.863   -17200.894    1259.6368   -18460.531    38.060155    236.87335 
    8100    96.339877   -63.638287    72724.117   -17205.862    1304.9045   -18510.766    38.401027    245.38588 
    8150    97.138368   -334.57707    72706.431   -17218.897    1315.7199   -18534.617    38.873516     247.4197 
    8200    95.721563   -534.16986    72703.832   -17210.317    1296.5295   -18506.846    39.114493    243.81098 
    8250      96.1653   -341.94577    72757.524   -17224.119    1302.5398   -18526.659    39.243365    244.94121 
    8300    95.112836   -559.22603    72802.377   -17241.942    1288.2844   -18530.227    39.376975     242.2605 
    8350     92.97172     -510.256    72825.755   -17280.746    1259.2834   -18540.029    39.685111    236.80689 
    8400    92.991992   -406.72847    72776.225   -17293.549     1259.558   -18553.107    39.987989    236.85853 
    8450    96.464893   -611.62289    72685.332   -17280.993    1306.5978   -18587.591    39.899147     245.7043 
    8500    95.690565   -378.03479    72740.256   -17303.388    1296.1097   -18599.498    40.048599    243.73202 
    8550    92.884801    -410.7166     72802.78   -17282.175    1258.1061   -18540.282    40.247169     236.5855 
    8600    97.182244   -171.61713    72859.506     -17227.9    1316.3141   -18544.214    40.634091    247.53146 
    8650    92.897764   -330.32544    72882.338   -17245.342    1258.2817   -18503.623    40.949676    236.61852 
    8700    95.060212   -203.35981    72927.303   -17277.527    1287.5716   -18565.099    40.939139    242.12646 
    8750    97.364753   -588.27809    72988.848   -17263.411    1318.7862   -18582.197    41.080255    247.99632 
    8800    96.496127   -549.53445    72958.228   -17196.315    1307.0208   -18503.336    41.140851    245.78386 
    8850    94.109424   -627.56063    73010.854   -17213.482    1274.6934   -18488.175    41.145446    239.70472 
    8900    96.880053   -100.74642    73058.809     -17193.4     1312.221   -18505.621    41.262319    246.76175 
    8950    94.733084   -289.56066    73090.171   -17179.199    1283.1408    -18462.34     41.51409    241.29324 
    9000    96.028736   -110.82612    73065.369   -17195.165    1300.6901   -18495.855    41.732017    244.59337 
    9050    93.510416   -217.52157    73078.422   -17228.554      1266.58   -18495.134    41.939019      238.179 
    9100    98.500748   -331.16547    73137.751   -17224.247     1334.173    -18558.42    41.984506     250.8898 
    9150    93.720771   -359.48555    73146.562   -17206.766    1269.4292   -18476.196    42.044476    238.71479 
    9200    94.980962   -412.26217    73162.743   -17239.165    1286.4982   -18525.664    42.311172     241.9246 
    9250     93.64385   -499.12867     73166.94   -17230.654    1268.3873   -18499.042    42.527934    238.51887 
    9300    92.671643   -374.45631    73164.055   -17242.162    1255.2189   -18497.381     42.80175    236.04257 
    9350     95.12628   -730.18274    73100.294   -17227.344    1288.4665   -18515.811    43.136723    242.29474 
    9400    95.128827   -414.44059    73036.926   -17254.511     1288.501   -18543.012    43.228675    242.30123 
    9450    95.239217   -776.26063    73036.349   -17260.161    1289.9962   -18550.157    43.881433     242.5824 
    9500    94.616148   -463.40421    72999.543   -17259.256    1281.5569   -18540.812    44.203774    240.99539 
    9550    96.407376   -203.86669    73029.189   -17234.409    1305.8187   -18540.228    44.702203     245.5578 
    9600    95.728469   -528.94585    73040.451   -17228.569    1296.6231   -18525.192    44.966835    243.82857 
    9650    96.930403     -493.941    73028.757   -17192.132     1312.903   -18505.035    45.171125       246.89 
    9700    95.117686   -352.28699     72952.49   -17225.956    1288.3501   -18514.307    45.367725    242.27285 
    9750    95.956756    -635.8229    72882.598   -17227.233    1299.7151   -18526.948    45.522173    244.41003 
    9800    95.697398   -583.24012    72821.815   -17229.205    1296.2022   -18525.407    45.839352    243.74943 
    9850    95.254687   -495.19494     72742.91   -17259.357    1290.2058   -18549.563    45.974532     242.6218 
    9900    96.690322   -562.06722    72764.707    -17285.41    1309.6512   -18595.062    46.208333    246.27849 
    9950    95.511499   -319.61025    72829.558   -17292.542    1293.6842   -18586.226    46.309739    243.27593 
   10000    91.357985   -762.92548    72781.369   -17314.422    1237.4257   -18551.847    46.715166    232.69657 
   10050    93.614444   -713.41305    72688.556   -17309.733     1267.989   -18577.722    47.102595    238.44396 
   10100    93.088418   -553.24543    72657.766    -17362.73    1260.8641   -18623.594    47.176061    237.10413 
   10150    92.135135   -261.94869     72666.71   -17346.667    1247.9521   -18594.619    47.302242    234.67604 
   10200    93.502894   -439.84256    72680.942   -17338.945    1266.4781   -18605.423    47.567739    238.15984 
   10250    94.164029   -178.95755     72690.72   -17319.288     1275.433   -18594.721    47.699809     239.8438 
   10300    93.272406   -161.75365    72725.431   -17330.702    1263.3562   -18594.059    47.823133    237.57276 
   10350    95.966145   -30.838579    72696.238   -17334.407    1299.8423    -18634.25    48.070349    244.43395 
   10400    94.104254   -192.15989    72735.637   -17373.275    1274.6234   -18647.898    47.964439    239.69155 
   10450    91.876279   -476.91383    72730.059   -17423.957    1244.4459   -18668.403    47.919803    234.01671 
   10500    92.365249   -10.365458    72721.505   -17399.411    1251.0689    -18650.48    48.231488    235.26216 
   10550    93.543832    -500.1175    72832.389   -17363.129    1267.0326   -18630.162    48.625049    238.26411 
   10600    92.495303   -559.68843    72835.585   -17363.749    1252.8305   -18616.579    48.637606    235.59342 
   10650    91.349272   -205.13588    72851.158   -17336.837    1237.3077   -18574.145    48.826389    232.67438 
   10700    92.425885   -436.13763    72853.854   -17328.971    1251.8902   -18580.861    48.853601     235.4166 
   10750    91.061221   -445.29749    72912.386   -17361.166    1233.4061   -18594.572    48.874187    231.94069 
   10800     91.24472   -228.91714     72914.26   -17347.171    1235.8916   -18583.062     49.20913    232.40808 
   10850    91.143349   -480.70739    72918.066   -17310.755    1234.5185   -18545.273    49.201352    232.14987 
   10900    91.632141     -422.831    72891.453   -17302.523    1241.1391   -18543.662    49.579931    233.39487 
   10950    96.092332   -498.04667    72882.434   -17288.331    1301.5515   -18589.882    49.758206    244.75536 
   11000    94.591693   -476.76014    72891.869   -17317.194    1281.2256    -18598.42    50.025952     240.9331 
   11050    92.408408   -463.46116    72843.504   -17323.748    1251.6535   -18575.401    50.180263    235.37209 
   11100     93.64552   -404.63259    72832.345   -17296.625    1268.4099   -18565.035    50.240258    238.52312 
   11150    94.820172   -117.70328    72850.242   -17252.797    1284.3203   -18537.117    50.269665    241.51506 
   11200    96.216989   -475.84716    72888.933   -17235.665      1303.24   -18538.905    50.378135    245.07287 
   11250    92.306824   -202.09958    72932.834     -17246.2    1250.2775   -18496.478    50.952397    235.11334 
   11300    94.161185   -557.37189    72919.867     -17250.1    1275.3945   -18525.494    51.541758    239.83656 
   11350    94.053144   -763.07386    72847.465   -17272.608    1273.9311   -18546.539    51.468285    239.56137 
   11400    90.681773   -322.62933    72862.997   -17296.554    1228.2666    -18524.82    51.776449     230.9742 
   11450    93.040706   -483.54912    72868.746   -17287.401    1260.2178   -18547.619    51.890887    236.98261 
   11500     92.76683   -438.45861    72853.008   -17268.198    1256.5082   -18524.706    52.186102    236.28502 
   11550    93.877849   -51.774172    72816.031   -17296.075    1271.5568   -18567.631     52.38129    239.11488 
   11600    95.802768   -685.03388    72816.302   -17260.674    1297.6294   -18558.304    52.688214    244.01781 
   11650    94.181583   -462.90627      72714.2   -17275.048    1275.6708   -18550.719     52.93817    239.88852 
   11700    95.088854   -371.05647    72711.696   -17306.791    1287.9596   -18594.751    53.175672    242.19941 
   11750    93.377483   -437.27384    72682.127   -17282.982    1264.7794   -18547.762    53.201691    237.84041 
   11800    94.442098   -433.57071    72659.812   -17271.022    1279.1994   -18550.222    53.444846    240.55207 
   11850    94.246742   -302.16975    72675.731   -17271.367    1276.5533   -18547.921    53.875325    240.05448 
   11900    94.830735   -305.64458    72702.596    -17226.34    1284.4634   -18510.803    54.364338    241.54196 
   11950    96.435293   -294.42455    72683.696   -17263.005    1306.1968   -18569.201    54.822435    245.62891 
   12000    95.908348   -299.99113     72721.28   -17242.272    1299.0595   -18541.331    54.991753    244.28673 
   12050    95.448056   -273.83114    72852.899   -17273.298    1292.8249   -18566.123    54.674249    243.11433 
   12100     94.05992   -474.78265    72862.923   -17290.081    1274.0229   -18564.104    54.674434    239.57863 
   12150    96.172885   -249.26697    72805.611   -17270.112    1302.6426   -18572.755    54.921654    244.96053 
   12200     91.70444   -632.58172    72784.612   -17279.915    1242.1184   -18522.034    54.989916    233.57902 
   12250    94.448746   -565.82058    72795.459   -17265.464    1279.2895   -18544.753    54.908028      240.569 
   12300    93.136771   -431.47464    72839.976   -17239.698     1261.519   -18501.217    54.785822    237.22729 
   12350     94.69945   -884.23193    72847.999   -17231.827    1282.6852   -18514.512    54.520974    241.20757 
   12400    94.247947   -540.46907    72839.692   -17227.495    1276.5697   -18504.065    54.510017    240.05755 
   12450    94.458037    -670.6863    72904.455   -17250.675    1279.4153    -18530.09    54.701769    240.59267 
   12500    94.787535   -492.32694     72917.93   -17224.178    1283.8783   -18508.057    54.760009    241.43193 
   12550    95.855197   -847.90093    72893.389    -17237.41    1298.3396    -18535.75    54.745364    244.15135 
   12600    94.408012   -628.87828    72870.525   -17222.617    1278.7377   -18501.355    54.824633    240.46525 
   12650    96.376418   -288.01807    72860.278   -17218.946    1305.3994   -18524.345     54.90613    245.47895 
   12700    97.406114   -643.84183    72859.112   -17214.161    1319.3464   -18533.508    55.370657    248.10167 
   12750    94.158497   -91.780952    72881.926     -17230.1    1275.3581   -18505.458    55.690046    239.82971 
   12800    94.994745    210.74809    72899.424   -17203.196    1286.6849   -18489.881    56.065395    241.95971 
   12850    96.283708   -413.17155    72958.572   -17185.207    1304.1437    -18489.35    56.265957    245.24281 
   12900    95.572614    -544.4717    72913.619   -17210.371     1294.512   -18504.883    56.353146    243.43159 
   12950    96.305792   -411.03188     72912.62   -17258.942    1304.4428   -18563.385    56.560371    245.29906 
   13000     93.56613   -754.38284     72930.96   -17278.793    1267.3346   -18546.127    56.911001     238.3209 
   13050    92.708608   -294.39902    72924.519   -17290.361    1255.7196   -18546.081    57.147668    236.13672 
   13100    93.509939   -493.54144    72912.601   -17261.206    1266.5735    -18527.78    57.092064    238.17778 
   13150     95.16725   -328.34979    72905.096    -17233.16    1289.0214   -18522.181    57.192498    242.39909 
   13200    95.343373   -536.89912    72908.917   -17238.363     1291.407    -18529.77    57.294856     242.8477 
   13250    94.139732    -437.0656    72888.117   -17273.879    1275.1039   -18548.983    58.039206    239.78192 
   13300    92.923533   -570.07042    72869.779   -17298.942    1258.6308   -18557.573    58.146581    236.68416 
   13350     96.98575   -228.39038    72908.131    -17268.66    1313.6527   -18582.313     58.39649    247.03097 
   13400    95.517898   -325.69914    72966.763   -17247.143    1293.7709   -18540.914    58.692892    243.29223 
   13450    96.060343   -369.10621    73048.039   -17260.756    1301.1182   -18561.874    58.927151    244.67388 
   13500    93.872551   -486.68289    73100.192   -17269.094     1271.485   -18540.579    59.142488    239.10139 
   13550    95.228259    -197.6558    73007.253   -17269.547    1289.8478   -18559.394     59.33293    242.55449 
   13600    93.055916   -134.16589    73043.824   -17313.441    1260.4238   -18573.865    59.620375    237.02135 
   13650    92.262675   -523.36497    73070.389   -17289.077    1249.6796   -18538.757    59.973484    235.00089 
   13700    95.295855   -548.36018    73031.011   -17273.956    1290.7634   -18564.719    60.597625    242.72666 
   13750    93.839819   -457.36381     73034.95   -17314.955    1271.0417   -18585.997     61.02694    239.01801 
   13800     95.94766   -566.81072    73054.332   -17277.175    1299.5919   -18576.767    61.036237    244.38687 
   13850     94.12966     -542.483    73096.655   -17294.083    1274.9675   -18569.051    61.338602    239.75626 
   13900    94.906146   -468.32864    73090.696   -17272.002    1285.4848   -18557.487    61.566712    241.73404 
   13950    94.005209   -608.21117    73121.397   -17289.462    1273.2818   -18562.743    61.654344    239.43928 
   14000    94.186791   -762.07287    73109.447   -17244.321    1275.7413   -18520.062    62.043668    239.90178 
   14050    97.051308   -586.81662    73111.945   -17225.712    1314.5406   -18540.253    62.256789    247.19795 
   14100    94.196291   -686.56165    73081.558   -17224.957      1275.87   -18500.827     62.25692    239.92598 
   14150    96.247151   -717.85949     73036.48     -17223.1    1303.6485   -18526.748    62.419004    245.14969 
   14200    96.941384   -668.86418    73002.541   -17262.183    1313.0517   -18575.234    62.594464    246.91796 
   14250     95.69444   -244.13278    72972.999   -17266.725    1296.1621   -18562.887    62.714461    243.74189 
   14300    98.306065   -479.98661    72993.526   -17247.752    1331.5361   -18579.288    62.881122    250.39392 
   14350    95.704161   -538.17678    72970.273   -17237.422    1296.2938   -18533.716    62.864642    243.76665 
   14400    96.719717   -324.09289     72980.54   -17259.752    1310.0493   -18569.801    62.969455    246.35336 
   14450    95.290408   -472.24975    73003.432   -17285.125    1290.6896   -18575.814    63.096506    242.71279 
   14500    94.353677   -515.06654    72957.179   -17255.171    1278.0018   -18533.173    63.145051    240.32685 
   14550    93.237947       -462.8    72949.965   -17259.173    1262.8894   -18522.062    63.663671    237.48499 
   14600    95.457788   -267.94608     72955.17   -17247.102    1292.9567   -18540.059    63.915809    243.13912 
   14650      97.6506   -396.38037    72985.283    -17249.56    1322.6579   -18572.218     64.20088     248.7244 
   14700    93.976363   -717.90864    72939.308    -17262.93    1272.8911   -18535.821      64.4194     239.3658 
   14750    97.523676    -642.7048     72924.97   -17231.605    1320.9388   -18552.544    65.142222    248.40111 
   14800    96.607035   -444.01768    72854.147   -17281.481     1308.523   -18590.004    65.645315    246.06635 
   14850    93.832392    -250.4119    72891.107   -17301.512    1270.9411   -18572.454       66.041     238.9991 
   14900     93.08008   -623.41695    72871.762   -17299.619    1260.7511    -18560.37    66.262519    237.08289 
   14950    95.745807   -557.18774    72807.802   -17280.356    1296.8579   -18577.214      66.1714    243.87273 
   15000    91.702373   -257.75375    72905.321   -17276.922    1242.0904   -18519.013    66.549438    233.57376 
   15050     93.66901   -823.77518    72926.607   -17285.443    1268.7281   -18554.171     67.09058    238.58295 
   15100    94.962403   -414.02637    72912.041   -17264.478    1286.2468   -18550.725    67.344188    241.87733 
   15150    93.070781    -564.7642    72889.588   -17240.973    1260.6252   -18501.598    67.667982    237.05921 
   15200    95.694726   -618.97655    72934.303   -17239.448     1296.166   -18535.614    67.768864    243.74262 
   15250    95.100642   -292.69762    72917.729   -17251.809    1288.1193   -18539.928    67.935128    242.22944 
   15300    95.840267    -869.1709    72861.888   -17239.668    1298.1373   -18537.806    68.234604    244.11333 
   15350    93.676089   -702.46684    72800.395   -17263.987     1268.824   -18532.811    68.399274    238.60098 
   15400    95.270027   -563.58825    72833.137   -17247.934    1290.4135   -18538.347    68.256613    242.66087 
   15450    95.879619   -472.88472    72813.018   -17248.817    1298.6704   -18547.487    68.288102    244.21356 
   15500    94.845919   -433.51197    72823.229   -17256.079    1284.6691   -18540.748    68.281543    241.58064 
   15550    93.361396   -380.21165    72868.005   -17293.618    1264.5615   -18558.179    68.457069    237.79943 
   15600     94.72189   -448.82836    72846.036   -17281.746    1282.9891   -18564.736    68.641404    241.26472 
   15650    92.565596   -469.75232    72845.518   -17286.331    1253.7826   -18540.114    68.840507    235.77246 
   15700    95.353145   -631.63353    72788.813   -17265.928    1291.5394   -18557.467    69.104827    242.87258 
   15750    93.844368   -576.20404    72782.619   -17241.513    1271.1033   -18512.616    69.170718     239.0296 
   15800    95.178844     -664.001    72778.006   -17261.144    1289.1785   -18550.322    69.019785    242.42863 
   15850    96.607436   -544.08453    72775.992   -17275.469    1308.5285   -18583.998    69.437054    246.06737 
   15900    95.033589   -520.61447     72815.38   -17259.713     1287.211   -18546.924    69.782512    242.05865 
   15950    92.381907   -445.85822    72863.491   -17330.005    1251.2945     -18581.3    70.089386    235.30459 
   16000    92.349468   -775.95317    72849.211   -17344.149    1250.8552   -18595.004    69.880262    235.22196 
   16050    92.722409   -347.43284    72827.971   -17324.027    1255.9066   -18579.933     70.18353    236.17188 
   16100    92.757677    -229.1105    72874.407   -17343.603    1256.3843   -18599.987    70.211096    236.26171 
   16150     91.46119   -747.97703    72877.633   -17365.271    1238.8236   -18604.094    70.521875    232.95944 
   16200    93.721308   -322.29676    72866.697   -17348.846    1269.4365   -18618.283    70.862746    238.71616 
   16250    92.246933    -450.5023    72861.959   -17321.251    1249.4663   -18570.717    71.250398     234.9608 
   16300    93.097282   -716.54149    72871.718   -17327.344    1260.9841   -18588.328    71.692072    237.12671 
   16350    91.646283   -374.18275    72879.503   -17348.267    1241.3306   -18589.598    71.726761    233.43089 
   16400    91.971969   -884.56555    72882.545   -17330.976     1245.742   -18576.718    72.225364    234.26044 
   16450    92.937924    -607.9276    72923.566   -17300.358    1258.8257   -18559.184    72.153636    236.72081 
   16500     94.02781   -483.77302     73019.33    -17261.35     1273.588   -18534.938    71.933072    239.49684 
   16550    94.263888   -482.78861    73075.021   -17263.941    1276.7856   -18540.727    72.297557    240.09815 
   16600    94.754136   -472.81052    73114.361   -17267.627    1283.4259   -18551.053    72.233809    241.34686 
   16650    95.636564   -527.35209    73194.829   -17237.418    1295.3782   -18532.796    72.348465    243.59448 
   16700     94.43077    28.819514    73236.373   -17249.048     1279.046   -18528.094    72.507233    240.52322 
   16750    94.520217   -277.33236    73271.348   -17268.949    1280.2575   -18549.206     72.52352    240.75105 
   16800      92.0958   -100.68154     73289.95   -17280.366    1247.4193   -18527.786    72.555715    234.57585 
   16850    92.917682   -331.45032    73270.763   -17281.991    1258.5515   -18540.542    73.087878    236.66925 
   16900    95.080926   -509.97689    73190.505    -17282.43    1287.8522   -18570.283     73.44747    242.17922 
   16950     94.59967   -468.33119    73164.175    -17276.79    1281.3337   -18558.124    73.505101    240.95342 
   17000    92.871447   -653.88018    73133.974   -17254.451    1257.9253   -18512.376    73.668908    236.55149 
   17050    99.242002   -576.04766    73100.468    -17217.63    1344.2131   -18561.843    73.679564    252.77783 
   17100    96.342332   -704.83238    73101.793    -17204.69    1304.9377   -18509.628    73.960067    245.39213 
   17150    94.366953   -747.34411    73074.007   -17223.583    1278.1816   -18501.765    74.022045    240.36067 
   17200    96.170415   -393.80828    73063.439   -17185.478    1302.6091   -18488.087    74.325341    244.95424 
   17250    95.412105    -474.2953    73093.719    -17189.91     1292.338   -18482.248     74.52499    243.02276 
   17300     98.05173   -573.60539    73131.756   -17200.695    1328.0912   -18528.786    74.837228    249.74611 
   17350    91.320518   -664.02556    73122.629   -17235.036    1236.9182   -18471.954    74.977091    232.60114 
   17400    93.292164   -316.70816    73084.097   -17275.976    1263.6238     -18539.6    74.764269    237.62309 
   17450    90.099256   -503.88616    73027.327   -17323.121    1220.3765   -18543.497    74.861786    229.49048 
   17500    94.240481   -451.17138    73019.105   -17295.047    1276.4686   -18571.515    75.038057    240.03853 
   17550    92.570862   -419.19465    73003.127   -17274.516    1253.8539   -18528.369     75.06585    235.78587 
   17600    94.651634   -712.08703    72998.452   -17278.341    1282.0375   -18560.378    75.120133    241.08578 
   17650    94.046186   -1038.2822    72995.003   -17272.115    1273.8369   -18545.952    75.489941    239.54365 
   17700    98.166671   -648.48539    72985.824   -17224.193     1329.648   -18553.841    75.509987    250.03888 
   17750    95.958243   -420.72429    72969.194   -17227.737    1299.7353   -18527.472    75.649854    244.41382 
   17800    95.041121   -708.60767    72989.407   -17263.169    1287.3131   -18550.482    76.071155    242.07783 
   17850     95.61802   -459.29383    72996.098   -17252.131     1295.127   -18547.258    76.083226    243.54724 
   17900    94.531212   -698.27313    73001.011   -17246.135    1280.4064   -18526.541    76.435054    240.77905 
   17950    98.530843   -636.49547    73026.179   -17248.074    1334.5806   -18582.655     76.85087    250.96645 
   18000    94.899726   -231.00454    73012.723   -17233.852    1285.3979    -18519.25    77.116522    241.71769 
   18050     94.83191   -786.50977    73062.415   -17245.729    1284.4793   -18530.209    77.086361    241.54495 
   18100    93.129961   -422.03136    73055.734    -17254.95    1261.4268   -18516.377    77.480018    237.20995 
   18150    93.023638   -757.94909    73094.546   -17241.224    1259.9867   -18501.211    77.998139    236.93913 
   18200    94.716456    -371.3266    73066.926   -17274.851    1282.9155   -18557.767    78.028903    241.25088 
   18250    92.217926   -167.39962    73025.608   -17264.794    1249.0734   -18513.867    78.334765    234.88691 
   18300    94.558579   -591.15806    72986.825   -17251.031    1280.7771   -18531.808    78.757431    240.84876 
   18350    91.830094   -570.20705     72992.88   -17235.123    1243.8203   -18478.944    79.117201    233.89907 
   18400    93.735358   -494.51968    72947.208   -17206.808    1269.6268   -18476.435    79.291441    238.75194 
   18450    94.839783   -350.12298    72925.017   -17218.862     1284.586   -18503.448    79.973648    241.56501 
   18500    95.922343   -409.62272    72975.862   -17211.075     1299.249   -18510.324    80.466467    244.32238 
   18550    92.309911   -274.51644    72972.415   -17256.508    1250.3194   -18506.827    80.976068    235.12121 
   18600     95.34825   -263.94148    72973.523   -17224.399    1291.4731   -18515.873    81.307197    242.86012 
   18650    94.051819   -693.27716    72932.539   -17228.468    1273.9132   -18502.381    81.440196      239.558 
   18700    96.573338   -203.41427     72899.62   -17216.499    1308.0666   -18524.565    81.586727    245.98052 
   18750    92.142799   -360.58072     72904.02   -17227.932    1248.0559   -18475.988    82.028242    234.69556 
   18800    95.430833   -482.06199    72928.418   -17203.155    1292.5916   -18495.747    81.954158    243.07046 
   18850    92.786316   -473.57727    72882.854   -17208.923    1256.7722   -18465.695    82.026403    236.33465 
   18900    92.268582   -623.59323    72733.833   -17209.689    1249.7596   -18459.449     82.58148    235.01594 
   18950    94.600056   -620.21858    72683.497   -17209.429    1281.3389   -18490.768     82.58961     240.9544 
   19000    91.956254   -661.10039    72621.933   -17235.267    1245.5292   -18480.797    82.308066    234.22041 
   19050    94.523431   -547.60787     72552.32   -17252.979     1280.301    -18533.28    82.184324    240.75923 
   19100    92.683753   -1044.3374    72544.997   -17287.569     1255.383   -18542.952    82.612381    236.07342 
   19150    91.681795      -144.88     72532.95   -17247.989    1241.8117     -18489.8     82.81047    233.52134 
   19200    96.394044   -299.85051    72570.652   -17173.911    1305.6381   -18479.549    82.916584    245.52384 
   19250    93.078906   -326.74957    72628.261    -17205.84    1260.7352   -18466.576    83.003127     237.0799 
   19300    92.166684   -397.34664    72670.346   -17226.451    1248.3794    -18474.83    83.114269     234.7564 
   19350    93.990548   -244.76715    72673.165   -17239.754    1273.0833   -18512.837    83.352986    239.40193 
   19400    93.496283   -426.10696    72729.607   -17253.736    1266.3885   -18520.124    82.914318      238.143 
   19450    93.925018   -539.72171    72698.717   -17213.586    1272.1957   -18485.782     82.73428    239.23502 
   19500    96.357515    64.451082    72706.863   -17234.011    1305.1434   -18539.155    83.029016     245.4308 
   19550    96.810898   -672.40889    72703.506   -17263.643    1311.2843   -18574.927    83.310855     246.5856 
   19600    95.662606   -363.62146     72693.92   -17239.643    1295.7309   -18535.374    83.782174    243.66081 
   19650    92.875776   -332.29702    72749.437    -17224.64    1257.9839   -18482.624    84.075754    236.56251 
   19700    94.479987   -735.60599    72776.235    -17231.73    1279.7126   -18511.442    84.422447    240.64858 
   19750    96.231242   -188.59204    72783.449   -17200.852     1303.433   -18504.285    84.803933    245.10917 
   19800    96.580928   -369.05612    72789.433   -17228.802    1308.1694   -18536.971    85.085731    245.99985 
   19850    94.325964   -550.80286    72782.552   -17247.677    1277.6264   -18525.303    85.454301    240.25627 
   19900    95.754043   -149.57457    72765.362   -17266.001    1296.9694    -18562.97    86.037341    243.89371 
   19950    91.042591   -330.59672    72817.873   -17308.029    1233.1538   -18541.183    86.325098    231.89324 
   20000    91.479242   -546.24838    72832.119   -17309.807    1239.0681   -18548.876    86.373138    233.00542 
   20050    94.365345   -864.13139    72772.612   -17294.917    1278.1598   -18573.076    86.816285    240.35657 
   20100    93.359206   -336.40771    72793.925   -17255.534    1264.5319   -18520.066    87.174284    237.79385 
   20150    95.115078   -509.03381    72833.959    -17247.85    1288.3148   -18536.165    87.772321    242.26621 
   20200    95.470916   -398.68259     72888.77    -17251.72    1293.1345   -18544.855    87.857761    243.17256 
   20250    95.949811   -593.76431      72872.2   -17251.044    1299.6211   -18550.665    88.114305    244.39234 
   20300    95.257001   -1013.1532    72849.703   -17259.756    1290.2371   -18549.993    88.142992     242.6277 
   20350    94.809858   -760.67074    72807.762   -17291.533    1284.1806   -18575.714    88.322625    241.48879 
   20400    96.777624   -463.53625    72732.952   -17266.777    1310.8336    -18577.61    88.443638    246.50085 
   20450    93.792367   -218.67835    72827.416    -17255.47    1270.3989   -18525.869    88.548024    238.89715 
   20500    95.724871   -742.10611     72761.82   -17233.275    1296.5743    -18529.85    88.987817     243.8194 
   20550    95.925108   -359.53646    72662.627    -17220.35    1299.2865   -18519.636    88.961461    244.32942 
   20600    95.896965    -426.4052    72699.357   -17218.427    1298.9053   -18517.332    89.710663    244.25774 
   20650    94.280118   -335.48481    72735.165   -17193.869    1277.0054   -18470.875    90.157367    240.13949 
   20700     95.43912    -451.6137     72809.74   -17229.228    1292.7039   -18521.932    90.501204    243.09157 
   20750    94.959321   -491.11147     72852.57   -17214.332    1286.2051   -18500.537    90.981949    241.86948 
   20800    94.849611   -258.40628    72938.391    -17173.51    1284.7191   -18458.229    91.031788    241.59004 
   20850    96.816029   -509.64785    72913.533   -17169.965    1311.3538   -18481.319    91.335608    246.59868 
   20900    96.766842   -389.83635    72913.202   -17144.909    1310.6876   -18455.596    91.838029    246.47339 
   20950     96.29663   -5.1819513    72978.996   -17153.584    1304.3187   -18457.903    91.897336    245.27572 
   21000    97.020845   -399.52006     73067.35    -17157.78     1314.128   -18471.908    92.106428    247.12036 
   21050    97.440473   -306.93936    73133.523   -17142.253    1319.8118   -18462.065    92.578475    248.18919 
   21100    97.717018   -289.63964    73114.695   -17128.599    1323.5576   -18452.157    92.622322    248.89357 
   21150    97.799373   -640.42926    73111.055    -17127.94     1324.673   -18452.613    92.828809    249.10334 
   21200    95.490331   -196.03282     73189.31   -17187.435    1293.3975   -18480.833    93.082986    243.22201 
   21250    96.839247   -306.49996    73220.736   -17167.961    1311.6683    -18479.63    93.394113    246.65781 
   21300    96.510085   -662.14169    73236.168   -17172.321    1307.2099   -18479.531    93.552969    245.81941 
   21350    92.925171   -660.84445    73147.762   -17209.701    1258.6529   -18468.354    93.805131    236.68833 
   21400    93.519604   -507.99065    73124.079   -17205.594    1266.7044   -18472.298    94.596765     238.2024 
   21450    93.706692    -193.7718    73091.684    -17196.05    1269.2385   -18465.288    94.802017    238.67893 
   21500    93.286821   -545.96239    73013.909   -17189.397    1263.5514   -18452.948    95.091658    237.60948 
   21550    96.127876   -322.13265    72926.677   -17166.505    1302.0329   -18468.537    95.339409    244.84589 
   21600    100.87654   -244.75319    73016.653   -17139.596    1366.3527   -18505.949    95.412028    256.94115 
   21650    95.210749   -633.82223    72958.648   -17163.535    1289.6106   -18453.146    95.865831    242.50989 
   21700    98.659584   -486.42935    72951.545   -17179.036    1336.3244    -18515.36    96.691452    251.29437 
   21750    95.286381   -573.45689    72911.263   -17190.288    1290.6351   -18480.923    97.165847    242.70253 
   21800    97.702169   -563.93667    72917.406   -17152.645    1323.3564   -18476.001     97.41342    248.85575 
   21850    95.274793   -522.49872    72873.394    -17187.68    1290.4781   -18478.158    97.906113    242.67302 
   21900    95.268519   -448.55801    72890.478   -17208.755    1290.3931   -18499.148    98.299055    242.65703 
   21950    94.815857   -471.31044    72939.441   -17209.929    1284.2619   -18494.191     98.29017    241.50407 
   22000    96.507198   -299.79499    72922.114   -17208.097    1307.1708   -18515.268    98.334307    245.81206 
   22050    93.060829   -358.06106    72929.268   -17215.855    1260.4904   -18476.345    98.378107    237.03386 
   22100    93.506831   -572.62644    72936.924   -17237.554    1266.5314   -18504.085    98.573527    238.16986 
   22150    96.444234    -359.9483    72911.683   -17245.771    1306.3179   -18552.089    98.389822    245.65168 
   22200     93.01339   -618.75435    72882.853   -17251.431    1259.8478   -18511.278    98.183389    236.91303 
   22250     93.46475   -546.62901    72903.847   -17242.155    1265.9614   -18508.117    98.690868    238.06268 
   22300    94.714133   -438.61769    72880.183   -17230.284    1282.8841   -18513.168    98.927918    241.24497 
   22350    92.682255   -512.35103    72874.287   -17274.179    1255.3627   -18529.541    98.883112     236.0696 
   22400    93.425325   -554.75238    72780.357   -17247.629    1265.4274   -18513.056    98.927978    237.96226 
   22450    94.904307   -543.65188    72770.816    -17233.95    1285.4599    -18519.41    99.302922    241.72936 
   22500     94.15351   -446.35325    72832.766   -17242.458    1275.2905   -18517.748    99.890788    239.81701 
   22550    91.642043   -920.54682     72842.77   -17269.905    1241.2732   -18511.178    99.947001    233.42009 
   22600    95.287549   -181.30531    72828.372   -17249.519    1290.6509    -18540.17    100.03702     242.7055 
   22650    94.135948   -283.26903    72859.745   -17238.397    1275.0527    -18513.45    100.17467    239.77228 
   22700     95.56798   -918.76254    72819.379   -17254.332    1294.4493   -18548.781    100.18003    243.41979 
   22750    93.619598   -475.67867    72773.977   -17201.337    1268.0588   -18469.396    100.58345    238.45709 
   22800    95.332786   -352.95062    72779.315   -17226.545    1291.2636   -18517.808    100.56178    242.82073 
   22850    93.561937   -407.22385    72701.626   -17262.681    1267.2778   -18529.959    100.80291    238.31022 
   22900    93.140362   -218.41108    72740.114   -17261.161    1261.5677   -18522.728    101.17713    237.23644 
   22950    95.275347     -533.312    72747.748   -17259.364    1290.4856    -18549.85     101.5511    242.67443 
   23000    96.760396   -581.33364    72722.158   -17235.963    1310.6003   -18546.563    101.92685    246.45697 
   23050    93.582947   -212.29608    72728.986   -17231.069    1267.5624   -18498.632    101.75053    238.36374 
   23100    95.930957   -630.57995    72713.734   -17243.571    1299.3657   -18542.937    101.98981    244.34432 
   23150    93.943081   -48.375727    72750.067   -17280.637    1272.4403   -18553.077    102.15227    239.28103 
   23200    95.559089   -674.83635    72815.608   -17243.635    1294.3288   -18537.964    102.53688    243.39714 
   23250    96.734543   -471.80163    72844.411   -17229.658    1310.2501   -18539.909    102.67931    246.39112 
   23300     94.70783   -544.65837    72845.809   -17224.634    1282.7987   -18507.433    102.92692    241.22891 
   23350    93.886975   -783.13221    72869.461   -17237.915    1271.6804   -18509.596    103.17526    239.13812 
   23400    94.483874    -309.7375    72833.738   -17237.441    1279.7653   -18517.207    103.33093    240.65848 
   23450    93.063702   -348.74382    72858.719    -17294.19    1260.5293   -18554.719    103.60435    237.04118 
   23500    93.492474   -660.95277    72796.624   -17301.775    1266.3369   -18568.112    103.35438     238.1333 
   23550    94.257452   -571.97983    72758.414   -17266.879    1276.6984   -18543.577    103.48545    240.08176 
   23600    92.991776   -736.47927    72730.611   -17282.124    1259.5551   -18541.679    103.51316    236.85798 
   23650    93.928845   -879.62226    72737.104   -17296.288    1272.2475   -18568.536    103.74387    239.24477 
   23700    93.054475    -577.6141    72710.348   -17285.843    1260.4043   -18546.248    103.60888    237.01768 
   23750    93.482405   -729.55151    72679.508   -17297.401    1266.2006   -18563.602    103.90432    238.10765 
   23800    96.993402   -769.27639    72645.109   -17275.717    1313.7563   -18589.473    103.97969    247.05046 
   23850    94.462359   -452.58655    72637.052   -17254.496    1279.4738   -18533.969    103.96637    240.60368 
   23900    94.802933   -542.28107    72682.161   -17286.269    1284.0869   -18570.356    104.43052    241.47115 
   23950    92.269991   -757.92853    72657.017   -17251.599    1249.7787   -18501.377    104.52895    235.01953 
   24000    95.451013   -154.67191    72666.322   -17256.312     1292.865   -18549.177    104.52723    243.12186 
   24050    95.993731   -440.31815    72697.997   -17235.596     1300.216   -18535.812    104.72331    244.50421 
   24100    94.955636   -406.62153     72752.91   -17250.084    1286.1552   -18536.239    104.70275     241.8601 
   24150    95.870776   -175.71058    72820.772   -17230.175    1298.5506   -18528.726    105.06765    244.19104 
   24200    95.486015   -591.04912    72844.545    -17264.69    1293.3391   -18558.029    104.90013    243.21101 
   24250    94.900072    -497.9375    72819.928   -17282.287    1285.4026   -18567.689     105.0424    241.71857 
   24300    92.945333   -724.26852    72847.469   -17262.173     1258.926   -18521.099    105.17372    236.73968 
   24350    94.522945   -598.55338    72867.477   -17254.772    1280.2945   -18535.066    105.38374    240.75799 
   24400    94.292646   -617.65002        72865   -17295.464    1277.1751   -18572.639    106.01359     240.1714 
   24450     92.80102   -467.96748    72872.676   -17276.897    1256.9713   -18533.868    106.23859    236.37211 
   24500     93.61889   -189.75935    72859.867   -17284.938    1268.0492   -18552.988     106.5502    238.45529 
   24550    94.228472   -540.60113    72902.819   -17250.412    1276.3059   -18526.718    106.68332    240.00795 
   24600    95.772034   -349.75502    72903.049   -17256.522    1297.2131   -18553.735    106.51254    243.93953 
   24650    92.317565   -363.41526    72896.783   -17296.157     1250.423    -18546.58    107.01184     235.1407 
   24700    92.313812    22.507142    72927.713   -17288.252    1250.3722   -18538.624    106.75813    235.13115 
   24750    93.902316   -239.68544    72916.545   -17273.462    1271.8882   -18545.351    106.36878     239.1772 
   24800    94.478244   -426.32861    72925.254   -17281.241     1279.689    -18560.93     106.2128    240.64414 
   24850    93.595825   -363.43018     72895.54   -17248.965    1267.7368   -18516.701    105.96085    238.39654 
   24900    95.173414   -391.93993    72841.154   -17273.099    1289.1049   -18562.204    105.50885     242.4148 
   24950    92.494975   -775.71146     72855.74    -17257.74     1252.826   -18510.566     105.6142    235.59258 
   25000     94.74187   -269.80402    72944.974   -17287.408    1283.2598   -18570.668    105.58957    241.31561 
   25050    91.643991   -197.69042    72953.844   -17299.118    1241.2996   -18540.417    105.93823    233.42505 
   25100    92.951425   -469.48401     72945.15   -17262.375    1259.0085   -18521.383    106.00746     236.7552 
   25150    92.566573   -364.29865     72960.89   -17284.773    1253.7958   -18538.569    105.96404    235.77495 
   25200    95.847221   -667.51792     73009.96   -17271.241    1298.2315   -18569.473    106.23431    244.13104 
   25250    95.619947   -412.51036    73025.194   -17296.878    1295.1531   -18592.031    106.09369    243.55215 
   25300    92.027942   -390.43399      73060.7   -17282.904    1246.5001   -18529.404    106.56907    234.40301 
   25350    90.534586   -429.70155    73074.086   -17331.897    1226.2729    -18558.17    106.52292     230.5993 
   25400    91.476393   -112.52599     73116.62   -17292.244    1239.0295   -18531.274    106.80099    232.99817 
   25450    95.139102   -419.90051    73213.667   -17277.063    1288.6402   -18565.704    107.21461     242.3274 
   25500    92.497963   -514.95005    73253.015   -17261.984    1252.8665    -18514.85    107.45614    235.60019 
   25550    92.900891   -419.16806    73269.227   -17288.359    1258.3241   -18546.683     107.5731    236.62648 
   25600     94.22855   -249.84963    73325.577   -17260.634    1276.3069   -18536.941    107.73211    240.00815 
   25650     93.26017   -827.77774    73270.689    -17287.19    1263.1904   -18550.381    108.08938     237.5416 
   25700      95.3887   -349.55653    73241.054   -17278.558    1292.0209   -18570.579    108.47455    242.96315 
   25750    92.162722   -410.51178    73238.476   -17290.581    1248.3257   -18538.907    108.96273     234.7463 
   25800    95.325792   -491.54042    73221.869   -17301.353    1291.1689   -18592.521    109.32973    242.80291 
   25850    91.511706   -502.88577    73272.143   -17299.122    1239.5078    -18538.63    109.02039    233.08811 
   25900    92.398809   -435.07564    73247.658   -17307.534    1251.5235   -18559.057    109.16243    235.34764 
   25950     91.94255   -647.11068    73188.886   -17340.441    1245.3435   -18585.785    109.24354    234.18551 
   26000    91.153297   -329.71776    73201.773   -17324.482    1234.6533   -18559.135     109.3247    232.17521 
   26050    92.519251    -533.8594    73181.933   -17333.202    1253.1548   -18586.356    109.42445    235.65442 
   26100    91.863174   -714.46706    73207.499   -17338.133    1244.2684   -18582.401     109.5453    233.98333 
   26150    89.660814   -412.57428    73191.304   -17360.231    1214.4379   -18574.669      109.771    228.37373 
   26200     91.83642   -628.71154    73256.067     -17348.4     1243.906   -18592.306    109.92086    233.91519 
   26250    90.361862   -451.43818    73273.784   -17338.756    1223.9334   -18562.689    109.96565    230.15936 
   26300    90.763207   -494.28646    73241.666   -17344.602    1229.3696   -18573.972    109.93915    231.18162 
   26350    94.532665   -154.07217     73238.53   -17284.744    1280.4261    -18565.17     110.0617    240.78275 
   26400    93.151084   -7.7907526    73262.023   -17289.783    1261.7129   -18551.496      110.551    237.26375 
   26450    92.301237   -492.39688    73338.493   -17319.385    1250.2019   -18569.587    111.04857    235.09912 
   26500    92.654117   -587.79583    73329.273   -17287.834    1254.9816   -18542.815    111.22286    235.99793 
   26550    93.231234   -489.95337    73350.916   -17288.724    1262.7985   -18551.522    111.27822     237.4679 
   26600    94.662141   -854.61009    73292.869   -17285.173    1282.1798   -18567.353    111.72095    241.11254 
   26650    96.426442   -902.24698    73159.868   -17294.561     1306.077   -18600.638    112.26191    245.60636 
   26700    91.946048   -503.86018    73087.701   -17291.612    1245.3909   -18537.003    112.61542    234.19442 
   26750    92.154324   -612.72674     73053.54   -17310.791     1248.212   -18559.003    112.69156    234.72491 
   26800    93.039046   -628.01559    73038.062   -17355.545    1260.1954   -18615.741    112.91325    236.97838 
   26850    93.443086    -592.7985    73030.546   -17326.877     1265.668   -18592.545    112.97425     238.0075 
   26900    93.503793   -501.67535    73041.941   -17310.208    1266.4903   -18576.698     113.0724    238.16213 
   26950    92.315436   -387.56587    72994.375   -17318.117    1250.3942   -18568.512    113.05422    235.13528 
   27000     93.49471   -259.82749     73028.19   -17309.165    1266.3672   -18575.532    113.73601    238.13899 
   27050    93.368924   -502.95225    73042.654   -17304.695    1264.6635   -18569.358    113.95632     237.8186 
   27100    93.379849   -390.52787    73043.842   -17276.754    1264.8115   -18541.565    114.41041    237.84643 
   27150    93.094212   -461.63165    72964.514   -17287.701    1260.9426   -18548.644    115.05903    237.11889 
   27200    97.958847    -292.1051    72946.913   -17220.823    1326.8331   -18547.656    115.34474    249.50953 
   27250    94.191953   -367.84385    72990.509   -17230.076    1275.8113   -18505.887     115.6319    239.91493 
   27300    95.772606   -257.12683    72980.149   -17237.178    1297.2209   -18534.399    115.99018    243.94099 
   27350    95.578624   -383.61936    72966.331   -17211.132    1294.5934   -18505.726    116.52371     243.4469 
   27400    96.077298   -457.16569    72951.471   -17226.657    1301.3479   -18528.005    116.53575    244.71706 
   27450    94.415125   -771.69888    72975.503   -17242.049    1278.8341   -18520.883     116.3618    240.48337 
   27500    96.608282   -759.54014    72885.119   -17231.354    1308.5399   -18539.894    116.42637    246.06953 
   27550    93.235551   -528.26708    72833.414   -17194.671     1262.857   -18457.528    116.29811    237.47889 
   27600      95.2236   -334.79732    72854.296   -17204.605    1289.7847    -18494.39    116.46538    242.54262 
   27650    95.194996   -360.07867    72932.092   -17246.647    1289.3973   -18536.044    116.51115    242.46977 
   27700    97.187679   -290.67502    72928.328   -17233.155    1316.3878   -18549.542    116.53788     247.5453 
   27750    97.496864   -30.795271    72959.613   -17227.585    1320.5756    -18548.16    116.96685    248.33282 
   27800     92.90566   -494.16595    73012.975   -17247.897    1258.3887   -18506.286    116.84654    236.63863 
   27850    96.319493   -150.37317    73022.417   -17241.052    1304.6284    -18545.68    116.93477    245.33396 
   27900    93.627964   -159.70587    73075.698   -17215.149    1268.1721   -18483.321     117.0813     238.4784 
   27950    95.704985   -519.16399    73129.105   -17187.499     1296.305   -18483.804    117.19436    243.76875 
   28000    97.175734   -711.54786    73161.481   -17178.077     1316.226   -18494.303    117.11586    247.51487 
   28050    96.781203   -558.72101    73184.845   -17159.312    1310.8821   -18470.195    117.32116    246.50997 
   28100    97.635664   -290.92893    73128.523   -17186.724    1322.4556   -18509.179    117.50007    248.68635 
   28150    92.777077   -399.22039    73159.213   -17242.167     1256.647   -18498.814    117.88791    236.31112 
   28200    94.486419   -104.74835     73143.18     -17231.1    1279.7997     -18510.9    117.98479    240.66496 
   28250    92.369098   -221.66158    73171.408    -17243.65     1251.121   -18494.771    118.03415    235.27196 
   28300    95.794617    -643.1207    73229.059   -17244.287     1297.519   -18541.806    118.08658    243.99705 
   28350    94.433418   -511.70605    73101.435    -17239.41    1279.0818   -18518.492    117.96668    240.52996 
   28400    94.813579   -636.23028    73008.966   -17242.585    1284.2311   -18526.816    118.08339    241.49826 
   28450    92.602617    160.71987    72984.435   -17240.155     1254.284   -18494.439    118.15334    235.86676 
   28500    93.589485    -314.0505    72943.356   -17266.731    1267.6509   -18534.382    118.73086    238.38039 
   28550    92.107892   -424.51587    73002.289   -17276.533    1247.5831   -18524.117    118.81424    234.60665 
   28600    94.850776   -759.41019    72927.694   -17237.349    1284.7349   -18522.084    118.87906    241.59301 
   28650    93.052511   -312.81102    72888.497   -17257.814    1260.3777   -18518.192    119.39466    237.01267 
   28700     90.85046   -280.94197     72892.02   -17290.799    1230.5514    -18521.35    119.57343    231.40386 
   28750     94.33458   -660.12673    72920.059   -17257.231    1277.7431   -18534.974    119.78952    240.27821 
   28800    95.312676    -466.8527    72892.901   -17235.154    1290.9912   -18526.145    119.87419    242.76951 
   28850    93.129193   -736.15075    72837.265   -17259.697    1261.4164   -18521.113    120.00009    237.20799 
   28900    90.533672   -551.28639    72721.664    -17241.09    1226.2606    -18467.35    119.92416    230.59698 
   28950    93.159456   -185.98241    72750.788   -17208.519    1261.8263   -18470.346    120.10982    237.28507 
   29000    94.977165   -262.37124    72780.745   -17218.727    1286.4468   -18505.174    120.05278    241.91493 
   29050    92.764078    -442.4257    72781.265   -17231.713     1256.471   -18488.184    120.22357    236.27801 
   29100    94.087375   -676.10063    72792.041   -17221.424    1274.3948   -18495.819    120.18014    239.64856 
   29150    95.525034   -727.25539    72805.093   -17227.764    1293.8676   -18521.632     120.0321     243.3104 
   29200    93.817451   -606.21309     72849.33   -17239.324    1270.7387   -18510.063     120.2061    238.96104 
   29250    93.554429   -756.40717    72849.355   -17262.528    1267.1761   -18529.704    120.30578     238.2911 
   29300    94.321035   -410.25258    72833.216    -17282.43    1277.5596    -18559.99    120.74579    240.24371 
   29350    93.922642   -556.09244    72779.105   -17281.417    1272.1635   -18553.581    120.97801    239.22897 
   29400    96.456536   -655.23167    72754.494   -17271.155    1306.4846    -18577.64    121.68144    245.68302 
   29450    94.079351   -399.60638    72802.472   -17262.972    1274.2861   -18537.258    122.16002    239.62812 
   29500    94.097225   -213.74535    72836.528   -17258.741    1274.5282   -18533.269    122.67653    239.67365 
   29550    95.578396   -97.039123    72866.607   -17253.608    1294.5903   -18548.198    122.83878    243.44632 
   29600    94.267102   -483.35726    72852.809   -17244.169    1276.8291   -18520.998    123.03246    240.10634 
   29650    99.124101   -364.87288    72855.235   -17216.684    1342.6162   -18559.301    122.91254    252.47753 
   29700    96.737233   -393.62601     72822.39   -17203.081    1310.2866   -18513.367    123.22142    246.39797 
   29750    94.796677   -339.10735    72804.623   -17237.568    1284.0021    -18521.57    123.19437    241.45521 
   29800    94.692451   -308.52779    72854.131   -17251.604    1282.5904   -18534.194    123.51998    241.18974 
   29850    93.770415    -117.6102    72916.131    -17262.88    1270.1016   -18532.981    123.30462    238.84124 
   29900     92.59971   -622.69528    72887.887   -17283.195    1254.2446    -18537.44    123.08532    235.85935 
   29950    91.841613   -346.70592    72845.734   -17292.728    1243.9764   -18536.704    123.33629    233.92841 
   30000    94.638213   -317.76305    72863.343    -17261.46    1281.8557   -18543.315    123.04751    241.05159 
   30050    94.517698   -636.85063    72899.983   -17300.507    1280.2234    -18580.73    123.26116    240.74463 
   30100    91.470554   -337.66444    72879.099   -17324.196    1238.9504   -18563.147    123.30846    232.98329 
   30150    91.829359   -390.43978    72887.889   -17333.653    1243.8104   -18577.463    123.73446     233.8972 
   30200    91.905306   -587.10118    72883.599   -17288.259    1244.8391   -18533.098    124.25208    234.09065 
   30250    96.020081   -624.80468    72852.865   -17231.579    1300.5729   -18532.152    124.33971    244.57133 
   30300    92.922712   -402.84809    72844.452   -17247.692    1258.6196   -18506.312    124.43503    236.68206 
   30350    95.441578   -650.23583    72781.153   -17242.871    1292.7372   -18535.609    124.43141    243.09783 
   30400    94.209246   -509.17903    72715.477   -17263.886    1276.0455   -18539.931    124.29326    239.95898 
   30450    96.407011   -743.68666    72679.583   -17252.655    1305.8138   -18558.469    124.32634    245.55687 
   30500    94.162112   -504.90027    72599.933   -17219.298    1275.4071   -18494.705    124.53875    239.83892 
   30550    92.594633   -421.61716    72651.292   -17248.111    1254.1759   -18502.287    124.51409    235.84642 
   30600     94.59395    -465.6319    72660.467   -17234.009    1281.2562   -18515.265    124.45235    240.93885 
   30650    94.102933   -743.87215     72693.92    -17241.22    1274.6055   -18515.826    124.83068    239.68819 
   30700    92.978613   -223.11837    72726.872   -17268.623    1259.3768       -18528    125.37989    236.82445 
   30750    98.365015   -353.28754    72798.527   -17209.538    1332.3345   -18541.873    125.91788    250.54407 
   30800    94.637711    29.405998    72832.426   -17244.866     1281.849   -18526.715     126.0468    241.05031 
   30850    96.654064   -11.693244    72848.766   -17265.447    1309.1601   -18574.607     126.9512    246.18614 
   30900    93.106014   -440.75547    72849.661   -17280.861    1261.1024   -18541.964    127.04445    237.14895 
   30950    93.995858   -445.81139    72888.264    -17307.86    1273.1552   -18581.015    126.94524    239.41546 
   31000    93.906966   -402.76985    72906.678   -17318.129    1271.9512    -18590.08    126.98077    239.18904 
   31050    93.444434   -370.31824    72886.918   -17316.008    1265.6862   -18581.694    127.39592    238.01093 
   31100    93.190584   -707.71119    72834.135   -17310.351    1262.2479   -18572.599    127.82154    237.36436 
   31150    93.200558   -418.50202    72737.394   -17304.843     1262.383   -18567.227    128.00871    237.38976 
   31200    95.783387   -505.15829    72708.113   -17317.519    1297.3669   -18614.886    128.03154    243.96845 
   31250    94.339018    63.999854    72703.004   -17326.515    1277.8032   -18604.318    128.16193    240.28952 
   31300    92.732688   -92.849908    72782.611   -17313.338    1256.0458   -18569.383    128.37291    236.19806 
   31350    93.907214     81.86234    72832.064   -17307.314    1271.9545   -18579.268    128.58566    239.18968 
   31400    94.998669     120.9552    72866.961   -17303.316    1286.7381   -18590.054     128.6339     241.9697 
   31450    93.407405    -420.9325    72916.882   -17282.935    1265.1847    -18548.12    128.76113    237.91662 
   31500    90.675976   -342.47142    72917.051   -17306.284     1228.188   -18534.472    128.95067    230.95944 
   31550    96.518014   -188.71519    72961.242    -17230.96    1307.3173   -18538.277    128.91001    245.83961 
   31600     95.42467   -327.52797     73020.99   -17241.523    1292.5082   -18534.031    129.33522    243.05477 
   31650    97.056203   -459.74734    73028.472    -17261.87    1314.6069   -18576.477    129.26141    247.21042 
   31700    90.041585   -919.82821    72971.315   -17315.593    1219.5953   -18535.188    129.09554    229.34359 
   31750    92.811475   -334.64296    72925.186   -17291.269    1257.1129   -18548.382    129.07482    236.39873 
   31800    90.493767   -866.04478    72869.568   -17312.103    1225.7201   -18537.823    128.98922    230.49534 
   31850    91.351606   -718.27797    72770.327   -17325.737    1237.3393   -18563.076    128.63126    232.68032 
   31900     90.77718   -778.49463    72680.497   -17320.861    1229.5588    -18550.42    128.52294    231.21721 
   31950    91.581544   -580.33892    72647.987    -17274.74    1240.4538   -18515.194    128.59535      233.266 
   32000    92.499986   -513.51128    72567.538   -17295.003    1252.8939   -18547.897    129.02853    235.60535 
   32050    91.382721   -474.60576    72581.894   -17281.919    1237.7608    -18519.68    129.67915    232.75958 
   32100    92.968209   -503.03461    72514.316   -17310.545    1259.2359   -18569.781    129.43747    236.79795 
   32150    91.580229   -144.69071    72465.067   -17315.973     1240.436   -18556.409    129.71863    233.26265 
   32200    92.075942   -483.63601    72484.511   -17317.841    1247.1503   -18564.991    130.02035    234.52527 
   32250    96.391902   -344.63376    72523.684   -17297.844    1305.6091   -18603.453    130.14373    245.51839 
   32300    92.424843   -336.19461    72611.681    -17342.56    1251.8761   -18594.436    129.98923    235.41395 
   32350    92.700154   -496.21121    72595.116   -17314.666    1255.6051   -18570.271    130.18946    236.11519 
   32400    94.628719   -536.83466    72644.101   -17285.749    1281.7272   -18567.476    130.40416    241.02741 
   32450    91.612124    -5.083231    72627.745   -17280.487     1240.868   -18521.355     130.3482    233.34389 
   32500     93.76774    123.66499    72672.192   -17270.606    1270.0654   -18540.671    130.68567    238.83442 
   32550    93.602034   -542.05562    72797.058   -17265.073    1267.8209   -18532.894    130.79797    238.41236 
   32600    91.348593   -525.63918    72756.307   -17283.472    1237.2985   -18520.771    130.40265    232.67265 
   32650    95.241132   -322.47757     72747.91   -17243.805    1290.0222   -18533.828    130.85718    242.58728 
   32700    94.177066   -112.76575    72817.644   -17249.248    1275.6096   -18524.858    130.94726    239.87701 
   32750    94.166826   -855.73156    72788.867   -17260.345    1275.4709   -18535.816    130.89762    239.85093 
   32800    92.590321   -583.95888    72749.376   -17249.878    1254.1175   -18503.995    130.76672    235.83544 
   32850    94.095902   -557.13647    72709.186   -17275.503    1274.5103   -18550.014     131.1133    239.67028 
   32900    92.800012   -389.93866    72644.008   -17297.152    1256.9577   -18554.109    131.16096    236.36954 
   32950    91.308166   -457.46031    72626.184   -17278.546    1236.7509   -18515.297    131.60997    232.56968 
   33000     92.84058   -487.85927    72608.048   -17257.542    1257.5072   -18515.049    132.12087    236.47287 
   33050    97.313662    -184.4428    72664.982   -17223.041    1318.0942   -18541.135    132.16468    247.86619 
   33100    95.636796   -222.16356    72683.848   -17221.001    1295.3814   -18516.382    132.27068    243.59507 
   33150    93.043733   -704.38176    72697.511   -17241.609    1260.2588   -18501.868    132.48668    236.99032 
   33200    95.825797   -641.99979    72691.166    -17274.31    1297.9413   -18572.251     133.0278    244.07647 
   33250    92.567181   -581.43283    72634.202    -17270.55     1253.804   -18524.354    133.30062     235.7765 
   33300    94.304854   -694.95654    72607.128   -17295.268    1277.3405   -18572.609    133.68677     240.2025 
   33350     91.07628   -678.31882    72553.124   -17289.822    1233.6101   -18523.432     133.7459    231.97904 
   33400    94.195459   -636.32349    72541.679   -17280.573    1275.8587   -18556.431    134.28389    239.92386 
   33450    93.483501   -774.19807    72614.587   -17304.689    1266.2154   -18570.904    134.21216    238.11044 
   33500    92.641313   -750.27789    72602.706   -17288.517    1254.8081   -18543.325    134.80142    235.96532 
   33550    92.954575   -552.64292    72617.886   -17255.888    1259.0512   -18514.939    135.12286    236.76322 
   33600    92.395436   -660.24422     72626.88   -17269.031    1251.4778   -18520.509    135.69813    235.33905 
   33650    92.592179   -193.83991    72630.353   -17302.152    1254.1426   -18556.294    135.86116    235.84017 
   33700    93.493357   -292.61885     72701.96   -17285.745    1266.3489   -18552.094    135.88933    238.13555 
   33750    94.726962   -485.29111     72738.55   -17278.205    1283.0578   -18561.263    135.86546    241.27764 
   33800    95.471286   -409.28308    72703.357   -17241.375    1293.1396   -18534.514    135.99852     243.1735 
   33850    96.860444    -271.6672    72756.117   -17252.139    1311.9554   -18564.094    136.57297     246.7118 
   33900    93.609982   -182.51464    72839.159   -17260.582    1267.9286    -18528.51    137.07891     238.4326 
   33950    95.851327   -212.09459      72928.3   -17274.674    1298.2871   -18572.961    137.21782     244.1415 
[...]
   92000    92.572126   -118.15173    73054.536   -17260.745     1253.871   -18514.616    344.52128    235.78909 
   92050    92.111381    -382.9127    73100.588   -17321.756    1247.6303   -18569.386    345.32388    234.61554 
   92100    92.858501   -300.72102    73109.704   -17308.793    1257.7499   -18566.543    345.32377    236.51851 
   92150    94.266437   -538.15522    73158.268   -17269.784    1276.8201   -18546.604    345.74469    240.10465 
   92200    95.092836   -569.26545    73135.128    -17272.17    1288.0135   -18560.184    345.27066    242.20955 
   92250     95.29749   -773.58144    73165.504   -17255.278    1290.7855   -18546.064    344.90932    242.73083 
   92300    95.109273   -721.55762    73140.197   -17254.747    1288.2362   -18542.984    345.40686    242.25142 
   92350    92.589818   -492.59016    73084.565   -17255.223    1254.1106   -18509.334    344.89395    235.83415 
   92400     94.96378   -675.40511    73062.244   -17217.032    1286.2655   -18503.298    345.16581    241.88084 
   92450    93.635108   -557.42061    73023.648   -17263.815    1268.2689   -18532.084    345.33629     238.4966 
   92500    92.946251    -499.0614    72968.564   -17286.882    1258.9385    -18545.82    345.44268    236.74202 
   92550    89.581319    -611.9852    72929.797   -17287.176    1213.3611   -18500.537    345.56161    228.17125 
   92600    92.844174   -66.073044    72908.823   -17268.939    1257.5558   -18526.495    345.61331    236.48202 
   92650    94.539589   -629.19165    72894.991   -17246.268    1280.5199   -18526.788    345.47626    240.80039 
   92700    92.973709   -523.64625    72887.183   -17233.948    1259.3104   -18493.258    345.53575    236.81196 
   92750    95.603124   -444.03222    72897.989   -17216.403    1294.9253   -18511.328    346.06447     243.5093 
   92800    95.587876    -284.2892    72908.165    -17229.72    1294.7187   -18524.439     346.3347    243.47046 
   92850    95.516455   -779.48075    72868.543   -17221.767    1293.7514   -18515.518    346.46792    243.28855 
   92900    94.021973   -316.44293    72834.054   -17214.837    1273.5089   -18488.345    346.91142    239.48198 
   92950    93.434117   -707.74679    72780.632   -17185.472    1265.5465   -18451.019    346.13448    237.98466 
   93000     95.47565    -334.6024    72803.279   -17160.724    1293.1987   -18453.922    346.44838    243.18461 
   93050    91.532601   -470.79813     72822.23   -17202.108    1239.7909   -18441.899    346.88237    233.14133 
   93100    95.459615    -101.3086    72841.829   -17210.911    1292.9815   -18503.893    346.99707    243.14377 
   93150    93.615099   -319.28725    72917.944   -17223.807    1267.9979   -18491.805    347.29258    238.44563 
   93200    94.207696   -644.05862      72920.8   -17210.997    1276.0245   -18487.021    347.85919    239.95503 
   93250    95.738101   -438.15375    72941.696   -17206.121    1296.7535   -18502.875    347.60002     243.8531 
   93300    94.596941   -636.91659     72926.91   -17190.475    1281.2967   -18471.772    348.27375    240.94647 
   93350    93.194399   -586.57155    72936.416    -17217.19    1262.2996   -18479.489    347.44782    237.37407 
   93400    94.071048   -598.01804    72883.869   -17202.702    1274.1736   -18476.875    347.20531    239.60697 
   93450    92.197484   -391.96366    72849.664   -17219.737    1248.7966   -18468.533    347.05464    234.83485 
   93500    93.612759   -1022.4814    72863.168   -17230.649    1267.9662   -18498.615    347.51572    238.43967 
   93550    92.983504   -680.99923    72873.481   -17191.652     1259.443   -18451.095     347.8569    236.83691 
   93600    97.331652   -489.99555    72818.189    -17203.18    1318.3378   -18521.518     347.9474    247.91201 
   93650    95.466301   -434.51483    72823.249   -17219.642     1293.072   -18512.714    347.78417     243.1608 
   93700    96.591854   -694.94442    72797.121    -17207.59    1308.3174   -18515.907    348.09158    246.02768 
   93750    95.879904    -364.0053    72774.672   -17200.331    1298.6742   -18499.006     348.4717    244.21428 
   93800    93.080128   -624.69834    72831.936   -17184.846    1260.7518   -18445.597    348.32061    237.08302 
   93850    95.371414   -635.91589     72746.09   -17195.778    1291.7868   -18487.565    348.30209    242.91912 
   93900    95.552491   -724.23776    72691.085    -17211.29    1294.2395    -18505.53    348.53587    243.38034 
   93950     94.35762   -413.72681    72653.727   -17213.197    1278.0552   -18491.252    348.71887     240.3369 
   94000    93.787124   -801.69464     72601.81   -17299.832    1270.3279    -18570.16    348.80257     238.8838 
   94050     96.41306   -217.22615    72561.691   -17254.665    1305.8957   -18560.561    349.10846    245.57228 
   94100    93.921297   -383.63963    72608.526   -17243.158    1272.1453   -18515.303    349.67894    239.22555 
   94150    96.729127   -268.65544     72633.09   -17218.749    1310.1768   -18528.925    349.67822    246.37733 
   94200    94.411348   -166.09372    72709.498   -17238.201    1278.7829   -18516.984    350.51707    240.47375 
   94250    93.777258   -309.03514    72767.703   -17238.376    1270.1943   -18508.571    350.79774    238.85867 
   94300    93.544328   -522.95733     72764.45   -17278.905    1267.0393   -18545.945    350.62608    238.26537 
   94350     94.06919   -421.01409    72786.603   -17226.475    1274.1484   -18500.623    350.22905    239.60224 
   94400    95.266052   -473.59437    72848.445   -17210.997    1290.3597   -18501.357    350.33028    242.65075 
   94450     94.05227   -277.52283    72837.222   -17236.895    1273.9193   -18510.814    350.36944    239.55914 
   94500    92.836362   -401.93357    72808.256   -17231.288      1257.45   -18488.738    350.20978    236.46212 
   94550    98.455397   -97.740753    72862.298    -17236.95    1333.5587   -18570.509    350.50183    250.77428 
   94600    94.982583   -674.84335    72903.759   -17237.089    1286.5202   -18523.609    351.33512    241.92873 
   94650    93.035033   -576.57145    72839.485   -17250.455     1260.141   -18510.596    351.64996    236.96816 
   94700    98.399195   -288.07349    72779.929   -17213.952    1332.7975   -18546.749    352.16334    250.63113 
   94750    96.801195   -370.30218    72746.239    -17214.89    1311.1529   -18526.043    352.43441    246.56089 
   94800    95.911167    -369.2343    72730.839   -17230.948    1299.0977   -18530.046    352.82973    244.29391 
   94850    94.324727   -282.49977    72750.799   -17259.947    1277.6096   -18537.557    353.25806    240.25312 
   94900    92.266945   -321.62689     72790.74   -17265.078    1249.7374   -18514.815    352.96947    235.01177 
   94950    96.582692   -462.36223    72762.989   -17230.705    1308.1933   -18538.899     353.2571    246.00435 
   95000    95.320578   -278.95067    72750.198    -17256.09    1291.0982   -18547.189    353.04975    242.78963 
   95050    96.080598   -262.41861    72787.341   -17278.143    1301.3926   -18579.536    353.16732    244.72547 
   95100    94.629275   -606.50737    72771.619   -17264.068    1281.7347   -18545.803    353.84775    241.02883 
   95150    96.438403   -138.06155    72715.965   -17279.035     1306.239   -18585.274    353.73638    245.63683 
   95200    95.781763   -213.08533    72699.429   -17276.532    1297.3449   -18573.877    353.81035    243.96431 
   95250    98.719958   -660.26072    72718.073   -17258.231    1337.1422   -18595.373    353.69247    251.44814 
   95300    93.160977   -750.64359    72670.485   -17270.896    1261.8469   -18532.743    353.63676    237.28895 
   95350    97.136857   -69.449285    72693.663   -17246.958    1315.6994   -18562.658    354.02753    247.41585 
   95400    95.464378   -393.47198    72788.884   -17257.868     1293.046   -18550.914    354.48444     243.1559 
   95450    95.012922   -315.72749    72801.324   -17285.333    1286.9311   -18572.264    353.83651    242.00601 
   95500    94.348927   -556.25458    72816.867   -17263.997    1277.9374   -18541.935     354.3342    240.31476 
   95550    92.569375   -203.94908    72851.475   -17285.214    1253.8338   -18539.047    354.57247    235.78209 
   95600    93.813372   -533.49966    72837.775   -17312.272    1270.6834   -18582.955    354.20842    238.95065 
   95650    89.823278   -490.93042    72754.333   -17329.019    1216.6384   -18545.657    354.49352    228.78754 
   95700    91.055558   -67.454784    72828.271   -17303.626    1233.3294   -18536.956    354.28308    231.92626 
   95750    92.971236   -190.40148    72833.789   -17309.595    1259.2769   -18568.871    354.37515    236.80566 
   95800    92.481888   -231.74683    72829.826    -17268.31    1252.6488   -18520.959    354.44507    235.55925 
   95850    96.474092   -258.62373    72825.151   -17247.906    1306.7224   -18554.629    354.63122    245.72773 
   95900    92.533847   -185.58202    72848.241   -17246.794    1253.3525   -18500.147    355.04106    235.69159 
   95950     94.88409   -215.17724    72866.903   -17239.579    1285.1861   -18524.765    355.41276    241.67786 
   96000    92.441793   -267.81133    72978.894    -17277.08    1252.1057   -18529.185    356.26538    235.45712 
   96050    93.856453   -654.15866    73013.474   -17274.091     1271.267   -18545.358    356.62583    239.06038 
   96100    95.222174   -672.02593    72972.453   -17280.046    1289.7654   -18569.812     356.8703    242.53899 
   96150    98.282556   -467.49693    72927.331   -17244.497    1331.2176   -18575.715    356.89952    250.33404 
   96200    96.543136   -231.04101    72900.408   -17227.775    1307.6576   -18535.432    357.26964    245.90359 
   96250    95.997742   -35.467824    72931.781    -17237.63    1300.2703     -18537.9    357.44656    244.51443 
   96300    95.028996   -446.24901    72999.904   -17260.397    1287.1488   -18547.546    358.15949    242.04695 
   96350    95.120969   -562.74072    72965.061   -17244.756    1288.3946    -18533.15    357.85281    242.28121 
   96400    94.790506   -894.38531    72864.004   -17255.985    1283.9185   -18539.904    357.83457    241.43949 
   96450    93.833142   -190.97907    72846.182   -17271.017    1270.9512   -18541.968    358.37747    239.00101 
   96500    93.854319   -745.78548    72845.137   -17272.532    1271.2381    -18543.77    358.38868    239.05495 
   96550    93.872678   -719.08555    72799.752   -17290.594    1271.4867   -18562.081      358.327    239.10171 
   96600    94.149577   -674.53597    72716.961   -17270.088    1275.2373   -18545.325    357.64071    239.80699 
   96650    95.436467   -516.89813    72748.763   -17246.361    1292.6679   -18539.029    358.02787    243.08481 
   96700    93.936793   -694.70667    72735.074   -17249.705    1272.3552    -18522.06    358.80909    239.26502 
   96750    94.218423   -592.32479    72712.325   -17221.368    1276.1698   -18497.538    358.58173    239.98235 
   96800    94.954508   -532.73392    72683.805    -17208.99    1286.1399    -18495.13    358.69728    241.85722 
   96850    96.900292   -717.62807     72657.34   -17232.889    1312.4952   -18545.385     358.7288     246.8133 
   96900    97.400723   -644.03847    72599.681    -17203.36    1319.2734   -18522.634    358.46119    248.08794 
   96950    93.917273    -465.6976    72612.607   -17223.032    1272.0908   -18495.123    359.07733     239.2153 
   97000    93.337444   -262.60708    72596.613   -17187.834    1264.2371   -18452.072    359.04625    237.73842 
   97050    96.504936   -631.94713    72553.336   -17221.665    1307.1401   -18528.805    358.81969    245.80629 
   97100    94.749306   -480.78867    72535.638   -17186.233    1283.3605   -18469.594    358.59578    241.33456 
   97150    94.278545   -793.45072     72481.83   -17227.168    1276.9841   -18504.153    358.02765    240.13549 
   97200     94.66119   -475.87489    72460.709   -17241.481     1282.167   -18523.648     358.3501    241.11012 
   97250    94.351619   -418.31464    72428.397   -17222.189    1277.9739   -18500.163    357.88718    240.32161 
   97300    95.026791   -917.35143    72386.082   -17221.686     1287.119   -18508.805    357.93211    242.04133 
   97350    93.266972    -411.1015    72295.383   -17258.963    1263.2826   -18522.246    358.25762    237.55892 
   97400    95.094134   -534.55363    72323.517   -17256.821    1288.0311   -18544.852    358.58985    242.21286 
   97450    94.433675   -547.28583    72343.502   -17254.777    1279.0853   -18533.862    359.18036    240.53061 
   97500    96.929769   -379.93105     72370.55   -17238.293    1312.8944   -18551.187    359.79777    246.88838 
   97550    94.541786   -133.21736    72423.229   -17202.668    1280.5497   -18483.217    359.80605    240.80598 
   97600    91.768521   -436.94729    72470.591   -17251.769    1242.9863   -18494.755    360.08651    233.74224 
   97650    95.491093   -247.40585    72483.555   -17258.071    1293.4078   -18551.479    360.37346    243.22395 
   97700    93.412067   -821.97084    72510.282   -17239.973    1265.2478   -18505.221    360.55306    237.92849 
   97750    98.027751   -655.91952    72495.181   -17227.303    1327.7664    -18555.07    360.94401    249.68503 
   97800    95.047514   -413.80959    72477.894   -17203.143    1287.3996   -18490.543    361.64582    242.09412 
   97850    94.841016   -177.65051     72492.77   -17223.756    1284.6027   -18508.358    361.81944    241.56815 
   97900    95.320222   -649.71496     72550.77   -17221.393    1291.0934   -18512.486    361.55329    242.78873 
   97950    95.741121   -266.36787    72527.347   -17193.211    1296.7944   -18490.005    361.46083    243.86079 
   98000     96.07749   -431.06399    72578.355   -17166.316    1301.3505   -18467.667    361.19429    244.71755 
   98050    95.213859   -284.56635    72622.585   -17197.089    1289.6528   -18486.741    361.41386    242.51781 
   98100    93.816601    -446.5643    72654.027   -17188.551    1270.7272   -18459.278    361.58705    238.95888 
   98150    97.899211   -145.30244    72702.165   -17181.495    1326.0253    -18507.52    361.19501    249.35763 
   98200    96.202825   -544.96362    72770.969   -17171.487    1303.0481   -18474.535    362.06202    245.03679 
   98250     92.97217   -315.24182    72790.907   -17210.837    1259.2895   -18470.127    362.68819    236.80804 
   98300    93.916812   -395.08579    72789.504   -17254.187    1272.0845   -18526.271    363.06969    239.21412 
   98350    93.516386   -606.28167    72733.858    -17243.97    1266.6608   -18510.631    363.56205     238.1942 
   98400      94.9297   -595.41362    72698.159   -17273.409    1285.8039   -18559.213    364.31132    241.79403 
   98450    93.886603   -515.52233    72721.877   -17271.789    1271.6753   -18543.465    364.44123    239.13718 
   98500    92.086688   -316.11897    72762.568   -17278.292    1247.2959   -18525.588    363.81334    234.55264 
   98550     92.14329   -296.38183    72775.553   -17293.257    1248.0625    -18541.32    364.43438    234.69681 
   98600     94.96817    -756.6497     72693.07   -17286.705    1286.3249    -18573.03    364.28571    241.89202 
   98650    96.038649   -345.56843    72659.796   -17236.147    1300.8244   -18536.971     364.7349    244.61862 
   98700    95.774797   -368.89293    72661.285   -17219.325    1297.2506   -18516.575    365.18495    243.94657 
   98750    94.254639    -534.6641    72710.596   -17224.056    1276.6603   -18500.716     365.8231    240.07459 
   98800    95.545732   -464.41881    72751.911   -17201.038    1294.1479   -18495.186    365.37564    243.36312 
   98850    95.084151   -345.85198    72723.779   -17235.157    1287.8959   -18523.053     365.5989    242.18744 
   98900    92.859259   -490.20435     72727.82   -17245.592    1257.7602   -18503.352    365.53267    236.52045 
   98950    91.308285   -138.65317    72780.128   -17243.896    1236.7525   -18480.648    365.97813    232.56998 
   99000    90.904072   -502.27258    72797.648   -17273.356    1231.2776   -18504.633    366.27628    231.54042 
   99050    95.871058   -302.26993    72820.123   -17245.639    1298.5544   -18544.193    365.94829    244.19175 
   99100    94.500235    -272.2543    72813.184   -17216.998    1279.9869   -18496.985    365.25403    240.70015 
   99150    96.571681   -689.04507    72745.929   -17211.355    1308.0442   -18519.399     364.7792     245.9763 
   99200    92.154536   -441.73021     72725.38   -17237.751    1248.2148   -18485.966    365.11075    234.72546 
   99250    95.792433   -504.28991     72730.33   -17229.118    1297.4894   -18526.608    365.16533    243.99149 
   99300    92.927631   -517.24716    72770.296   -17287.794    1258.6863   -18546.481    365.58107    236.69459 
   99350    93.970365   -410.98263    72804.811    -17289.84    1272.8099    -18562.65    365.62574    239.35053 
   99400    96.393892    -337.2162    72847.902   -17311.039    1305.6361   -18616.675    366.22072    245.52346 
   99450    95.456085   -379.76487    72815.835   -17297.362    1292.9337   -18590.295    366.72881    243.13478 
   99500    93.254664   -509.83294    72759.656   -17316.586    1263.1159   -18579.702    366.84085    237.52758 
   99550    93.798253   -682.72838    72733.374   -17286.614    1270.4787   -18557.093    367.04168    238.91214 
   99600    96.170743   -509.55633    72751.852   -17249.427    1302.6136    -18552.04    366.97835    244.95508 
   99650    95.470478   -116.65953    72764.254   -17259.093    1293.1286   -18552.221    367.67478    243.17144 
   99700    95.551252   -89.447284    72786.531    -17256.01    1294.2227   -18550.233    368.71192    243.37718 
   99750    94.739071   -433.23728    72794.948    -17271.38    1283.2218   -18554.602    368.11026    241.30848 
   99800    94.470165   -359.47986    72821.213   -17281.557    1279.5796   -18561.136    367.66742    240.62356 
   99850    95.152116   -689.41046    72832.411    -17286.81    1288.8165   -18575.627    368.18156    242.36055 
   99900    96.758585   -539.00044    72828.906   -17293.141    1310.5758   -18603.716    368.17301    246.45236 
   99950    94.228869   -241.92252    72794.358   -17231.012    1276.3113   -18507.324    368.37697    240.00896 
  100000    95.566415    -480.7017    72778.475   -17252.903    1294.4281   -18547.331    369.08103     243.4158 
Loop time of 96.32 on 32 procs for 100000 steps with 4545 atoms

Performance: 448.505 ns/day, 0.054 hours/ns, 1038.206 timesteps/s
99.9% CPU use with 32 MPI tasks x no OpenMP threads

MPI task timing breakdown:
Section |  min time  |  avg time  |  max time  |%varavg| %total
---------------------------------------------------------------
Pair    | 56.891     | 64.153     | 72.397     |  80.0 | 66.60
Neigh   | 1.2322     | 2.8837     | 5.0113     |  95.5 |  2.99
Comm    | 12.934     | 22.627     | 31.344     | 161.5 | 23.49
Output  | 0.099999   | 0.10651    | 0.2397     |   7.3 |  0.11
Modify  | 4.485      | 5.65       | 6.8501     |  24.6 |  5.87
Other   |            | 0.8994     |            |       |  0.93

Nlocal:    142.031 ave 218 max 73 min
Histogram: 16 0 0 0 0 0 0 0 8 8
Nghost:    954.5 ave 1013 max 898 min
Histogram: 4 11 1 0 0 0 0 3 6 7
Neighs:    0 ave 0 max 0 min
Histogram: 32 0 0 0 0 0 0 0 0 0
FullNghs:  14616.8 ave 26531 max 3615 min
Histogram: 16 0 0 0 0 0 0 0 2 14

Total # of neighbors = 467736
Ave neighs/atom = 102.912
Neighbor list builds = 5680
Dangerous builds = 0

write_data		${DIR}/data.eq-${NAME}-${TEMP}
write_data		run_8/data.eq-${NAME}-${TEMP}
write_data		run_8/data.eq-het_freeze_8-${TEMP}
write_data		run_8/data.eq-het_freeze_8-240
undump          1

reset_timestep  0

unfix           2
unfix           3
unfix           4


################################################
#######         Run Simulation         #########
################################################

log				${DIR}/log.run_${NAME}
log				run_8/log.run_${NAME}
log				run_8/log.run_het_freeze_8
