LAMMPS data file via write_data, version 16 Mar 2018, timestep = 100000

6337 atoms
2 atom types

0.0000000000000000e+00 4.9219999999999999e+01 xlo xhi
0.0000000000000000e+00 4.9019635930410494e+01 ylo yhi
2.4347181455057232e+00 5.7627281854492267e+01 zlo zhi

Masses

1 18.015
2 12.01

Atoms # atomic

1542 1 3.1344284961068514e+00 2.1926610133297904e+00 4.2446369722331507e+00 0 0 1
341 1 2.9625377998685551e+00 1.0148797306292073e+01 7.9814248535788348e+00 0 0 0
3016 1 5.3912468832667875e+00 5.4051956215462382e-01 3.4712271131609702e+00 1 1 1
3318 1 5.5334718605956814e+00 3.8679985834831458e+00 5.0164094111752906e+00 1 1 0
6252 1 6.0687536505811455e+00 7.0447454614841449e+00 9.0520798123580590e+00 0 1 1
1913 1 1.0008960487688089e+01 4.7627608724979602e+00 3.7174811991351810e+00 1 0 0
3521 1 8.5891184427641036e+00 2.3273310884926701e+00 8.0375676147072497e+00 1 2 0
6006 1 8.4233877255469523e+00 1.0680525684325941e+01 7.8323753811481902e+00 0 1 1
4829 1 1.6873486504809796e+00 6.8852284636896925e+00 4.3400810063343087e+00 1 1 0
4582 1 5.4698479163127027e+00 7.6748248481110615e+00 4.8450640804169893e+00 1 1 1
5214 1 5.9635348811518067e+00 9.7046221433185273e+00 8.7517170517182912e+00 1 1 0
4830 1 1.0217126821636299e+01 7.3731424455214238e+00 4.5046643414442133e+00 0 1 0
1966 1 7.3823641697400717e+00 4.1914162406495032e+00 2.7497498002187881e+00 1 1 0
4705 1 1.3275511811484091e+00 6.5332567723882589e+00 8.7138471997180247e+00 0 0 1
3045 1 2.9595743899581737e+00 1.1370637929863992e+01 4.1797545863737762e+00 0 1 1
6268 1 7.8325990851828156e+00 9.2595574324252397e+00 5.2188347842002383e+00 0 0 0
5219 1 1.2290321458233640e+00 2.7775984656263959e+00 6.7074426234555640e+00 1 1 1
4988 1 5.7875190986636742e+00 2.3024492596271489e+00 7.4420348183110576e+00 0 1 0
337 1 7.6264972950651062e+00 1.0975855039249534e+01 3.1752883540974288e+00 0 0 0
3212 1 9.2961591250288187e+00 4.7689929504695799e-01 5.8751363651475694e+00 0 0 1
450 1 2.0705934862425974e+00 5.3515748806682630e+00 6.6436577125672702e+00 1 0 0
1986 1 3.3312341821549318e+00 1.5954181762640249e+00 8.5175036725618440e+00 1 1 0
3048 1 1.0482059267686198e+01 8.6033542606128321e+00 7.0891548199970336e+00 0 1 1
6042 1 4.9563593160017829e+00 5.8694186648674878e+00 6.7860826552353695e+00 0 1 1
3419 1 1.0304725265837956e+01 3.7619685302902588e+00 6.2749922455169713e+00 0 0 0
4549 1 1.0540998432915154e+01 6.0584643103638747e-01 3.1417272790699702e+00 0 0 1
5077 1 3.0636494910895546e+00 9.0229837539209754e+00 5.3800028980365084e+00 1 1 0
5073 1 6.6266078129305228e-01 1.0530976695158614e+01 2.6044860563544052e+00 1 1 0
5063 1 6.6447377217748942e+00 1.7499446428024612e-01 5.7984773244691166e+00 1 0 0
1811 1 5.3882857128367796e+00 4.8379165190000748e+00 1.5807941794979769e+01 0 1 0
2957 1 9.0549172303413172e+00 3.5402042961135773e+00 1.0406126315144963e+01 0 1 0
2034 1 5.3051962970046986e+00 1.2073583205846816e+01 1.5180297521412506e+01 0 1 1
69 1 7.3902774499054553e+00 6.9255233782665373e+00 1.2947260312147085e+01 -1 0 0
71 1 2.4944567860453764e+00 4.1156066320739937e+00 1.0802299763505571e+01 0 -1 1
4720 1 3.5398240858027035e+00 6.9824871190626485e+00 1.0368289252916018e+01 1 2 1
4746 1 4.8045175956071926e+00 7.7586284506280521e+00 1.2764194586684248e+01 1 0 0
1513 1 8.0981054429887571e+00 6.1238141984957739e+00 1.0411578237468605e+01 0 0 1
1874 1 1.5495778118196659e+00 1.0876637471043223e+01 1.3617425608602883e+01 0 0 0
3011 1 1.1773955444741995e+01 3.2451835804973008e+00 1.1316316066578977e+01 1 1 1
5053 1 3.8447707909342581e+00 9.7602043803096894e+00 1.4621790696805871e+01 0 1 0
4986 1 1.0542877851673435e+01 7.5295035862939264e+00 9.7291267395412113e+00 0 0 0
4603 1 8.5309603579366708e+00 1.0815368420218936e+01 1.0862514050535939e+01 1 1 1
5035 1 5.5154171828197729e+00 1.0377585818088942e+01 1.1430005528400603e+01 -1 0 0
1792 1 9.0427541334199066e+00 8.8859502323196740e+00 1.3879127800234039e+01 0 1 0
3127 1 8.0515733683450872e+00 1.1291831333057150e+01 1.5273953109376842e+01 -1 0 0
5184 1 2.7591578704415367e+00 1.0663717881929959e+01 1.1095402385027212e+01 1 0 0
5045 1 1.1891404205017603e+01 9.0423605044928408e+00 1.3414006029408631e+01 0 0 0
227 1 3.2917466706579832e+00 1.6580793411016999e+00 1.4532117859519687e+01 0 -1 0
1880 1 2.2560580043594176e+00 3.7353365328883319e+00 1.3433866215425299e+01 1 0 1
1667 1 5.2659841828112111e+00 4.7365466112003968e-01 1.2750295175570111e+01 0 1 0
3460 1 7.8036666993217549e+00 2.1518918487768377e+00 1.2826089583495083e+01 1 0 0
373 1 9.6409004852283999e+00 9.4526907915087210e-01 1.4215998314312658e+01 -1 0 0
3472 1 1.1622443749659393e+01 2.9648804088240293e+00 1.4094262858100963e+01 0 0 0
2877 1 3.1993115656653122e+00 6.2133574952474042e+00 1.4728625864448388e+01 0 1 1
3445 1 1.0293704914780603e+01 4.8220127179586507e+00 1.5626356700872185e+01 0 1 0
4991 1 7.8242119547503934e+00 4.5795972106101575e+00 1.4338092710453067e+01 0 1 1
4577 1 1.1890148676813467e+01 1.1935024376595573e+01 1.4876051632388794e+01 0 1 1
3368 1 1.1593000994377054e+01 1.0086392333694082e+01 1.1007821177038137e+01 -1 0 0
1723 1 6.7150979419610635e-01 1.2077787788159714e+01 1.6025392279750832e+01 0 0 1
3606 1 3.9208005187935981e+00 2.6884304532136043e+00 1.7092830209608433e+01 1 0 1
1903 1 6.0047682627537693e+00 2.3047307535948591e+00 1.9168326803061824e+01 1 1 0
389 1 1.0669210876545359e+01 5.0408019077233766e+00 2.2835258728193200e+01 1 0 0
5127 1 9.0292888575034169e+00 2.6203507152710599e+00 1.9021700926224518e+01 0 0 0
1750 1 9.2571680320294814e+00 3.5868079971487377e-01 1.6909086949355348e+01 0 0 0
1484 1 2.1199010399855611e+00 6.5850646634762784e+00 1.7063732006808536e+01 1 1 0
477 1 2.1157690805254128e+00 4.0888188061903534e+00 1.8707590896867888e+01 1 0 0
4949 1 6.8197072782389254e+00 6.7569402144531070e+00 1.7410591623387823e+01 1 0 0
1628 1 7.7751228895132209e+00 5.4194422138557856e+00 1.9558551278761637e+01 0 0 0
2989 1 2.7720552186488376e+00 1.0572353161346918e+01 1.9674132780165476e+01 0 1 1
5320 1 3.2875238059921599e+00 9.1952581023440150e+00 1.7194320749112514e+01 0 0 0
6317 1 5.4915388574196697e+00 8.6329853715322162e+00 1.9092994511433698e+01 1 0 1
2913 1 7.4386171918992625e+00 1.0556862842224414e+01 1.8169154794369504e+01 0 0 1
6284 1 1.0043977677995549e+01 9.3442963070110103e+00 1.8675043673087590e+01 1 0 0
2907 1 8.2847699222184872e+00 8.8228327984669832e+00 2.1275003784224584e+01 0 1 1
1968 1 2.2351352078278337e+00 3.3616401301981109e+00 2.1485381561679453e+01 0 1 0
4747 1 4.4708601254215452e+00 1.5735104458733327e+00 2.1517373626230430e+01 0 0 0
1320 1 4.5024103628942074e+00 9.5477866739519772e+00 2.1959875106920055e+01 0 -2 1
3175 1 1.1129776166168099e+01 4.2452390849028729e+00 1.8058715159085931e+01 1 0 1
1887 1 1.0264312072423607e+01 1.9141301573619698e+00 2.1476445576171589e+01 0 0 0
212 1 9.8575323893495781e-01 6.3943384342049860e+00 2.1638736874830510e+01 0 0 0
1385 1 4.1480563891578681e+00 6.8049092565570835e+00 2.1682585003557918e+01 0 0 1
2870 1 5.8183117739170838e+00 4.6554530961445542e+00 2.1364032204176954e+01 0 1 1
5091 1 6.6567299286678514e+00 1.1127851621955179e+01 2.1767491215820311e+01 1 1 0
2120 1 1.0275951179572152e+01 6.2826360658171128e+00 2.0262089545272801e+01 0 1 1
3355 1 6.3732476858081810e-01 9.0573517737328313e+00 2.1127859385750099e+01 0 1 0
3435 1 3.0069181377892990e-01 1.4853478732578189e+00 2.0973337504968235e+01 1 0 0
5097 1 1.2075034141789731e+01 1.0168131925894347e+01 1.7005583741059706e+01 0 0 0
3560 1 1.4692849573576819e-02 1.0164635004064579e+01 1.8012783691824040e+01 1 1 0
4570 1 9.2814792087858713e+00 7.4801344124754250e+00 1.6428364348037327e+01 1 0 1
3504 1 5.1110585258162278e+00 1.2166429877623276e+01 1.8502590643172958e+01 0 1 0
4447 1 3.3534897447246461e+00 9.6347413705543949e-01 2.4493755507168498e+01 0 0 1
1853 1 9.5601133500739244e-01 3.0028576181919209e+00 2.4189143042569306e+01 1 0 0
728 2 8.6134999999999984e+00 1.0656442593567498e+01 2.6852630736565050e+01 0 0 0
4496 1 9.1816181953930300e+00 1.8187791909387601e+00 2.3957400771903099e+01 1 0 1
4784 1 6.4900018497719074e+00 4.5151828462637544e+00 2.4130370695054037e+01 0 0 0
1397 1 1.4646377035376195e+00 6.0402569827234016e+00 2.4258411673833464e+01 0 0 0
351 1 4.3480063440587013e+00 6.3238776651799968e+00 2.4573202513162098e+01 0 0 1
3650 1 3.4475628482407137e+00 1.0920457978383691e+01 2.4450474888159466e+01 0 0 0
395 1 8.7522328811957841e+00 8.6653528105846860e+00 2.3978930748630294e+01 0 0 0
294 1 8.5186468214694742e+00 5.9028385957887775e+00 2.4472634211633789e+01 -1 1 0
730 2 9.8440000000000012e+00 1.1366872099805333e+01 2.6852630736565050e+01 0 0 0
4800 1 7.9837121338765893e-01 1.0258249268478545e+01 2.3559477664523467e+01 1 0 1
687 2 8.6134999999999984e+00 9.2355835810918343e+00 2.6852630736565050e+01 0 0 0
3634 1 5.4218492622908450e+00 8.8073112184989810e+00 2.4649412971350426e+01 1 0 1
3493 1 7.6288142066239510e+00 1.1312932826148884e+01 2.4488582483433191e+01 1 1 0
554 2 0.0000000000000000e+00 2.8417180249513345e+00 2.6852630736565050e+01 0 0 0
556 2 0.0000000000000000e+00 0.0000000000000000e+00 2.6852630736565050e+01 0 0 0
558 2 1.2305000000000001e+00 7.1042950623783474e-01 2.6852630736565050e+01 0 0 0
565 2 1.2305000000000001e+00 2.1312885187134998e+00 2.6852630736565050e+01 0 0 0
567 2 2.4610000000000003e+00 2.8417180249513345e+00 2.6852630736565050e+01 0 0 0
569 2 2.4610000000000003e+00 0.0000000000000000e+00 2.6852630736565050e+01 0 0 0
571 2 3.6915000000000004e+00 7.1042950623783474e-01 2.6852630736565050e+01 0 0 0
586 2 3.6914999999999996e+00 2.1312885187134998e+00 2.6852630736565050e+01 0 0 0
588 2 4.9220000000000006e+00 2.8417180249513332e+00 2.6852630736565050e+01 0 0 0
590 2 4.9220000000000006e+00 0.0000000000000000e+00 2.6852630736565050e+01 0 0 0
592 2 6.1524999999999999e+00 7.1042950623783407e-01 2.6852630736565050e+01 0 0 0
615 2 6.1524999999999999e+00 2.1312885187134989e+00 2.6852630736565050e+01 0 0 0
617 2 7.3829999999999991e+00 2.8417180249513345e+00 2.6852630736565050e+01 0 0 0
619 2 7.3829999999999991e+00 0.0000000000000000e+00 2.6852630736565050e+01 0 0 0
621 2 8.6134999999999984e+00 7.1042950623783407e-01 2.6852630736565050e+01 0 0 0
652 2 8.6134999999999984e+00 2.1312885187135002e+00 2.6852630736565050e+01 0 0 0
654 2 9.8440000000000012e+00 2.8417180249513332e+00 2.6852630736565050e+01 0 0 0
656 2 9.8440000000000012e+00 0.0000000000000000e+00 2.6852630736565050e+01 0 0 0
658 2 1.1074500000000002e+01 7.1042950623783330e-01 2.6852630736565050e+01 0 0 0
697 2 1.1074500000000002e+01 2.1312885187135002e+00 2.6852630736565050e+01 0 0 0
561 2 0.0000000000000000e+00 4.2625770374269996e+00 2.6852630736565050e+01 0 0 0
563 2 1.2305000000000001e+00 4.9730065436648339e+00 2.6852630736565050e+01 0 0 0
578 2 1.2305000000000001e+00 6.3938655561404980e+00 2.6852630736565050e+01 0 0 0
582 2 2.4610000000000003e+00 4.2625770374269996e+00 2.6852630736565050e+01 0 0 0
584 2 3.6914999999999996e+00 4.9730065436648339e+00 2.6852630736565050e+01 0 0 0
607 2 3.6914999999999996e+00 6.3938655561404980e+00 2.6852630736565050e+01 0 0 0
559 2 0.0000000000000000e+00 7.1042950623783341e+00 2.6852630736565050e+01 0 0 0
580 2 2.4610000000000003e+00 7.1042950623783341e+00 2.6852630736565050e+01 0 0 0
611 2 4.9220000000000006e+00 4.2625770374269978e+00 2.6852630736565050e+01 0 0 0
613 2 6.1524999999999999e+00 4.9730065436648339e+00 2.6852630736565050e+01 0 0 0
644 2 6.1524999999999999e+00 6.3938655561404980e+00 2.6852630736565050e+01 0 0 0
648 2 7.3829999999999991e+00 4.2625770374269996e+00 2.6852630736565050e+01 0 0 0
609 2 4.9220000000000006e+00 7.1042950623783341e+00 2.6852630736565050e+01 0 0 0
646 2 7.3830000000000009e+00 7.1042950623783341e+00 2.6852630736565050e+01 0 0 0
650 2 8.6135000000000002e+00 4.9730065436648339e+00 2.6852630736565050e+01 0 0 0
689 2 8.6135000000000002e+00 6.3938655561404980e+00 2.6852630736565050e+01 0 0 0
693 2 9.8440000000000012e+00 4.2625770374270004e+00 2.6852630736565050e+01 0 0 0
695 2 1.1074500000000002e+01 4.9730065436648339e+00 2.6852630736565050e+01 0 0 0
736 2 1.1074500000000002e+01 6.3938655561404980e+00 2.6852630736565050e+01 0 0 0
691 2 9.8440000000000012e+00 7.1042950623783341e+00 2.6852630736565050e+01 0 0 0
574 2 0.0000000000000000e+00 8.5251540748539991e+00 2.6852630736565050e+01 0 0 0
576 2 1.2305000000000001e+00 9.2355835810918343e+00 2.6852630736565050e+01 0 0 0
603 2 2.4610000000000003e+00 8.5251540748539991e+00 2.6852630736565050e+01 0 0 0
605 2 3.6915000000000004e+00 9.2355835810918343e+00 2.6852630736565050e+01 0 0 0
572 2 0.0000000000000000e+00 1.1366872099805333e+01 2.6852630736565050e+01 0 0 0
599 2 1.2305000000000001e+00 1.0656442593567498e+01 2.6852630736565050e+01 0 0 0
601 2 2.4610000000000003e+00 1.1366872099805333e+01 2.6852630736565050e+01 0 0 0
636 2 3.6914999999999996e+00 1.0656442593567499e+01 2.6852630736565050e+01 0 0 0
683 2 7.3829999999999991e+00 1.1366872099805333e+01 2.6852630736565050e+01 0 0 0
640 2 4.9220000000000006e+00 8.5251540748539991e+00 2.6852630736565050e+01 0 0 0
642 2 6.1524999999999999e+00 9.2355835810918343e+00 2.6852630736565050e+01 0 0 0
685 2 7.3830000000000009e+00 8.5251540748539991e+00 2.6852630736565050e+01 0 0 0
638 2 4.9220000000000006e+00 1.1366872099805333e+01 2.6852630736565050e+01 0 0 0
681 2 6.1524999999999999e+00 1.0656442593567499e+01 2.6852630736565050e+01 0 0 0
775 2 1.1074500000000002e+01 1.0656442593567498e+01 2.6852630736565050e+01 0 0 0
732 2 9.8440000000000012e+00 8.5251540748539956e+00 2.6852630736565050e+01 0 0 0
777 2 1.2304999999999998e+01 1.1366872099805333e+01 2.6852630736565050e+01 0 0 0
734 2 1.1074500000000002e+01 9.2355835810918343e+00 2.6852630736565050e+01 0 0 0
4751 1 1.1399569824455858e+01 9.1203741798262961e+00 2.4700225710825460e+01 1 1 1
195 1 6.3158667377993574e+00 2.0300259302798160e+00 2.4110585935956596e+01 0 1 0
249 1 1.0002431494257458e+00 3.5251338175612545e-05 2.3192309128485302e+01 1 1 1
555 2 0.0000000000000000e+00 1.4208590124756650e+00 3.0030999999999029e+01 0 0 0
557 2 0.0000000000000000e+00 0.0000000000000000e+00 3.0030999999999029e+01 0 0 0
566 2 1.2305000000000001e+00 2.1312885187134998e+00 3.0030999999999029e+01 0 0 0
568 2 2.4610000000000003e+00 1.4208590124756650e+00 3.0030999999999029e+01 0 0 0
570 2 2.4610000000000003e+00 0.0000000000000000e+00 3.0030999999999029e+01 0 0 0
587 2 3.6914999999999996e+00 2.1312885187134998e+00 3.0030999999999029e+01 0 0 0
564 2 1.2305000000000001e+00 3.5521475311891644e+00 3.0030999999999029e+01 0 0 0
585 2 3.6914999999999996e+00 3.5521475311891644e+00 3.0030999999999029e+01 0 0 0
883 2 0.0000000000000000e+00 2.8417180249513345e+00 3.3209369263432023e+01 0 0 0
884 2 0.0000000000000000e+00 0.0000000000000000e+00 3.3209369263432023e+01 0 0 0
885 2 1.2305000000000001e+00 7.1042950623783474e-01 3.3209369263432023e+01 0 0 0
889 2 1.2305000000000001e+00 2.1312885187134998e+00 3.3209369263432023e+01 0 0 0
890 2 2.4610000000000003e+00 2.8417180249513345e+00 3.3209369263432023e+01 0 0 0
891 2 2.4610000000000003e+00 0.0000000000000000e+00 3.3209369263432023e+01 0 0 0
892 2 3.6915000000000004e+00 7.1042950623783474e-01 3.3209369263432023e+01 0 0 0
900 2 3.6914999999999996e+00 2.1312885187134998e+00 3.3209369263432023e+01 0 0 0
589 2 4.9220000000000006e+00 1.4208590124756650e+00 3.0030999999999029e+01 0 0 0
591 2 4.9220000000000006e+00 0.0000000000000000e+00 3.0030999999999029e+01 0 0 0
616 2 6.1524999999999999e+00 2.1312885187134989e+00 3.0030999999999029e+01 0 0 0
618 2 7.3829999999999991e+00 1.4208590124756659e+00 3.0030999999999029e+01 0 0 0
620 2 7.3829999999999991e+00 0.0000000000000000e+00 3.0030999999999029e+01 0 0 0
614 2 6.1524999999999999e+00 3.5521475311891644e+00 3.0030999999999029e+01 0 0 0
901 2 4.9220000000000006e+00 2.8417180249513332e+00 3.3209369263432023e+01 0 0 0
902 2 4.9220000000000006e+00 0.0000000000000000e+00 3.3209369263432023e+01 0 0 0
903 2 6.1524999999999999e+00 7.1042950623783407e-01 3.3209369263432023e+01 0 0 0
915 2 6.1524999999999999e+00 2.1312885187134989e+00 3.3209369263432023e+01 0 0 0
916 2 7.3829999999999991e+00 2.8417180249513345e+00 3.3209369263432023e+01 0 0 0
917 2 7.3829999999999991e+00 0.0000000000000000e+00 3.3209369263432023e+01 0 0 0
653 2 8.6134999999999984e+00 2.1312885187135002e+00 3.0030999999999029e+01 0 0 0
655 2 9.8440000000000012e+00 1.4208590124756659e+00 3.0030999999999029e+01 0 0 0
657 2 9.8440000000000012e+00 0.0000000000000000e+00 3.0030999999999029e+01 0 0 0
698 2 1.1074500000000002e+01 2.1312885187135002e+00 3.0030999999999029e+01 0 0 0
651 2 8.6134999999999984e+00 3.5521475311891657e+00 3.0030999999999029e+01 0 0 0
696 2 1.1074500000000002e+01 3.5521475311891644e+00 3.0030999999999029e+01 0 0 0
918 2 8.6134999999999984e+00 7.1042950623783407e-01 3.3209369263432023e+01 0 0 0
934 2 8.6134999999999984e+00 2.1312885187135002e+00 3.3209369263432023e+01 0 0 0
935 2 9.8440000000000012e+00 2.8417180249513332e+00 3.3209369263432023e+01 0 0 0
936 2 9.8440000000000012e+00 0.0000000000000000e+00 3.3209369263432023e+01 0 0 0
937 2 1.1074500000000002e+01 7.1042950623783330e-01 3.3209369263432023e+01 0 0 0
957 2 1.1074500000000002e+01 2.1312885187135002e+00 3.3209369263432023e+01 0 0 0
560 2 0.0000000000000000e+00 5.6834360499026637e+00 3.0030999999999029e+01 0 0 0
562 2 0.0000000000000000e+00 4.2625770374269996e+00 3.0030999999999029e+01 0 0 0
579 2 1.2305000000000001e+00 6.3938655561404980e+00 3.0030999999999029e+01 0 0 0
581 2 2.4610000000000003e+00 5.6834360499026637e+00 3.0030999999999029e+01 0 0 0
583 2 2.4610000000000003e+00 4.2625770374269996e+00 3.0030999999999029e+01 0 0 0
608 2 3.6914999999999996e+00 6.3938655561404980e+00 3.0030999999999029e+01 0 0 0
577 2 1.2305000000000001e+00 7.8147245686161639e+00 3.0030999999999029e+01 0 0 0
606 2 3.6914999999999996e+00 7.8147245686161639e+00 3.0030999999999029e+01 0 0 0
887 2 0.0000000000000000e+00 4.2625770374269996e+00 3.3209369263432023e+01 0 0 0
888 2 1.2305000000000001e+00 4.9730065436648339e+00 3.3209369263432023e+01 0 0 0
896 2 1.2305000000000001e+00 6.3938655561404980e+00 3.3209369263432023e+01 0 0 0
898 2 2.4610000000000003e+00 4.2625770374269996e+00 3.3209369263432023e+01 0 0 0
899 2 3.6914999999999996e+00 4.9730065436648339e+00 3.3209369263432023e+01 0 0 0
911 2 3.6914999999999996e+00 6.3938655561404980e+00 3.3209369263432023e+01 0 0 0
886 2 0.0000000000000000e+00 7.1042950623783341e+00 3.3209369263432023e+01 0 0 0
897 2 2.4610000000000003e+00 7.1042950623783341e+00 3.3209369263432023e+01 0 0 0
610 2 4.9220000000000006e+00 5.6834360499026637e+00 3.0030999999999029e+01 0 0 0
612 2 4.9220000000000006e+00 4.2625770374269978e+00 3.0030999999999029e+01 0 0 0
645 2 6.1524999999999999e+00 6.3938655561404980e+00 3.0030999999999029e+01 0 0 0
647 2 7.3829999999999991e+00 5.6834360499026637e+00 3.0030999999999029e+01 0 0 0
649 2 7.3829999999999991e+00 4.2625770374269996e+00 3.0030999999999029e+01 0 0 0
643 2 6.1524999999999999e+00 7.8147245686161639e+00 3.0030999999999029e+01 0 0 0
913 2 4.9220000000000006e+00 4.2625770374269978e+00 3.3209369263432023e+01 0 0 0
914 2 6.1524999999999999e+00 4.9730065436648339e+00 3.3209369263432023e+01 0 0 0
930 2 6.1524999999999999e+00 6.3938655561404980e+00 3.3209369263432023e+01 0 0 0
932 2 7.3829999999999991e+00 4.2625770374269996e+00 3.3209369263432023e+01 0 0 0
912 2 4.9220000000000006e+00 7.1042950623783341e+00 3.3209369263432023e+01 0 0 0
931 2 7.3830000000000009e+00 7.1042950623783341e+00 3.3209369263432023e+01 0 0 0
690 2 8.6135000000000002e+00 6.3938655561404980e+00 3.0030999999999029e+01 0 0 0
692 2 9.8440000000000012e+00 5.6834360499026637e+00 3.0030999999999029e+01 0 0 0
694 2 9.8440000000000012e+00 4.2625770374270004e+00 3.0030999999999029e+01 0 0 0
737 2 1.1074500000000002e+01 6.3938655561404980e+00 3.0030999999999029e+01 0 0 0
688 2 8.6135000000000002e+00 7.8147245686161639e+00 3.0030999999999029e+01 0 0 0
735 2 1.1074500000000002e+01 7.8147245686161639e+00 3.0030999999999029e+01 0 0 0
933 2 8.6135000000000002e+00 4.9730065436648339e+00 3.3209369263432023e+01 0 0 0
953 2 8.6135000000000002e+00 6.3938655561404980e+00 3.3209369263432023e+01 0 0 0
955 2 9.8440000000000012e+00 4.2625770374270004e+00 3.3209369263432023e+01 0 0 0
956 2 1.1074500000000002e+01 4.9730065436648339e+00 3.3209369263432023e+01 0 0 0
977 2 1.1074500000000002e+01 6.3938655561404980e+00 3.3209369263432023e+01 0 0 0
954 2 9.8440000000000012e+00 7.1042950623783341e+00 3.3209369263432023e+01 0 0 0
573 2 0.0000000000000000e+00 9.9460130873296642e+00 3.0030999999999029e+01 0 0 0
575 2 0.0000000000000000e+00 8.5251540748539991e+00 3.0030999999999029e+01 0 0 0
602 2 2.4610000000000003e+00 9.9460130873296642e+00 3.0030999999999029e+01 0 0 0
604 2 2.4610000000000003e+00 8.5251540748539991e+00 3.0030999999999029e+01 0 0 0
598 2 1.2305000000000001e+00 1.2077301606043163e+01 3.0030999999999029e+01 0 0 0
600 2 1.2305000000000001e+00 1.0656442593567498e+01 3.0030999999999029e+01 0 0 0
635 2 3.6914999999999996e+00 1.2077301606043163e+01 3.0030999999999029e+01 0 0 0
637 2 3.6914999999999996e+00 1.0656442593567499e+01 3.0030999999999029e+01 0 0 0
894 2 0.0000000000000000e+00 8.5251540748539991e+00 3.3209369263432023e+01 0 0 0
895 2 1.2305000000000001e+00 9.2355835810918343e+00 3.3209369263432023e+01 0 0 0
909 2 2.4610000000000003e+00 8.5251540748539991e+00 3.3209369263432023e+01 0 0 0
910 2 3.6915000000000004e+00 9.2355835810918343e+00 3.3209369263432023e+01 0 0 0
893 2 0.0000000000000000e+00 1.1366872099805333e+01 3.3209369263432023e+01 0 0 0
907 2 1.2305000000000001e+00 1.0656442593567498e+01 3.3209369263432023e+01 0 0 0
908 2 2.4610000000000003e+00 1.1366872099805333e+01 3.3209369263432023e+01 0 0 0
926 2 3.6914999999999996e+00 1.0656442593567499e+01 3.3209369263432023e+01 0 0 0
639 2 4.9220000000000006e+00 9.9460130873296642e+00 3.0030999999999029e+01 0 0 0
641 2 4.9220000000000006e+00 8.5251540748539991e+00 3.0030999999999029e+01 0 0 0
684 2 7.3830000000000009e+00 9.9460130873296642e+00 3.0030999999999029e+01 0 0 0
686 2 7.3830000000000009e+00 8.5251540748539991e+00 3.0030999999999029e+01 0 0 0
680 2 6.1524999999999999e+00 1.2077301606043163e+01 3.0030999999999029e+01 0 0 0
682 2 6.1524999999999999e+00 1.0656442593567499e+01 3.0030999999999029e+01 0 0 0
928 2 4.9220000000000006e+00 8.5251540748539991e+00 3.3209369263432023e+01 0 0 0
929 2 6.1524999999999999e+00 9.2355835810918343e+00 3.3209369263432023e+01 0 0 0
951 2 7.3830000000000009e+00 8.5251540748539991e+00 3.3209369263432023e+01 0 0 0
927 2 4.9220000000000006e+00 1.1366872099805333e+01 3.3209369263432023e+01 0 0 0
949 2 6.1524999999999999e+00 1.0656442593567499e+01 3.3209369263432023e+01 0 0 0
950 2 7.3829999999999991e+00 1.1366872099805333e+01 3.3209369263432023e+01 0 0 0
731 2 9.8440000000000012e+00 9.9460130873296642e+00 3.0030999999999029e+01 0 0 0
733 2 9.8440000000000012e+00 8.5251540748539956e+00 3.0030999999999029e+01 0 0 0
727 2 8.6135000000000002e+00 1.2077301606043163e+01 3.0030999999999029e+01 0 0 0
729 2 8.6134999999999984e+00 1.0656442593567498e+01 3.0030999999999029e+01 0 0 0
774 2 1.1074500000000002e+01 1.2077301606043163e+01 3.0030999999999029e+01 0 0 0
776 2 1.1074500000000002e+01 1.0656442593567498e+01 3.0030999999999029e+01 0 0 0
952 2 8.6134999999999984e+00 9.2355835810918343e+00 3.3209369263432023e+01 0 0 0
975 2 9.8440000000000012e+00 8.5251540748539956e+00 3.3209369263432023e+01 0 0 0
976 2 1.1074500000000002e+01 9.2355835810918343e+00 3.3209369263432023e+01 0 0 0
973 2 8.6134999999999984e+00 1.0656442593567498e+01 3.3209369263432023e+01 0 0 0
974 2 9.8440000000000012e+00 1.1366872099805333e+01 3.3209369263432023e+01 0 0 0
997 2 1.1074500000000002e+01 1.0656442593567498e+01 3.3209369263432023e+01 0 0 0
998 2 1.2304999999999998e+01 1.1366872099805333e+01 3.3209369263432023e+01 0 0 0
4543 1 3.4606681627286227e+00 1.5023510491256293e+00 3.6547415255249362e+01 1 1 0
2867 1 8.3651941860904646e+00 8.6618695785096858e+00 3.6226379219171690e+01 0 0 0
1684 1 7.0930744924040363e+00 2.4584934978756334e+00 3.5954001073230714e+01 1 1 -1
1474 1 9.6377249713232072e+00 2.5168471722081942e+00 3.6533255049472501e+01 0 1 0
6167 1 1.2855919738771091e+00 2.9626785642718700e+00 3.6176688050241012e+01 0 0 -1
2922 1 8.3510903409635979e+00 6.0467345770415459e+00 3.5645340067630769e+01 0 1 0
3114 1 2.5577640943576836e+00 5.7067905597708917e+00 3.5491948286169020e+01 0 1 -1
2990 1 5.1169449670381342e+00 4.3796484871309023e+00 3.5722661901308683e+01 1 1 0
6272 1 1.0737228553696786e+01 4.8886921609023322e+00 3.5920287107631253e+01 0 -1 0
3665 1 2.2588097831186253e+00 1.0860406332426095e+01 3.5799867476620406e+01 1 0 0
6102 1 3.4455270721783240e+00 8.2948001575333770e+00 3.6029277507925457e+01 1 1 0
2153 1 5.9891177503322091e+00 9.8850781246911215e+00 3.5703675527004847e+01 -1 0 0
1670 1 1.0622163668518427e+01 1.0425582093751020e+01 3.5930911062849688e+01 1 1 -1
4561 1 8.3626492188860299e-02 7.3174306979361727e+00 3.6202291607361374e+01 0 1 0
4591 1 1.1652650710092290e+01 7.3821720960488568e-01 3.5832180158099675e+01 0 0 0
1775 1 1.9240017903731088e+00 4.3086395125489423e+00 3.8693784360225195e+01 0 1 -1
4459 1 2.4041542957979418e+00 9.3129342654411640e-01 3.9150899907163421e+01 1 0 0
6305 1 6.9610322017208190e+00 1.0892886534374306e+01 4.2832016979955611e+01 0 0 -1
6173 1 5.6027327442279020e+00 2.0481752800573472e+00 3.8794520607166717e+01 1 1 0
4464 1 1.0423700162056438e+01 2.6010219815714195e+00 4.0797759683493496e+01 0 0 0
2019 1 7.6068782744737700e+00 2.8391944370094286e+00 4.2022943681028352e+01 0 0 -1
4816 1 1.1972421514782690e+01 1.0466055325586803e+01 4.1682308695785466e+01 1 0 -1
6260 1 4.4552629840886038e+00 5.9861567779672908e+00 3.8354608920843560e+01 1 1 -1
492 1 6.3134338843536719e+00 5.1137514008022737e+00 4.0887598289104019e+01 0 0 0
1313 1 7.3307771811240139e+00 5.1367730576601387e+00 3.8081531376131224e+01 0 0 0
3070 1 1.0679858492271178e+01 6.9809551439396103e+00 4.0308912887980185e+01 1 0 -1
1274 1 2.4405290014643239e+00 1.1207537188951324e+01 3.8545132350393700e+01 1 -1 0
6112 1 4.3502617893980435e+00 8.9849512063174970e+00 3.8975377148184535e+01 0 0 -1
1408 1 6.8642470181160693e+00 1.0251412850565327e+01 3.9930971124979521e+01 0 0 0
2862 1 9.3592896643595882e+00 1.1627954824171420e+01 4.3062074440604974e+01 1 0 0
3102 1 8.1754097230323772e+00 7.9131992735463959e+00 3.9061090045252229e+01 0 1 0
1248 1 3.9868276495032995e+00 5.7060064482923440e+00 4.2366754593753967e+01 1 0 0
1804 1 1.9421251263451249e+00 3.4632956234189356e+00 4.1857028359435560e+01 1 0 0
4894 1 4.0865490989120028e+00 1.6772680159895801e+00 4.1316826980878886e+01 1 1 0
5201 1 1.1409984902228265e+01 2.7589427272059561e+00 4.3252714058030293e+01 1 1 0
4962 1 2.5946829819946720e+00 7.7051564737735072e+00 4.0796925551333473e+01 1 1 -1
4958 1 1.1801903069300883e+01 6.0403788004291066e+00 4.2771302858570152e+01 0 0 -1
2086 1 1.0323414205020471e+01 9.9349446606902418e+00 3.8988460001759606e+01 0 0 0
1362 1 8.5784594876575468e+00 6.4126279317044244e+00 4.2370772661008658e+01 1 0 -1
4890 1 5.1259704678352791e-01 6.9764944415266728e+00 3.8873930897302500e+01 0 1 -1
4688 1 1.0502151752897169e+00 8.4694237300094457e+00 4.2977156291615358e+01 0 2 -1
5967 1 1.0162780294238290e+01 4.5948126993855549e+00 3.9033843689113510e+01 1 0 0
3328 1 2.1128556526115349e-02 1.0782920411977514e+01 3.9812409467481544e+01 0 0 0
3033 1 1.0155286541584729e-01 4.2736129812814905e-01 4.1349573202110690e+01 0 1 0
274 1 6.9186696349676735e+00 2.7481587055545682e+00 5.0265357825177091e+01 0 0 -1
3499 1 4.7391872658296315e+00 2.1899337267574741e+00 4.8119134440255081e+01 0 1 -1
17 1 7.5911090915746895e+00 2.4970318873182631e+00 4.5977122062768487e+01 -1 1 -1
491 1 1.0768066353515856e+01 1.1050196696740429e+01 5.0467798582963141e+01 0 0 0
1292 1 9.0229429750726968e+00 4.1302187081497230e+00 4.4164762130100954e+01 1 1 0
4687 1 9.9841486333806557e+00 1.0557517529834859e+00 4.6957351256231135e+01 1 1 0
2971 1 4.5270286695976232e+00 5.4600136109640918e+00 4.7063258426202722e+01 0 1 0
1802 1 8.8569950861180990e-01 8.5774784780136635e+00 4.6970796398613487e+01 2 0 -1
2121 1 1.0504813014574246e+00 2.9616696672421159e+00 4.5961972644785476e+01 0 0 -1
5163 1 5.4720562160725184e+00 1.9382616622816307e+00 4.3987511925509949e+01 1 1 -1
3638 1 8.4852518978485243e+00 1.1121971048813448e+01 4.8784971738951469e+01 1 0 0
5982 1 1.0569133049439737e+01 6.1725794263320424e+00 4.5336987901669119e+01 0 -1 0
2884 1 7.4398133504313559e+00 8.2297122093854593e+00 4.4354688835212983e+01 0 1 0
3432 1 2.7056897321090112e+00 8.8697120592005199e+00 4.5180988340317484e+01 1 0 -1
4545 1 9.1697559616433537e+00 8.6853501887928832e+00 4.6345186037567444e+01 0 0 0
1651 1 5.8307967085270542e+00 1.0608454482260221e+01 4.9782511340909380e+01 0 1 -1
6031 1 3.5433576754208822e+00 3.8066221128078288e+00 4.4769682988154202e+01 0 0 0
4531 1 9.5187656754196492e+00 1.1393305960128174e+01 4.5538328410747710e+01 0 0 0
2854 1 5.6216219192300820e-01 7.3996639801894326e-01 4.4060944945596418e+01 0 0 0
6053 1 1.9425896937731404e+00 2.0440790666456183e+00 4.8309105807219552e+01 1 0 0
3039 1 2.6790804147900174e+00 1.1734933476354080e+01 4.5100848357823949e+01 0 0 0
2067 1 1.1178445848963380e+01 3.5749849109617813e+00 4.8065271722196727e+01 0 1 0
3715 1 3.0739921184508807e+00 5.1551933240141592e+00 4.9432532883608914e+01 1 1 0
3013 1 1.5447351146326245e+00 1.0404034475503096e+01 4.9214543239093118e+01 0 0 0
2003 1 7.0781549611002816e+00 4.3640786874320039e+00 4.7552773095934810e+01 0 0 0
3270 1 7.1909245101367372e+00 8.4063751810753740e+00 4.8369216349187226e+01 1 0 -1
4968 1 9.6125980644546019e+00 6.3002190125128026e+00 4.8471945567213382e+01 0 1 0
1448 1 4.8449315740331027e+00 7.1281221413610023e+00 4.4675261134359204e+01 0 1 0
4503 1 1.1254547880764724e+01 8.3098724308190732e+00 4.9776770946821728e+01 0 1 -1
3073 1 1.9785888621771225e-01 5.8785837962567671e+00 4.8084416383806257e+01 0 0 0
6016 1 1.0361457977859605e+01 6.1294746582701592e-02 4.4362125292131893e+01 1 1 0
6226 1 4.9598345069873178e+00 1.1543746831996543e+01 5.7444735586762974e+01 1 1 -1
336 1 3.9579322117644029e+00 3.6517115688253012e+00 5.3991376808906466e+01 1 1 -1