LAMMPS data file via write_data, version 16 Mar 2018, timestep = 100000

4990 atoms
2 atom types

0.0000000000000000e+00 4.9219999999999999e+01 xlo xhi
0.0000000000000000e+00 4.9019635930410494e+01 ylo yhi
2.0218102594312661e+00 3.7978189740569647e+01 zlo zhi

Masses

1 18.015
2 12.01

Atoms # atomic

1872 1 3.1352966023920104e+00 7.0910768499008936e-01 5.0419487815328843e+00 1 0 0
1864 1 3.3931090121276721e+00 1.1336411457216492e+01 1.0159456102387768e+01 1 0 0
4584 1 4.6761828397924825e+00 3.2047081132446298e+00 5.3559469975272354e+00 1 1 1
1217 1 7.1691852480528784e+00 2.5163733562310897e+00 4.0597903621476021e+00 1 1 1
1285 1 1.1884865084521607e+01 5.4603082391495947e+00 1.0857521850526492e+01 1 1 1
923 1 9.4243730696527876e+00 7.0472318768953535e-01 7.3794589683355145e+00 0 0 1
4221 1 1.1695673918236810e+01 1.0983690038170019e+01 7.4458611004494148e+00 1 0 1
883 1 2.7203426680512375e+00 7.0461464248720436e+00 5.7443686698594210e+00 -1 1 0
3809 1 9.9549990437648557e+00 3.4001598758183587e+00 7.1157600507855214e+00 1 1 2
509 1 3.4884250367366998e+00 9.4289311114500940e+00 6.8789238705566733e+00 1 0 2
4315 1 1.6423536333396815e+00 1.0333712738003689e+01 4.7220674338029038e+00 0 0 0
2997 1 8.5569752697503052e+00 4.7639966230884889e+00 3.5283331319151463e+00 1 0 1
2888 1 8.7466384266465926e+00 6.3231534615372436e+00 5.6157394896876891e+00 0 -1 0
4602 1 1.1467126959747446e+01 6.6108099047124034e+00 5.5124410595944715e+00 1 0 1
394 1 1.5542744767555464e-01 8.7518534835595254e+00 2.6803123918109781e+00 1 0 0
2162 1 9.6116874885361110e+00 3.9342578015765142e+00 9.8736989489343863e+00 0 2 0
2703 1 6.1122711962140768e+00 1.0645328591016399e+01 1.0002946227325150e+01 0 0 0
2732 1 4.7525623980909010e-01 3.4455640789126711e+00 9.5489506479750261e+00 0 0 0
2873 1 9.1207685458868379e+00 1.0631096471227218e+01 3.7839591463850044e+00 0 -1 0
3411 1 1.1252569511913425e+01 8.7388115671630189e+00 3.7119463662743892e+00 0 0 0
3732 1 1.0623914800121304e+00 4.9339370141746510e+00 3.6971620010326873e+00 0 -1 1
991 1 5.4539198067885843e+00 9.2848220341285739e+00 3.4911769953920819e+00 1 -1 1
1857 1 2.7790269630730253e+00 7.3762352687450488e+00 2.8694167615361725e+00 0 0 1
3469 1 7.6016601892714943e+00 9.0662506979218325e+00 5.3228422247492624e+00 1 1 0
4301 1 4.2441934715696812e+00 5.4305415485264703e+00 7.1751408280423865e+00 1 0 1
4250 1 7.3988025240655402e+00 1.9460813898463585e+00 1.0139170863588989e+01 0 -1 1
1802 1 1.2096183679619548e+01 6.8194383681714044e-02 9.7832477943927323e+00 1 0 1
2060 1 3.1995469246388226e+00 1.2865065894564056e+00 9.0868556135109486e+00 1 0 1
4279 1 2.2776365789369750e+00 9.0161999341537378e+00 9.3616931993875028e+00 1 0 1
920 1 6.0733858558065839e+00 1.0622926365832488e+01 7.1437220051514903e+00 0 1 0
364 1 3.4933837596845763e-02 6.3723039096293430e+00 6.3528113239786332e+00 0 2 0
2695 1 6.0914747801225291e+00 7.2301901801763222e+00 8.4166482037471901e+00 0 1 0
1775 1 3.2995311013481179e+00 4.4221813844836584e+00 9.6735388089670966e+00 -1 1 1
3458 1 7.6663399705765922e-01 2.2235028436222355e+00 4.7694168252244520e+00 1 -1 0
941 1 8.6273227714310892e+00 6.3162036158882344e+00 8.7004032372174791e+00 -1 0 0
442 1 1.0531072241937940e+01 7.9762551568021296e+00 9.6217778388008632e+00 1 0 1
2647 1 1.1337178986401513e+01 3.8065964311466045e+00 2.4160230278154642e+00 1 1 0
901 1 4.0568769758683763e+00 1.1958764893288331e+01 4.0428402875911065e+00 1 0 0
3495 1 1.2247098261697142e+01 1.1971694444054650e+01 9.7499337787211342e+00 0 2 0
4588 1 9.6519614142409988e+00 1.2230871741657486e+01 5.9247209968862418e+00 1 0 1
4201 1 8.0332668495024251e+00 1.2714506130862446e-02 5.1056279260961910e+00 1 0 1
2237 1 2.0343306500179494e+00 3.4255457880268798e+00 1.3042886092914076e+01 0 0 1
139 1 6.4556233742802194e+00 1.6469376006054790e+00 1.4565708307309141e+01 0 0 1
2980 1 2.7994465234849208e-01 2.4783822356649723e+00 1.4764153804749359e+01 0 1 1
1366 1 4.8036072141064334e+00 3.6243445954597981e+00 1.4040747011856615e+01 1 0 1
285 2 9.8440000000000012e+00 8.5251540748539956e+00 1.6987570081610457e+01 0 0 0
454 1 8.1931716129723924e+00 5.8850605895350128e-01 1.2408963795740494e+01 0 1 0
416 1 9.2340490451011981e+00 2.5936810779216746e+00 1.4476891116701049e+01 0 0 1
4601 1 6.8469240723788118e+00 9.2185620975558216e+00 1.1937752169969841e+01 1 0 1
1340 1 1.0668083584926077e+01 1.0548875106274965e+01 1.4871788072169746e+01 1 1 1
389 1 7.7011304490644736e+00 4.7544295715129534e+00 1.1820398979255920e+01 0 1 1
1341 1 1.6683166377706440e+00 6.1048012593885765e+00 1.3653469447090465e+01 0 0 0
308 2 1.2304999999999998e+01 1.1366872099805333e+01 1.6987570081610457e+01 0 0 0
4333 1 6.0862252261881693e+00 6.2232289057977965e+00 1.4457629821540856e+01 0 0 0
307 2 1.1074500000000002e+01 1.0656442593567498e+01 1.6987570081610457e+01 0 0 0
2593 1 3.3599893662230556e+00 8.2976790729234349e+00 1.4215309769517194e+01 1 0 2
2903 1 1.0138796681593414e+01 1.1783455994563765e+01 1.1937715401683478e+01 2 0 1
2900 1 8.6852200071595718e+00 5.4035205104393871e+00 1.4335744782912510e+01 1 0 0
4687 1 1.1612540278792089e+01 1.2213042677023516e+00 1.3839474896267664e+01 0 0 1
286 2 1.1074500000000002e+01 9.2355835810918343e+00 1.6987570081610457e+01 0 0 0
262 2 8.6134999999999984e+00 9.2355835810918343e+00 1.6987570081610457e+01 0 0 0
284 2 9.8440000000000012e+00 1.1366872099805333e+01 1.6987570081610457e+01 0 0 0
123 1 2.7474623358257477e+00 1.0913345495945663e+01 1.4338171444576945e+01 0 1 0
4665 1 5.9277282259857778e+00 9.3590815650592099e+00 1.4592115165606740e+01 1 0 1
2652 1 1.5998396112939326e+00 9.0096417597412015e-01 1.1523098740402215e+01 1 0 0
283 2 8.6134999999999984e+00 1.0656442593567498e+01 1.6987570081610457e+01 0 0 0
407 1 1.0135502693361797e+01 7.5900350252386959e+00 1.4343083210203055e+01 1 1 1
4704 1 6.1828202693856293e-01 1.1712686670087198e+01 1.1881888687953651e+01 0 0 2
3857 1 9.5825229040132172e+00 9.0412186330343989e+00 1.1933214332610280e+01 1 1 1
193 2 0.0000000000000000e+00 2.8417180249513345e+00 1.6987570081610457e+01 0 0 0
194 2 0.0000000000000000e+00 0.0000000000000000e+00 1.6987570081610457e+01 0 0 0
195 2 1.2305000000000001e+00 7.1042950623783474e-01 1.6987570081610457e+01 0 0 0
199 2 1.2305000000000001e+00 2.1312885187134998e+00 1.6987570081610457e+01 0 0 0
200 2 2.4610000000000003e+00 2.8417180249513345e+00 1.6987570081610457e+01 0 0 0
201 2 2.4610000000000003e+00 0.0000000000000000e+00 1.6987570081610457e+01 0 0 0
202 2 3.6915000000000004e+00 7.1042950623783474e-01 1.6987570081610457e+01 0 0 0
210 2 3.6914999999999996e+00 2.1312885187134998e+00 1.6987570081610457e+01 0 0 0
211 2 4.9220000000000006e+00 2.8417180249513332e+00 1.6987570081610457e+01 0 0 0
212 2 4.9220000000000006e+00 0.0000000000000000e+00 1.6987570081610457e+01 0 0 0
213 2 6.1524999999999999e+00 7.1042950623783407e-01 1.6987570081610457e+01 0 0 0
225 2 6.1524999999999999e+00 2.1312885187134989e+00 1.6987570081610457e+01 0 0 0
226 2 7.3829999999999991e+00 2.8417180249513345e+00 1.6987570081610457e+01 0 0 0
227 2 7.3829999999999991e+00 0.0000000000000000e+00 1.6987570081610457e+01 0 0 0
228 2 8.6134999999999984e+00 7.1042950623783407e-01 1.6987570081610457e+01 0 0 0
244 2 8.6134999999999984e+00 2.1312885187135002e+00 1.6987570081610457e+01 0 0 0
245 2 9.8440000000000012e+00 2.8417180249513332e+00 1.6987570081610457e+01 0 0 0
246 2 9.8440000000000012e+00 0.0000000000000000e+00 1.6987570081610457e+01 0 0 0
247 2 1.1074500000000002e+01 7.1042950623783330e-01 1.6987570081610457e+01 0 0 0
267 2 1.1074500000000002e+01 2.1312885187135002e+00 1.6987570081610457e+01 0 0 0
197 2 0.0000000000000000e+00 4.2625770374269996e+00 1.6987570081610457e+01 0 0 0
198 2 1.2305000000000001e+00 4.9730065436648339e+00 1.6987570081610457e+01 0 0 0
206 2 1.2305000000000001e+00 6.3938655561404980e+00 1.6987570081610457e+01 0 0 0
208 2 2.4610000000000003e+00 4.2625770374269996e+00 1.6987570081610457e+01 0 0 0
209 2 3.6914999999999996e+00 4.9730065436648339e+00 1.6987570081610457e+01 0 0 0
221 2 3.6914999999999996e+00 6.3938655561404980e+00 1.6987570081610457e+01 0 0 0
196 2 0.0000000000000000e+00 7.1042950623783341e+00 1.6987570081610457e+01 0 0 0
207 2 2.4610000000000003e+00 7.1042950623783341e+00 1.6987570081610457e+01 0 0 0
223 2 4.9220000000000006e+00 4.2625770374269978e+00 1.6987570081610457e+01 0 0 0
224 2 6.1524999999999999e+00 4.9730065436648339e+00 1.6987570081610457e+01 0 0 0
240 2 6.1524999999999999e+00 6.3938655561404980e+00 1.6987570081610457e+01 0 0 0
242 2 7.3829999999999991e+00 4.2625770374269996e+00 1.6987570081610457e+01 0 0 0
222 2 4.9220000000000006e+00 7.1042950623783341e+00 1.6987570081610457e+01 0 0 0
241 2 7.3830000000000009e+00 7.1042950623783341e+00 1.6987570081610457e+01 0 0 0
243 2 8.6135000000000002e+00 4.9730065436648339e+00 1.6987570081610457e+01 0 0 0
263 2 8.6135000000000002e+00 6.3938655561404980e+00 1.6987570081610457e+01 0 0 0
265 2 9.8440000000000012e+00 4.2625770374270004e+00 1.6987570081610457e+01 0 0 0
266 2 1.1074500000000002e+01 4.9730065436648339e+00 1.6987570081610457e+01 0 0 0
287 2 1.1074500000000002e+01 6.3938655561404980e+00 1.6987570081610457e+01 0 0 0
264 2 9.8440000000000012e+00 7.1042950623783341e+00 1.6987570081610457e+01 0 0 0
204 2 0.0000000000000000e+00 8.5251540748539991e+00 1.6987570081610457e+01 0 0 0
205 2 1.2305000000000001e+00 9.2355835810918343e+00 1.6987570081610457e+01 0 0 0
219 2 2.4610000000000003e+00 8.5251540748539991e+00 1.6987570081610457e+01 0 0 0
220 2 3.6915000000000004e+00 9.2355835810918343e+00 1.6987570081610457e+01 0 0 0
203 2 0.0000000000000000e+00 1.1366872099805333e+01 1.6987570081610457e+01 0 0 0
217 2 1.2305000000000001e+00 1.0656442593567498e+01 1.6987570081610457e+01 0 0 0
218 2 2.4610000000000003e+00 1.1366872099805333e+01 1.6987570081610457e+01 0 0 0
236 2 3.6914999999999996e+00 1.0656442593567499e+01 1.6987570081610457e+01 0 0 0
238 2 4.9220000000000006e+00 8.5251540748539991e+00 1.6987570081610457e+01 0 0 0
239 2 6.1524999999999999e+00 9.2355835810918343e+00 1.6987570081610457e+01 0 0 0
237 2 4.9220000000000006e+00 1.1366872099805333e+01 1.6987570081610457e+01 0 0 0
261 2 7.3830000000000009e+00 8.5251540748539991e+00 1.6987570081610457e+01 0 0 0
259 2 6.1524999999999999e+00 1.0656442593567499e+01 1.6987570081610457e+01 0 0 0
260 2 7.3829999999999991e+00 1.1366872099805333e+01 1.6987570081610457e+01 0 0 0
4522 1 3.0677992082179948e+00 6.8066353890465132e+00 1.1133451475425414e+01 0 0 0
1800 1 5.8636312735226044e+00 6.8393566823550751e+00 1.1341844959215310e+01 0 1 -1
79 1 1.2197039390478750e+01 5.5858671328864098e+00 1.3635844689307339e+01 0 1 1
3386 1 1.1847100690076585e+01 2.4924182987055827e+00 1.1300334472425272e+01 0 1 1
4215 1 4.9206681758726765e+00 2.7176067272519275e+00 1.1292328047896467e+01 1 1 0
549 2 0.0000000000000000e+00 1.4208590124756650e+00 2.0028102716662008e+01 0 0 0
550 2 0.0000000000000000e+00 0.0000000000000000e+00 2.0028102716662008e+01 0 0 0
554 2 1.2305000000000001e+00 2.1312885187134998e+00 2.0028102716662008e+01 0 0 0
555 2 2.4610000000000003e+00 1.4208590124756650e+00 2.0028102716662008e+01 0 0 0
556 2 2.4610000000000003e+00 0.0000000000000000e+00 2.0028102716662008e+01 0 0 0
564 2 3.6914999999999996e+00 2.1312885187134998e+00 2.0028102716662008e+01 0 0 0
710 2 0.0000000000000000e+00 2.8417180249513345e+00 2.3068635351715397e+01 0 0 0
711 2 0.0000000000000000e+00 0.0000000000000000e+00 2.3068635351715397e+01 0 0 0
712 2 1.2305000000000001e+00 7.1042950623783474e-01 2.3068635351715397e+01 0 0 0
716 2 1.2305000000000001e+00 2.1312885187134998e+00 2.3068635351715397e+01 0 0 0
717 2 2.4610000000000003e+00 2.8417180249513345e+00 2.3068635351715397e+01 0 0 0
718 2 2.4610000000000003e+00 0.0000000000000000e+00 2.3068635351715397e+01 0 0 0
719 2 3.6915000000000004e+00 7.1042950623783474e-01 2.3068635351715397e+01 0 0 0
727 2 3.6914999999999996e+00 2.1312885187134998e+00 2.3068635351715397e+01 0 0 0
553 2 1.2305000000000001e+00 3.5521475311891644e+00 2.0028102716662008e+01 0 0 0
563 2 3.6914999999999996e+00 3.5521475311891644e+00 2.0028102716662008e+01 0 0 0
565 2 4.9220000000000006e+00 1.4208590124756650e+00 2.0028102716662008e+01 0 0 0
566 2 4.9220000000000006e+00 0.0000000000000000e+00 2.0028102716662008e+01 0 0 0
578 2 6.1524999999999999e+00 2.1312885187134989e+00 2.0028102716662008e+01 0 0 0
579 2 7.3829999999999991e+00 1.4208590124756659e+00 2.0028102716662008e+01 0 0 0
580 2 7.3829999999999991e+00 0.0000000000000000e+00 2.0028102716662008e+01 0 0 0
728 2 4.9220000000000006e+00 2.8417180249513332e+00 2.3068635351715397e+01 0 0 0
729 2 4.9220000000000006e+00 0.0000000000000000e+00 2.3068635351715397e+01 0 0 0
730 2 6.1524999999999999e+00 7.1042950623783407e-01 2.3068635351715397e+01 0 0 0
742 2 6.1524999999999999e+00 2.1312885187134989e+00 2.3068635351715397e+01 0 0 0
743 2 7.3829999999999991e+00 2.8417180249513345e+00 2.3068635351715397e+01 0 0 0
744 2 7.3829999999999991e+00 0.0000000000000000e+00 2.3068635351715397e+01 0 0 0
577 2 6.1524999999999999e+00 3.5521475311891644e+00 2.0028102716662008e+01 0 0 0
596 2 8.6134999999999984e+00 2.1312885187135002e+00 2.0028102716662008e+01 0 0 0
597 2 9.8440000000000012e+00 1.4208590124756659e+00 2.0028102716662008e+01 0 0 0
598 2 9.8440000000000012e+00 0.0000000000000000e+00 2.0028102716662008e+01 0 0 0
618 2 1.1074500000000002e+01 2.1312885187135002e+00 2.0028102716662008e+01 0 0 0
745 2 8.6134999999999984e+00 7.1042950623783407e-01 2.3068635351715397e+01 0 0 0
761 2 8.6134999999999984e+00 2.1312885187135002e+00 2.3068635351715397e+01 0 0 0
762 2 9.8440000000000012e+00 2.8417180249513332e+00 2.3068635351715397e+01 0 0 0
763 2 9.8440000000000012e+00 0.0000000000000000e+00 2.3068635351715397e+01 0 0 0
764 2 1.1074500000000002e+01 7.1042950623783330e-01 2.3068635351715397e+01 0 0 0
784 2 1.1074500000000002e+01 2.1312885187135002e+00 2.3068635351715397e+01 0 0 0
595 2 8.6134999999999984e+00 3.5521475311891657e+00 2.0028102716662008e+01 0 0 0
617 2 1.1074500000000002e+01 3.5521475311891644e+00 2.0028102716662008e+01 0 0 0
551 2 0.0000000000000000e+00 5.6834360499026637e+00 2.0028102716662008e+01 0 0 0
552 2 0.0000000000000000e+00 4.2625770374269996e+00 2.0028102716662008e+01 0 0 0
560 2 1.2305000000000001e+00 6.3938655561404980e+00 2.0028102716662008e+01 0 0 0
561 2 2.4610000000000003e+00 5.6834360499026637e+00 2.0028102716662008e+01 0 0 0
562 2 2.4610000000000003e+00 4.2625770374269996e+00 2.0028102716662008e+01 0 0 0
574 2 3.6914999999999996e+00 6.3938655561404980e+00 2.0028102716662008e+01 0 0 0
714 2 0.0000000000000000e+00 4.2625770374269996e+00 2.3068635351715397e+01 0 0 0
715 2 1.2305000000000001e+00 4.9730065436648339e+00 2.3068635351715397e+01 0 0 0
723 2 1.2305000000000001e+00 6.3938655561404980e+00 2.3068635351715397e+01 0 0 0
725 2 2.4610000000000003e+00 4.2625770374269996e+00 2.3068635351715397e+01 0 0 0
726 2 3.6914999999999996e+00 4.9730065436648339e+00 2.3068635351715397e+01 0 0 0
738 2 3.6914999999999996e+00 6.3938655561404980e+00 2.3068635351715397e+01 0 0 0
559 2 1.2305000000000001e+00 7.8147245686161639e+00 2.0028102716662008e+01 0 0 0
573 2 3.6914999999999996e+00 7.8147245686161639e+00 2.0028102716662008e+01 0 0 0
713 2 0.0000000000000000e+00 7.1042950623783341e+00 2.3068635351715397e+01 0 0 0
724 2 2.4610000000000003e+00 7.1042950623783341e+00 2.3068635351715397e+01 0 0 0
575 2 4.9220000000000006e+00 5.6834360499026637e+00 2.0028102716662008e+01 0 0 0
576 2 4.9220000000000006e+00 4.2625770374269978e+00 2.0028102716662008e+01 0 0 0
592 2 6.1524999999999999e+00 6.3938655561404980e+00 2.0028102716662008e+01 0 0 0
593 2 7.3829999999999991e+00 5.6834360499026637e+00 2.0028102716662008e+01 0 0 0
594 2 7.3829999999999991e+00 4.2625770374269996e+00 2.0028102716662008e+01 0 0 0
740 2 4.9220000000000006e+00 4.2625770374269978e+00 2.3068635351715397e+01 0 0 0
741 2 6.1524999999999999e+00 4.9730065436648339e+00 2.3068635351715397e+01 0 0 0
757 2 6.1524999999999999e+00 6.3938655561404980e+00 2.3068635351715397e+01 0 0 0
759 2 7.3829999999999991e+00 4.2625770374269996e+00 2.3068635351715397e+01 0 0 0
591 2 6.1524999999999999e+00 7.8147245686161639e+00 2.0028102716662008e+01 0 0 0
739 2 4.9220000000000006e+00 7.1042950623783341e+00 2.3068635351715397e+01 0 0 0
758 2 7.3830000000000009e+00 7.1042950623783341e+00 2.3068635351715397e+01 0 0 0
614 2 8.6135000000000002e+00 6.3938655561404980e+00 2.0028102716662008e+01 0 0 0
615 2 9.8440000000000012e+00 5.6834360499026637e+00 2.0028102716662008e+01 0 0 0
616 2 9.8440000000000012e+00 4.2625770374270004e+00 2.0028102716662008e+01 0 0 0
637 2 1.1074500000000002e+01 6.3938655561404980e+00 2.0028102716662008e+01 0 0 0
760 2 8.6135000000000002e+00 4.9730065436648339e+00 2.3068635351715397e+01 0 0 0
780 2 8.6135000000000002e+00 6.3938655561404980e+00 2.3068635351715397e+01 0 0 0
782 2 9.8440000000000012e+00 4.2625770374270004e+00 2.3068635351715397e+01 0 0 0
783 2 1.1074500000000002e+01 4.9730065436648339e+00 2.3068635351715397e+01 0 0 0
804 2 1.1074500000000002e+01 6.3938655561404980e+00 2.3068635351715397e+01 0 0 0
613 2 8.6135000000000002e+00 7.8147245686161639e+00 2.0028102716662008e+01 0 0 0
636 2 1.1074500000000002e+01 7.8147245686161639e+00 2.0028102716662008e+01 0 0 0
781 2 9.8440000000000012e+00 7.1042950623783341e+00 2.3068635351715397e+01 0 0 0
557 2 0.0000000000000000e+00 9.9460130873296642e+00 2.0028102716662008e+01 0 0 0
558 2 0.0000000000000000e+00 8.5251540748539991e+00 2.0028102716662008e+01 0 0 0
571 2 2.4610000000000003e+00 9.9460130873296642e+00 2.0028102716662008e+01 0 0 0
572 2 2.4610000000000003e+00 8.5251540748539991e+00 2.0028102716662008e+01 0 0 0
721 2 0.0000000000000000e+00 8.5251540748539991e+00 2.3068635351715397e+01 0 0 0
722 2 1.2305000000000001e+00 9.2355835810918343e+00 2.3068635351715397e+01 0 0 0
736 2 2.4610000000000003e+00 8.5251540748539991e+00 2.3068635351715397e+01 0 0 0
737 2 3.6915000000000004e+00 9.2355835810918343e+00 2.3068635351715397e+01 0 0 0
569 2 1.2305000000000001e+00 1.2077301606043163e+01 2.0028102716662008e+01 0 0 0
570 2 1.2305000000000001e+00 1.0656442593567498e+01 2.0028102716662008e+01 0 0 0
587 2 3.6914999999999996e+00 1.2077301606043163e+01 2.0028102716662008e+01 0 0 0
588 2 3.6914999999999996e+00 1.0656442593567499e+01 2.0028102716662008e+01 0 0 0
720 2 0.0000000000000000e+00 1.1366872099805333e+01 2.3068635351715397e+01 0 0 0
734 2 1.2305000000000001e+00 1.0656442593567498e+01 2.3068635351715397e+01 0 0 0
735 2 2.4610000000000003e+00 1.1366872099805333e+01 2.3068635351715397e+01 0 0 0
753 2 3.6914999999999996e+00 1.0656442593567499e+01 2.3068635351715397e+01 0 0 0
589 2 4.9220000000000006e+00 9.9460130873296642e+00 2.0028102716662008e+01 0 0 0
590 2 4.9220000000000006e+00 8.5251540748539991e+00 2.0028102716662008e+01 0 0 0
611 2 7.3830000000000009e+00 9.9460130873296642e+00 2.0028102716662008e+01 0 0 0
612 2 7.3830000000000009e+00 8.5251540748539991e+00 2.0028102716662008e+01 0 0 0
755 2 4.9220000000000006e+00 8.5251540748539991e+00 2.3068635351715397e+01 0 0 0
756 2 6.1524999999999999e+00 9.2355835810918343e+00 2.3068635351715397e+01 0 0 0
778 2 7.3830000000000009e+00 8.5251540748539991e+00 2.3068635351715397e+01 0 0 0
609 2 6.1524999999999999e+00 1.2077301606043163e+01 2.0028102716662008e+01 0 0 0
610 2 6.1524999999999999e+00 1.0656442593567499e+01 2.0028102716662008e+01 0 0 0
754 2 4.9220000000000006e+00 1.1366872099805333e+01 2.3068635351715397e+01 0 0 0
776 2 6.1524999999999999e+00 1.0656442593567499e+01 2.3068635351715397e+01 0 0 0
777 2 7.3829999999999991e+00 1.1366872099805333e+01 2.3068635351715397e+01 0 0 0
634 2 9.8440000000000012e+00 9.9460130873296642e+00 2.0028102716662008e+01 0 0 0
635 2 9.8440000000000012e+00 8.5251540748539956e+00 2.0028102716662008e+01 0 0 0
779 2 8.6134999999999984e+00 9.2355835810918343e+00 2.3068635351715397e+01 0 0 0
802 2 9.8440000000000012e+00 8.5251540748539956e+00 2.3068635351715397e+01 0 0 0
803 2 1.1074500000000002e+01 9.2355835810918343e+00 2.3068635351715397e+01 0 0 0
632 2 8.6135000000000002e+00 1.2077301606043163e+01 2.0028102716662008e+01 0 0 0
633 2 8.6134999999999984e+00 1.0656442593567498e+01 2.0028102716662008e+01 0 0 0
655 2 1.1074500000000002e+01 1.2077301606043163e+01 2.0028102716662008e+01 0 0 0
656 2 1.1074500000000002e+01 1.0656442593567498e+01 2.0028102716662008e+01 0 0 0
800 2 8.6134999999999984e+00 1.0656442593567498e+01 2.3068635351715397e+01 0 0 0
801 2 9.8440000000000012e+00 1.1366872099805333e+01 2.3068635351715397e+01 0 0 0
824 2 1.1074500000000002e+01 1.0656442593567498e+01 2.3068635351715397e+01 0 0 0
825 2 1.2304999999999998e+01 1.1366872099805333e+01 2.3068635351715397e+01 0 0 0
4351 1 3.2413695482931593e-01 9.3434736320479299e+00 2.6542497963461869e+01 0 2 -1
532 1 1.0954064160359847e+01 7.9490873710911396e+00 2.8623778648489278e+01 1 0 -1
3058 1 4.5721430829196397e+00 3.1047006009158995e+00 2.5491030037602513e+01 0 0 0
3461 1 7.2278284104898063e+00 1.9421844974005182e+00 2.6160093351585360e+01 1 0 -1
62 1 6.0233925372927954e+00 8.9601764691795278e+00 2.8063822296036168e+01 -1 0 -1
4691 1 9.6174241061541359e+00 3.2770706441753776e+00 2.5453622020912828e+01 0 0 0
3475 1 1.1618126266426561e+01 3.3541425367668256e+00 2.7710402203456848e+01 1 0 -1
2576 1 6.0978625521107626e+00 1.0307123229891753e+01 2.5157808379903184e+01 1 1 -1
2224 1 2.3791541854909171e+00 5.2785655125272344e+00 2.8500876726256479e+01 0 0 -1
1031 1 4.3780614630617576e+00 5.7146750909101964e+00 2.6323474484556886e+01 0 0 -1
1208 1 1.3605825441360011e+00 6.0861449079618479e+00 2.6013821554119684e+01 1 1 -1
3723 1 8.8306801309465381e+00 1.0636959257915914e+01 2.5621041268973766e+01 1 0 -1
1785 1 1.0454712532474680e+01 8.4083898440740015e+00 2.5373280451953235e+01 1 0 -1
4262 1 6.3902399230493607e+00 7.2665351408642866e+00 2.5434193896276746e+01 0 -1 0
2589 1 3.2111839308162478e+00 1.0106551224054893e+01 2.6076105348963548e+01 0 0 0
2707 1 8.8025324483695062e+00 5.9755864701827281e+00 2.8534553897857808e+01 1 1 -1
2087 1 1.0054721535291529e+01 1.0975979429411996e+01 2.8537030265763168e+01 -1 -1 0
4195 1 8.8909159106651003e+00 6.2113871675487990e+00 2.5730781873130486e+01 1 0 -1
2730 1 1.2218957689383192e+01 1.4648898301661226e+00 2.5536475343962060e+01 0 1 0
3065 1 2.2913905266948720e+00 1.6401830193757905e+00 2.6545155026274688e+01 3 -1 0
2697 1 3.3288034556513488e+00 9.7326204927246511e+00 2.8668859452662037e+01 0 1 0
2202 1 6.8097247664504934e+00 2.0617384030956574e+00 2.8772123970265802e+01 1 0 -1
37 1 2.5305732415051567e+00 1.1244883531841798e+00 3.3601545157876302e+01 -1 0 0
4667 1 6.0019281451305595e+00 2.6469762454891574e+00 3.3676446190225064e+01 -1 1 -1
365 1 1.0163813010984791e+01 3.7748096282621244e+00 3.1884206310855564e+01 -1 0 -1
1702 1 1.0617979952688364e+01 7.6578381908083113e+00 3.7098914594279734e+01 0 2 -1
428 1 2.7262991519473045e+00 2.0556892965066864e+00 2.9316344814410492e+01 1 0 0
1257 1 8.2581917455973031e+00 5.1915123144303887e-01 3.5183917271516577e+01 1 0 0
4316 1 1.0466314284275699e+01 1.1699969051853523e+00 3.2800765113894016e+01 1 1 -1
457 1 3.7608666077661859e+00 3.8805760691182094e+00 3.2427102648869976e+01 1 1 0
1759 1 3.9522812877586935e+00 6.7728443583951972e+00 3.2120377666345803e+01 0 0 0
2235 1 1.9706933881472350e+00 1.1219591424131345e+01 3.2589168143814661e+01 0 1 0
2972 1 9.3083336661329330e+00 3.3395135452389222e+00 2.9321308509149674e+01 1 1 0
4648 1 9.8940133802393184e+00 8.0418859353872172e+00 3.1348124918071740e+01 0 1 0
362 1 9.0241891354085695e+00 8.7197862700694131e+00 3.4034230060354275e+01 1 0 0
3380 1 2.4988648467652306e+00 7.5848761156277336e+00 3.0079778211388380e+01 1 -1 -1
1033 1 4.9182133620812634e+00 1.1027298298721282e+01 3.3635252102577184e+01 0 1 -1
2179 1 6.6778674544074983e+00 6.7823669600523226e+00 3.1811490217157825e+01 0 0 0
4659 1 6.9262811424069488e+00 9.5837536523390998e+00 3.1950843689221799e+01 0 -1 -1
1840 1 6.6747877084212224e+00 9.5462579685496092e+00 3.5479752420235258e+01 0 1 -1
453 1 6.9556403185404259e+00 1.1722538337150930e+00 3.7584384758650714e+01 2 1 0
1866 1 2.9257204147745672e+00 2.0420905268047922e+00 3.6485710013922869e+01 0 1 -1
3509 1 2.7381491780021283e-01 9.1472522989481975e-01 3.1868959731233048e+01 2 1 0
165 1 5.4396006438652371e+00 3.0323286665256899e+00 3.6339998744374711e+01 0 0 0
409 1 1.1106034554156391e+01 1.3188140046133996e+00 3.5352211722089010e+01 0 0 0
3069 1 8.9926625085916498e+00 3.4160745470827352e+00 3.6518931111540056e+01 0 -1 0
28 1 1.9183563017610605e+00 5.8475350607368979e+00 3.4409719258741632e+01 0 -1 -1
1271 1 8.8947628158240395e+00 1.1412969447440121e+01 3.7073292953334928e+01 1 0 0
1001 1 1.1807074011160815e+01 1.1148531881791586e+01 3.2193435433754743e+01 0 1 -1
2919 1 6.6183229838884721e+00 5.7093588407289682e+00 3.7236875797376570e+01 0 0 0
3696 1 7.8002577241450535e+00 4.6930181024544879e+00 3.2942423198024173e+01 0 0 -1
4332 1 5.4114310214948058e-01 9.8722275183700461e+00 3.4864005923012897e+01 1 1 -1
1050 1 3.2119953279879834e+00 8.5519933019992411e+00 3.4454637158610907e+01 2 1 -1
3068 1 4.8644611325224387e+00 7.7875656476209594e+00 3.7036481648751717e+01 1 1 -1
3776 1 1.1475368477023331e+01 9.8510902539125809e+00 3.4811454578219340e+01 0 2 0
511 1 8.7290689473046470e+00 6.1257258284857201e+00 3.5272320610639582e+01 0 0 0
548 1 8.9351637157144577e+00 1.1608518191133147e+01 3.1468443199448600e+01 2 -1 0
478 1 4.9259044899547115e+00 3.7166079061162658e+00 2.9746949788489186e+01 0 0 0
1199 1 1.1970239581253363e+01 6.3331336527074926e+00 3.2371580005384658e+01 0 0 0
2926 1 6.9979568144501669e-01 3.7234928861344421e+00 3.6279481019466544e+01 1 1 1
2073 1 2.0168214551296668e-01 5.6903293786240408e+00 3.2139817303050521e+01 1 0 0
4606 1 7.1842063201446843e-02 6.4259751733546686e+00 3.6806234365807796e+01 0 1 -1
1379 1 2.4538757017949786e-01 3.2010810280276947e+00 3.0257262523402602e+01 1 -1 0
3841 1 6.1098145385065727e+00 6.3976956974376895e+00 2.9100814911367483e+01 1 1 0
99 1 8.6754496476045588e+00 1.1997247185431249e+01 3.4251455108044496e+01 0 0 -1
2164 1 6.1643713019057760e+00 1.1810969516368843e+01 3.7835238521621449e+01 0 0 0
2598 1 6.8747921764332300e+00 1.1370602192589821e+01 2.9255102335604800e+01 0 1 0
4197 1 1.0551058194449594e+00 1.5031928191933979e+01 3.7949650544196278e+00 0 1 1
2694 1 4.2811380232796372e+00 1.6152365330983141e+01 6.8120519438728211e+00 1 0 1
2242 1 2.4187746345706671e+00 2.2562984023484777e+01 4.9400145444989327e+00 1 0 1
1265 1 8.2156231521344480e+00 1.6686575607107606e+01 3.5012026843200905e+00 0 -1 1
3714 1 6.2391958354432289e+00 1.7862754590119433e+01 5.2050635031159498e+00 0 1 0
2889 1 2.2780102183305422e+00 2.0846966490845499e+01 2.7876464560553260e+00 1 0 0
950 1 1.0970696538576494e+01 1.4395564273162984e+01 5.0968072145545298e+00 0 1 1
1758 1 2.3693855575638549e+00 1.7060276726249274e+01 4.9069689342906244e+00 0 1 1
191 1 6.4574631282820647e+00 2.0387598158769730e+01 6.5079458501511827e+00 -1 0 0
81 1 9.2871047347746085e+00 2.3067343054186516e+01 3.6840980565559365e+00 0 -1 0
3477 1 7.4320531007673152e+00 1.3487439050526248e+01 3.6880635542901574e+00 0 1 0
1355 1 3.3771965166168938e-01 1.9021397018717426e+01 6.0110281725318497e+00 0 -1 1
2938 1 1.0386897184250774e+01 1.9004878831310169e+01 5.1393839502954641e+00 0 0 2
3701 1 2.0506938500718319e+00 1.9320350127017601e+01 8.1914595170054554e+00 0 1 1
1716 1 7.4171947262688933e+00 1.3088805197912135e+01 7.6184135230529151e+00 0 0 1
1348 1 5.3998412695361191e+00 2.2769533704964655e+01 3.3054173648765528e+00 0 0 1
1877 1 8.3253179600090483e+00 2.0373072006008350e+01 3.8029083323927733e+00 0 0 1
2968 1 8.5328771026581194e+00 2.2451332889677097e+01 6.4499591626245740e+00 0 -1 1
2219 1 8.9585968518957371e-01 1.3056927181457086e+01 5.7238030672056697e+00 0 1 1
387 1 1.0018228983525562e+01 1.3790184307486850e+01 2.4508196539649161e+00 0 0 1
4382 1 2.5621354037102684e-01 1.9146612153646714e+01 3.1324663629606917e+00 1 0 0
4283 1 6.1237834879298536e-01 1.4147426330428782e+01 1.0155481548108041e+01 1 -1 1
2724 1 3.2756452099629856e+00 1.5200598833916002e+01 9.4720435021386287e+00 1 0 0
10 1 5.0800312212806862e+00 1.3513215566608917e+01 6.0607030957027286e+00 0 0 0
2577 1 5.7871601687696623e+00 2.3730618286534227e+01 6.0111615305806954e+00 1 0 1
4630 1 7.4776991800710757e+00 1.6037804175167039e+01 7.4088429998209584e+00 1 0 1
1002 1 2.7738275468355615e+00 1.7786491702816097e+01 1.0459149425874310e+01 0 2 0
3408 1 4.5151131223426830e+00 1.8089001645066681e+01 2.8465086364997316e+00 1 -1 0
1714 1 2.9673979559221668e+00 1.2769781776011699e+01 7.6951644271255706e+00 1 0 0
2987 1 1.0835166674487077e+01 2.1048100946097346e+01 7.1310732919414255e+00 0 1 1
1224 1 7.2463234581532818e+00 1.9675998974660558e+01 9.0215123165399902e+00 2 0 1
4619 1 1.1236903875909821e-01 2.0869287555205393e+01 9.7484018641211865e+00 0 0 1
4339 1 9.9830983006456293e+00 2.0685727804113878e+01 9.9951590201145866e+00 1 0 0
2709 1 8.0296803662259837e+00 1.2726856801506568e+01 1.0287214994615129e+01 -1 0 0
999 1 1.0066201267500963e+01 1.6653082076833677e+01 6.4129085537147326e+00 0 -1 0
1312 1 4.0473197402506162e+00 2.2637174545320217e+01 9.5466491320461309e+00 0 -1 1
2124 1 4.1542754920797007e+00 2.1345838352451821e+01 7.0710054119334353e+00 1 0 1
4362 1 5.6645203397154136e+00 1.5745865750244107e+01 2.1163164563819867e+00 -1 0 1
174 1 7.4845653270103751e+00 1.6834962446525385e+01 9.9234375212698573e+00 0 0 1
1040 1 1.2273055906971122e+01 2.3764730461130071e+01 6.4832200945350955e+00 0 0 -1
4342 1 8.7656031753760300e-01 1.3792508073399913e+01 1.4339920967995004e+01 1 0 0
498 1 1.7517568858554111e+00 2.2573547314528582e+01 1.1292894164556287e+01 1 0 1
100 1 4.2376112725566646e+00 1.3794810403115024e+01 1.1801045501679615e+01 1 -1 0
1833 1 8.2695360907887261e-01 2.3761023049441171e+01 1.4676392545511417e+01 2 0 1
2985 1 8.0975480839986513e+00 1.4292125715452533e+01 1.4241772150298408e+01 0 0 0
4357 1 3.3784480993925778e+00 1.4551066123488743e+01 1.4378121256440373e+01 1 0 0
334 2 9.8440000000000012e+00 2.4154603212086336e+01 1.6987570081610457e+01 0 0 0
43 1 1.0547069655474656e+01 1.3342002635545350e+01 1.4450400449512601e+01 1 0 1