LAMMPS data file via write_data, version 16 Mar 2018, timestep = 8000000

4990 atoms
2 atom types

0.0000000000000000e+00 4.9219999999999999e+01 xlo xhi
0.0000000000000000e+00 4.9019635930410494e+01 ylo yhi
1.3534096667017188e+00 3.8646590333305014e+01 zlo zhi

Masses

1 18.015
2 12.01

Atoms # atomic

4673 1 3.4245604120961541e+00 1.4080048009008606e+00 2.7224437090202560e+00 -2 1 0
3818 1 3.5117392654510886e+00 3.9096400255354009e+00 1.9371806161948051e+00 1 0 1
2057 1 3.6733913425926175e+00 1.3229346844828520e+00 5.6506988237243965e+00 3 0 1
1239 1 8.0418438372955023e+00 1.4141357801151924e+00 2.7852660649331944e+00 1 -2 0
3828 1 7.8762307619449903e+00 4.0395637710925927e+00 1.9002632356758657e+00 -4 0 0
4642 1 1.2022395515349658e+01 6.4954583820706455e+00 9.6646547713218691e+00 -4 -2 0
1719 1 5.6471176527686726e+00 7.3730896606788408e+00 1.0328600298103826e+01 -4 -2 0
2154 1 8.3110044591882009e+00 9.9296036864127968e-01 5.8237955623273212e+00 -4 -3 1
445 1 1.1783762298096523e+00 4.9237141179406159e+00 5.9674566464984737e+00 1 1 1
452 1 1.1571468831271243e+00 4.9986772308301948e+00 3.1493559833257678e+00 3 0 1
349 1 1.0589994975286119e+00 7.5394343786264661e+00 1.9622925415923596e+00 -1 2 1
3789 1 5.7756639990273611e+00 4.9696682450421390e+00 3.0827402415257170e+00 -2 2 1
3415 1 5.5339797442108303e+00 7.6023182010355299e+00 2.0018113578381760e+00 -2 1 0
3456 1 5.9855792656784503e+00 4.8284322604931456e+00 5.8737888925416399e+00 6 -2 1
2959 1 1.0203523403133664e+01 5.1400213710431055e+00 3.0224482907570209e+00 -3 4 1
4579 1 1.0159341338238558e+01 7.6445126861820718e+00 2.0122681090173353e+00 -4 3 1
3050 1 1.1311529226845891e+00 1.0434656751718340e+01 6.0593635468665576e+00 -2 -1 1
3785 1 3.1386577632932320e+00 1.1683193043694677e+01 1.9485225541370643e+00 4 3 1
77 1 3.3907829495770354e+00 9.0539908113367176e+00 2.7633697493202147e+00 2 0 1
4205 1 3.3681076135699963e+00 8.9030313133087198e+00 5.5713745298788062e+00 0 4 0
1006 1 7.4459240463751559e+00 1.1301250509775130e+01 2.1605476567981956e+00 0 7 1
4677 1 7.7764014829982901e+00 8.6063239335225568e+00 2.9711524177723465e+00 0 -4 1
30 1 7.7562942365857168e+00 8.7350739233334238e+00 6.0030673377491039e+00 0 3 0
3533 1 1.1792173721367133e+01 1.1470756993328944e+01 1.9839988135187498e+00 2 -1 1
12 1 3.6912580990747301e-01 9.0829823475409945e+00 8.9669318616009193e+00 1 2 1
4345 1 5.8055778166947403e-01 5.5010390249651877e+00 9.3180897096315611e+00 2 1 1
1042 1 1.3546141699712444e+00 2.2192202332553967e+00 6.8932918377771353e+00 -3 0 0
901 1 1.2361525425655000e+00 2.5217248290294525e+00 9.7610988077935286e+00 3 -5 0
967 1 6.0305249077718228e+00 2.2116052385093612e+00 6.5589897106084214e+00 -4 1 0
1271 1 5.6385229955280973e+00 2.2772993274408111e+00 9.5197299557560466e+00 0 -4 1
3878 1 5.7038472873271742e+00 9.9177033329072533e+00 9.6456768946124178e+00 0 1 1
1001 1 1.0063518155006461e+01 2.4914958581726521e+00 9.6194659118420098e+00 3 3 0
358 1 1.0418989187100053e+01 2.7035841465851336e+00 6.7381333674492776e+00 3 -2 0
1777 1 1.5072085369196699e+00 9.9460055530025251e-02 1.0613143246366944e+01 6 0 0
987 1 3.4118166176849738e+00 6.1901075346589520e+00 9.1931042126621243e+00 -5 0 1
376 1 3.6019020502854908e+00 6.1154598216990781e+00 6.3376914233716422e+00 2 1 0
2712 1 7.8916436462479878e+00 6.1809438565366284e+00 7.0830511168937447e+00 1 -4 0
1285 1 7.8455200808458727e+00 6.2188668263361002e+00 9.8509657452372590e+00 0 2 1
4576 1 9.7422724941260661e+00 1.0194275247179297e+01 9.7217571333845463e+00 -5 1 1
3377 1 1.0277129590565625e+01 5.1092176013332766e+00 5.7459244302964736e+00 2 5 1
3366 1 5.5678517292527010e+00 1.0202551583972149e+01 6.7534866253377759e+00 5 5 0
3500 1 9.6411553320847787e+00 9.9674370293836230e+00 7.1314627259587331e+00 1 1 0
1281 1 2.9022540837758397e+00 9.7747865384276214e+00 8.6813654484318707e+00 4 2 1
89 1 3.5776057962702539e+00 3.6878913713806476e+00 1.0416755111644935e+01 2 2 1
4319 1 1.1874927533033940e+01 8.9805895514653411e+00 6.0706895504683329e+00 0 2 0
3696 1 1.2220890261932421e+01 9.1089258994955404e+00 3.1831407871526323e+00 -2 -4 0
39 1 7.8529266379026064e+00 3.6566774504857764e+00 1.0671446382977734e+01 3 0 0
1750 1 5.7494518838738538e+00 3.0793049884739299e-01 1.6965311894865538e+00 0 0 -1
4339 1 1.2105265867758177e+01 3.8874618369528164e+00 1.0411615512387725e+01 5 2 0
4324 1 1.0339684823084493e+01 1.2249732086979985e-01 2.3965947762115398e+00 -1 -2 1
4228 1 1.5793567601775051e+00 2.3867394853790347e+00 1.4547089239681846e+01 0 2 0
472 1 3.5989694680209983e+00 3.7610604164197832e+00 1.3262033967443893e+01 2 -3 1
308 2 1.2304999999999998e+01 1.1366872099805333e+01 1.6875572713022528e+01 0 0 0
262 2 8.6134999999999984e+00 9.2355835810918343e+00 1.6875572713022528e+01 0 0 0
2584 1 5.8294449119931606e+00 2.5984033078972528e+00 1.4571293109350682e+01 0 0 1
953 1 7.8381095688320377e+00 4.1456015047586972e+00 1.3504996443946842e+01 3 4 1
286 2 1.1074500000000002e+01 9.2355835810918343e+00 1.6875572713022528e+01 0 0 0
1315 1 1.2417052677821077e+00 1.1915173402694075e+01 1.0845491074375369e+01 3 -2 1
2556 1 9.9108999661301844e+00 2.5486072011856868e+00 1.4310094207173586e+01 3 -5 0
307 2 1.1074500000000002e+01 1.0656442593567498e+01 1.6875572713022528e+01 0 0 0
517 1 2.8570225136104748e+00 6.3036396694500469e+00 1.4532973404397186e+01 0 -1 1
409 1 1.7155197394623238e+00 9.7111628624539250e+00 1.4470383014188695e+01 -1 -1 1
440 1 3.0661563174103681e+00 9.3571139953149025e+00 1.1870294035432728e+01 -1 -1 1
4304 1 4.9708478867875456e+00 7.3726988327678011e+00 1.2916559225343667e+01 -3 -1 1
4325 1 6.9615777140857888e+00 6.5382893867367962e+00 1.4745225697534364e+01 -1 -2 1
284 2 9.8440000000000012e+00 1.1366872099805333e+01 1.6875572713022528e+01 0 0 0
2566 1 9.4933537285366754e+00 7.1526185429871596e+00 1.3972557721002747e+01 -3 1 1
4336 1 4.2617921744800018e+00 1.1857571473124869e+01 1.1257917812291534e+01 3 -2 1
4632 1 4.2049701764521643e+00 1.1767620005796319e+01 1.4141452612953795e+01 -2 7 0
285 2 9.8440000000000012e+00 8.5251540748539956e+00 1.6875572713022528e+01 0 0 0
1818 1 6.0284709058655483e+00 9.6663834182872730e+00 1.4592701081878106e+01 -1 0 1
192 1 7.5841162848896495e+00 1.1593403928598342e+01 1.3613710448657070e+01 5 2 0
139 1 1.0723427998661661e-01 6.2726855433128490e+00 1.3816305865008417e+01 -3 -1 1
4338 1 9.7562569118278386e+00 9.9225875656211819e+00 1.4268386762974167e+01 3 -4 1
193 2 0.0000000000000000e+00 2.8417180249513345e+00 1.6875572713022528e+01 0 0 0
194 2 0.0000000000000000e+00 0.0000000000000000e+00 1.6875572713022528e+01 0 0 0
195 2 1.2305000000000001e+00 7.1042950623783474e-01 1.6875572713022528e+01 0 0 0
199 2 1.2305000000000001e+00 2.1312885187134998e+00 1.6875572713022528e+01 0 0 0
200 2 2.4610000000000003e+00 2.8417180249513345e+00 1.6875572713022528e+01 0 0 0
201 2 2.4610000000000003e+00 0.0000000000000000e+00 1.6875572713022528e+01 0 0 0
202 2 3.6915000000000004e+00 7.1042950623783474e-01 1.6875572713022528e+01 0 0 0
210 2 3.6914999999999996e+00 2.1312885187134998e+00 1.6875572713022528e+01 0 0 0
211 2 4.9220000000000006e+00 2.8417180249513332e+00 1.6875572713022528e+01 0 0 0
212 2 4.9220000000000006e+00 0.0000000000000000e+00 1.6875572713022528e+01 0 0 0
213 2 6.1524999999999999e+00 7.1042950623783407e-01 1.6875572713022528e+01 0 0 0
225 2 6.1524999999999999e+00 2.1312885187134989e+00 1.6875572713022528e+01 0 0 0
226 2 7.3829999999999991e+00 2.8417180249513345e+00 1.6875572713022528e+01 0 0 0
227 2 7.3829999999999991e+00 0.0000000000000000e+00 1.6875572713022528e+01 0 0 0
228 2 8.6134999999999984e+00 7.1042950623783407e-01 1.6875572713022528e+01 0 0 0
244 2 8.6134999999999984e+00 2.1312885187135002e+00 1.6875572713022528e+01 0 0 0
245 2 9.8440000000000012e+00 2.8417180249513332e+00 1.6875572713022528e+01 0 0 0
246 2 9.8440000000000012e+00 0.0000000000000000e+00 1.6875572713022528e+01 0 0 0
247 2 1.1074500000000002e+01 7.1042950623783330e-01 1.6875572713022528e+01 0 0 0
267 2 1.1074500000000002e+01 2.1312885187135002e+00 1.6875572713022528e+01 0 0 0
197 2 0.0000000000000000e+00 4.2625770374269996e+00 1.6875572713022528e+01 0 0 0
198 2 1.2305000000000001e+00 4.9730065436648339e+00 1.6875572713022528e+01 0 0 0
206 2 1.2305000000000001e+00 6.3938655561404980e+00 1.6875572713022528e+01 0 0 0
208 2 2.4610000000000003e+00 4.2625770374269996e+00 1.6875572713022528e+01 0 0 0
209 2 3.6914999999999996e+00 4.9730065436648339e+00 1.6875572713022528e+01 0 0 0
221 2 3.6914999999999996e+00 6.3938655561404980e+00 1.6875572713022528e+01 0 0 0
196 2 0.0000000000000000e+00 7.1042950623783341e+00 1.6875572713022528e+01 0 0 0
207 2 2.4610000000000003e+00 7.1042950623783341e+00 1.6875572713022528e+01 0 0 0
223 2 4.9220000000000006e+00 4.2625770374269978e+00 1.6875572713022528e+01 0 0 0
224 2 6.1524999999999999e+00 4.9730065436648339e+00 1.6875572713022528e+01 0 0 0
240 2 6.1524999999999999e+00 6.3938655561404980e+00 1.6875572713022528e+01 0 0 0
242 2 7.3829999999999991e+00 4.2625770374269996e+00 1.6875572713022528e+01 0 0 0
222 2 4.9220000000000006e+00 7.1042950623783341e+00 1.6875572713022528e+01 0 0 0
241 2 7.3830000000000009e+00 7.1042950623783341e+00 1.6875572713022528e+01 0 0 0
243 2 8.6135000000000002e+00 4.9730065436648339e+00 1.6875572713022528e+01 0 0 0
263 2 8.6135000000000002e+00 6.3938655561404980e+00 1.6875572713022528e+01 0 0 0
265 2 9.8440000000000012e+00 4.2625770374270004e+00 1.6875572713022528e+01 0 0 0
266 2 1.1074500000000002e+01 4.9730065436648339e+00 1.6875572713022528e+01 0 0 0
287 2 1.1074500000000002e+01 6.3938655561404980e+00 1.6875572713022528e+01 0 0 0
264 2 9.8440000000000012e+00 7.1042950623783341e+00 1.6875572713022528e+01 0 0 0
218 2 2.4610000000000003e+00 1.1366872099805333e+01 1.6875572713022528e+01 0 0 0
236 2 3.6914999999999996e+00 1.0656442593567499e+01 1.6875572713022528e+01 0 0 0
204 2 0.0000000000000000e+00 8.5251540748539991e+00 1.6875572713022528e+01 0 0 0
205 2 1.2305000000000001e+00 9.2355835810918343e+00 1.6875572713022528e+01 0 0 0
219 2 2.4610000000000003e+00 8.5251540748539991e+00 1.6875572713022528e+01 0 0 0
220 2 3.6915000000000004e+00 9.2355835810918343e+00 1.6875572713022528e+01 0 0 0
203 2 0.0000000000000000e+00 1.1366872099805333e+01 1.6875572713022528e+01 0 0 0
217 2 1.2305000000000001e+00 1.0656442593567498e+01 1.6875572713022528e+01 0 0 0
238 2 4.9220000000000006e+00 8.5251540748539991e+00 1.6875572713022528e+01 0 0 0
239 2 6.1524999999999999e+00 9.2355835810918343e+00 1.6875572713022528e+01 0 0 0
261 2 7.3830000000000009e+00 8.5251540748539991e+00 1.6875572713022528e+01 0 0 0
237 2 4.9220000000000006e+00 1.1366872099805333e+01 1.6875572713022528e+01 0 0 0
260 2 7.3829999999999991e+00 1.1366872099805333e+01 1.6875572713022528e+01 0 0 0
259 2 6.1524999999999999e+00 1.0656442593567499e+01 1.6875572713022528e+01 0 0 0
283 2 8.6134999999999984e+00 1.0656442593567498e+01 1.6875572713022528e+01 0 0 0
110 1 1.1958454282312639e+01 1.1325333193179896e+01 1.3432030718311966e+01 0 2 1
1032 1 1.2230105279516337e+01 3.5136721707919363e+00 1.3211210909002080e+01 1 1 0
934 1 7.5360438837372923e-01 1.2219505295914727e+01 1.3740891220749210e+01 -1 -2 0
1887 1 1.2078837806451910e+01 5.8840846152768584e+00 1.4460705560638777e+01 2 3 1
3438 1 7.7813358835235080e-01 7.5452054472137071e+00 1.1396193919277813e+01 -1 -2 1
3368 1 9.7930895014059125e+00 7.8027920926371683e+00 1.0979365744265364e+01 0 2 1
3854 1 5.8068447342092497e+00 1.4130834006338944e-01 1.3724602915481235e+01 -1 3 0
370 1 1.2054286309283135e+01 1.1159491551133708e+01 1.0697237918212908e+01 4 -5 1
91 1 7.7761361475828332e+00 1.1580469454922046e+01 1.0967867488927480e+01 -6 3 1
549 2 0.0000000000000000e+00 1.4208590124756650e+00 2.0029147531112294e+01 0 0 0
550 2 0.0000000000000000e+00 0.0000000000000000e+00 2.0029147531112294e+01 0 0 0
554 2 1.2305000000000001e+00 2.1312885187134998e+00 2.0029147531112294e+01 0 0 0
555 2 2.4610000000000003e+00 1.4208590124756650e+00 2.0029147531112294e+01 0 0 0
556 2 2.4610000000000003e+00 0.0000000000000000e+00 2.0029147531112294e+01 0 0 0
564 2 3.6914999999999996e+00 2.1312885187134998e+00 2.0029147531112294e+01 0 0 0
710 2 0.0000000000000000e+00 2.8417180249513345e+00 2.3182722349214767e+01 0 0 0
711 2 0.0000000000000000e+00 0.0000000000000000e+00 2.3182722349214767e+01 0 0 0
712 2 1.2305000000000001e+00 7.1042950623783474e-01 2.3182722349214767e+01 0 0 0
716 2 1.2305000000000001e+00 2.1312885187134998e+00 2.3182722349214767e+01 0 0 0
717 2 2.4610000000000003e+00 2.8417180249513345e+00 2.3182722349214767e+01 0 0 0
718 2 2.4610000000000003e+00 0.0000000000000000e+00 2.3182722349214767e+01 0 0 0
719 2 3.6915000000000004e+00 7.1042950623783474e-01 2.3182722349214767e+01 0 0 0
727 2 3.6914999999999996e+00 2.1312885187134998e+00 2.3182722349214767e+01 0 0 0
553 2 1.2305000000000001e+00 3.5521475311891644e+00 2.0029147531112294e+01 0 0 0
563 2 3.6914999999999996e+00 3.5521475311891644e+00 2.0029147531112294e+01 0 0 0
565 2 4.9220000000000006e+00 1.4208590124756650e+00 2.0029147531112294e+01 0 0 0
566 2 4.9220000000000006e+00 0.0000000000000000e+00 2.0029147531112294e+01 0 0 0
578 2 6.1524999999999999e+00 2.1312885187134989e+00 2.0029147531112294e+01 0 0 0
579 2 7.3829999999999991e+00 1.4208590124756659e+00 2.0029147531112294e+01 0 0 0
580 2 7.3829999999999991e+00 0.0000000000000000e+00 2.0029147531112294e+01 0 0 0
728 2 4.9220000000000006e+00 2.8417180249513332e+00 2.3182722349214767e+01 0 0 0
729 2 4.9220000000000006e+00 0.0000000000000000e+00 2.3182722349214767e+01 0 0 0
730 2 6.1524999999999999e+00 7.1042950623783407e-01 2.3182722349214767e+01 0 0 0
742 2 6.1524999999999999e+00 2.1312885187134989e+00 2.3182722349214767e+01 0 0 0
743 2 7.3829999999999991e+00 2.8417180249513345e+00 2.3182722349214767e+01 0 0 0
744 2 7.3829999999999991e+00 0.0000000000000000e+00 2.3182722349214767e+01 0 0 0
577 2 6.1524999999999999e+00 3.5521475311891644e+00 2.0029147531112294e+01 0 0 0
596 2 8.6134999999999984e+00 2.1312885187135002e+00 2.0029147531112294e+01 0 0 0
597 2 9.8440000000000012e+00 1.4208590124756659e+00 2.0029147531112294e+01 0 0 0
598 2 9.8440000000000012e+00 0.0000000000000000e+00 2.0029147531112294e+01 0 0 0
618 2 1.1074500000000002e+01 2.1312885187135002e+00 2.0029147531112294e+01 0 0 0
745 2 8.6134999999999984e+00 7.1042950623783407e-01 2.3182722349214767e+01 0 0 0
761 2 8.6134999999999984e+00 2.1312885187135002e+00 2.3182722349214767e+01 0 0 0
762 2 9.8440000000000012e+00 2.8417180249513332e+00 2.3182722349214767e+01 0 0 0
763 2 9.8440000000000012e+00 0.0000000000000000e+00 2.3182722349214767e+01 0 0 0
764 2 1.1074500000000002e+01 7.1042950623783330e-01 2.3182722349214767e+01 0 0 0
784 2 1.1074500000000002e+01 2.1312885187135002e+00 2.3182722349214767e+01 0 0 0
595 2 8.6134999999999984e+00 3.5521475311891657e+00 2.0029147531112294e+01 0 0 0
617 2 1.1074500000000002e+01 3.5521475311891644e+00 2.0029147531112294e+01 0 0 0
551 2 0.0000000000000000e+00 5.6834360499026637e+00 2.0029147531112294e+01 0 0 0
552 2 0.0000000000000000e+00 4.2625770374269996e+00 2.0029147531112294e+01 0 0 0
560 2 1.2305000000000001e+00 6.3938655561404980e+00 2.0029147531112294e+01 0 0 0
561 2 2.4610000000000003e+00 5.6834360499026637e+00 2.0029147531112294e+01 0 0 0
562 2 2.4610000000000003e+00 4.2625770374269996e+00 2.0029147531112294e+01 0 0 0
574 2 3.6914999999999996e+00 6.3938655561404980e+00 2.0029147531112294e+01 0 0 0
714 2 0.0000000000000000e+00 4.2625770374269996e+00 2.3182722349214767e+01 0 0 0
715 2 1.2305000000000001e+00 4.9730065436648339e+00 2.3182722349214767e+01 0 0 0
723 2 1.2305000000000001e+00 6.3938655561404980e+00 2.3182722349214767e+01 0 0 0
725 2 2.4610000000000003e+00 4.2625770374269996e+00 2.3182722349214767e+01 0 0 0
726 2 3.6914999999999996e+00 4.9730065436648339e+00 2.3182722349214767e+01 0 0 0
738 2 3.6914999999999996e+00 6.3938655561404980e+00 2.3182722349214767e+01 0 0 0
559 2 1.2305000000000001e+00 7.8147245686161639e+00 2.0029147531112294e+01 0 0 0
573 2 3.6914999999999996e+00 7.8147245686161639e+00 2.0029147531112294e+01 0 0 0
713 2 0.0000000000000000e+00 7.1042950623783341e+00 2.3182722349214767e+01 0 0 0
724 2 2.4610000000000003e+00 7.1042950623783341e+00 2.3182722349214767e+01 0 0 0
575 2 4.9220000000000006e+00 5.6834360499026637e+00 2.0029147531112294e+01 0 0 0
576 2 4.9220000000000006e+00 4.2625770374269978e+00 2.0029147531112294e+01 0 0 0
592 2 6.1524999999999999e+00 6.3938655561404980e+00 2.0029147531112294e+01 0 0 0
593 2 7.3829999999999991e+00 5.6834360499026637e+00 2.0029147531112294e+01 0 0 0
594 2 7.3829999999999991e+00 4.2625770374269996e+00 2.0029147531112294e+01 0 0 0
740 2 4.9220000000000006e+00 4.2625770374269978e+00 2.3182722349214767e+01 0 0 0
741 2 6.1524999999999999e+00 4.9730065436648339e+00 2.3182722349214767e+01 0 0 0
757 2 6.1524999999999999e+00 6.3938655561404980e+00 2.3182722349214767e+01 0 0 0
759 2 7.3829999999999991e+00 4.2625770374269996e+00 2.3182722349214767e+01 0 0 0
591 2 6.1524999999999999e+00 7.8147245686161639e+00 2.0029147531112294e+01 0 0 0
739 2 4.9220000000000006e+00 7.1042950623783341e+00 2.3182722349214767e+01 0 0 0
758 2 7.3830000000000009e+00 7.1042950623783341e+00 2.3182722349214767e+01 0 0 0
614 2 8.6135000000000002e+00 6.3938655561404980e+00 2.0029147531112294e+01 0 0 0
615 2 9.8440000000000012e+00 5.6834360499026637e+00 2.0029147531112294e+01 0 0 0
616 2 9.8440000000000012e+00 4.2625770374270004e+00 2.0029147531112294e+01 0 0 0
637 2 1.1074500000000002e+01 6.3938655561404980e+00 2.0029147531112294e+01 0 0 0
760 2 8.6135000000000002e+00 4.9730065436648339e+00 2.3182722349214767e+01 0 0 0
780 2 8.6135000000000002e+00 6.3938655561404980e+00 2.3182722349214767e+01 0 0 0
782 2 9.8440000000000012e+00 4.2625770374270004e+00 2.3182722349214767e+01 0 0 0
783 2 1.1074500000000002e+01 4.9730065436648339e+00 2.3182722349214767e+01 0 0 0
804 2 1.1074500000000002e+01 6.3938655561404980e+00 2.3182722349214767e+01 0 0 0
613 2 8.6135000000000002e+00 7.8147245686161639e+00 2.0029147531112294e+01 0 0 0
636 2 1.1074500000000002e+01 7.8147245686161639e+00 2.0029147531112294e+01 0 0 0
781 2 9.8440000000000012e+00 7.1042950623783341e+00 2.3182722349214767e+01 0 0 0
557 2 0.0000000000000000e+00 9.9460130873296642e+00 2.0029147531112294e+01 0 0 0
558 2 0.0000000000000000e+00 8.5251540748539991e+00 2.0029147531112294e+01 0 0 0
571 2 2.4610000000000003e+00 9.9460130873296642e+00 2.0029147531112294e+01 0 0 0
572 2 2.4610000000000003e+00 8.5251540748539991e+00 2.0029147531112294e+01 0 0 0
721 2 0.0000000000000000e+00 8.5251540748539991e+00 2.3182722349214767e+01 0 0 0
722 2 1.2305000000000001e+00 9.2355835810918343e+00 2.3182722349214767e+01 0 0 0
736 2 2.4610000000000003e+00 8.5251540748539991e+00 2.3182722349214767e+01 0 0 0
737 2 3.6915000000000004e+00 9.2355835810918343e+00 2.3182722349214767e+01 0 0 0
569 2 1.2305000000000001e+00 1.2077301606043163e+01 2.0029147531112294e+01 0 0 0
570 2 1.2305000000000001e+00 1.0656442593567498e+01 2.0029147531112294e+01 0 0 0
587 2 3.6914999999999996e+00 1.2077301606043163e+01 2.0029147531112294e+01 0 0 0
588 2 3.6914999999999996e+00 1.0656442593567499e+01 2.0029147531112294e+01 0 0 0
720 2 0.0000000000000000e+00 1.1366872099805333e+01 2.3182722349214767e+01 0 0 0
734 2 1.2305000000000001e+00 1.0656442593567498e+01 2.3182722349214767e+01 0 0 0
735 2 2.4610000000000003e+00 1.1366872099805333e+01 2.3182722349214767e+01 0 0 0
753 2 3.6914999999999996e+00 1.0656442593567499e+01 2.3182722349214767e+01 0 0 0
589 2 4.9220000000000006e+00 9.9460130873296642e+00 2.0029147531112294e+01 0 0 0
590 2 4.9220000000000006e+00 8.5251540748539991e+00 2.0029147531112294e+01 0 0 0
611 2 7.3830000000000009e+00 9.9460130873296642e+00 2.0029147531112294e+01 0 0 0
612 2 7.3830000000000009e+00 8.5251540748539991e+00 2.0029147531112294e+01 0 0 0
755 2 4.9220000000000006e+00 8.5251540748539991e+00 2.3182722349214767e+01 0 0 0
756 2 6.1524999999999999e+00 9.2355835810918343e+00 2.3182722349214767e+01 0 0 0
778 2 7.3830000000000009e+00 8.5251540748539991e+00 2.3182722349214767e+01 0 0 0
609 2 6.1524999999999999e+00 1.2077301606043163e+01 2.0029147531112294e+01 0 0 0
610 2 6.1524999999999999e+00 1.0656442593567499e+01 2.0029147531112294e+01 0 0 0
754 2 4.9220000000000006e+00 1.1366872099805333e+01 2.3182722349214767e+01 0 0 0
776 2 6.1524999999999999e+00 1.0656442593567499e+01 2.3182722349214767e+01 0 0 0
777 2 7.3829999999999991e+00 1.1366872099805333e+01 2.3182722349214767e+01 0 0 0
634 2 9.8440000000000012e+00 9.9460130873296642e+00 2.0029147531112294e+01 0 0 0
635 2 9.8440000000000012e+00 8.5251540748539956e+00 2.0029147531112294e+01 0 0 0
779 2 8.6134999999999984e+00 9.2355835810918343e+00 2.3182722349214767e+01 0 0 0
802 2 9.8440000000000012e+00 8.5251540748539956e+00 2.3182722349214767e+01 0 0 0
803 2 1.1074500000000002e+01 9.2355835810918343e+00 2.3182722349214767e+01 0 0 0
632 2 8.6135000000000002e+00 1.2077301606043163e+01 2.0029147531112294e+01 0 0 0
633 2 8.6134999999999984e+00 1.0656442593567498e+01 2.0029147531112294e+01 0 0 0
655 2 1.1074500000000002e+01 1.2077301606043163e+01 2.0029147531112294e+01 0 0 0
656 2 1.1074500000000002e+01 1.0656442593567498e+01 2.0029147531112294e+01 0 0 0
800 2 8.6134999999999984e+00 1.0656442593567498e+01 2.3182722349214767e+01 0 0 0
801 2 9.8440000000000012e+00 1.1366872099805333e+01 2.3182722349214767e+01 0 0 0
824 2 1.1074500000000002e+01 1.0656442593567498e+01 2.3182722349214767e+01 0 0 0
825 2 1.2304999999999998e+01 1.1366872099805333e+01 2.3182722349214767e+01 0 0 0
2174 1 2.2567366703749063e+00 3.2957828038740580e+00 2.5997038212022730e+01 2 1 -1
4317 1 2.2835150966265654e+00 4.0944751242768140e-01 2.6169867013756996e+01 1 5 0
3358 1 7.1992278500066060e+00 3.6685907847733841e+00 2.9003806951159739e+01 3 0 -1
3843 1 9.9364336305234371e+00 7.7428146947602468e+00 2.9170720257192070e+01 -3 -3 0
2651 1 7.1059539038077668e+00 3.1391940885481839e-01 2.6123412623563190e+01 0 1 -1
3849 1 7.3241992671898339e+00 3.1875373410821521e+00 2.5999792879120093e+01 0 -1 -1
992 1 1.1896078035516364e+01 3.4752215831957831e+00 2.8830785020271886e+01 1 7 0
3487 1 1.1656327894542274e+01 1.1687624273723323e+01 2.9033657908910207e+01 0 2 -2
2661 1 6.9967579127592661e+00 6.3816967956973458e-01 2.8945955555817722e+01 2 -2 -1
4206 1 2.2494683723563842e+00 3.0295485084857954e+00 2.8909066048662620e+01 -2 -1 0
1270 1 7.4089835494940921e+00 8.7395973105380858e+00 2.5902759621320683e+01 -3 2 0
455 1 4.6402868306343814e+00 4.5495040783200453e+00 2.9040378534363661e+01 1 -2 0
103 1 5.0425890903731725e+00 7.4098874173642075e+00 2.5926809216963012e+01 0 3 -1
3860 1 4.8378075850386395e+00 4.6140721127523570e+00 2.6022455746830069e+01 0 3 0
1395 1 7.1483252609808083e+00 8.8389298105417584e+00 2.8581717916117071e+01 2 0 0
3067 1 9.9222744104620091e+00 5.1247130016773559e+00 2.8500783375122815e+01 -1 -2 -1
3858 1 9.6444822435481115e+00 4.6819035940238143e+00 2.5934346664755566e+01 2 0 0
3825 1 9.7288741423822689e+00 7.4800242655330873e+00 2.5578465995873682e+01 3 0 0
1337 1 2.3624713386439704e+00 3.9383949570728410e-01 2.9188341777647889e+01 -2 -5 -1
4584 1 2.2285812811161003e+00 1.1156824410822260e+01 2.5709465920575028e+01 1 -1 0
3410 1 2.2138093764112616e+00 8.4339288521144340e+00 2.5733595612779830e+01 1 -3 -1
4577 1 2.0811918383586114e+00 8.4782315047818191e+00 2.8342051600436612e+01 0 1 0
1832 1 7.4460474868067337e+00 1.1406229057243110e+01 2.5955377478800717e+01 3 -1 -1
973 1 2.4118939765126455e+00 1.1305222044749266e+01 2.8557818584312038e+01 3 6 0
2946 1 4.6300285207291161e+00 7.3085103661517952e+00 2.8897983951670035e+01 -3 3 0
3029 1 1.2016803903926553e+01 6.1974924695318989e-01 2.8681317726123471e+01 0 -1 -1
1302 1 7.2274721330523297e+00 1.1548612890343426e+01 2.9132271464592517e+01 -3 -2 -1
4526 1 1.2079176251929701e+01 3.5305332607221560e+00 2.5615515263485683e+01 1 -6 0
4201 1 1.2253352614989547e+01 7.0257174532017475e-01 2.5916507878960811e+01 5 6 0
1393 1 1.2193477000005464e+01 8.6823493825883595e+00 2.5865409594865131e+01 -2 1 -1
4199 1 9.7839425339247921e-01 2.7110785143047278e+00 3.3154917287098527e+01 0 0 -1
2140 1 3.6088240795810611e+00 3.7730113002959169e+00 3.1768210482397091e+01 1 -1 0
2545 1 1.2168855003732787e+01 4.0274373347090062e+00 3.1651106043308431e+01 0 4 0
1791 1 5.8969095575098089e+00 2.7094592836426692e+00 3.2625940776102510e+01 0 1 -1
2912 1 7.9976692057242653e+00 4.0629974567761913e+00 3.1735104808864595e+01 4 -1 -1
1845 1 1.2103514695591254e+01 6.4844052071072520e+00 3.2632156230299657e+01 2 -2 -1
2579 1 7.1960616029495528e+00 1.1623707780103929e+01 3.6841079364188360e+01 2 -2 -1
1370 1 1.0004169677079634e+01 2.8181670713953531e+00 3.3010932786064132e+01 7 -1 0
543 1 9.5472892843674373e+00 1.0558429715896303e+01 3.5656534358143176e+01 1 -1 1
4605 1 2.8438245645762028e+00 1.1509964409539128e+01 3.6213976910051173e+01 5 2 -1
2675 1 2.8516267058159790e+00 6.4525942321444036e+00 3.2755481842696270e+01 2 -1 0
1875 1 7.8852055141411626e-01 7.7239307775278974e+00 3.1598619587222945e+01 0 0 0
2588 1 7.4583727155907162e+00 6.4011681165403029e+00 3.2883544537438091e+01 2 4 0
4621 1 5.1402229257754408e+00 7.6011434580903972e+00 3.1593459974755053e+01 5 0 -1
4619 1 9.8037600007468750e+00 7.7532720232654473e+00 3.1893590107558097e+01 2 0 0
1860 1 9.7525051836537475e+00 7.8970132048484913e+00 3.6613943745902986e+01 -2 3 -1
4561 1 3.0449543252099422e+00 1.1460204861748672e+01 3.1777033555803989e+01 7 -2 -1
2963 1 9.7676468292053087e-01 1.0246948450763671e+01 3.3022844339846856e+01 -1 -5 1
4243 1 5.2013625195062394e+00 1.0193923385134353e+01 3.2824571280400278e+01 0 -3 -1
3542 1 1.2258479237047519e+01 6.6115985093316665e+00 3.5534336566555396e+01 3 2 -1
4676 1 1.1893701308126204e+01 1.1457530941323158e+01 3.1914114054667710e+01 -3 -5 0
3778 1 9.5784657497437031e+00 1.0236002415181170e+01 3.2768590394855082e+01 2 -2 -1
1886 1 1.0982495055918591e+00 2.5188991221362724e+00 3.6042331860905392e+01 0 3 -1
453 1 3.4844988430827373e+00 3.8713614601350654e+00 3.6316087268497256e+01 3 3 0
1396 1 5.8631016245222189e-01 1.0294238354760617e+01 3.5677591576367305e+01 -5 2 -1
1209 1 5.1451419948869530e+00 1.0283075402284851e+01 3.5509996478442460e+01 3 4 0
2044 1 5.6862823784016943e+00 2.6813290235606320e+00 3.5486138884415041e+01 -4 1 -1
4320 1 7.9332712877892648e+00 4.0518855715454949e+00 3.6449173700337255e+01 3 2 -1
3855 1 1.0195099845780693e+01 2.7623169411432325e+00 3.5767773321076220e+01 0 0 0
367 1 1.0204571706414216e+01 2.0336325007486894e-01 3.6858459040738282e+01 3 0 -1
2645 1 3.3855111627437968e+00 6.4275712753189431e+00 3.5561537407838500e+01 3 -1 0
3476 1 8.6590958688474284e-01 7.5075260369336840e+00 3.6362816052522945e+01 2 -1 0
390 1 5.5464951845366555e+00 7.6826588747463722e+00 3.6367066057085822e+01 -3 0 0
1344 1 7.7638770923251510e+00 6.4799210923801791e+00 3.5636429842943727e+01 -2 -1 0
3707 1 1.1930582228324901e+01 1.1586166631881795e+01 3.6452892367129664e+01 -3 -4 0
2185 1 7.3158487185454897e+00 1.1454918758919479e+01 3.1908901158294071e+01 3 0 0
941 1 1.0412736392948265e+01 2.8232604877356104e-01 3.1821382895492867e+01 0 4 -1
2539 1 1.2235344614605392e+01 4.2198289557359940e+00 3.6842548633765645e+01 1 1 0
4265 1 1.2087765745148820e+00 1.7132605624886904e-01 3.1946969862379110e+01 4 2 0
2916 1 5.8292588618376628e+00 5.2281471210932295e-02 3.1837851280147966e+01 4 3 -1
4596 1 7.3446446688067402e-01 1.5537362856094965e+01 2.0022329866448763e+00 5 1 1
2066 1 7.4536594605617734e-01 1.2917860485560471e+01 2.9334355338806093e+00 -3 2 0
1244 1 6.0752813137557260e-01 1.3041790862086067e+01 5.5400371534749491e+00 -3 -4 0
3826 1 4.9347816091572945e+00 1.5072731428655564e+01 1.8204451537829700e+00 3 5 1
4693 1 5.3254099763018932e+00 1.2724341308393546e+01 3.1867437687082778e+00 0 1 0
4626 1 5.2448923593653420e+00 1.2737081813389663e+01 5.9897283197272211e+00 -1 0 1
3413 1 9.7429434122537710e+00 1.2674522040310011e+01 2.7893900480227041e+00 2 0 0
3030 1 9.4327747501666330e+00 1.5128886575865710e+01 1.7996237131078470e+00 -1 -1 1
40 1 2.9117534223060786e+00 1.6532657523837944e+01 3.0606420869328947e+00 -3 -2 0
481 1 2.8475893420042184e+00 1.9252345779272908e+01 2.6895717412571951e+00 1 0 1
1839 1 1.1431162066864514e+01 2.1454637569346886e+01 7.1200626514825505e+00 1 2 0
4581 1 7.1396065639921060e+00 1.6119167358816672e+01 2.9304444773682059e+00 2 -2 1
4604 1 6.8374265627071491e+00 1.8896584091581140e+01 2.1040796452630968e+00 -2 1 1
1036 1 4.9843827717472404e+00 2.0582452753148736e+01 3.2264395076582169e+00 3 -1 0
406 1 1.1493528703217567e+01 1.6387982274464754e+01 2.8974197090616363e+00 3 0 2
1223 1 1.1498487566337124e+01 1.8978515475624508e+01 2.4229613913049830e+00 6 -1 1
109 1 1.1686805422985564e+01 1.6239783011817067e+01 5.6818600122019367e+00 1 0 0
1828 1 9.0245137277341474e+00 2.0296712324761167e+01 3.0812070972310757e+00 -2 -2 1
1309 1 1.1811138336848453e+01 2.4085674353068956e+01 6.3442699737363482e+00 4 -1 1
3053 1 2.4822496908139415e+00 2.4281623820919322e+01 3.1740874880562879e+00 -1 0 1
2235 1 2.0554736740208339e+00 2.4270905511024566e+01 6.0333472917688820e+00 4 0 1
1228 1 6.9596585846163626e+00 2.4337892305607152e+01 3.0741733899352930e+00 -3 0 1
2636 1 4.7359633671755992e+00 2.2895048445662990e+01 2.1932792156358869e+00 -2 -2 0
2160 1 9.4474124414718457e+00 2.3066362930242747e+01 2.2890143587672140e+00 -4 -2 0
1723 1 1.1697461107224678e+01 2.4003056990020788e+01 3.6600748970751655e+00 3 0 1
4650 1 2.6923033505246279e+00 1.4101414318690166e+01 9.4885319656643290e+00 1 2 1
4279 1 2.8558791550625551e+00 1.3961549937435921e+01 6.6612716661017544e+00 4 -2 1
3063 1 9.4360686114328711e+00 1.2396039256888717e+01 5.7707499116940300e+00 1 0 1
2582 1 6.8055696609120471e+00 1.6566148359771830e+01 5.6892980727015088e+00 1 -1 0
1333 1 7.4385759456786129e+00 1.4028250386150395e+01 7.2479695426065174e+00 3 3 0
1722 1 7.4359718505776451e+00 1.4158697357550489e+01 1.0093033526268982e+01 -5 -1 1
2224 1 6.9688940992461941e+00 2.1757060815433377e+01 7.2325858726416348e+00 0 0 0
4254 1 1.1963791620966751e+01 1.3596220383179121e+01 9.5719281322250591e+00 0 -3 1