LAMMPS data file via write_data, version 16 Mar 2018, timestep = 6000000

6489 atoms
2 atom types

0.0000000000000000e+00 4.9219999999999999e+01 xlo xhi
0.0000000000000000e+00 4.9019635930410494e+01 ylo yhi
8.0239432100774977e-01 5.9259605678984897e+01 zlo zhi

Masses

1 18.015
2 12.01

Atoms # atomic

532 1 4.3861570338999769e+00 1.1742394433857077e+00 1.8948040964397641e+00 -2 0 0
1272 1 9.2316499444098241e+00 1.5046582688647021e+01 5.5558573105009703e+00 -1 -1 0
6225 1 4.9517940558877056e+00 3.6256182673772432e+00 2.8477877258242299e+00 2 1 0
3111 1 3.9818516015202315e-01 1.9181985524413783e+00 1.7826414029880617e+00 2 1 1
3314 1 4.7829223829102663e+00 3.3048030233727173e+00 5.5306774560765133e+00 1 1 1
3171 1 3.0412376157060983e+00 4.9759385752119707e+00 9.8197166845732955e+00 0 -2 0
3756 1 5.7488009521996075e-01 4.4202842943516174e+00 2.7403289702456561e+00 0 -1 0
4632 1 3.0131674036119915e+00 5.2090763859724261e+00 1.5706495821689717e+00 2 -2 0
4827 1 3.7060181763777815e+00 7.8026413195307427e+00 2.7470242806583594e+00 -1 1 1
2018 1 7.4296197124160130e+00 4.5442362128041260e+00 1.9562211098804174e+00 1 -3 0
4744 1 8.1797457055715768e+00 7.0247173383695696e+00 2.8641239059773129e+00 -2 2 1
6185 1 8.3103215251381570e+00 6.6614312845890087e+00 5.6221126832208652e+00 2 2 1
1418 1 1.6791742741237574e+00 9.8667213436150831e+00 1.8232772048405896e+00 -2 0 1
5082 1 2.2359599988956864e+00 1.2446908045222324e+01 2.8139322749365028e+00 2 -2 1
1649 1 6.2067354110204693e+00 8.6827066217433622e+00 1.8110918295406004e+00 1 1 0
392 1 6.7223903512892740e+00 1.1424549612036733e+01 2.7583391776630304e+00 -1 4 0
3447 1 6.8578917065280613e+00 1.1233251692144053e+01 5.5789029679216453e+00 1 -1 1
144 1 4.7177263092319057e+00 1.3121207667429799e+01 1.8057662047410599e+00 4 -1 0
5201 1 9.1358501244586012e+00 1.2055385164227268e+01 1.0257619980914383e+01 -1 4 0
3725 1 3.9276288813971927e-01 1.3800251075077137e+01 9.9576394516759095e+00 -2 -1 1
4963 1 9.1842194495338951e+00 1.2138968860850447e+01 2.0984002959742307e+00 0 -1 1
5286 1 5.0452906572585796e+00 1.5597628168582272e+01 2.6540835002123209e+00 1 -1 0
182 1 5.2159313756732462e-01 1.4208987363684077e+01 1.7985739332149397e+00 0 1 1
3745 1 2.2621754277228514e+00 2.0175419270138035e+00 6.5245781650302250e+00 2 1 1
3403 1 2.5124831654788613e+00 2.2608295461418222e+00 9.3442950199326678e+00 2 2 0
1529 1 4.4752501046837452e+00 3.6279361825396289e-01 9.9659821220345002e+00 -2 0 1
2996 1 9.5067781402814173e+00 2.5858312001772297e+00 5.6042948139438549e+00 1 -2 1
3703 1 6.9232626128385473e+00 1.7117173883119410e+00 6.3418386883465967e+00 0 0 1
1672 1 6.9385493960259774e+00 1.2507231538414028e+00 9.1610221947019372e+00 -2 -1 0
2060 1 1.8877632684361115e-02 1.4470028415406517e+00 9.9234454607626326e+00 -1 1 0
5438 1 3.7520689000534073e+00 7.8191271257849619e+00 5.4867900038090047e+00 0 1 1
3402 1 8.9748999565084808e-01 4.4739623219421238e+00 5.5644758943203518e+00 1 1 0
4794 1 1.1143788408005573e+00 6.6045822021244396e+00 8.9627134640720083e+00 1 0 0
4580 1 1.6115189340353504e+00 6.9881606066007853e+00 6.4544526064103627e+00 0 1 1
4875 1 7.3130981407698412e+00 3.9311730722075713e+00 1.0027556533413216e+01 -1 2 0
297 1 5.7629947695261476e+00 5.8424235684014949e+00 6.2897252751122483e+00 2 1 0
5441 1 5.6908677002751329e+00 5.9185235054955649e+00 9.2739549481143264e+00 1 1 1
288 1 7.1549989715808167e+00 1.3900762450505662e+01 6.3647693411273565e+00 -2 -1 1
3182 1 2.5597165317770809e+00 1.2209179224018074e+01 5.5435072644742815e+00 1 -1 1
6181 1 1.6384308088447155e+00 9.1241283864485094e+00 9.9342167533269610e+00 -3 -1 1
4882 1 4.1450334220333325e+00 1.0188779005757400e+01 9.2439429711433760e+00 1 -1 0
5086 1 4.2656721204757782e+00 1.0278463338060819e+01 6.5846793022413399e+00 1 -2 0
6277 1 8.5125076940694964e+00 9.5860288065391632e+00 9.2128595820896830e+00 2 0 0
1514 1 6.1201378935523341e+00 8.6877469949312278e+00 9.8814756071242353e+00 1 2 0
1891 1 8.6509734007665813e+00 9.3610852324405478e+00 6.4874677581000855e+00 0 2 0
1939 1 4.7981983793124749e+00 1.2672714761967294e+01 1.0213773503282688e+01 -3 1 0
6430 1 9.4041767571289210e+00 2.7867953654194348e+00 2.7968966584724431e+00 0 0 1
1973 1 2.9271608753442773e+00 1.4697320329218982e+01 9.3680782043061139e+00 0 -2 0
1839 1 2.8957393120326285e+00 1.4727561028081288e+01 6.5280204317553796e+00 1 1 0
2878 1 7.3773887310272892e+00 1.3939657403411694e+01 9.1915245062273456e+00 -2 2 0
3730 1 5.1324081298483266e+00 1.5622838494365645e+01 5.3767478400227073e+00 1 1 0
2957 1 9.3218352592900793e+00 1.4885197388556383e+01 3.0214418986880816e+00 -2 -1 1
1557 1 1.0599244522275895e+00 1.6338989265053474e+01 5.2912232538003963e+00 1 3 1
1766 1 3.5372039183094728e-02 1.1381883315844423e+01 6.4506396826555514e+00 2 -1 0
6379 1 8.8860872759565765e+00 1.2960919602819843e-01 1.9136614505157739e+00 2 0 1
1967 1 2.4824152947406062e+00 2.3490392966613163e+00 1.3956318926030781e+01 -1 2 0
2868 1 4.6196395850994705e+00 8.9928217687969425e-01 1.2782064752496131e+01 0 -1 1
1518 1 7.1714563003597442e+00 1.7808600614403909e+00 1.3468614925345246e+01 1 3 0
5316 1 2.7468210125414041e+00 4.8611755756807291e+00 1.2564054970138638e+01 1 0 0
5263 1 9.7986626943871369e-01 6.6315258485939443e+00 1.3722613236183875e+01 3 1 0
3199 1 7.5012792505778645e+00 4.4374403101823967e+00 1.2651427605886154e+01 1 -3 0
1378 1 5.3076150063338750e+00 6.0011654721075169e+00 1.3601303513184542e+01 1 2 1
3505 1 7.2778792270390964e+00 1.4001843183301883e+01 1.6342954880896450e+01 1 0 0
5083 1 1.8040553853888481e+00 9.2353629252499143e+00 1.2760402418497915e+01 2 0 0
4890 1 4.2251312894624382e+00 1.0196529055823280e+01 1.3608608071367112e+01 2 0 1
5117 1 6.2117772531491662e+00 8.4872555214043341e+00 1.2665775407034747e+01 0 0 0
1840 1 8.5481994559005212e+00 9.5901114830438985e+00 1.3965118035867208e+01 4 1 0
1836 1 2.7347131932952213e+00 1.4666676473923399e+01 1.3774193472652064e+01 -1 -2 0
6288 1 4.6493665660436676e+00 1.2769931357622877e+01 1.2921869987035084e+01 2 1 1
167 1 3.9099113287799431e-01 1.3767939020499149e+01 1.7283072607357632e+01 1 -2 1
3265 1 8.9273914715652314e+00 1.2198123483829942e+01 1.3069426508540593e+01 -2 -1 1
2128 1 7.0674307649572450e+00 1.4023470318251928e+01 1.3742724781736669e+01 1 1 1
5152 1 2.2123447042392869e-01 1.3636088345601056e+01 1.2688577389767371e+01 0 0 0
1614 1 2.6856720296109291e+00 2.2183384779910296e+00 1.6507214743829717e+01 2 0 1
3688 1 4.4827400952103700e+00 4.7600473228922940e-01 1.7539702883304560e+01 -1 1 1
1387 1 2.3562137061388896e-01 1.4306124080077065e+00 1.7429563054667280e+01 0 -1 1
5380 1 5.1387525360021480e-01 1.3671902876002672e+01 2.0149554186458499e+01 2 3 0
513 1 6.9019132594223001e+00 1.5756728227748558e+00 1.6429696583627621e+01 1 2 1
3398 1 9.3998127752928280e+00 1.1835106015407144e+01 2.0096729404534987e+01 -2 -1 1
6357 1 3.2150771475183739e+00 4.7305157733791789e+00 1.7440389678903546e+01 -1 3 1
12 1 1.4884207362507522e+00 6.7980415910313603e+00 1.6584559184360995e+01 -1 0 1
3100 1 8.0777658689399345e-03 1.3736674793921959e+00 1.2880943992357086e+01 4 3 1
4551 1 7.4280337530449483e+00 3.9711078778138726e+00 1.7700630637546034e+01 1 3 0
1715 1 5.6024223451872608e+00 5.7802766091648783e+00 1.6364785071607670e+01 3 -1 0
6104 1 7.9750986878202106e+00 1.6307428165684332e+01 2.0029411658789815e+01 2 0 1
3589 1 1.9632146961498989e+00 9.2193448309626973e+00 1.7528301200907077e+01 1 -2 0
4688 1 4.2074605448969518e+00 1.0496458792395716e+01 1.6416417425532487e+01 -2 1 1
5400 1 4.7785432289111380e+00 1.3011686473161969e+01 1.7303367972082285e+01 2 2 1
4514 1 2.8176329091039860e+00 1.4646882992575636e+01 1.6509441791718920e+01 1 1 1
3119 1 5.8501182251275035e+00 8.6103285404980845e+00 1.7266928285341887e+01 -1 0 1
3013 1 9.1493698028630472e+00 1.2213243734206381e+01 1.7232911749733351e+01 -1 2 1
4526 1 8.4863201745076609e+00 9.7973769174141960e+00 1.6629377817394627e+01 2 0 1
2933 1 6.4276646452367432e+00 8.5880456395670954e+00 1.9956735914364351e+01 2 3 1
4783 1 2.0655534407156422e+00 8.9943192109373840e+00 2.0164361433876199e+01 -1 0 1
5410 1 1.8878430500542676e-01 1.1005087468055242e+01 1.6565414388869861e+01 1 2 1
6217 1 2.4057367727837725e-01 1.3043725218961717e+00 2.0003310200331036e+01 0 1 1
1965 1 3.6367041825068385e+00 4.8959805310406930e+00 2.0216691802435371e+01 -3 1 1
250 1 9.6486335641233580e+00 5.0754354055380029e+00 1.6484299672127705e+01 -2 -1 1
172 1 6.3926702001529856e-01 3.9017294501224438e+00 2.3713598197347441e+01 5 -1 0
477 1 1.1408924078470839e+00 3.8200623460766834e+00 2.1051973890877278e+01 0 0 0
4503 1 9.2532929147986174e+00 1.1958535748433951e+01 2.4408159840463405e+01 -1 -1 0
226 1 5.7998263793145854e-01 1.3582837398329005e+01 2.4258601819960862e+01 1 3 0
271 1 5.0782126398453142e+00 2.8963337116612164e+00 2.4153301453690769e+01 2 0 0
6343 1 5.1469814815441159e+00 2.7763332067911404e+00 2.1291300996543885e+01 4 1 1
3213 1 7.6672570582479009e+00 4.1398378064962458e+00 2.4038223986078194e+01 -1 -2 1
4810 1 1.0321059860394697e+00 1.6207856227156995e+01 2.3792900812951551e+01 2 1 1
3249 1 3.2975506462061359e+00 4.9417677585755468e+00 2.4435742858713567e+01 0 0 0
2876 1 4.1136371408111518e+00 7.3123780058859591e+00 2.3502897187609911e+01 -1 -1 0
311 1 9.8212360417899003e+00 2.2686334698609736e+00 2.3979630707237082e+01 1 0 0
6285 1 8.4088976627845593e+00 6.9981107349961551e+00 2.0782687709684097e+01 1 1 0
3290 1 8.2878223568409659e+00 6.8434597931587851e+00 2.3512798261656069e+01 -1 1 0
4523 1 1.8229487840801917e+00 8.6344485920504521e+00 2.4359044240102190e+01 -1 -1 1
1277 1 2.4587107952089866e+00 1.1538572152165729e+01 2.3784615361150088e+01 0 1 1
5187 1 2.4102107953943968e+00 1.1943510659907060e+01 2.0974648573030834e+01 0 0 0
3137 1 6.2886716697979050e+00 8.5317042306610045e+00 2.4474801829877503e+01 -1 2 1
3421 1 7.0024424820613076e+00 1.1159730149686874e+01 2.0777548572028220e+01 0 0 0
4596 1 6.5368403620958819e+00 1.1001741386229588e+01 2.3693789822060754e+01 1 2 1
697 2 6.1524999999999990e+00 1.3498160618518829e+01 2.6738920777461072e+01 0 0 0
3330 1 4.7254403365898652e-02 1.4189839742467165e+00 2.4596931737384249e+01 0 0 1
1777 1 4.7312686968779278e+00 1.2846159196799233e+01 2.4409872636405463e+01 2 0 0
695 2 4.9220000000000006e+00 1.2787731112280996e+01 2.6738920777461072e+01 0 0 0
5320 1 5.5667367457315562e+00 1.5443992672300167e+01 2.3785823670340893e+01 2 -1 0
195 1 5.6812984054418170e+00 1.5626199223156549e+01 2.1108630578769922e+01 1 -1 0
3786 1 4.7458108694205059e+00 3.8752262026193979e-01 2.4298035156777271e+01 1 -1 1
572 2 0.0000000000000000e+00 2.8417180249513345e+00 2.6738920777461072e+01 0 0 0
574 2 0.0000000000000000e+00 0.0000000000000000e+00 2.6738920777461072e+01 0 0 0
576 2 1.2305000000000001e+00 7.1042950623783474e-01 2.6738920777461072e+01 0 0 0
583 2 1.2305000000000001e+00 2.1312885187134998e+00 2.6738920777461072e+01 0 0 0
585 2 2.4610000000000003e+00 2.8417180249513345e+00 2.6738920777461072e+01 0 0 0
587 2 2.4610000000000003e+00 0.0000000000000000e+00 2.6738920777461072e+01 0 0 0
589 2 3.6915000000000004e+00 7.1042950623783474e-01 2.6738920777461072e+01 0 0 0
604 2 3.6914999999999996e+00 2.1312885187134998e+00 2.6738920777461072e+01 0 0 0
606 2 4.9220000000000006e+00 2.8417180249513332e+00 2.6738920777461072e+01 0 0 0
608 2 4.9220000000000006e+00 0.0000000000000000e+00 2.6738920777461072e+01 0 0 0
610 2 6.1524999999999999e+00 7.1042950623783407e-01 2.6738920777461072e+01 0 0 0
633 2 6.1524999999999999e+00 2.1312885187134989e+00 2.6738920777461072e+01 0 0 0
635 2 7.3829999999999991e+00 2.8417180249513345e+00 2.6738920777461072e+01 0 0 0
637 2 7.3829999999999991e+00 0.0000000000000000e+00 2.6738920777461072e+01 0 0 0
639 2 8.6134999999999984e+00 7.1042950623783407e-01 2.6738920777461072e+01 0 0 0
670 2 8.6134999999999984e+00 2.1312885187135002e+00 2.6738920777461072e+01 0 0 0
579 2 0.0000000000000000e+00 4.2625770374269996e+00 2.6738920777461072e+01 0 0 0
581 2 1.2305000000000001e+00 4.9730065436648339e+00 2.6738920777461072e+01 0 0 0
596 2 1.2305000000000001e+00 6.3938655561404980e+00 2.6738920777461072e+01 0 0 0
600 2 2.4610000000000003e+00 4.2625770374269996e+00 2.6738920777461072e+01 0 0 0
602 2 3.6914999999999996e+00 4.9730065436648339e+00 2.6738920777461072e+01 0 0 0
625 2 3.6914999999999996e+00 6.3938655561404980e+00 2.6738920777461072e+01 0 0 0
577 2 0.0000000000000000e+00 7.1042950623783341e+00 2.6738920777461072e+01 0 0 0
598 2 2.4610000000000003e+00 7.1042950623783341e+00 2.6738920777461072e+01 0 0 0
629 2 4.9220000000000006e+00 4.2625770374269978e+00 2.6738920777461072e+01 0 0 0
631 2 6.1524999999999999e+00 4.9730065436648339e+00 2.6738920777461072e+01 0 0 0
662 2 6.1524999999999999e+00 6.3938655561404980e+00 2.6738920777461072e+01 0 0 0
666 2 7.3829999999999991e+00 4.2625770374269996e+00 2.6738920777461072e+01 0 0 0
668 2 8.6135000000000002e+00 4.9730065436648339e+00 2.6738920777461072e+01 0 0 0
707 2 8.6135000000000002e+00 6.3938655561404980e+00 2.6738920777461072e+01 0 0 0
627 2 4.9220000000000006e+00 7.1042950623783341e+00 2.6738920777461072e+01 0 0 0
664 2 7.3830000000000009e+00 7.1042950623783341e+00 2.6738920777461072e+01 0 0 0
592 2 0.0000000000000000e+00 8.5251540748539991e+00 2.6738920777461072e+01 0 0 0
594 2 1.2305000000000001e+00 9.2355835810918343e+00 2.6738920777461072e+01 0 0 0
621 2 2.4610000000000003e+00 8.5251540748539991e+00 2.6738920777461072e+01 0 0 0
623 2 3.6915000000000004e+00 9.2355835810918343e+00 2.6738920777461072e+01 0 0 0
590 2 0.0000000000000000e+00 1.1366872099805333e+01 2.6738920777461072e+01 0 0 0
617 2 1.2305000000000001e+00 1.0656442593567498e+01 2.6738920777461072e+01 0 0 0
619 2 2.4610000000000003e+00 1.1366872099805333e+01 2.6738920777461072e+01 0 0 0
654 2 3.6914999999999996e+00 1.0656442593567499e+01 2.6738920777461072e+01 0 0 0
658 2 4.9220000000000006e+00 8.5251540748539991e+00 2.6738920777461072e+01 0 0 0
660 2 6.1524999999999999e+00 9.2355835810918343e+00 2.6738920777461072e+01 0 0 0
703 2 7.3830000000000009e+00 8.5251540748539991e+00 2.6738920777461072e+01 0 0 0
705 2 8.6134999999999984e+00 9.2355835810918343e+00 2.6738920777461072e+01 0 0 0
656 2 4.9220000000000006e+00 1.1366872099805333e+01 2.6738920777461072e+01 0 0 0
699 2 6.1524999999999999e+00 1.0656442593567499e+01 2.6738920777461072e+01 0 0 0
701 2 7.3829999999999991e+00 1.1366872099805333e+01 2.6738920777461072e+01 0 0 0
746 2 8.6134999999999984e+00 1.0656442593567498e+01 2.6738920777461072e+01 0 0 0
615 2 1.2305000000000001e+00 1.3498160618518829e+01 2.6738920777461072e+01 0 0 0
611 2 0.0000000000000000e+00 1.5629449137232333e+01 2.6738920777461072e+01 0 0 0
691 2 3.6915000000000004e+00 1.4919019630994494e+01 2.6738920777461072e+01 0 0 0
646 2 1.2305000000000001e+00 1.4919019630994494e+01 2.6738920777461072e+01 0 0 0
648 2 2.4610000000000003e+00 1.5629449137232328e+01 2.6738920777461072e+01 0 0 0
650 2 2.4610000000000003e+00 1.2787731112280996e+01 2.6738920777461072e+01 0 0 0
652 2 3.6915000000000004e+00 1.3498160618518829e+01 2.6738920777461072e+01 0 0 0
613 2 0.0000000000000000e+00 1.2787731112280996e+01 2.6738920777461072e+01 0 0 0
738 2 6.1524999999999990e+00 1.4919019630994494e+01 2.6738920777461072e+01 0 0 0
693 2 4.9220000000000006e+00 1.5629449137232333e+01 2.6738920777461072e+01 0 0 0
740 2 7.3829999999999991e+00 1.5629449137232333e+01 2.6738920777461072e+01 0 0 0
785 2 8.6135000000000002e+00 1.4919019630994494e+01 2.6738920777461072e+01 0 0 0
744 2 8.6135000000000002e+00 1.3498160618518835e+01 2.6738920777461072e+01 0 0 0
742 2 7.3829999999999991e+00 1.2787731112280996e+01 2.6738920777461072e+01 0 0 0
5185 1 4.1604855650513288e+00 7.5062168866725143e+00 2.0867000484596755e+01 1 0 1
5446 1 9.4766363413818322e+00 2.1262196776558104e+00 2.0888893580594459e+01 1 -2 1
2037 1 7.4006189066565184e+00 4.2271444388158432e+00 2.0504886180023270e+01 0 0 1
1856 1 8.0950927198269920e+00 1.6332683344299323e+01 2.4332886499431826e+01 -2 3 0
4901 1 4.9154266932675572e+00 1.2897046896218088e+01 2.0350055127028149e+01 0 2 1
2054 1 4.6247609176679463e+00 3.1866080761559401e-01 2.0442385384249071e+01 2 -1 0
573 2 0.0000000000000000e+00 1.4208590124756650e+00 3.0030999999996752e+01 0 0 0
575 2 0.0000000000000000e+00 0.0000000000000000e+00 3.0030999999996752e+01 0 0 0
584 2 1.2305000000000001e+00 2.1312885187134998e+00 3.0030999999996752e+01 0 0 0
586 2 2.4610000000000003e+00 1.4208590124756650e+00 3.0030999999996752e+01 0 0 0
588 2 2.4610000000000003e+00 0.0000000000000000e+00 3.0030999999996752e+01 0 0 0
605 2 3.6914999999999996e+00 2.1312885187134998e+00 3.0030999999996752e+01 0 0 0
582 2 1.2305000000000001e+00 3.5521475311891644e+00 3.0030999999996752e+01 0 0 0
603 2 3.6914999999999996e+00 3.5521475311891644e+00 3.0030999999996752e+01 0 0 0
901 2 0.0000000000000000e+00 2.8417180249513345e+00 3.3323079222520732e+01 0 0 0
902 2 0.0000000000000000e+00 0.0000000000000000e+00 3.3323079222520732e+01 0 0 0
903 2 1.2305000000000001e+00 7.1042950623783474e-01 3.3323079222520732e+01 0 0 0
907 2 1.2305000000000001e+00 2.1312885187134998e+00 3.3323079222520732e+01 0 0 0
908 2 2.4610000000000003e+00 2.8417180249513345e+00 3.3323079222520732e+01 0 0 0
909 2 2.4610000000000003e+00 0.0000000000000000e+00 3.3323079222520732e+01 0 0 0
910 2 3.6915000000000004e+00 7.1042950623783474e-01 3.3323079222520732e+01 0 0 0
918 2 3.6914999999999996e+00 2.1312885187134998e+00 3.3323079222520732e+01 0 0 0
607 2 4.9220000000000006e+00 1.4208590124756650e+00 3.0030999999996752e+01 0 0 0
609 2 4.9220000000000006e+00 0.0000000000000000e+00 3.0030999999996752e+01 0 0 0
634 2 6.1524999999999999e+00 2.1312885187134989e+00 3.0030999999996752e+01 0 0 0
636 2 7.3829999999999991e+00 1.4208590124756659e+00 3.0030999999996752e+01 0 0 0
638 2 7.3829999999999991e+00 0.0000000000000000e+00 3.0030999999996752e+01 0 0 0
671 2 8.6134999999999984e+00 2.1312885187135002e+00 3.0030999999996752e+01 0 0 0
632 2 6.1524999999999999e+00 3.5521475311891644e+00 3.0030999999996752e+01 0 0 0
669 2 8.6134999999999984e+00 3.5521475311891657e+00 3.0030999999996752e+01 0 0 0
919 2 4.9220000000000006e+00 2.8417180249513332e+00 3.3323079222520732e+01 0 0 0
920 2 4.9220000000000006e+00 0.0000000000000000e+00 3.3323079222520732e+01 0 0 0
921 2 6.1524999999999999e+00 7.1042950623783407e-01 3.3323079222520732e+01 0 0 0
933 2 6.1524999999999999e+00 2.1312885187134989e+00 3.3323079222520732e+01 0 0 0
934 2 7.3829999999999991e+00 2.8417180249513345e+00 3.3323079222520732e+01 0 0 0
935 2 7.3829999999999991e+00 0.0000000000000000e+00 3.3323079222520732e+01 0 0 0
936 2 8.6134999999999984e+00 7.1042950623783407e-01 3.3323079222520732e+01 0 0 0
952 2 8.6134999999999984e+00 2.1312885187135002e+00 3.3323079222520732e+01 0 0 0
578 2 0.0000000000000000e+00 5.6834360499026637e+00 3.0030999999996752e+01 0 0 0
580 2 0.0000000000000000e+00 4.2625770374269996e+00 3.0030999999996752e+01 0 0 0
597 2 1.2305000000000001e+00 6.3938655561404980e+00 3.0030999999996752e+01 0 0 0
599 2 2.4610000000000003e+00 5.6834360499026637e+00 3.0030999999996752e+01 0 0 0
601 2 2.4610000000000003e+00 4.2625770374269996e+00 3.0030999999996752e+01 0 0 0
626 2 3.6914999999999996e+00 6.3938655561404980e+00 3.0030999999996752e+01 0 0 0
595 2 1.2305000000000001e+00 7.8147245686161639e+00 3.0030999999996752e+01 0 0 0
624 2 3.6914999999999996e+00 7.8147245686161639e+00 3.0030999999996752e+01 0 0 0
905 2 0.0000000000000000e+00 4.2625770374269996e+00 3.3323079222520732e+01 0 0 0
906 2 1.2305000000000001e+00 4.9730065436648339e+00 3.3323079222520732e+01 0 0 0
914 2 1.2305000000000001e+00 6.3938655561404980e+00 3.3323079222520732e+01 0 0 0
916 2 2.4610000000000003e+00 4.2625770374269996e+00 3.3323079222520732e+01 0 0 0
917 2 3.6914999999999996e+00 4.9730065436648339e+00 3.3323079222520732e+01 0 0 0
929 2 3.6914999999999996e+00 6.3938655561404980e+00 3.3323079222520732e+01 0 0 0
904 2 0.0000000000000000e+00 7.1042950623783341e+00 3.3323079222520732e+01 0 0 0
915 2 2.4610000000000003e+00 7.1042950623783341e+00 3.3323079222520732e+01 0 0 0
628 2 4.9220000000000006e+00 5.6834360499026637e+00 3.0030999999996752e+01 0 0 0
630 2 4.9220000000000006e+00 4.2625770374269978e+00 3.0030999999996752e+01 0 0 0
663 2 6.1524999999999999e+00 6.3938655561404980e+00 3.0030999999996752e+01 0 0 0
665 2 7.3829999999999991e+00 5.6834360499026637e+00 3.0030999999996752e+01 0 0 0
667 2 7.3829999999999991e+00 4.2625770374269996e+00 3.0030999999996752e+01 0 0 0
708 2 8.6135000000000002e+00 6.3938655561404980e+00 3.0030999999996752e+01 0 0 0
661 2 6.1524999999999999e+00 7.8147245686161639e+00 3.0030999999996752e+01 0 0 0
706 2 8.6135000000000002e+00 7.8147245686161639e+00 3.0030999999996752e+01 0 0 0
931 2 4.9220000000000006e+00 4.2625770374269978e+00 3.3323079222520732e+01 0 0 0
932 2 6.1524999999999999e+00 4.9730065436648339e+00 3.3323079222520732e+01 0 0 0
948 2 6.1524999999999999e+00 6.3938655561404980e+00 3.3323079222520732e+01 0 0 0
950 2 7.3829999999999991e+00 4.2625770374269996e+00 3.3323079222520732e+01 0 0 0
951 2 8.6135000000000002e+00 4.9730065436648339e+00 3.3323079222520732e+01 0 0 0
971 2 8.6135000000000002e+00 6.3938655561404980e+00 3.3323079222520732e+01 0 0 0
930 2 4.9220000000000006e+00 7.1042950623783341e+00 3.3323079222520732e+01 0 0 0
949 2 7.3830000000000009e+00 7.1042950623783341e+00 3.3323079222520732e+01 0 0 0
591 2 0.0000000000000000e+00 9.9460130873296642e+00 3.0030999999996752e+01 0 0 0
593 2 0.0000000000000000e+00 8.5251540748539991e+00 3.0030999999996752e+01 0 0 0
620 2 2.4610000000000003e+00 9.9460130873296642e+00 3.0030999999996752e+01 0 0 0
622 2 2.4610000000000003e+00 8.5251540748539991e+00 3.0030999999996752e+01 0 0 0
616 2 1.2305000000000001e+00 1.2077301606043163e+01 3.0030999999996752e+01 0 0 0
618 2 1.2305000000000001e+00 1.0656442593567498e+01 3.0030999999996752e+01 0 0 0
653 2 3.6914999999999996e+00 1.2077301606043163e+01 3.0030999999996752e+01 0 0 0
655 2 3.6914999999999996e+00 1.0656442593567499e+01 3.0030999999996752e+01 0 0 0
912 2 0.0000000000000000e+00 8.5251540748539991e+00 3.3323079222520732e+01 0 0 0
913 2 1.2305000000000001e+00 9.2355835810918343e+00 3.3323079222520732e+01 0 0 0
927 2 2.4610000000000003e+00 8.5251540748539991e+00 3.3323079222520732e+01 0 0 0
928 2 3.6915000000000004e+00 9.2355835810918343e+00 3.3323079222520732e+01 0 0 0
911 2 0.0000000000000000e+00 1.1366872099805333e+01 3.3323079222520732e+01 0 0 0
925 2 1.2305000000000001e+00 1.0656442593567498e+01 3.3323079222520732e+01 0 0 0
926 2 2.4610000000000003e+00 1.1366872099805333e+01 3.3323079222520732e+01 0 0 0
944 2 3.6914999999999996e+00 1.0656442593567499e+01 3.3323079222520732e+01 0 0 0
657 2 4.9220000000000006e+00 9.9460130873296642e+00 3.0030999999996752e+01 0 0 0
659 2 4.9220000000000006e+00 8.5251540748539991e+00 3.0030999999996752e+01 0 0 0
702 2 7.3830000000000009e+00 9.9460130873296642e+00 3.0030999999996752e+01 0 0 0
704 2 7.3830000000000009e+00 8.5251540748539991e+00 3.0030999999996752e+01 0 0 0
698 2 6.1524999999999999e+00 1.2077301606043163e+01 3.0030999999996752e+01 0 0 0
700 2 6.1524999999999999e+00 1.0656442593567499e+01 3.0030999999996752e+01 0 0 0
745 2 8.6135000000000002e+00 1.2077301606043163e+01 3.0030999999996752e+01 0 0 0
747 2 8.6134999999999984e+00 1.0656442593567498e+01 3.0030999999996752e+01 0 0 0
946 2 4.9220000000000006e+00 8.5251540748539991e+00 3.3323079222520732e+01 0 0 0
947 2 6.1524999999999999e+00 9.2355835810918343e+00 3.3323079222520732e+01 0 0 0
969 2 7.3830000000000009e+00 8.5251540748539991e+00 3.3323079222520732e+01 0 0 0
970 2 8.6134999999999984e+00 9.2355835810918343e+00 3.3323079222520732e+01 0 0 0
945 2 4.9220000000000006e+00 1.1366872099805333e+01 3.3323079222520732e+01 0 0 0
967 2 6.1524999999999999e+00 1.0656442593567499e+01 3.3323079222520732e+01 0 0 0
968 2 7.3829999999999991e+00 1.1366872099805333e+01 3.3323079222520732e+01 0 0 0
991 2 8.6134999999999984e+00 1.0656442593567498e+01 3.3323079222520732e+01 0 0 0
614 2 0.0000000000000000e+00 1.2787731112280996e+01 3.0030999999996752e+01 0 0 0
651 2 2.4610000000000003e+00 1.2787731112280996e+01 3.0030999999996752e+01 0 0 0
612 2 0.0000000000000000e+00 1.4208590124756663e+01 3.0030999999996752e+01 0 0 0
647 2 1.2305000000000001e+00 1.4919019630994494e+01 3.0030999999996752e+01 0 0 0
649 2 2.4610000000000003e+00 1.4208590124756663e+01 3.0030999999996752e+01 0 0 0
692 2 3.6915000000000004e+00 1.4919019630994494e+01 3.0030999999996752e+01 0 0 0
923 2 0.0000000000000000e+00 1.2787731112280996e+01 3.3323079222520732e+01 0 0 0
924 2 1.2305000000000001e+00 1.3498160618518829e+01 3.3323079222520732e+01 0 0 0
942 2 2.4610000000000003e+00 1.2787731112280996e+01 3.3323079222520732e+01 0 0 0
943 2 3.6915000000000004e+00 1.3498160618518829e+01 3.3323079222520732e+01 0 0 0
922 2 0.0000000000000000e+00 1.5629449137232333e+01 3.3323079222520732e+01 0 0 0
940 2 1.2305000000000001e+00 1.4919019630994494e+01 3.3323079222520732e+01 0 0 0
941 2 2.4610000000000003e+00 1.5629449137232328e+01 3.3323079222520732e+01 0 0 0
963 2 3.6915000000000004e+00 1.4919019630994494e+01 3.3323079222520732e+01 0 0 0
696 2 4.9220000000000006e+00 1.2787731112280996e+01 3.0030999999996752e+01 0 0 0
743 2 7.3829999999999991e+00 1.2787731112280996e+01 3.0030999999996752e+01 0 0 0
694 2 4.9220000000000006e+00 1.4208590124756663e+01 3.0030999999996752e+01 0 0 0
739 2 6.1524999999999990e+00 1.4919019630994494e+01 3.0030999999996752e+01 0 0 0
741 2 7.3830000000000009e+00 1.4208590124756663e+01 3.0030999999996752e+01 0 0 0
786 2 8.6135000000000002e+00 1.4919019630994494e+01 3.0030999999996752e+01 0 0 0
965 2 4.9220000000000006e+00 1.2787731112280996e+01 3.3323079222520732e+01 0 0 0
966 2 6.1524999999999990e+00 1.3498160618518829e+01 3.3323079222520732e+01 0 0 0
989 2 7.3829999999999991e+00 1.2787731112280996e+01 3.3323079222520732e+01 0 0 0
990 2 8.6135000000000002e+00 1.3498160618518835e+01 3.3323079222520732e+01 0 0 0
964 2 4.9220000000000006e+00 1.5629449137232333e+01 3.3323079222520732e+01 0 0 0
987 2 6.1524999999999990e+00 1.4919019630994494e+01 3.3323079222520732e+01 0 0 0
988 2 7.3829999999999991e+00 1.5629449137232333e+01 3.3323079222520732e+01 0 0 0
1011 2 8.6135000000000002e+00 1.4919019630994494e+01 3.3323079222520732e+01 0 0 0
4913 1 3.0106897808306585e+00 2.4053894701357756e+00 3.7567953911647336e+01 0 1 -1
6297 1 4.9734804817524116e+00 3.6161301394057714e+00 3.9206575759271530e+01 2 1 0
1381 1 7.2658929719489267e+00 2.0883723662394664e+00 3.9010872188311367e+01 1 0 0
2010 1 7.3892711591995450e+00 2.1382698305963332e+00 3.6148167666803772e+01 0 2 -1
2027 1 7.5280394617312192e+00 1.4678299446770220e+01 3.6125885344916938e+01 2 2 -1
448 1 7.0753096684454331e-01 3.9277099367030939e+00 3.6203312310538067e+01 2 2 -1
1770 1 8.0438550369585304e-01 7.2729669441858222e+00 3.5875317407856301e+01 0 -1 -1
1743 1 8.1822164298534439e-01 6.9446869577815598e+00 3.8712647250816644e+01 -1 0 -1
2209 1 4.8892454017364537e+00 3.4735683812056650e+00 3.5739287334174648e+01 0 1 -1
3646 1 5.3477554614180987e+00 6.4765320228833945e+00 3.5923826821684756e+01 1 -1 -1
132 1 5.6718825645875617e+00 6.2541844717212731e+00 3.8685853428197547e+01 1 -1 -1
3269 1 8.0781172481169090e+00 7.6951073446675728e+00 3.5853235456878068e+01 2 1 -1
4757 1 6.7971779782936199e+00 1.1847114992092516e+01 3.9077582682054583e+01 0 0 -1
5396 1 3.4711873963436393e+00 8.2733769634225620e+00 3.6123016406600428e+01 1 1 -1
2092 1 3.9333482882166635e+00 1.0902765741099957e+01 3.5753959703068261e+01 2 1 -1
1895 1 4.2387752819458404e+00 1.0586396120201876e+01 3.8450608182869985e+01 2 2 -1
148 1 9.8112082343286140e+00 3.3587733498694572e+00 3.5890208869772792e+01 1 -2 -1
1367 1 3.6124696296131864e+00 7.9119540096932326e+00 3.9223285637289095e+01 0 -1 0
2898 1 8.6496868812566881e+00 1.0436978301840286e+01 3.6280551597747774e+01 1 2 -1
6342 1 8.9795521457115477e+00 1.0344994655410217e+01 3.9105940521342333e+01 1 -1 0
1867 1 2.6898270726667759e+00 1.5493028000995906e+01 3.5933410322578311e+01 -1 -1 0
5008 1 2.2578033473903276e+00 1.2370861813003787e+01 3.9371594864669618e+01 1 3 -1
5444 1 1.9377731095723374e+00 1.2808038240278577e+01 3.5613523637915691e+01 -2 0 0
462 1 2.5092620965986150e+00 1.4920896639630888e+01 3.8633921721385576e+01 -2 0 0
4873 1 8.3881805306304784e+00 7.5190803447767331e+00 3.9553818477212147e+01 2 1 0
6370 1 7.1690960946863660e+00 1.4559623242403800e+01 3.8644409857065114e+01 -1 -1 0
2106 1 6.5421905413293082e+00 1.2050694774969125e+01 3.5996268888865742e+01 2 0 0
1390 1 9.5628773663701576e+00 1.5446472669086059e+01 3.9274978740729225e+01 -1 1 0
4749 1 9.1880817808374271e-01 4.2114902304674491e+00 3.9095444941041265e+01 2 -1 -1
1488 1 4.9525958353718531e+00 1.6156585802000588e+01 3.9239664541773635e+01 -1 -2 0
5422 1 2.6886046017573797e+00 2.7083441551525818e+00 4.2912930972324943e+01 0 1 -1
1860 1 3.6240330277835436e-02 1.7009569202304977e+00 4.9097767565553852e+01 4 -2 -1
1330 1 4.9130707299545362e+00 3.6794623468295806e+00 4.1845576491505710e+01 0 2 0
3263 1 7.1977724338924407e+00 2.5376889584116906e+00 4.3276434189645315e+01 1 2 -1
5227 1 2.3152627593970743e+00 2.6886520561246929e-01 4.1908027450068730e+01 1 -2 -1
231 1 7.5713886528078833e-01 4.7932459048602798e+00 4.2038183433948390e+01 -1 0 -1
1970 1 1.2292113329265044e+00 7.3359402580102930e+00 4.2981214510567028e+01 3 0 -1
1789 1 3.6370530735715665e+00 8.1683636751464768e+00 4.1960377801884974e+01 0 1 -1
6480 1 9.0081742812351404e+00 1.2384738759893457e+01 4.6905993626912604e+01 1 1 0
3197 1 2.5797757844781555e-01 1.4129829448527326e+01 4.6563523247711672e+01 -1 0 0
1790 1 5.8231703634941017e+00 6.3783759889570000e+00 4.2848935320830336e+01 2 1 -1
1959 1 8.3949433881656184e+00 7.3535712945554650e+00 4.2335743712978925e+01 -2 1 -1
3617 1 9.5129267635700607e+00 1.5332686019047319e+01 4.2111026872474923e+01 1 -1 -1
280 1 3.9433762838275719e+00 1.0609170631212899e+01 4.3076034714853265e+01 -1 3 -1
4563 1 7.1789766547240879e+00 1.3891639204046747e+01 4.5694156868237954e+01 -1 2 0
434 1 2.6499823792613140e+00 1.4673561180235053e+01 4.5481297422443390e+01 -1 1 0
1551 1 8.5268160309648930e+00 1.0204405069899652e+01 4.3065512305620672e+01 2 0 0