LAMMPS data file via write_data, version 16 Mar 2018, timestep = 100000

6489 atoms
2 atom types

0.0000000000000000e+00 4.9219999999999999e+01 xlo xhi
0.0000000000000000e+00 4.9019635930410494e+01 ylo yhi
2.0258519096199805e+00 5.8036148090380152e+01 zlo zhi

Masses

1 18.015
2 12.01

Atoms # atomic

5360 1 4.4323711187764347e+00 1.1038650119740154e+01 1.0942051620035951e+01 0 0 0
3664 1 8.4481246828431722e+00 1.3259681835345827e+01 1.0692587742994167e+01 1 0 0
2873 1 3.2213353312964634e+00 1.5401051960601968e+00 5.1618919265460308e+00 0 -1 1
3014 1 9.0230153206645758e-01 2.9446508068829491e+00 4.9447982666586778e+00 0 -1 1
286 1 7.8374563782364302e+00 2.3079407006358115e+00 3.2982359275562567e+00 0 0 0
357 1 6.5732332509287206e+00 4.5223543361209702e+00 4.5784538856859172e+00 0 0 0
384 1 1.0005434305643703e+00 5.7003920610291159e+00 6.6188943466502188e+00 1 1 0
283 1 1.2675092889286337e+00 8.4925371979999831e+00 1.1029330093128852e+01 0 1 0
1740 1 5.0897702689443713e+00 5.7401580515591171e+00 2.7470649767472652e+00 1 -1 0
3136 1 9.4292632895732318e+00 1.1340088928297206e+01 6.1822900328853354e+00 0 0 1
2964 1 5.3048864540798544e+00 8.4199088291059656e+00 3.3182623487529890e+00 0 1 1
25 1 8.7828163081295543e+00 6.2337344959566483e+00 4.5407596502494076e+00 0 0 0
1548 1 6.8991883278639916e+00 8.0243544359022021e+00 5.6356717862679382e+00 1 1 0
6262 1 5.2422902705048848e+00 1.2808938353125699e+01 3.5809509097745016e+00 -1 1 0
1918 1 6.4712822884348187e+00 3.2088795887776089e-01 4.9299985895725786e+00 0 1 0
6458 1 1.0690419677659326e+00 1.0652903025001818e+01 4.7806704603445933e+00 1 0 1
97 1 3.5582237479534355e+00 1.0575412592288920e+01 3.2718759976711258e+00 0 0 0
102 1 4.4441357036523499e-01 1.2421248657358479e+00 2.6040139888295641e+00 0 0 0
82 1 6.2246396356753646e+00 1.4882225500661679e+01 1.0148547130641951e+01 0 -1 1
262 1 4.1383757976573232e+00 1.5258290307441849e+01 3.5786736995353743e+00 0 0 0
3619 1 1.4247944912177442e+00 1.5475590689753700e+01 4.4352281569884964e+00 1 0 0
6412 1 8.2303494846387419e+00 1.2354929766287214e+01 3.9297899382097157e+00 1 0 0
6432 1 8.9410701833710924e+00 1.5381748574532102e+01 7.1310916606490018e+00 0 1 1
109 1 4.0237825620906422e+00 3.4494028586849952e+00 9.5827677592027349e+00 1 2 1
4995 1 2.4139365247249058e+00 1.5275013542417775e+00 1.0846763585817442e+01 0 1 1
6164 1 7.1553897779768736e+00 1.3755041142386901e+00 7.5461255596015091e+00 1 1 1
1838 1 4.5340648280455236e+00 3.3546232162504359e+00 6.6631639890103411e+00 1 1 0
4711 1 4.0533282260045409e+00 1.3699317760157165e+01 1.1154644019958157e+01 1 0 1
2143 1 1.0709531346358008e+00 8.8144763626105291e+00 6.8900798251424265e+00 0 1 1
4606 1 3.7615725751792719e+00 5.8864012809096433e+00 5.9216015751169664e+00 0 1 0
4929 1 3.8839542535580174e+00 6.5254975957376562e+00 9.2851043357718233e+00 0 -1 0
6239 1 8.7414968956102665e+00 1.5098834059823620e+01 4.0330721953338973e+00 0 0 1
3660 1 6.1866698813634189e+00 1.5047837503226527e+01 7.4255989258048496e+00 0 0 0
1706 1 6.3685169143443936e+00 6.5799711203613240e+00 7.8661080791678017e+00 0 -1 0
2065 1 2.3287112097265945e+00 1.4095150424300813e+01 8.9063505526864652e+00 1 0 0
5091 1 2.7486925517247913e+00 1.1695322559121392e+01 7.1629239498592705e+00 1 0 1
172 1 3.0460092868146535e+00 9.2740971973523720e+00 9.0505443647251997e+00 1 0 0
1800 1 2.6464797648502132e+00 4.7191146886780198e+00 3.3513530217341945e+00 1 0 1
4949 1 5.2690518719342485e+00 1.2541407420037478e+01 6.4701897600996752e+00 0 0 0
1753 1 7.0781656675210938e+00 1.0497155146125962e+01 7.1501808877266333e+00 -1 -1 0
4692 1 7.2970922976713490e+00 1.0807911622787259e+01 9.8608105876399996e+00 0 1 1
68 1 7.5500469380704853e+00 7.8774342669314699e+00 9.8421127436796940e+00 0 1 1
1921 1 4.7177934401157655e+00 7.9751307120400183e-01 2.7160601197722585e+00 1 -1 0
3346 1 8.8953790830188364e+00 4.5228854867276462e+00 1.0207035502053428e+01 0 0 1
1542 1 7.8413560206262574e+00 4.2206423852424182e+00 7.5492823707131631e+00 0 0 1
6296 1 5.2423772892940257e-01 8.9320423656199548e+00 2.2099377351719314e+00 1 1 1
1814 1 1.7928216216060913e+00 1.6326899246939590e+01 7.4267650387685249e+00 0 0 0
133 1 1.2201192381834829e+00 4.5551004377301743e+00 1.0600075694070208e+01 0 0 1
5200 1 3.2173596358551086e+00 3.8208602067437720e+00 1.5981033952258182e+01 1 1 0
2036 1 1.1918462817338233e+00 3.7722878746691553e+00 1.4494042092666431e+01 0 0 0
5101 1 6.4965244497749390e+00 4.1357484485898341e+00 1.1364697271704024e+01 1 0 1
3571 1 8.0783639616221770e-01 1.8722165709525507e+00 1.2961733702640897e+01 1 0 0
1285 1 1.1643993138931247e-01 3.3887457913177164e+00 1.8888603087563144e+01 0 1 1
2171 1 6.8880430901685497e+00 1.3258235638816263e+00 1.4463335875150007e+01 0 1 0
3269 1 5.4631057851182669e+00 1.5270770813558316e+01 1.7144322116796261e+01 1 0 0
1813 1 4.3072773269373593e-01 1.4302091135973081e+01 1.4243874249137502e+01 1 0 0
6313 1 7.7958008608339417e+00 1.6144335494362880e+00 1.1888960442623047e+01 1 1 1
1611 1 1.8424243414159143e+00 6.1011297384246337e+00 1.3101127235507485e+01 0 1 1
5299 1 4.4819513896397591e+00 6.7787069805327977e+00 1.4137668645193283e+01 1 1 0
4901 1 8.3267640882787735e+00 1.5131854727973050e+01 1.7149217919078055e+01 0 1 1
1880 1 7.1350508746185541e+00 6.0217471307223684e+00 1.3410085305631236e+01 1 -1 0
4830 1 8.8030515067824791e+00 7.9803000531624502e+00 1.2617319718484207e+01 1 0 1
5434 1 7.3668545820256348e+00 9.8188144537528661e+00 1.6074558817503849e+01 1 0 1
3203 1 7.5202162904772081e+00 5.0549128076892824e+00 1.6103874619142552e+01 0 1 0
2973 1 4.4598161184929053e+00 1.0648989594583107e+01 1.5975163234941522e+01 0 2 1
5132 1 8.9369724763680125e+00 4.8830404224286434e+00 2.0238774676590946e+01 1 1 0
1896 1 8.9781330656424370e+00 1.4970113935734739e+00 1.7950324157857573e+01 0 0 1
1790 1 8.0036434259600124e+00 1.2191245628045262e+01 1.7650054888267235e+01 1 -1 0
1328 1 4.7939694679164919e+00 9.4558427120273851e+00 1.3489525126076011e+01 0 0 1
6315 1 7.5503703476734270e+00 1.0093688823300429e+01 1.3345186588058969e+01 1 1 1
4733 1 3.2320568374410361e+00 1.4539701880200184e+01 1.3852107815894993e+01 0 1 0
1772 1 3.9382514176719003e+00 1.3280534140349324e+01 1.6166626193639900e+01 1 1 1
4775 1 9.3972454543132571e+00 1.2342740578944570e+01 1.3149460495554251e+01 1 1 1
399 1 3.0713425859807542e+00 8.5647387377248911e+00 1.7494807642410585e+01 1 0 0
1418 1 6.6461668308805377e+00 1.1916812732913908e+01 2.0002325920483745e+01 0 1 1
4956 1 5.7976513083746655e+00 2.8194113184541871e+00 1.6339891356237260e+01 1 0 1
1819 1 6.1155585413175428e+00 1.1543619840477550e+00 1.8660604189622042e+01 0 0 1
5396 1 7.0118421391059960e-01 7.6240313405836113e-01 1.8281737526824212e+01 1 0 0
1932 1 2.8629628674475569e+00 4.6057260918303022e+00 1.8822502682655919e+01 1 1 0
4744 1 4.6754216232148647e+00 6.2088036071797328e+00 1.7175611114580317e+01 0 0 1
3638 1 3.4914242295249431e-01 7.8270901497076970e+00 1.7749159725827052e+01 1 0 0
4585 1 1.8319310418471637e+00 1.3739396932894010e+01 1.7825270918217974e+01 0 1 1
1660 1 1.4042313566088216e+00 7.3846718287781012e+00 2.0485640017950406e+01 1 0 0
5268 1 7.6020058290386752e+00 7.1888051121318748e+00 1.7680804308380541e+01 1 0 0
289 1 4.3101254999095033e+00 6.3945416141149880e-01 1.3139174521890196e+01 1 0 0
1889 1 2.4156401891771861e+00 1.2682933082390386e+01 2.0109371648873871e+01 1 1 0
6209 1 6.4961992415455203e+00 7.4688732913630318e+00 2.0462490404782738e+01 0 1 1
3037 1 9.7153787011739468e+00 3.5062099485405263e+00 1.6186864497632442e+01 0 -1 1
204 1 8.9751819832671949e+00 1.5179933104117231e+01 1.3920863510622373e+01 0 0 0
6431 1 2.2060316588902191e+00 7.3210918642458045e-01 1.5807220421534367e+01 2 -1 1
5092 1 4.2447364297650552e+00 1.0880391591332288e+01 1.9446534865880995e+01 0 0 0
5290 1 2.9432183481637066e+00 3.9271382634670022e+00 2.4425772144106837e+01 1 0 0
1325 1 5.3962326463946153e-01 4.9616759721090649e+00 2.1605026164185674e+01 1 1 1
695 2 4.9220000000000006e+00 1.2787731112280996e+01 2.6876721374298263e+01 0 0 0
141 1 2.0888007286772274e+00 1.2200697732669024e+00 2.4025180828572140e+01 0 0 0
3541 1 9.0781736325324847e+00 8.0719682624540834e-01 2.3679763239623131e+01 0 0 1
785 2 8.6135000000000002e+00 1.4919019630994494e+01 2.6876721374298263e+01 0 0 0
4999 1 6.3904474734464687e+00 1.5660220801175970e+00 2.4360490842448197e+01 1 0 0
534 1 5.6615354639862057e+00 1.8413655971051448e+00 2.1189333506474632e+01 1 0 0
5403 1 3.1430773189661583e+00 3.3283823682207441e+00 2.1636019299741161e+01 1 1 0
693 2 4.9220000000000006e+00 1.5629449137232333e+01 2.6876721374298263e+01 0 0 0
518 1 7.0047867733202018e-01 5.2336454595518633e+00 2.4248290829768056e+01 2 0 1
5187 1 3.2790856082621462e+00 1.4973093279673297e+01 2.1602143785852718e+01 1 1 0
3429 1 9.6749261327992713e+00 4.6472226488890529e+00 2.2934420753941648e+01 1 1 1
5275 1 6.6539896544808768e+00 4.3896913330853193e+00 2.3789067975346750e+01 0 0 0
6459 1 7.8064945531822758e+00 8.1101904573326120e+00 2.2707312005872776e+01 -1 1 0
3058 1 6.1525467556076707e+00 6.8666018279985863e+00 2.4433087310979815e+01 1 0 0
738 2 6.1524999999999990e+00 1.4919019630994494e+01 2.6876721374298263e+01 0 0 0
3471 1 4.0937046819572691e+00 8.5637204527034303e+00 2.3750591452546164e+01 0 1 0
4729 1 3.9819599211090035e+00 1.1317300897355226e+01 2.4185718951929470e+01 0 1 0
3328 1 5.7437944786454764e+00 1.4051273757090039e+01 2.1549272987169580e+01 0 0 1
1718 1 7.8802499212713784e+00 1.0892099693288431e+01 2.2675802722687042e+01 0 0 0
134 1 6.3625406348470568e+00 1.2944793182452509e+01 2.4309507524530030e+01 1 0 1
3247 1 1.0227497509253158e+00 7.9703822215204552e+00 2.4384294659446944e+01 1 1 0
697 2 6.1524999999999990e+00 1.3498160618518829e+01 2.6876721374298263e+01 0 0 0
5347 1 4.0797835982863653e+00 8.6158638326819439e+00 2.0999688250993305e+01 1 0 0
61 1 1.8672199658082695e+00 1.3016419243535875e+01 2.4411510077949021e+01 0 0 0
92 1 2.0837804637416713e+00 8.8281566624049512e-01 2.1258209779319461e+01 1 1 0
1601 1 9.1513209980585497e+00 1.3937031917065875e+01 2.4218197887254085e+01 0 0 1
5176 1 2.2166552711966032e+00 1.5784401315339240e+01 2.4337077018744431e+01 0 1 0
572 2 0.0000000000000000e+00 2.8417180249513345e+00 2.6876721374298263e+01 0 0 0
574 2 0.0000000000000000e+00 0.0000000000000000e+00 2.6876721374298263e+01 0 0 0
576 2 1.2305000000000001e+00 7.1042950623783474e-01 2.6876721374298263e+01 0 0 0
583 2 1.2305000000000001e+00 2.1312885187134998e+00 2.6876721374298263e+01 0 0 0
585 2 2.4610000000000003e+00 2.8417180249513345e+00 2.6876721374298263e+01 0 0 0
587 2 2.4610000000000003e+00 0.0000000000000000e+00 2.6876721374298263e+01 0 0 0
589 2 3.6915000000000004e+00 7.1042950623783474e-01 2.6876721374298263e+01 0 0 0
604 2 3.6914999999999996e+00 2.1312885187134998e+00 2.6876721374298263e+01 0 0 0
606 2 4.9220000000000006e+00 2.8417180249513332e+00 2.6876721374298263e+01 0 0 0
608 2 4.9220000000000006e+00 0.0000000000000000e+00 2.6876721374298263e+01 0 0 0
610 2 6.1524999999999999e+00 7.1042950623783407e-01 2.6876721374298263e+01 0 0 0
633 2 6.1524999999999999e+00 2.1312885187134989e+00 2.6876721374298263e+01 0 0 0
635 2 7.3829999999999991e+00 2.8417180249513345e+00 2.6876721374298263e+01 0 0 0
637 2 7.3829999999999991e+00 0.0000000000000000e+00 2.6876721374298263e+01 0 0 0
639 2 8.6134999999999984e+00 7.1042950623783407e-01 2.6876721374298263e+01 0 0 0
670 2 8.6134999999999984e+00 2.1312885187135002e+00 2.6876721374298263e+01 0 0 0
579 2 0.0000000000000000e+00 4.2625770374269996e+00 2.6876721374298263e+01 0 0 0
581 2 1.2305000000000001e+00 4.9730065436648339e+00 2.6876721374298263e+01 0 0 0
596 2 1.2305000000000001e+00 6.3938655561404980e+00 2.6876721374298263e+01 0 0 0
600 2 2.4610000000000003e+00 4.2625770374269996e+00 2.6876721374298263e+01 0 0 0
602 2 3.6914999999999996e+00 4.9730065436648339e+00 2.6876721374298263e+01 0 0 0
625 2 3.6914999999999996e+00 6.3938655561404980e+00 2.6876721374298263e+01 0 0 0
577 2 0.0000000000000000e+00 7.1042950623783341e+00 2.6876721374298263e+01 0 0 0
598 2 2.4610000000000003e+00 7.1042950623783341e+00 2.6876721374298263e+01 0 0 0
629 2 4.9220000000000006e+00 4.2625770374269978e+00 2.6876721374298263e+01 0 0 0
631 2 6.1524999999999999e+00 4.9730065436648339e+00 2.6876721374298263e+01 0 0 0
662 2 6.1524999999999999e+00 6.3938655561404980e+00 2.6876721374298263e+01 0 0 0
666 2 7.3829999999999991e+00 4.2625770374269996e+00 2.6876721374298263e+01 0 0 0
668 2 8.6135000000000002e+00 4.9730065436648339e+00 2.6876721374298263e+01 0 0 0
707 2 8.6135000000000002e+00 6.3938655561404980e+00 2.6876721374298263e+01 0 0 0
627 2 4.9220000000000006e+00 7.1042950623783341e+00 2.6876721374298263e+01 0 0 0
664 2 7.3830000000000009e+00 7.1042950623783341e+00 2.6876721374298263e+01 0 0 0
592 2 0.0000000000000000e+00 8.5251540748539991e+00 2.6876721374298263e+01 0 0 0
594 2 1.2305000000000001e+00 9.2355835810918343e+00 2.6876721374298263e+01 0 0 0
621 2 2.4610000000000003e+00 8.5251540748539991e+00 2.6876721374298263e+01 0 0 0
623 2 3.6915000000000004e+00 9.2355835810918343e+00 2.6876721374298263e+01 0 0 0
590 2 0.0000000000000000e+00 1.1366872099805333e+01 2.6876721374298263e+01 0 0 0
617 2 1.2305000000000001e+00 1.0656442593567498e+01 2.6876721374298263e+01 0 0 0
619 2 2.4610000000000003e+00 1.1366872099805333e+01 2.6876721374298263e+01 0 0 0
654 2 3.6914999999999996e+00 1.0656442593567499e+01 2.6876721374298263e+01 0 0 0
658 2 4.9220000000000006e+00 8.5251540748539991e+00 2.6876721374298263e+01 0 0 0
660 2 6.1524999999999999e+00 9.2355835810918343e+00 2.6876721374298263e+01 0 0 0
703 2 7.3830000000000009e+00 8.5251540748539991e+00 2.6876721374298263e+01 0 0 0
705 2 8.6134999999999984e+00 9.2355835810918343e+00 2.6876721374298263e+01 0 0 0
656 2 4.9220000000000006e+00 1.1366872099805333e+01 2.6876721374298263e+01 0 0 0
699 2 6.1524999999999999e+00 1.0656442593567499e+01 2.6876721374298263e+01 0 0 0
701 2 7.3829999999999991e+00 1.1366872099805333e+01 2.6876721374298263e+01 0 0 0
746 2 8.6134999999999984e+00 1.0656442593567498e+01 2.6876721374298263e+01 0 0 0
652 2 3.6915000000000004e+00 1.3498160618518829e+01 2.6876721374298263e+01 0 0 0
611 2 0.0000000000000000e+00 1.5629449137232333e+01 2.6876721374298263e+01 0 0 0
646 2 1.2305000000000001e+00 1.4919019630994494e+01 2.6876721374298263e+01 0 0 0
648 2 2.4610000000000003e+00 1.5629449137232328e+01 2.6876721374298263e+01 0 0 0
691 2 3.6915000000000004e+00 1.4919019630994494e+01 2.6876721374298263e+01 0 0 0
613 2 0.0000000000000000e+00 1.2787731112280996e+01 2.6876721374298263e+01 0 0 0
615 2 1.2305000000000001e+00 1.3498160618518829e+01 2.6876721374298263e+01 0 0 0
650 2 2.4610000000000003e+00 1.2787731112280996e+01 2.6876721374298263e+01 0 0 0
744 2 8.6135000000000002e+00 1.3498160618518835e+01 2.6876721374298263e+01 0 0 0
740 2 7.3829999999999991e+00 1.5629449137232333e+01 2.6876721374298263e+01 0 0 0
742 2 7.3829999999999991e+00 1.2787731112280996e+01 2.6876721374298263e+01 0 0 0
3575 1 6.0251429541988486e+00 4.7284861205452478e+00 2.0988610170064689e+01 0 0 0
573 2 0.0000000000000000e+00 1.4208590124756650e+00 3.0031000000000382e+01 0 0 0
575 2 0.0000000000000000e+00 0.0000000000000000e+00 3.0031000000000382e+01 0 0 0
584 2 1.2305000000000001e+00 2.1312885187134998e+00 3.0031000000000382e+01 0 0 0
586 2 2.4610000000000003e+00 1.4208590124756650e+00 3.0031000000000382e+01 0 0 0
588 2 2.4610000000000003e+00 0.0000000000000000e+00 3.0031000000000382e+01 0 0 0
605 2 3.6914999999999996e+00 2.1312885187134998e+00 3.0031000000000382e+01 0 0 0
582 2 1.2305000000000001e+00 3.5521475311891644e+00 3.0031000000000382e+01 0 0 0
603 2 3.6914999999999996e+00 3.5521475311891644e+00 3.0031000000000382e+01 0 0 0
901 2 0.0000000000000000e+00 2.8417180249513345e+00 3.3185278625704484e+01 0 0 0
902 2 0.0000000000000000e+00 0.0000000000000000e+00 3.3185278625704484e+01 0 0 0
903 2 1.2305000000000001e+00 7.1042950623783474e-01 3.3185278625704484e+01 0 0 0
907 2 1.2305000000000001e+00 2.1312885187134998e+00 3.3185278625704484e+01 0 0 0
908 2 2.4610000000000003e+00 2.8417180249513345e+00 3.3185278625704484e+01 0 0 0
909 2 2.4610000000000003e+00 0.0000000000000000e+00 3.3185278625704484e+01 0 0 0
910 2 3.6915000000000004e+00 7.1042950623783474e-01 3.3185278625704484e+01 0 0 0
918 2 3.6914999999999996e+00 2.1312885187134998e+00 3.3185278625704484e+01 0 0 0
607 2 4.9220000000000006e+00 1.4208590124756650e+00 3.0031000000000382e+01 0 0 0
609 2 4.9220000000000006e+00 0.0000000000000000e+00 3.0031000000000382e+01 0 0 0
634 2 6.1524999999999999e+00 2.1312885187134989e+00 3.0031000000000382e+01 0 0 0
636 2 7.3829999999999991e+00 1.4208590124756659e+00 3.0031000000000382e+01 0 0 0
638 2 7.3829999999999991e+00 0.0000000000000000e+00 3.0031000000000382e+01 0 0 0
671 2 8.6134999999999984e+00 2.1312885187135002e+00 3.0031000000000382e+01 0 0 0
632 2 6.1524999999999999e+00 3.5521475311891644e+00 3.0031000000000382e+01 0 0 0
669 2 8.6134999999999984e+00 3.5521475311891657e+00 3.0031000000000382e+01 0 0 0
919 2 4.9220000000000006e+00 2.8417180249513332e+00 3.3185278625704484e+01 0 0 0
920 2 4.9220000000000006e+00 0.0000000000000000e+00 3.3185278625704484e+01 0 0 0
921 2 6.1524999999999999e+00 7.1042950623783407e-01 3.3185278625704484e+01 0 0 0
933 2 6.1524999999999999e+00 2.1312885187134989e+00 3.3185278625704484e+01 0 0 0
934 2 7.3829999999999991e+00 2.8417180249513345e+00 3.3185278625704484e+01 0 0 0
935 2 7.3829999999999991e+00 0.0000000000000000e+00 3.3185278625704484e+01 0 0 0
936 2 8.6134999999999984e+00 7.1042950623783407e-01 3.3185278625704484e+01 0 0 0
952 2 8.6134999999999984e+00 2.1312885187135002e+00 3.3185278625704484e+01 0 0 0
578 2 0.0000000000000000e+00 5.6834360499026637e+00 3.0031000000000382e+01 0 0 0
580 2 0.0000000000000000e+00 4.2625770374269996e+00 3.0031000000000382e+01 0 0 0
597 2 1.2305000000000001e+00 6.3938655561404980e+00 3.0031000000000382e+01 0 0 0
599 2 2.4610000000000003e+00 5.6834360499026637e+00 3.0031000000000382e+01 0 0 0
601 2 2.4610000000000003e+00 4.2625770374269996e+00 3.0031000000000382e+01 0 0 0
626 2 3.6914999999999996e+00 6.3938655561404980e+00 3.0031000000000382e+01 0 0 0
595 2 1.2305000000000001e+00 7.8147245686161639e+00 3.0031000000000382e+01 0 0 0
624 2 3.6914999999999996e+00 7.8147245686161639e+00 3.0031000000000382e+01 0 0 0
905 2 0.0000000000000000e+00 4.2625770374269996e+00 3.3185278625704484e+01 0 0 0
906 2 1.2305000000000001e+00 4.9730065436648339e+00 3.3185278625704484e+01 0 0 0
914 2 1.2305000000000001e+00 6.3938655561404980e+00 3.3185278625704484e+01 0 0 0
916 2 2.4610000000000003e+00 4.2625770374269996e+00 3.3185278625704484e+01 0 0 0
917 2 3.6914999999999996e+00 4.9730065436648339e+00 3.3185278625704484e+01 0 0 0
929 2 3.6914999999999996e+00 6.3938655561404980e+00 3.3185278625704484e+01 0 0 0
904 2 0.0000000000000000e+00 7.1042950623783341e+00 3.3185278625704484e+01 0 0 0
915 2 2.4610000000000003e+00 7.1042950623783341e+00 3.3185278625704484e+01 0 0 0
628 2 4.9220000000000006e+00 5.6834360499026637e+00 3.0031000000000382e+01 0 0 0
630 2 4.9220000000000006e+00 4.2625770374269978e+00 3.0031000000000382e+01 0 0 0
663 2 6.1524999999999999e+00 6.3938655561404980e+00 3.0031000000000382e+01 0 0 0
665 2 7.3829999999999991e+00 5.6834360499026637e+00 3.0031000000000382e+01 0 0 0
667 2 7.3829999999999991e+00 4.2625770374269996e+00 3.0031000000000382e+01 0 0 0
708 2 8.6135000000000002e+00 6.3938655561404980e+00 3.0031000000000382e+01 0 0 0
661 2 6.1524999999999999e+00 7.8147245686161639e+00 3.0031000000000382e+01 0 0 0
706 2 8.6135000000000002e+00 7.8147245686161639e+00 3.0031000000000382e+01 0 0 0
931 2 4.9220000000000006e+00 4.2625770374269978e+00 3.3185278625704484e+01 0 0 0
932 2 6.1524999999999999e+00 4.9730065436648339e+00 3.3185278625704484e+01 0 0 0
948 2 6.1524999999999999e+00 6.3938655561404980e+00 3.3185278625704484e+01 0 0 0
950 2 7.3829999999999991e+00 4.2625770374269996e+00 3.3185278625704484e+01 0 0 0
951 2 8.6135000000000002e+00 4.9730065436648339e+00 3.3185278625704484e+01 0 0 0
971 2 8.6135000000000002e+00 6.3938655561404980e+00 3.3185278625704484e+01 0 0 0
930 2 4.9220000000000006e+00 7.1042950623783341e+00 3.3185278625704484e+01 0 0 0
949 2 7.3830000000000009e+00 7.1042950623783341e+00 3.3185278625704484e+01 0 0 0
591 2 0.0000000000000000e+00 9.9460130873296642e+00 3.0031000000000382e+01 0 0 0
593 2 0.0000000000000000e+00 8.5251540748539991e+00 3.0031000000000382e+01 0 0 0
620 2 2.4610000000000003e+00 9.9460130873296642e+00 3.0031000000000382e+01 0 0 0
622 2 2.4610000000000003e+00 8.5251540748539991e+00 3.0031000000000382e+01 0 0 0
616 2 1.2305000000000001e+00 1.2077301606043163e+01 3.0031000000000382e+01 0 0 0
618 2 1.2305000000000001e+00 1.0656442593567498e+01 3.0031000000000382e+01 0 0 0
653 2 3.6914999999999996e+00 1.2077301606043163e+01 3.0031000000000382e+01 0 0 0
655 2 3.6914999999999996e+00 1.0656442593567499e+01 3.0031000000000382e+01 0 0 0
912 2 0.0000000000000000e+00 8.5251540748539991e+00 3.3185278625704484e+01 0 0 0
913 2 1.2305000000000001e+00 9.2355835810918343e+00 3.3185278625704484e+01 0 0 0
927 2 2.4610000000000003e+00 8.5251540748539991e+00 3.3185278625704484e+01 0 0 0
928 2 3.6915000000000004e+00 9.2355835810918343e+00 3.3185278625704484e+01 0 0 0
911 2 0.0000000000000000e+00 1.1366872099805333e+01 3.3185278625704484e+01 0 0 0
925 2 1.2305000000000001e+00 1.0656442593567498e+01 3.3185278625704484e+01 0 0 0
926 2 2.4610000000000003e+00 1.1366872099805333e+01 3.3185278625704484e+01 0 0 0
944 2 3.6914999999999996e+00 1.0656442593567499e+01 3.3185278625704484e+01 0 0 0
657 2 4.9220000000000006e+00 9.9460130873296642e+00 3.0031000000000382e+01 0 0 0
659 2 4.9220000000000006e+00 8.5251540748539991e+00 3.0031000000000382e+01 0 0 0
702 2 7.3830000000000009e+00 9.9460130873296642e+00 3.0031000000000382e+01 0 0 0
704 2 7.3830000000000009e+00 8.5251540748539991e+00 3.0031000000000382e+01 0 0 0
698 2 6.1524999999999999e+00 1.2077301606043163e+01 3.0031000000000382e+01 0 0 0
700 2 6.1524999999999999e+00 1.0656442593567499e+01 3.0031000000000382e+01 0 0 0
745 2 8.6135000000000002e+00 1.2077301606043163e+01 3.0031000000000382e+01 0 0 0
747 2 8.6134999999999984e+00 1.0656442593567498e+01 3.0031000000000382e+01 0 0 0
946 2 4.9220000000000006e+00 8.5251540748539991e+00 3.3185278625704484e+01 0 0 0
947 2 6.1524999999999999e+00 9.2355835810918343e+00 3.3185278625704484e+01 0 0 0
969 2 7.3830000000000009e+00 8.5251540748539991e+00 3.3185278625704484e+01 0 0 0
970 2 8.6134999999999984e+00 9.2355835810918343e+00 3.3185278625704484e+01 0 0 0
945 2 4.9220000000000006e+00 1.1366872099805333e+01 3.3185278625704484e+01 0 0 0
967 2 6.1524999999999999e+00 1.0656442593567499e+01 3.3185278625704484e+01 0 0 0
968 2 7.3829999999999991e+00 1.1366872099805333e+01 3.3185278625704484e+01 0 0 0
991 2 8.6134999999999984e+00 1.0656442593567498e+01 3.3185278625704484e+01 0 0 0
614 2 0.0000000000000000e+00 1.2787731112280996e+01 3.0031000000000382e+01 0 0 0
651 2 2.4610000000000003e+00 1.2787731112280996e+01 3.0031000000000382e+01 0 0 0
612 2 0.0000000000000000e+00 1.4208590124756663e+01 3.0031000000000382e+01 0 0 0
647 2 1.2305000000000001e+00 1.4919019630994494e+01 3.0031000000000382e+01 0 0 0
649 2 2.4610000000000003e+00 1.4208590124756663e+01 3.0031000000000382e+01 0 0 0
692 2 3.6915000000000004e+00 1.4919019630994494e+01 3.0031000000000382e+01 0 0 0
923 2 0.0000000000000000e+00 1.2787731112280996e+01 3.3185278625704484e+01 0 0 0
924 2 1.2305000000000001e+00 1.3498160618518829e+01 3.3185278625704484e+01 0 0 0
942 2 2.4610000000000003e+00 1.2787731112280996e+01 3.3185278625704484e+01 0 0 0
943 2 3.6915000000000004e+00 1.3498160618518829e+01 3.3185278625704484e+01 0 0 0
922 2 0.0000000000000000e+00 1.5629449137232333e+01 3.3185278625704484e+01 0 0 0
940 2 1.2305000000000001e+00 1.4919019630994494e+01 3.3185278625704484e+01 0 0 0
941 2 2.4610000000000003e+00 1.5629449137232328e+01 3.3185278625704484e+01 0 0 0
963 2 3.6915000000000004e+00 1.4919019630994494e+01 3.3185278625704484e+01 0 0 0
696 2 4.9220000000000006e+00 1.2787731112280996e+01 3.0031000000000382e+01 0 0 0
743 2 7.3829999999999991e+00 1.2787731112280996e+01 3.0031000000000382e+01 0 0 0
694 2 4.9220000000000006e+00 1.4208590124756663e+01 3.0031000000000382e+01 0 0 0
739 2 6.1524999999999990e+00 1.4919019630994494e+01 3.0031000000000382e+01 0 0 0
741 2 7.3830000000000009e+00 1.4208590124756663e+01 3.0031000000000382e+01 0 0 0
786 2 8.6135000000000002e+00 1.4919019630994494e+01 3.0031000000000382e+01 0 0 0
965 2 4.9220000000000006e+00 1.2787731112280996e+01 3.3185278625704484e+01 0 0 0
966 2 6.1524999999999990e+00 1.3498160618518829e+01 3.3185278625704484e+01 0 0 0
989 2 7.3829999999999991e+00 1.2787731112280996e+01 3.3185278625704484e+01 0 0 0
990 2 8.6135000000000002e+00 1.3498160618518835e+01 3.3185278625704484e+01 0 0 0
964 2 4.9220000000000006e+00 1.5629449137232333e+01 3.3185278625704484e+01 0 0 0
987 2 6.1524999999999990e+00 1.4919019630994494e+01 3.3185278625704484e+01 0 0 0
988 2 7.3829999999999991e+00 1.5629449137232333e+01 3.3185278625704484e+01 0 0 0
1011 2 8.6135000000000002e+00 1.4919019630994494e+01 3.3185278625704484e+01 0 0 0
2158 1 1.8866979090362568e+00 1.6562274409726367e+00 3.5590545058554184e+01 0 1 0
330 1 3.6673994621009514e+00 2.5393437516598443e+00 3.8514791370748966e+01 1 0 -1
4854 1 4.3707998131848314e+00 3.4407455050842790e+00 3.5843082130851805e+01 1 0 0
2191 1 6.9118712850911672e+00 2.2175123422287251e+00 3.5722228641368176e+01 0 1 0
1388 1 5.9073857076237104e+00 9.5752873315962415e+00 3.9041674830067663e+01 0 0 -1
4844 1 3.6334441145770313e+00 1.2796111937042122e+01 3.8950850908048771e+01 0 0 -1
570 1 6.5968151162947164e+00 1.5718549269691913e+01 3.8825915449738801e+01 0 1 0
6342 1 1.6262831833919922e+00 7.6912711438389696e+00 3.5527092569259786e+01 0 0 0
4973 1 8.3080667404148336e+00 1.1995354769657663e+01 3.8915738092057190e+01 1 0 -1
32 1 4.4441504526776203e+00 6.4292437358948344e+00 3.5926731275727839e+01 1 -1 0
5425 1 2.8934655292958498e+00 9.8312511238325477e+00 3.8878143181902658e+01 0 1 0
6457 1 7.2941982540761323e+00 6.7022086889257562e+00 3.6086374364891839e+01 1 1 -1
294 1 7.1262493922136150e+00 7.1284296160602096e+00 3.8975829574738754e+01 1 1 -1
1746 1 8.6651054120929540e+00 2.5998221654323368e+00 3.8600147162816093e+01 0 -1 -1
493 1 2.1092001876927124e+00 1.0341888914744834e+01 3.5822103198200438e+01 0 0 0
1395 1 7.1143138565133137e+00 1.5270092016726444e+01 3.6105205220369420e+01 1 0 -1
4690 1 6.9166656670460966e+00 1.0758439554277706e+01 3.6526903542003154e+01 0 1 0
3611 1 8.8292624925372341e+00 8.9473848732239425e+00 3.5518584432063285e+01 0 1 0
4962 1 4.4022206577217027e+00 1.1964126053776662e+01 3.6229798911298715e+01 1 -1 0
5006 1 4.0606567589873244e+00 1.4951980186276659e+01 3.5697039697763650e+01 1 1 -1
5221 1 8.5098842208612950e+00 1.3194287509825031e+01 3.5837247329214840e+01 1 0 0
2894 1 1.3113354107941240e+00 1.5622271545787502e+01 3.5945826209241908e+01 0 0 0
3497 1 2.1120460025631766e+00 1.5128963071969133e+01 3.8916202582631961e+01 1 0 -1
6115 1 2.4682130013686430e+00 7.1447371118002714e+00 3.8144775819073431e+01 0 0 0
3758 1 9.6444569848128090e+00 2.6499266819998613e+00 3.5625507326359880e+01 0 0 0
4773 1 6.9973498070672351e+00 2.0476553687726518e-01 3.9164687565658902e+01 0 0 0
3080 1 1.4545528543740185e+00 1.4724437986395500e+00 4.2917905138293328e+01 1 1 0
1271 1 4.3836605639162292e+00 5.0604734677569017e+00 4.1691519446764502e+01 0 0 0
2165 1 5.4907573674753714e+00 1.9303773403611035e+00 4.0483042713100076e+01 0 2 0
4675 1 8.9006164844728985e+00 1.0180710455331072e+01 4.1150651567926793e+01 2 1 0
3298 1 4.0155314048645776e+00 2.5779491007733042e+00 4.3296670552368418e+01 1 1 0
6197 1 8.5811597852443757e+00 3.8810425777956676e+00 4.2757825159416740e+01 0 -1 0
2217 1 7.0444195928910851e+00 4.4795687613560338e+00 4.0277683902835200e+01 0 -1 0
4780 1 2.8117729566933360e+00 4.8117854881952500e+00 3.9589297551218486e+01 1 0 0
1451 1 2.5612478136948997e+00 6.9444984968765242e+00 4.2632982270260300e+01 0 1 0
5093 1 1.6702432508530560e+00 9.5121918289671257e+00 4.1504124582749235e+01 -1 0 0
479 1 1.3104494172747133e-01 1.4743609419738111e+00 4.5321899124861730e+01 0 1 0
1636 1 9.6567289149491824e+00 8.0248547793378879e+00 4.3202902445611471e+01 0 1 -1
6112 1 7.9612645294946995e+00 1.4367742494936069e+01 4.4680079592224637e+01 1 1 0
6190 1 8.4046207209701285e-01 1.1495971432759866e+01 4.6332105883937494e+01 1 1 0
6384 1 3.3657113048467009e+00 8.8558516308357760e+00 4.4739743127587978e+01 1 1 0
4709 1 2.1871214300517385e+00 1.1547557106974772e+01 4.3725644204603171e+01 0 1 0
3644 1 6.2413486862443674e+00 1.0669018435215268e+01 4.1589101497446173e+01 1 0 -1
6404 1 4.0449365461064168e+00 1.3317964458540567e+01 4.3394386466044978e+01 -1 1 0
487 1 5.8524423599484967e+00 4.1948582040204041e-01 4.3490130512712007e+01 0 1 0
4587 1 5.9146982834454285e+00 1.3281289756349071e+01 4.0343800564823511e+01 1 0 0
6221 1 6.1164074743348982e+00 1.5046578082292344e+01 4.2502080719069575e+01 1 0 0
6264 1 6.5892880422042026e+00 1.1699651584675266e+00 4.6087425647437051e+01 -1 1 0
6382 1 9.0887015695518407e+00 1.0564182047501754e+01 4.6711354968428473e+01 0 0 0
5372 1 1.9931095671023251e+00 2.7295593589168341e+00 4.7094954433768962e+01 -1 0 0
1593 1 4.0418149515025714e+00 7.9758307771874959e-01 4.7043889228247238e+01 0 1 0
3137 1 7.8418658983714700e+00 3.6672791873232384e+00 4.5623356477368667e+01 0 0 0
6266 1 2.2663473658791116e+00 1.5476660374089263e+01 4.4826271854448976e+01 1 0 0
6455 1 8.8918569221867072e-01 5.9818357060747580e+00 4.4554344029275029e+01 1 -1 0
6286 1 3.1266642366203770e+00 4.4276784829943701e+00 4.5291300632467738e+01 0 0 0
1552 1 1.2348561825931117e+00 1.8217132833871965e+00 4.0130545240139476e+01 0 0 0
3742 1 7.6666836799859999e+00 8.5930304871584635e+00 4.5121522132695745e+01 1 1 0
3609 1 4.2065781478838122e+00 6.6440196147583412e+00 4.6560200056576456e+01 -1 1 -1
1405 1 6.9762593249517870e+00 6.1233259260253341e+00 4.6285763332681753e+01 -1 1 0
1631 1 9.5564914758266646e+00 8.0409017193827843e+00 3.9564659407291600e+01 0 0 0