
# Create simulation box and atoms

read_data data.graphite_substrate
  orthogonal box = (0 0 -0.0398667) to (49.22 49.0196 60.1019)
  4 by 4 by 4 MPI processor grid
  reading atoms ...
  6736 atoms
  reading velocities ...
  6736 velocities
group water type 1
3976 atoms in group water
group graphite type 2
2760 atoms in group graphite

# Define potential

pair_style sw
pair_coeff * * mWC.sw mW C
Reading potential file mWC.sw with DATE: 2019-02-27


# Fix graphite atoms in place

fix 5 graphite setforce 0.0 0.0 0.0
velocity graphite set 0.0 0.0 0.0


# Equilibration of molecular water

# Add velocity/set timestep

velocity	    water create ${TEMP} ${SEED} rot yes dist gaussian
velocity	    water create 225 ${SEED} rot yes dist gaussian
velocity	    water create 225 14256 rot yes dist gaussian
timestep	    5.0

# Define output

compute			1 water msd
compute			3 water temp
thermo	    	50
thermo_style	custom step temp press vol etotal ke pe c_1[4] c_3

# Neighbor lists

neigh_modify    delay 0 every 1 check yes

# Set fixes

fix             1 water momentum 10 linear 1 1 1 rescale
fix             2 water nve
fix             3 water temp/csvr ${TEMP} ${TEMP} 500.0 ${SEED}
fix             3 water temp/csvr 225 ${TEMP} 500.0 ${SEED}
fix             3 water temp/csvr 225 225 500.0 ${SEED}
fix             3 water temp/csvr 225 225 500.0 14256
fix             4 water press/berendsen z ${PRES} ${PRES} 1000.0 modulus 20000
fix             4 water press/berendsen z 1 ${PRES} 1000.0 modulus 20000
fix             4 water press/berendsen z 1 1 1000.0 modulus 20000

# Run 0.5 ns equilibration

dump		    1 all atom 2000 ${DIR}/eq.${NAME}-${TEMP}.dump
dump		    1 all atom 2000 run_15/eq.${NAME}-${TEMP}.dump
dump		    1 all atom 2000 run_15/eq.het_freeze_15-${TEMP}.dump
dump		    1 all atom 2000 run_15/eq.het_freeze_15-225.dump

reset_timestep  0

run	            100000
Neighbor list info ...
  update every 1 steps, delay 0 steps, check yes
  max neighbors/atom: 2000, page size: 100000
  master list distance cutoff = 7.76
  ghost atom cutoff = 7.76
  binsize = 3.88, bins = 13 13 16
  1 neighbor lists, perpetual/occasional/extra = 1 0 0
  (1) pair sw, perpetual
      attributes: full, newton on
      pair build: full/bin/atomonly
      stencil: full/bin/3d
      bin: standard
Per MPI rank memory allocation (min/avg/max) = 4.084 | 4.203 | 4.509 Mbytes
Step Temp Press Volume TotEng KinEng PotEng c_1[4] c_3 
       0     132.7951   -1147.9579    145106.76   -36018.829     2665.962   -38684.791            0          225 
      50      172.321   -922.13509    144470.64   -36371.883    3459.4742   -39831.357    0.8431171    291.97029 
     100    169.35556   -984.79725    144037.35   -36742.783    3399.9409   -40142.724    1.8616437    286.94584 
     150    163.72265    -824.5867    143585.04    -37085.61    3286.8559   -40372.466    2.7688081    277.40177 
     200    156.38156   -564.22927    143216.27   -37381.464    3139.4779   -40520.942    3.5627558    264.96347 
     250    153.73227   -563.63215    142892.09   -37627.822    3086.2915   -40714.113    4.1911372    260.47468 
     300    148.73914   -712.29347    142487.44   -37885.107    2986.0507   -40871.158    4.7751319    252.01462 
     350    147.58273   -942.35967    142065.87   -38014.688    2962.8348   -40977.523    5.3436909    250.05526 
     400    149.03429   -717.71423    141696.15   -38115.404     2991.976    -41107.38    5.9531381    252.51471 
     450    144.66146   -498.57252     141543.9   -38246.571    2904.1881   -41150.759     6.589654    245.10564 
     500    144.64012   -298.17362    141415.34   -38326.648    2903.7597   -41230.408    7.0996322    245.06949 
     550    142.96456   -511.29048    141250.47   -38429.811    2870.1216   -41299.933    7.5946783    242.23052 
     600    138.53837   -454.37286    141158.78   -38557.781    2781.2624   -41339.043    8.0523597    234.73104 
     650    139.20681    -524.4121    140954.07   -38672.805     2794.682   -41467.487     8.448399    235.86362 
     700    141.02121   -417.22542    140769.75     -38752.7    2831.1074   -41583.808    8.8692592    238.93783 
     750     141.7617   -361.27148    140636.35   -38790.674    2845.9732   -41636.647    9.3209228    240.19246 
     800    139.48739   -384.29237    140541.82   -38888.101    2800.3148   -41688.416    9.6915196    236.33902 
     850    136.00659   -199.84089    140494.07   -38963.123    2730.4351   -41693.559    10.099767    230.44135 
     900    137.28008   -93.262014    140441.09    -38957.69    2756.0013   -41713.692    10.426982    232.59907 
     950    133.83866   -377.52563    140366.46   -38989.773    2686.9121   -41676.685    10.692417    226.76814 
    1000    135.06696   -257.90658    140345.99   -39020.452    2711.5713   -41732.024    10.953936    228.84931 
    1050    137.65541   -193.70611    140286.41   -39004.336    2763.5364   -41767.873     11.28273    233.23502 
    1100    136.65168    -169.3322    140297.71   -39023.692    2743.3857   -41767.078    11.438964    231.53435 
    1150    133.40059   -36.650053     140368.4   -39097.191    2678.1177   -41775.309    11.666087    226.02591 
    1200    137.70747   -237.37688    140342.28   -39113.525    2764.5815   -41878.107    11.982822    233.32322 
    1250    136.32045   -346.18783    140322.78   -39138.355    2736.7361   -41875.091    12.364675    230.97314 
    1300    134.29178   -325.03614    140272.12   -39158.638    2696.0089   -41854.647    12.836464    227.53588 
    1350    134.91886   -290.85897    140167.62   -39161.657    2708.5981   -41870.255    13.175866    228.59837 
    1400    134.78138   -248.96042    140186.47   -39181.225     2705.838   -41887.063    13.405952    228.36543 
    1450    133.70628   -126.09017    140115.86   -39217.894    2684.2546   -41902.149    13.695925    226.54385 
    1500    132.05258   -25.333445    140154.55   -39297.782    2651.0553   -41948.837    13.942483    223.74191 
    1550    133.95795   -88.957781    140129.11   -39329.428     2689.307   -42018.735    14.179024    226.97026 
    1600    134.39573   -240.79036    140139.55   -39294.306    2698.0958   -41992.401    14.460924    227.71201 
    1650    129.29554   -204.48804    140078.41   -39304.612    2595.7056   -41900.317    14.749669    219.07055 
    1700    132.13419   -470.66629    140016.73   -39270.335    2652.6937   -41923.029     15.06303    223.88019 
    1750    131.49601    18.806073    139938.18   -39263.478    2639.8817   -41903.359    15.389039    222.79889 
    1800    133.79908   -226.39416     140006.9   -39263.361    2686.1176   -41949.478    15.696143    226.70108 
    1850    133.22375   -46.153627     139975.2   -39252.238    2674.5675   -41926.805    15.926607    225.72628 
    1900    134.87029   -234.11926     139974.5   -39226.951     2707.623   -41934.574    16.046313    228.51608 
    1950    134.36296   -211.84219    140003.57   -39201.947     2697.438   -41899.385    16.212765    227.65649 
    2000     132.2909   -403.18382    139997.11   -39279.577    2655.8397   -41935.417    16.405247    224.14571 
    2050    134.36741   -114.51313    140047.25   -39238.296    2697.5273   -41935.824    16.685664    227.66403 
    2100    133.22069   -205.85044    139982.04   -39275.028     2674.506   -41949.534    16.989808     225.7211 
    2150    133.13246   -97.942399     139961.3   -39291.798    2672.7348   -41964.533    17.304195     225.5716 
    2200    135.40965     28.94118    139930.83   -39325.402    2718.4511   -42043.853    17.463646    229.42994 
    2250    132.72272    31.020299    139977.27    -39306.23    2664.5089   -41970.739    17.751947    224.87737 
    2300    132.76558   -173.47914    140014.49    -39352.58    2665.3694    -42017.95    17.888318    224.94999 
    2350    133.40005   -188.56562    139958.04   -39319.477    2678.1068   -41997.584    18.203565    226.02499 
    2400    134.61972   -120.57451    139943.09   -39325.609    2702.5927   -42028.202    18.493115    228.09153 
    2450    132.19644    52.683032     140049.9   -39342.173    2653.9434   -41996.116     18.62927    223.98567 
    2500    133.16446   -32.421134    140180.24    -39312.54    2673.3772   -41985.917    18.680824    225.62583 
    2550    135.14724   -249.39076    140348.57   -39316.003    2713.1829   -42029.186     18.89208    228.98532 
    2600    131.66337   -401.49923    140308.77   -39353.783    2643.2417   -41997.025    19.156524    223.08247 
    2650    132.93115    -263.4227    140213.57   -39349.859    2668.6933   -42018.552    19.460039    225.23052 
    2700    132.53741   -120.49693    140251.23   -39384.708    2660.7887   -42045.496     19.78814    224.56339 
    2750    133.59267    121.45527    140323.37   -39396.258    2681.9739   -42078.232    20.135853    226.35136 
    2800     132.3284   -78.390386    140366.09   -39462.869    2656.5926   -42119.462    20.278291    224.20925 
    2850    132.03791    -216.2886    140376.42   -39412.117    2650.7609   -42062.878    20.476576    223.71707 
    2900    135.09955    -12.67063    140400.17     -39370.4    2712.2256   -42082.626    20.679608    228.90453 
    2950    133.66249   -342.50328    140429.16   -39328.973    2683.3755   -42012.349    20.992261    226.46966 
    3000    134.25452   -147.78312    140458.06   -39326.324    2695.2609   -42021.585    21.288785    227.47275 
    3050    132.31671   -188.57261    140416.46    -39347.23     2656.358   -42003.588    21.652256    224.18945 
    3100    134.08812    -137.1809    140451.68    -39356.47    2691.9203   -42048.391    21.989858    227.19081 
    3150    136.03031   -245.09798    140483.44   -39363.996    2730.9114   -42094.907    22.230147    230.48155 
    3200     133.2156   -110.50322    140399.51   -39391.558    2674.4038   -42065.962    22.535699    225.71246 
    3250    132.96588    -260.9435    140402.25   -39405.032    2669.3905   -42074.422    22.679088    225.28936 
    3300    133.61005   -64.364027    140433.41    -39380.48    2682.3227   -42062.803    22.783895     226.3808 
    3350    131.99144   -167.71642    140435.26   -39384.763    2649.8278   -42034.591    23.012426    223.63832 
    3400    134.41961    204.52418    140492.99   -39354.932    2698.5753   -42053.508    23.068588    227.75247 
    3450    132.71788   -34.692088    140494.58   -39373.266    2664.4117   -42037.678    23.420871    224.86916 
    3500    132.27387   -38.102088     140492.6   -39410.181    2655.4978   -42065.678     23.51946    224.11685 
    3550    133.33061   -107.28717    140450.68   -39429.746    2676.7127   -42106.459    23.536146    225.90733 
    3600    132.19897   -104.70986    140474.82   -39459.166    2653.9942   -42113.161    23.655051    223.98995 
    3650    132.22988   -60.431977    140454.05   -39446.354    2654.6148   -42100.969    23.993905    224.04233 
    3700     131.3475    55.730398    140560.37   -39449.404    2636.9004   -42086.304    24.126332    222.54728 
    3750    134.81087   -113.19784    140610.54   -39421.648    2706.4301   -42128.078    24.190361     228.4154 
    3800    133.44703   -275.10998    140695.21   -39403.723    2679.0499   -42082.773    24.454557    226.10459 
    3850    133.40551   -96.993072    140678.44   -39398.492    2678.2163   -42076.708    24.644592    226.03423 
    3900    133.31382   -267.03847    140690.57   -39382.176    2676.3756   -42058.551    24.864131    225.87888 
    3950    133.45362   -206.74471    140688.14    -39340.07    2679.1822   -42019.252    25.091849    226.11575 
    4000    134.16769   -62.651342       140700   -39271.556    2693.5178   -41965.074    25.308309    227.32563 
    4050    134.33804   -67.875009    140759.32   -39293.115    2696.9378   -41990.053    25.476542    227.61427 
    4100    136.29879   -200.04547    140817.22   -39312.233    2736.3012   -42048.534    25.565529    230.93644 
    4150     134.9013   -247.18948    140789.04   -39329.443    2708.2456   -42037.688    25.679585    228.56862 
    4200    133.01335   -149.74941    140748.25   -39339.942    2670.3435   -42010.285    26.018929    225.36978 
    4250    133.07072   -106.04752     140783.7   -39320.016    2671.4953   -41991.511    26.096223    225.46699 
    4300    135.95874   -225.14518    140839.67   -39292.005    2729.4744   -42021.479    26.337518    230.36027 
    4350     133.0006   -129.86245    140814.27   -39310.164    2670.0875   -41980.251     26.57276    225.34819 
    4400     134.2701   -305.50248    140793.63   -39310.426    2695.5737       -42006     26.79391    227.49915 
    4450    134.55059   -101.16651    140745.68   -39358.856    2701.2047   -42060.061    26.964203    227.97439 
    4500    134.12907   -37.013633     140712.8   -39308.792    2692.7424   -42001.534    27.295687    227.26019 
    4550    132.32829   -150.16096    140755.02   -39330.883    2656.5905   -41987.473    27.710936    224.20907 
    4600    131.95988   -240.91593     140744.6   -39386.427    2649.1943   -42035.622    28.006751    223.58485 
    4650    133.61816   -207.32222    140712.26   -39370.918    2682.4856   -42053.404    28.268304    226.39455 
    4700    132.77708   -123.52899    140732.46   -39376.364    2665.6003   -42041.964    28.427627    224.96948 
    4750    134.33882   -180.00127    140733.19   -39351.194    2696.9534   -42048.147    28.599854    227.61559 
    4800     134.1749   -79.200771    140746.75   -39350.742    2693.6624   -42044.405    28.800693    227.33784 
    4850    134.37421   -250.25502     140852.8   -39368.719    2697.6638   -42066.382    29.095304    227.67554 
    4900    132.05672   -116.81342    140866.83   -39390.107    2651.1384   -42041.245    29.236214    223.74893 
    4950    133.34946   -463.26422    140790.47   -39386.923    2677.0912   -42064.014    29.441819    225.93927 
    5000    135.70024   -426.16849    140769.36   -39338.039    2724.2849   -42062.324    29.680502     229.9223 
    5050    131.28504   -282.63872    140669.62   -39412.228    2635.6463   -42047.874    29.945787    222.44144 
    5100    132.58091   -278.92781     140699.8   -39463.056     2661.662   -42124.718     30.27327    224.63709 
    5150    130.26908   -206.50776    140739.67   -39442.847    2615.2503   -42058.098    30.601788    220.72007 
    5200    130.73945   -44.451542    140690.07   -39486.334    2624.6932   -42111.027    30.898332    221.51703 
    5250    130.74839   -149.73023    140690.27   -39480.189    2624.8727   -42105.061    31.061995    221.53217 
    5300    133.15324   -261.05499    140702.61   -39485.575     2673.152   -42158.727     31.23316    225.60682 
    5350    133.34467    -218.5148    140705.91   -39406.517    2676.9951   -42083.512    31.545381    225.93116 
    5400    131.83052   -56.752887     140670.4   -39423.858    2646.5974   -42070.455    31.813535    223.36568 
    5450    132.71936   -308.93935    140643.94   -39412.259    2664.4415   -42076.701    31.978358    224.87168 
    5500    134.53575    -305.7382     140580.1   -39401.348    2700.9069   -42102.255    32.239514    227.94925 
    5550    129.89828   -278.65862    140591.66   -39374.816     2607.806   -41982.622    32.519987     220.0918 
    5600    132.29051   -284.04311    140555.02   -39411.154     2655.832   -42066.986    32.731147    224.14506 
    5650    134.41324   -127.21778    140623.33   -39420.981    2698.4474   -42119.429    32.914958    227.74168 
    5700    132.58127   -187.42964    140715.08   -39390.701    2661.6692    -42052.37    32.995688     224.6377 
    5750     132.3963   -221.21422    140686.02   -39435.467    2657.9557   -42093.423    33.198199    224.32429 
    5800    134.27127   -237.35788    140641.25   -39462.568    2695.5973   -42158.165    33.293735    227.50114 
    5850    133.05836   -212.56965    140684.69   -39501.675    2671.2471   -42172.923    33.538354    225.44605 
    5900    132.62842   -194.42743    140688.04   -39501.505    2662.6158   -42164.121    33.783006    224.71759 
    5950    132.53511   -249.13909     140638.6   -39516.359    2660.7424   -42177.102    33.988981    224.55948 
    6000     130.5955   -244.06854    140626.06   -39509.785    2621.8033   -42131.588    34.233826    221.27313 
    6050    133.51266   -339.81154    140633.87   -39444.826    2680.3676   -42125.194    34.523355    226.21579 
    6100    130.71949    -311.6617    140520.27   -39461.466    2624.2926   -42085.759    34.727179    221.48322 
    6150    129.82664   -210.19718     140457.4   -39477.873     2606.368   -42084.241    34.933491    219.97042 
    6200     132.3904   -153.06238     140467.5   -39465.708    2657.8374   -42123.545    35.103448     224.3143 
    6250    130.11426    10.412053     140456.3   -39461.299    2612.1421   -42073.441    35.423604    220.45775 
    6300    132.06453   -245.60307    140543.01   -39436.161    2651.2952   -42087.456     35.54912    223.76216 
    6350     133.7076   -151.13359    140523.66    -39405.76    2684.2811   -42090.041    35.812871    226.54608 
    6400    133.72576   -187.75334    140559.54   -39424.597    2684.6457   -42109.243    36.061064    226.57686 
    6450    130.53663   -240.41242    140574.71   -39445.566    2620.6214   -42066.188    36.116933    221.17338 
    6500    132.06076   -163.80329     140622.8   -39446.306    2651.2195   -42097.525    36.126243    223.75577 
    6550    130.87098   -210.88956    140569.51   -39445.075    2627.3339   -42072.409    36.299217    221.73989 
    6600    132.18743   -186.96876    140517.75   -39443.017    2653.7625   -42096.779     36.73065    223.97039 
    6650    135.15449   -112.88232    140551.25   -39445.665    2713.3286   -42158.994    36.823343    228.99761 
    6700    131.63668   -254.10281    140544.47   -39443.632    2642.7058   -42086.338    36.955581    223.03724 
    6750    131.82847   -308.24975    140515.93   -39424.222    2646.5561   -42070.779    37.315615     223.3622 
    6800    130.16685   -371.37145    140427.47   -39455.142    2613.1979    -42068.34     37.43069    220.54685 
    6850    130.90619   -331.10788    140410.88   -39485.516    2628.0408   -42113.556    37.592858    221.79955 
    6900    130.11538     25.85284    140434.61   -39531.622    2612.1645   -42143.787    37.768865    220.45964 
    6950    132.29886   -223.74297    140487.37   -39542.464    2655.9996   -42198.464    37.869812    224.15921 
    7000     131.8578   -188.40174    140561.72   -39495.235     2647.145    -42142.38    38.137984     223.4119 
    7050    132.07342   -46.817545    140591.98   -39505.557    2651.4738   -42157.031    38.293583    223.77723 
    7100     133.7282   -237.94471    140612.36   -39533.409    2684.6948   -42218.103    38.516645    226.58099 
    7150    131.78171    14.747248    140633.51    -39540.81    2645.6174   -42186.428    38.876255    223.28297 
    7200    132.17846   -190.12741     140691.8   -39537.948    2653.5824   -42191.531    39.054264     223.9552 
    7250    131.81518   -155.35013    140727.68   -39537.941    2646.2894   -42184.231    38.923301    223.33969 
    7300     133.0084   -116.35695    140739.83   -39533.918    2670.2442   -42204.162    39.048226    225.36141 
    7350    129.77213   -290.27807    140732.44   -39541.668    2605.2737   -42146.942    39.163724    219.87807 
    7400    134.32876   -73.853577       140756     -39540.1    2696.7514   -42236.851    39.276669    227.59854 
    7450    127.11252     -194.346    140712.93    -39592.15      2551.88    -42144.03    39.535772    215.37179 
    7500    131.49232   -106.36605    140644.27   -39577.442    2639.8076    -42217.25    39.872069    222.79264 
    7550     131.6367   -70.942162    140678.93   -39566.431    2642.7063   -42209.137    40.068299    223.03728 
    7600    130.45176   -106.55827    140742.91   -39572.938    2618.9177   -42191.856    40.130204    221.02959 
    7650    131.70088   -273.33751    140755.34   -39596.929    2643.9946   -42240.924    40.278831    223.14601 
    7700    132.16084   -194.65754    140722.03   -39567.427    2653.2288   -42220.655    40.595341    223.92535 
    7750    129.43773   -92.535596    140727.86    -39638.33    2598.5603   -42236.891    40.850772    219.31148 
    7800    131.33882    17.926765    140732.92   -39656.649    2636.7261   -42293.375    40.898984    222.53257 
    7850    128.91257   -72.142411    140800.16   -39635.384    2588.0172   -42223.401    41.160971    218.42167 
    7900    131.30556   -133.65241    140726.07   -39608.756    2636.0584   -42244.815    41.418535    222.47622 
    7950    128.58193   -79.171063    140724.14   -39620.665    2581.3794   -42202.044    41.641415    217.86145 
    8000    131.36793   -208.28715    140683.44   -39546.722    2637.3106   -42184.033    41.757999     222.5819 
    8050    132.68734   -215.37421    140690.53   -39534.974    2663.7987   -42198.773    41.981597    224.81742 
    8100    132.64172   -112.03237    140814.33   -39555.044    2662.8827   -42217.926    42.115871    224.74012 
    8150    131.41808   -385.05018    140735.79   -39554.933    2638.3172    -42193.25    42.339774    222.66686 
    8200    135.35488   -220.52835    140681.51   -39488.828    2717.3515    -42206.18    42.536075    229.33714 
    8250     134.3514   -202.26807    140654.96   -39500.011    2697.2059   -42197.217    42.684308     227.6369 
    8300    130.35307   -220.64664    140701.35    -39548.21    2616.9363   -42165.146    42.595665    220.86237 
    8350    131.98556   -159.42601    140708.68   -39540.917    2649.7099   -42190.627    42.778336    223.62836 
    8400    133.20733   -156.26012    140750.08   -39503.858    2674.2378   -42178.096    43.049529    225.69845 
    8450    133.75805   -266.17971    140737.04   -39492.049    2685.2939   -42177.343    43.348079    226.63156 
    8500    135.30079   -301.33722    140716.36   -39469.716    2716.2656   -42185.981    43.563759    229.24549 
    8550    133.84684   -224.05938    140681.43   -39506.226    2687.0765   -42193.303    43.891557    226.78201 
    8600    133.43663   -190.30368    140613.78   -39546.317    2678.8411   -42225.158    44.064144    226.08697 
    8650    131.82389   -157.63066    140609.87   -39601.896    2646.4643    -42248.36    44.242391    223.35445 
    8700    130.85477   -248.62063    140586.09    -39665.71    2627.0084   -42292.718    44.265065    221.71242 
    8750    128.29872   -264.71867    140509.47   -39657.577    2575.6938   -42233.271    44.554072    217.38161 
    8800    131.08204   -150.42417    140461.28   -39609.822     2631.571   -42241.393    44.831496    222.09749 
    8850    131.72621   -160.06513    140484.42   -39580.687    2644.5032    -42225.19    44.994801    223.18894 
    8900    133.49059   -143.09974    140523.55   -39559.045    2679.9245    -42238.97    45.208435     226.1784 
    8950    131.39315   -82.456937    140550.28   -39525.685    2637.8167   -42163.502    45.442145    222.62462 
    9000    131.29638   -148.96098    140575.75   -39519.924     2635.874   -42155.798    45.689595    222.46066 
    9050    133.88794    59.519252    140556.11   -39480.733    2687.9017   -42168.635    45.875521    226.85165 
    9100    135.24967   -100.66051    140647.44   -39449.152    2715.2394   -42164.392    46.009581    229.15888 
    9150    130.31872   -388.73945    140704.27   -39502.747    2616.2469   -42118.994    46.354253    220.80418 
    9200     135.3228   -116.29448    140745.11   -39482.928    2716.7075   -42199.636    46.695393    229.28279 
    9250    131.47309   -96.098333    140820.74    -39458.24    2639.4217   -42097.662    46.902374    222.76007 
    9300    133.64613   -226.61388    140782.32   -39446.126     2683.047   -42129.173    47.023576    226.44193 
    9350    133.46295    -80.91907    140765.72   -39472.531    2679.3696     -42151.9    47.268923    226.13156 
    9400    132.33073   -173.98716    140776.53   -39404.975    2656.6394   -42061.614    47.380219     224.2132 
    9450    135.71709   -160.03653    140773.91   -39434.077    2724.6232     -42158.7    47.368445    229.95085 
    9500    134.74131   -161.29255    140811.22   -39422.831    2705.0336   -42127.865    47.383377    228.29754 
    9550    134.52632   -32.145253    140883.06   -39399.604    2700.7176   -42100.322    47.605031    227.93328 
    9600    135.61937   -246.45296    140946.81   -39402.808    2722.6613    -42125.47    47.936721    229.78527 
    9650    134.66804   -81.558459    140962.69   -39432.432    2703.5626   -42135.994     48.17607    228.17339 
    9700    134.61619   -231.92902    140995.52   -39397.672    2702.5217   -42100.194     48.34856    228.08554 
    9750    128.96258   -211.85354    140942.84    -39441.49    2589.0212   -42030.511     48.57592     218.5064 
    9800    130.70871   -511.24792    140952.24   -39461.438    2624.0761   -42085.514    48.646886    221.46494 
    9850    134.55161   -194.79702    140860.86   -39426.027    2701.2252   -42127.252    48.761444    227.97612 
    9900    130.74761   -167.82778    140809.08   -39416.047     2624.857   -42040.904    49.095453    221.53085 
    9950    130.81722   -144.59535    140753.36   -39479.787    2626.2546   -42106.042    49.421952     221.6488 
   10000     130.2258    -123.1278    140742.51   -39485.316    2614.3814   -42099.697    49.557027    220.64674 
   10050    129.02239   -296.64751    140665.92   -39546.355     2590.222   -42136.577    49.776448    218.60775 
   10100    129.71286   -122.01307    140646.07   -39537.861    2604.0838   -42141.945    49.996033    219.77764 
   10150        131.9   -156.76633    140608.72   -39522.791    2647.9923   -42170.783    50.137818     223.4834 
   10200     131.1621   -133.49303    140607.01   -39553.571    2633.1782   -42186.749    50.367288    222.23314 
   10250    132.56546   -171.05617    140562.64   -39509.791    2661.3518   -42171.143    50.478685    224.61091 
   10300    131.70456   -20.392553    140553.87   -39519.836    2644.0686   -42163.904    50.474395    223.15226 
   10350    132.53735   -168.60528    140584.78   -39491.444    2660.7874   -42152.231    50.536535    224.56328 
   10400    133.65802   -139.85628    140641.07    -39499.45    2683.2858   -42182.736    50.777315    226.46209 
   10450    133.43285   -216.17625    140701.32   -39495.111    2678.7652   -42173.876    51.205665    226.08056 
   10500    134.26418   -228.06745    140715.02   -39458.068    2695.4549   -42153.523    51.432602    227.48912 
   10550    134.26278   -92.359056    140679.82   -39454.171    2695.4268   -42149.598    51.755697    227.48675 
   10600     131.0542    -14.68586    140726.79   -39446.792     2631.012   -42077.804    52.002253    222.05032 
   10650    131.34513   -80.649549    140740.98   -39436.368    2636.8527   -42073.221    52.167498    222.54325 
   10700    132.92721   -43.209202    140792.95   -39438.988    2668.6143   -42107.602    52.230074    225.22385 
   10750    130.40038   -25.097432    140869.02   -39369.739    2617.8861   -41987.625    52.380502    220.94252 
   10800    136.18938    -171.8845    140877.38   -39388.946    2734.1047   -42123.051    52.563308    230.75106 
   10850    135.55241   -158.65529    140837.92   -39393.305     2721.317   -42114.622    52.650114    229.67181 
   10900    132.53912   -174.85037       140844   -39408.459     2660.823   -42069.282    52.886926    224.56628 
   10950     132.1681   -183.74005    140894.64    -39484.36    2653.3745   -42137.735    53.146632    223.93765 
   11000    135.17664   -217.67997    140920.96   -39493.304    2713.7731   -42207.077    53.188981    229.03513 
   11050    132.63525   -242.33673    140966.74   -39555.296    2662.7528   -42218.049    53.382922    224.72916 
   11100    132.62288   -230.83348    140999.91    -39503.66    2662.5045   -42166.164    53.605634    224.70819 
   11150    132.11529   -117.93123    140999.25   -39457.731    2652.3144   -42110.045    53.832113    223.84818 
   11200    129.61408   -488.83424    140949.95    -39476.11    2602.1005    -42078.21    53.950544    219.61027 
   11250    132.46375   -374.20113    140929.09   -39451.035    2659.3098   -42110.344      54.2258    224.43858 
   11300    134.88861   -269.62839    140890.65    -39516.31    2707.9908     -42224.3    54.593681    228.54712 
   11350    132.74551   -461.27799    140862.24   -39507.216    2664.9664   -42172.183    54.625429    224.91598 
   11400    131.05334   -265.10158    140765.86   -39495.765    2630.9949    -42126.76    54.612458    222.04887 
   11450    133.13757   -361.45576    140683.99   -39517.912    2672.8374   -42190.749    54.882454    225.58026 
   11500    130.79673   -133.46897    140691.88   -39525.866    2625.8431   -42151.709    55.039792    221.61408 
   11550    132.24794   -242.81882    140739.47   -39537.169    2654.9774   -42192.147    55.204738    224.07293 
   11600    131.93259   -250.37902    140714.98   -39491.932    2648.6465   -42140.578    55.210411    223.53862 
   11650    133.74227   -395.21116    140661.05   -39488.524    2684.9772   -42173.501    55.302294    226.60483 
   11700    133.07328   -172.73652    140601.02   -39496.252    2671.5467   -42167.798    55.409307    225.47133 
   11750    135.34091   -129.52803    140626.03   -39457.553    2717.0711   -42174.624    55.479852    229.31347 
   11800    135.20873   -209.10601    140694.87   -39478.517    2714.4175   -42192.934    55.845873    229.08952 
   11850    135.67175    2.1598774    140717.32   -39484.839    2723.7128   -42208.552    55.944761    229.87402 
   11900    133.73787   -318.97056    140732.82   -39456.342    2684.8888   -42141.231    56.168934    226.59737 
   11950     135.3995   -108.44441    140707.92   -39449.954    2718.2473   -42168.201    56.350487    229.41274 
   12000    132.65255   -77.662161     140721.3    -39421.45    2663.1001    -42084.55     56.49741    224.75847 
   12050    132.33143    -278.8126     140754.1   -39465.143    2656.6534   -42121.796    56.756008    224.21438 
   12100    132.29348   -98.104277    140703.73   -39448.918    2655.8917    -42104.81    56.999214    224.15009 
   12150     134.1518   -153.06761    140773.23   -39431.259    2693.1987   -42124.458     57.04696    227.29871 
   12200    131.76835   -238.55478    140834.68   -39449.824    2645.3492   -42095.174    57.101771    223.26034 
   12250     133.4205   -140.64714    140789.01   -39435.652    2678.5174   -42114.169    57.395515    226.05964 
   12300    135.42414   -60.976191    140804.56   -39406.388    2718.7419    -42125.13    57.670657    229.45448 
   12350    134.93025   -93.312373    140815.42   -39369.147    2708.8267   -42077.974    57.922269    228.61767 
   12400    133.07365   -85.901943    140862.99   -39395.035    2671.5542   -42066.589    58.080163    225.47197 
   12450    133.50254   -208.44323    140920.55    -39414.98    2680.1644   -42095.144    58.247983    226.19864 
   12500    133.03969   -298.28933    140880.73   -39444.334    2670.8722   -42115.206    58.643597    225.41441 
   12550     134.2386    61.589089    140953.54   -39417.927    2694.9414   -42112.868    58.852472    227.44578 
   12600    134.17057   -261.41823    141060.01   -39345.989    2693.5756   -42039.564    59.214528    227.33052 
   12650    134.70541   -159.18753    141078.17   -39376.862    2704.3129   -42081.175    59.605285    228.23671 
   12700    132.88598   -158.63899    141108.15   -39474.015    2667.7864   -42141.801    59.762221    225.15398 
   12750    135.30715   -367.39786    141073.92   -39483.545    2716.3933   -42199.938    59.909479    229.25627 
   12800     132.1867   -214.58999    141063.18    -39479.07    2653.7479   -42132.818    60.136609    223.96917 
   12850    134.50191   -351.20217    141003.27   -39448.263    2700.2275   -42148.491    60.323622    227.89192 
   12900    132.60193   -185.03642     141026.2   -39403.323    2662.0839   -42065.407    60.339146     224.6727 
   12950    132.81185   -233.69069    140960.05   -39404.587    2666.2982   -42070.885    60.464846    225.02838 
   13000    132.41168    -454.9767    140966.71   -39391.965    2658.2645    -42050.23    60.763082    224.35035 
   13050    134.43309   -182.40786    140978.37    -39372.61    2698.8459   -42071.456    60.914892    227.77532 
   13100    131.41375   -284.96576    140935.28    -39416.87    2638.2303   -42055.101    61.156972    222.65952 
   13150    129.35317   -216.92891    140952.31   -39412.826    2596.8626   -42009.688    61.320973     219.1682 
   13200    131.61382   -209.01524    140848.62   -39399.599    2642.2469   -42041.846    61.494225    222.99851 
   13250    130.70758   -364.15262    140798.66   -39397.084    2624.0535   -42021.137    61.556666    221.46303 
   13300    132.87857   -355.17252     140711.7   -39399.509    2667.6376   -42067.146     61.92973    225.14142 
   13350    135.04993   -201.10658    140779.18   -39362.321    2711.2295    -42073.55    62.112778    228.82045 
   13400    133.36519    -110.5534    140803.02   -39395.641    2677.4069   -42073.048    62.341563    225.96592 
   13450    132.88152   -72.427314    140849.84   -39404.236     2667.697   -42071.933    62.441628    225.14643 
   13500    131.16266   -93.295137     140834.8   -39424.655    2633.1896   -42057.845    62.671691     222.2341 
   13550    131.86959   -127.10795    140845.67   -39407.844    2647.3817   -42055.225    62.834749    223.43187 
   13600    133.54928   -150.95457    140838.62   -39424.728    2681.1027    -42105.83    63.075828    226.27783 
   13650    134.15725   -42.732365    140885.41   -39432.598    2693.3083   -42125.906    63.084181    227.30795 
   13700    132.04118    -247.1373    140935.49   -39458.904    2650.8265   -42109.731    63.032874     223.7226 
   13750     131.0646   -308.86402    140934.66   -39491.898    2631.2209   -42123.119    63.106386    222.06795 
   13800     132.9947   -68.170229    140879.18    -39413.42    2669.9691   -42083.389     63.35016    225.33819 
   13850    131.23514   -242.71726    140910.91   -39441.232    2634.6445   -42075.876     63.62302    222.35689 
   13900    130.72809   -268.90181    140875.92   -39424.264    2624.4652   -42048.729    64.029794    221.49778 
   13950    132.89239   -238.89543    140749.19   -39444.501    2667.9153   -42112.416    64.363118    225.16485 
   14000    134.37486   -256.35977    140690.04   -39443.981    2697.6769   -42141.658    64.651674    227.67665 
   14050    134.12176   -116.06886    140746.21   -39382.218    2692.5957   -42074.814    64.952052    227.24781 
   14100    132.68129   -208.09283     140802.1   -39383.531    2663.6771   -42047.208    65.019914    224.80716 
   14150    132.28696   -127.57664    140936.88   -39373.171    2655.7606   -42028.932    65.235176    224.13903 
   14200    132.23092   -260.15232    140957.57   -39397.952    2654.6357   -42052.587    65.284092    224.04409 
   14250    133.14186   -245.95512    140912.87   -39392.052    2672.9236   -42064.975     65.82456    225.58754 
   14300    133.22825   -145.51319    140954.73   -39454.316    2674.6577   -42128.974    66.064711     225.7339 
   14350    131.04924   -277.37528     141032.1   -39425.201    2630.9126   -42056.114    66.346229    222.04192 
   14400    133.37582    26.091931     141059.9    -39413.26    2677.6204    -42090.88    66.611456    225.98394 
   14450    132.84358    -118.2412    141108.29    -39399.14    2666.9353   -42066.076    66.878027    225.08215 
   14500    134.69098   -215.72327    141093.62   -39438.285    2704.0232   -42142.308    67.152472    228.21226 
   14550    133.08965   -208.94416    141001.59   -39397.679    2671.8753   -42069.555     67.42625    225.49907 
   14600    134.03407    -246.7628       140911   -39406.679    2690.8353   -42097.514    67.639203    227.09924 
   14650    130.89283   -188.96861    140890.27   -39426.015    2627.7724   -42053.788    67.949809     221.7769 
   14700     132.3595   -260.65513    140937.81   -39386.393    2657.2171    -42043.61     67.96203    224.26195 
   14750    134.09436   -209.75855    141048.45   -39383.415    2692.0456    -42075.46    68.109342    227.20139 
   14800    133.57085   -100.46759    141154.55   -39320.385    2681.5358   -42001.921    68.269055    226.31439 
   14850    134.79144    -321.5783    141195.01   -39350.741    2706.0401   -42056.781    68.575879    228.38248 
   14900    134.22018   -335.61946     141161.8   -39359.679    2694.5715    -42054.25    68.951182    227.41457 
   14950    133.72236   -282.87435    141096.93   -39347.828    2684.5775   -42032.405    68.983587     226.5711 
   15000    135.16806   -211.82552    141093.85    -39303.59     2713.601   -42017.191    69.319968     229.0206 
   15050     136.4442   -279.77369    141129.47    -39325.63    2739.2204   -42064.851    69.713947    231.18281 
   15100    137.05353   -338.28838    141175.47   -39317.702    2751.4532   -42069.155    69.644351    232.21523 
   15150    134.54735   -591.11077     141103.8   -39346.393    2701.1398   -42047.533    70.004076    227.96891 
   15200    134.33927   -219.62648    141036.13   -39302.099    2696.9623   -41999.061    70.207432    227.61634 
   15250    137.99844   -98.315818    141014.32   -39251.049    2770.4229   -42021.472    70.445392    233.81622 
   15300    135.35834    -355.8785       141022   -39278.082     2717.421   -41995.503    70.533833      229.343 
   15350    134.02639   -265.37329     141023.7   -39313.431    2690.6811   -42004.112    70.641169    227.08623 
   15400    134.89395     -289.989    141055.57    -39291.89     2708.098   -41999.988    70.972083    228.55616 
   15450    133.24329   -133.27167    141049.41   -39320.548    2674.9597   -41995.508    71.133206    225.75938 
   15500    131.05995   -195.65801    141089.72   -39339.474    2631.1275   -41970.601    71.355433    222.06006 
   15550    134.69611   -445.84487    141032.45    -39326.49    2704.1263   -42030.617    71.626613    228.22096 
   15600    132.30075   -320.60423    140999.15   -39375.647    2656.0376   -42031.685    71.880102     224.1624 
   15650     134.1285    -209.1764    140905.25   -39317.431    2692.7309   -42010.162    72.264288    227.25923 
   15700    132.61427   -306.57579     140916.7   -39368.507    2662.3317   -42030.838    72.655721    224.69362 
   15750    132.34258   -110.69354    140924.89   -39400.576    2656.8774   -42057.453    72.988937    224.23328 
   15800     133.4946   -206.94893    140923.73   -39397.443    2680.0049   -42077.448    73.178031    226.18519 
   15850    132.73436    1.4056828     140917.2   -39408.293    2664.7426   -42073.036    73.213716    224.89709 
   15900     132.2544   -100.18935    140927.58   -39408.352    2655.1071   -42063.459     73.62641    224.08388 
   15950    133.83531   -326.91419    140850.91   -39435.872     2686.845   -42122.717    73.812788    226.76247 
   16000    129.96655   -137.18512    140765.12   -39439.072    2609.1768   -42048.249     74.12146    220.20748 
   16050    132.83733   -194.07967    140757.17   -39395.118    2666.8098   -42061.928    74.495892    225.07156 
   16100    132.56823   -323.17631    140728.37    -39397.06    2661.4075   -42058.468    74.603566    224.61561 
   16150    134.11122   -133.22251    140720.54   -39373.972    2692.3842   -42066.356    74.710769    227.22996 
   16200    133.79509   -314.96147    140681.35   -39354.833    2686.0376   -42040.871    74.850664    226.69433 
   16250    129.81835   -65.432188    140730.59   -39400.067    2606.2016   -42006.269    74.942419    219.95638 
   16300    134.72704   -240.14548    140650.22   -39360.768    2704.7472   -42065.516    74.984372    228.27337 
   16350    131.95362   -262.03256    140702.31   -39427.687    2649.0686   -42076.756    75.121436    223.57424 
   16400    131.99727   -106.87069    140774.71   -39462.444    2649.9449   -42112.389      75.0957     223.6482 
   16450     131.3553   -264.85245    140784.19   -39462.029    2637.0569   -42099.086     75.35405    222.56049 
   16500    133.36851   -286.07976    140838.51   -39469.818    2677.4735   -42147.291    75.562006    225.97154 
   16550    132.63631   -193.79286    140900.35   -39426.129    2662.7742   -42088.903    75.728975    224.73096 
   16600    135.22432   -165.94596     140885.9    -39394.43    2714.7305   -42109.161    75.785182    229.11593 
   16650    132.28077    53.378117    140922.12   -39427.654    2655.6365    -42083.29    76.093383    224.12855 
   16700    130.30844   -253.71004    140913.56   -39431.886    2616.0404   -42047.927    76.383381    220.78675 
   16750    130.63668   -148.55953    140850.16   -39449.741    2622.6301   -42072.371    76.753135    221.34291 
   16800    129.06021   -365.15064    140762.75   -39506.437    2590.9813   -42097.418    76.899085    218.67183 
   16850    131.53358   -220.73835     140712.1   -39477.595    2640.6359   -42118.231    77.106702    222.86255 
   16900    131.08216   -255.16058     140701.7   -39472.462    2631.5735   -42104.035    77.355418     222.0977 
   16950    131.64605   -264.03457    140734.28   -39439.611     2642.894   -42082.505     77.66883    223.05312 
   17000    130.23988   -367.96833    140691.89   -39439.384     2614.664   -42054.048    77.992677    220.67059 
   17050    131.63196   -247.10948    140657.36   -39422.345     2642.611   -42064.956    78.346976    223.02924 
   17100    131.65361    -320.0085    140602.68   -39391.325    2643.0457   -42034.371    78.541495    223.06593 
   17150    130.62537   -110.56937     140593.5   -39421.445    2622.4031   -42043.848    78.654632    221.32375 
   17200    132.86875   -362.73282    140537.68   -39440.946    2667.4405   -42108.386    78.906262    225.12478 
   17250    133.61415   -384.83617    140445.53   -39402.109     2682.405   -42084.514    78.984014    226.38775 
   17300    135.96048   -39.167063    140391.17   -39368.646    2729.5093   -42098.156    79.230543    230.36322 
   17350    131.39404   -180.61231     140426.7   -39413.017    2637.8347   -42050.852    79.368521    222.62613 
   17400    132.69141   -74.124655    140505.13   -39388.327    2663.8803   -42052.208    79.700904    224.82431 
   17450    133.66217   -54.335571     140620.6   -39434.472    2683.3691   -42117.841    79.888294    226.46911 
   17500    134.15438       -69.95    140724.47   -39449.819    2693.2505   -42143.069    80.045101    227.30308 
   17550    133.46544   -78.539286    140838.92    -39433.26    2679.4196   -42112.679    79.994667    226.13579 
   17600    132.19395    -160.3369    140866.22    -39404.14    2653.8934   -42058.034    80.161299    223.98145 
   17650     132.9365   -185.37081    140936.66   -39454.539    2668.8007   -42123.339    80.355113    225.23958 
   17700    129.84401   -299.19216     140980.4   -39527.036    2606.7167   -42133.752    80.632232    219.99986 
   17750    131.91193   -294.62184    140937.47   -39495.046    2648.2318   -42143.278    80.606921    223.50362 
   17800    130.13698    -17.18666    140940.76   -39485.342    2612.5983    -42097.94    80.822296    220.49625 
   17850    130.08547   -392.46928    140974.31   -39499.756     2611.564    -42111.32    81.227136    220.40896 
   17900     129.3333   -274.61679    140917.79    -39530.66    2596.4638   -42127.124    81.323314    219.13454 
   17950    131.53952   -212.63096    140911.42   -39452.718    2640.7553   -42093.473    81.453941    222.87262 
   18000    131.56587   -273.78092    140872.16   -39431.091    2641.2842   -42072.375    81.683195    222.91726 
   18050    133.58489   -155.29546    140867.69   -39469.095    2681.8176   -42150.913    82.036835    226.33817 
   18100    133.40201   -216.16234    140837.79   -39454.094    2678.1461    -42132.24    82.050291     226.0283 
   18150     131.9488   -201.95373    140796.77   -39474.527    2648.9719   -42123.499      82.3297    223.56608 
   18200    134.42825   -188.68394    140745.62   -39471.975    2698.7487   -42170.723    82.516314    227.76711 
   18250    131.88803   -199.68468    140804.05   -39499.642    2647.7518   -42147.394      82.8477    223.46311 
   18300     131.5389     -286.535    140804.72   -39434.131    2640.7428   -42074.873    83.060306    222.87157 
   18350    129.22204   -266.03307    140719.54   -39470.173    2594.2302   -42064.403    83.337345    218.94603 
   18400    131.27469   -118.56225    140700.72   -39413.237    2635.4387   -42048.675    83.408387    222.42392 
   18450    132.11655    73.955187    140717.86   -39385.753    2652.3396   -42038.093    83.531124    223.85031 
   18500    132.66486   -271.22481    140803.32   -39389.213    2663.3473   -42052.561    83.738169    224.77933 
   18550    134.28005   -222.67362    140756.06   -39388.712    2695.7734   -42084.485    83.751353      227.516 
   18600    134.68384   -83.161464    140782.54   -39391.666    2703.8799   -42095.546    83.967915    228.20017 
   18650    135.23672    58.220634    140936.19    -39410.96    2714.9793   -42125.939    83.778648    229.13693 
   18700    131.93513   -205.61455    141039.33   -39457.718    2648.6975   -42106.416    84.051903    223.54292 
   18750    132.73846   -191.43866    140992.37   -39462.785    2664.8248   -42127.609    84.187233    224.90402 
   18800    131.09834   -258.90613    140946.44   -39509.162    2631.8983    -42141.06    84.289616    222.12512 
   18850    129.12988   -324.72935    140918.14   -39542.121    2592.3799   -42134.501    84.418955    218.78987 
   18900    132.03049   -322.89477    140919.84   -39578.638    2650.6119   -42229.249    84.658657    223.70449 
   18950    130.75138   -206.09116    140921.84   -39531.408    2624.9327   -42156.341    84.537452    221.53724 
   19000    134.54597   -300.78415    140960.59   -39477.753    2701.1119   -42178.865    84.821215    227.96656 
   19050    132.63687    21.623242    140997.53   -39465.065    2662.7854   -42127.851    85.074543     224.7319 
   19100    132.52251    -377.2037    141002.89   -39417.046    2660.4894   -42077.536    85.174339    224.53813 
   19150    132.07381   -495.31315    141040.47   -39486.821    2651.4815   -42138.303    85.475855    223.77788 
   19200    131.36137   -44.765384    141027.99   -39509.626    2637.1788   -42146.805     85.69215    222.57077 
   19250    131.16575   -130.52197    141089.47   -39525.365    2633.2515   -42158.616    86.068116    222.23932 
   19300    130.81442   -247.75479    141050.17   -39546.967    2626.1984   -42173.165    86.360072    221.64406 
   19350    129.65689   -245.86739    140981.81   -39530.391    2602.9601   -42133.351    86.539668    219.68281 
   19400    131.76609   -235.32912    141026.91   -39484.467    2645.3038    -42129.77    86.790899     223.2565 
   19450    136.26968   -134.50947    141021.08   -39415.508    2735.7168   -42151.225    87.231262    230.88712 
   19500    136.19878   -301.43524    141076.36   -39404.594    2734.2935   -42138.887    87.543092    230.76699 
   19550    136.18077   -255.63061    141038.45   -39393.408    2733.9318   -42127.339     87.64779    230.73647 
   19600    136.81441   -232.03923    141123.37   -39367.272    2746.6527   -42113.925    87.725681    231.81008 
   19650    132.27007   -220.22046    141137.28   -39426.843    2655.4216   -42082.265    88.062823    224.11042 
   19700    135.38928   -302.32773    141125.85   -39402.919     2718.042   -42120.962    88.471548    229.39541 
   19750    135.63393   -437.76505    141049.45   -39391.799    2722.9536   -42114.753    88.564522    229.80994 
   19800    133.57878   -269.12976    140931.68   -39408.951    2681.6949   -42090.646    88.706175    226.32782 
   19850      131.423   -222.51142    140881.19   -39410.417    2638.4159   -42048.833     88.78153    222.67519 
   19900    133.32039    19.647718    140805.95   -39354.169    2676.5075   -42030.677    88.946739    225.89002 
   19950    136.72529    153.46044    140931.13   -39289.415    2744.8634   -42034.278    89.149574    231.65907 
   20000    136.17274   -35.419796    141046.85   -39323.908    2733.7706   -42057.678    89.097073    230.72286 
   20050    134.63448   -74.626422    141074.82   -39338.687     2702.889   -42041.576    89.196531    228.11654 
   20100    132.24626   -320.40896    141050.83   -39421.389    2654.9437   -42076.332    89.322275    224.07008 
   20150     131.7103   -222.11192    141014.76   -39446.287    2644.1838   -42090.471    89.456617    223.16198 
   20200    132.72957   -158.61806    141079.03   -39414.707    2664.6465   -42079.354    89.692092    224.88897 
   20250    131.07564   -431.42969    141005.71   -39426.004    2631.4425   -42057.447    89.733511    222.08665 
   20300    131.60638    25.011184    140909.14   -39419.327    2642.0975   -42061.425    90.044528     222.9859 
   20350    133.74123    11.295294    140928.82   -39399.741    2684.9562   -42084.698    90.475872    226.60306 
   20400    134.08372   -211.54904    140910.95   -39460.553     2691.832   -42152.385    90.915165    227.18336 
   20450    132.93997   -134.11868    140905.59   -39441.591    2668.8703   -42110.461    91.077461    225.24545 
   20500     134.2041   -20.559016    140937.47    -39432.72    2694.2488   -42126.969     91.24112    227.38733 
   20550    130.10851   -59.292706    140948.28   -39417.849    2612.0267   -42029.876    91.409569    220.44801 
   20600    129.21922   -120.31434       141058   -39427.649    2594.1735   -42021.822    91.663193    218.94124 
   20650    132.87846   -129.57421    141097.79   -39424.212    2667.6356   -42091.848    91.781681    225.14125 
   20700    133.38481    -153.7879    141098.32   -39432.819    2677.8008    -42110.62    91.962086    225.99917 
   20750    132.18586   -306.79509    141071.51   -39446.477    2653.7311   -42100.208    92.255153    223.96774 
   20800    133.15623   -272.72495    141043.74   -39472.807    2673.2119   -42146.019    92.498859    225.61187 
   20850    131.85784   -217.65382    141047.73   -39482.838    2647.1457   -42129.984    92.494175    223.41196 
   20900    132.67339   -186.24755    141031.22   -39518.938    2663.5186   -42182.457     92.87693    224.79379 
   20950    131.91536   -327.76576    141022.42   -39504.324    2648.3006   -42152.624    93.119215    223.50942 
   21000    132.72851   -350.05187    140982.56   -39511.156    2664.6252   -42175.781    93.395152    224.88718 
   21050    134.21537   -9.5142107    140893.92   -39498.679    2694.4749   -42193.154    93.971486    227.40642 
   21100     134.2573   -169.03469    140979.95   -39501.744    2695.3167    -42197.06    94.117465    227.47746 
   21150    131.39279   -221.54237    141006.61   -39507.784    2637.8096   -42145.593    94.306628    222.62402 
   21200    134.04872   -155.38322    141010.65   -39497.527    2691.1294   -42188.656    94.586497    227.12406 
   21250    134.28898   -220.96849    141132.04   -39472.831    2695.9528   -42168.784    94.853602    227.53114 
   21300    135.52357   -22.029617    141219.75   -39456.912     2720.738    -42177.65    94.891256    229.62295 
   21350    131.89242   -82.779416    141267.06   -39505.706    2647.8401   -42153.546    94.780209    223.47056 
   21400    132.60866   -120.63652    141275.73   -39490.792     2662.219   -42153.011    94.912846     224.6841 
   21450    131.40032   -294.66699    141320.29   -39524.351    2637.9608   -42162.311    95.067271    222.63677 
   21500    132.59488    -265.7071    141332.35   -39483.629    2661.9425   -42145.572    95.530931    224.66076 
   21550    132.24029   -181.82957    141273.96   -39509.451    2654.8237   -42164.275    96.044146    224.05995 
   21600    132.65058   -439.44551    141180.33    -39472.47    2663.0606   -42135.531     96.25666    224.75513 
   21650    132.83562   -301.22844    141103.32   -39452.459    2666.7755   -42119.234    96.276509    225.06865 
   21700    134.51807   -130.05858    141136.01   -39462.508    2700.5519    -42163.06    96.419685     227.9193 
   21750    134.35724   -75.774796    141133.22   -39425.603    2697.3232   -42122.926    96.487974     227.6468 
   21800    132.50634   -208.61587    141107.54   -39404.195    2660.1649    -42064.36    96.814411    224.51074 
   21850    131.26046   -154.94449    141093.88    -39399.72     2635.153   -42034.873    96.963361     222.3998 
   21900    133.02963   -103.39177     141098.3   -39365.441    2670.6704   -42036.111    96.813104    225.39738 
   21950     131.1019   -171.52723     141184.1   -39361.736    2631.9698   -41993.705    96.974773    222.13115 
   22000    133.17518   -298.30314     141207.7   -39323.348    2673.5924    -41996.94    97.219411    225.64398 
   22050    134.37471   -412.92073    141044.63   -39295.569    2697.6739   -41993.242    97.463331     227.6764 
   22100    130.90204   -283.93126    140976.76   -39356.546    2627.9573   -41984.503     97.75032    221.79251 
   22150    134.63309   -320.18323    140895.51   -39326.969     2702.861    -42029.83    97.748721    228.11418 
   22200    132.99931   -89.098461     140818.1   -39312.913    2670.0616   -41982.974    98.033043    225.34599 
   22250    132.01249   -119.25929    140839.99   -39323.098    2650.2504   -41973.348    98.306343    223.67398 
   22300     133.7078   -278.22237    140830.76    -39292.59    2684.2852   -41976.875    98.490904    226.54643 
   22350    131.97828   -240.99066    140843.88   -39318.773    2649.5636   -41968.336    99.018478    223.61602 
   22400    129.84175   -163.60544     140875.2   -39311.436    2606.6712   -41918.107    99.246042    219.99602 
   22450    132.31131    -411.3356    140871.95   -39402.123    2656.2495   -42058.372    99.422427    224.18029 
   22500    134.57135   -424.16547    140765.37   -39344.074    2701.6215   -42045.696    99.650273    228.00957 
   22550    131.82795   -149.88028    140709.36   -39399.732    2646.5458   -42046.278    99.931315    223.36132 
   22600    134.25578   -220.52367    140613.47   -39361.914    2695.2862     -42057.2    100.14308    227.47489 
   22650    133.38394   -419.57619    140534.36   -39365.082    2677.7834   -42042.865    100.47396    225.99769 
   22700    137.88535   -322.37433    140466.68   -39389.411    2768.1526   -42157.563     100.8276    233.62461 
   22750    133.33765   -248.54789    140451.79    -39423.71    2676.8541   -42100.564    100.96957    225.91926 
   22800    132.19645   -139.67701    140373.17   -39459.253    2653.9435   -42113.196    101.32079    223.98568 
   22850    130.57966   -27.029412    140375.66   -39379.813    2621.4854   -42001.298    101.28621     221.2463 
   22900    132.12193   -186.95272    140351.24   -39417.176    2652.4475   -42069.624    101.23392    223.85941 
   22950    131.40281   -89.839003    140323.72   -39399.637    2638.0107   -42037.648     101.6945    222.64099 
   23000    131.83336   -411.69277    140317.16   -39408.375    2646.6543    -42055.03    102.09594    223.37048 
   23050    132.80893    -160.7431     140278.5   -39379.215    2666.2396   -42045.455    102.42327    225.02343 
   23100    131.92333    62.695684     140396.3   -39385.041    2648.4605   -42033.501    102.45331    223.52292 
   23150    132.72005   -14.540338    140521.12   -39399.896    2664.4553   -42064.351    102.45124    224.87284 
   23200    131.90312    -89.29524       140594   -39388.509    2648.0547   -42036.564     102.5896    223.48868 
   23250    135.34361    -61.16745    140622.73   -39376.074    2717.1253     -42093.2    102.81759    229.31805 
   23300    132.57779   -3.7695557    140640.71   -39406.001    2661.5992   -42067.601    103.06639     224.6318 
   23350    136.49071   -228.41656    140636.71   -39374.518    2740.1541   -42114.672    103.47539    231.26161 
   23400    133.67995   -94.601855    140746.14   -39406.922    2683.7259   -42090.648    103.72834    226.49923 
   23450    132.32655   -154.24121    140808.89   -39402.476    2656.5555   -42059.032    103.90383    224.20612 
   23500    132.76888   -202.18109    140943.39   -39379.646    2665.4356   -42045.082    104.15445    224.95558 
   23550    133.01179   -341.62125    140965.04   -39415.128    2670.3121    -42085.44    104.20154    225.36714 
   23600      134.469    13.838478    140949.65   -39451.808    2699.5667   -42151.375    104.47302    227.83615 
   23650     132.1282   -38.424354    140993.51   -39469.318    2652.5735   -42121.891     104.7683    223.87005 
   23700    131.64558   -86.934575    140976.61   -39440.567    2642.8844   -42083.452    104.71676    223.05232 
   23750    131.43079   -277.12525    140931.77   -39425.922    2638.5724   -42064.495    105.08135     222.6884 
   23800    129.40084   -137.87599    140951.12   -39430.065    2597.8196   -42027.885    105.42798    219.24897 
   23850    132.85109   -153.68773    140911.42   -39412.352     2667.086   -42079.438    105.69839    225.09486 
   23900    134.49443   -246.36611    140891.56   -39395.012    2700.0773   -42095.089    105.91343    227.87924 
   23950    133.23707   -226.07508    140942.09   -39416.129    2674.8349   -42090.963    106.22311    225.74885 
   24000    131.50374   -266.53622    140950.01   -39422.029    2640.0369   -42062.066    106.55486    222.81199 
   24050    134.24899   -111.03878    140960.29   -39404.758    2695.1499   -42099.908    106.75021    227.46338 
   24100    133.30878   -358.35902    140923.04   -39380.842    2676.2744   -42057.116    106.86919    225.87034 
   24150    133.36191    -433.8303    140841.22   -39311.687    2677.3411   -41989.028      107.253    225.96036 
   24200    134.35236   -322.67839    140755.73   -39275.801    2697.2251   -41973.026    107.67685    227.63852 
   24250    134.37101   -309.98987    140680.97   -39279.412    2697.5996   -41977.012    107.88061    227.67013 
   24300    135.55594   -477.63232    140488.18   -39277.237    2721.3879   -41998.625    108.18256     229.6778 
   24350    132.82334   -227.29202       140489   -39272.212     2666.529   -41938.741    108.51006    225.04785 
   24400    133.47238   -192.56178    140412.97   -39344.323    2679.5589   -42023.882    108.65884    226.14754 
   24450    134.55367   -365.04492    140325.38   -39329.104    2701.2667   -42030.371    108.95649    227.97962 
   24500    135.36041   -281.16175    140302.54   -39290.952    2717.4626   -42008.414    109.40256    229.34651 
   24550    130.69157   -369.34382    140197.09   -39356.868     2623.732     -41980.6      109.788     221.4359 
   24600    134.65301    -183.4658    140155.15   -39389.169    2703.2609    -42092.43    110.30428    228.14793 
   24650    131.97649   -75.865089    140155.58   -39406.347    2649.5278   -42055.875    110.43701      223.613 
   24700    131.79309   -380.78767    139979.09   -39422.245     2645.846   -42068.091    110.83487    223.30226 
   24750    129.89136    -205.9045    139988.62   -39427.582    2607.6672    -42035.25    110.89736    220.08008 
   24800    130.61235   -307.80232    140035.17   -39398.275    2622.1415   -42020.417     111.1687    221.30167 
   24850    130.66239   -165.46753    140011.69   -39376.067    2623.1463   -41999.213    111.61719    221.38647 
   24900    132.56175   -11.284939    140003.38   -39379.696    2661.2772   -42040.973    111.78724    224.60462 
   24950    132.94585    -68.20458    140002.91   -39368.348    2668.9884   -42037.337    112.14979    225.25542 
   25000    132.67881   -101.62031    140137.88   -39380.292    2663.6273   -42043.919    112.26447    224.80296 
   25050    132.46021   -196.00451    140195.01   -39373.224    2659.2389   -42032.463    112.45542    224.43259 
   25100    134.21104   -100.82577    140269.52   -39386.392    2694.3881    -42080.78     112.7159    227.39909 
   25150    132.49595   -216.37561    140237.21    -39468.34    2659.9563   -42128.296    112.95341    224.49314 
   25200    132.39145   -140.72519    140217.09   -39439.354    2657.8584   -42097.212    113.14755    224.31608 
   25250    132.72498   -48.035561    140269.64   -39406.809    2664.5543   -42071.363    113.34429    224.88119 
   25300    134.10203    9.3532559    140288.89   -39465.966    2692.1995   -42158.165    113.52113    227.21438 
   25350    132.13435   -47.076099    140456.92   -39415.298     2652.697   -42067.994    113.61836    223.88047 
   25400    130.31183   -240.80713    140413.01    -39421.07    2616.1084   -42037.179    113.98964    220.79249 
   25450    133.83049   -292.63588    140385.35   -39367.804    2686.7482   -42054.552    114.05427     226.7543 
   25500    134.29944    83.230993    140517.63   -39354.647    2696.1628    -42050.81    114.03503    227.54887 
   25550    133.08734   -185.29216    140530.37   -39373.137    2671.8289   -42044.966    114.27915    225.49515 
   25600    132.80771   -35.058471    140585.81   -39343.176    2666.2151   -42009.391    114.27832    225.02136 
   25650    133.66226   -104.94713    140591.92   -39326.216    2683.3708   -42009.587    114.44836    226.46926 
   25700    130.15316   -145.56062    140572.66   -39386.659    2612.9231   -41999.582    114.70876    220.52366 
   25750    136.28407   -197.08781    140590.75   -39347.827    2736.0056   -42083.832     115.0363    230.91149 
   25800    134.36635   -51.252712    140597.72    -39438.13    2697.5059   -42135.636    114.96607    227.66222 
   25850    130.86434   -299.96066    140613.86   -39449.829    2627.2005   -42077.029    115.05406    221.72863 
   25900    132.33758   -90.992758    140632.49   -39482.905     2656.777   -42139.682    115.23494    224.22481 
   25950    130.62931   -98.702145    140666.25   -39502.314    2622.4822   -42124.796    115.53122    221.33042 
   26000    129.72305   -226.25526    140641.77   -39493.919    2604.2882   -42098.208    115.55433     219.7949 
   26050     131.1095    10.626945    140637.59   -39447.481    2632.1224   -42079.603    115.61051    222.14403 
   26100    130.31338   -81.874765    140638.64   -39490.391    2616.1397   -42106.531    115.84813    220.79513 
   26150    127.97304   -145.06475    140638.14   -39516.009    2569.1555   -42085.165    116.02865     216.8298 
   26200    129.88739    65.107091    140596.08   -39446.657    2607.5875   -42054.245    115.90716    220.07335 
   26250    131.30509   -163.23337    140561.08   -39480.869    2636.0489   -42116.918    116.07857    222.47542 
   26300    131.31565   -54.971522     140528.2   -39492.337    2636.2609   -42128.598    116.50644    222.49331 
   26350    131.75593   -226.93812    140535.87   -39444.624    2645.0998   -42089.724    116.54788    223.23929 
   26400    132.03764    -118.7983    140559.25   -39492.306    2650.7554   -42143.061    116.82363    223.71661 
   26450     132.3941    127.61785    140623.11   -39490.148    2657.9116   -42148.059    116.84426    224.32057 
   26500    131.00666   -315.33701    140626.92    -39455.97    2630.0577   -42086.027    116.98483    221.96978 
   26550     132.2714   -134.01498    140678.73    -39474.18    2655.4484   -42129.629    117.56464    224.11268 
   26600     131.3354   -385.09257    140683.72   -39455.071    2636.6574   -42091.729    118.07841    222.52677 
   26650    132.03691   -356.71133    140630.72   -39425.553    2650.7407   -42076.294    118.10263    223.71537 
   26700    133.48218   -40.246858    140678.36   -39363.407    2679.7556   -42043.163    118.02677    226.16415 
   26750    134.52322   -200.30432    140648.76   -39345.149    2700.6554   -42045.804    118.34984    227.92803 
   26800    135.72525   -246.65251    140601.42   -39318.731    2724.7869   -42043.518    118.40534    229.96466 
   26850    133.32918   -47.130158    140644.12   -39365.396    2676.6841    -42042.08    118.71925    225.90491 
   26900    132.49039   -258.39905    140670.38    -39410.58    2659.8447   -42070.424    118.89083    224.48372 
   26950    130.48813   -173.77114    140585.57   -39405.287    2619.6479   -42024.935    119.23107    221.09122 
   27000    130.89491    96.026869     140658.8   -39381.111    2627.8143   -42008.926    119.43395    221.78044 
   27050    130.70075   -92.038165    140729.53   -39400.705    2623.9164   -42024.622    119.69555    221.45147 
   27100    133.29816    2.6380308    140773.54   -39389.297    2676.0612   -42065.358    119.97004    225.85235 
   27150    135.43882    24.544926    140821.39    -39343.14    2719.0366   -42062.177    119.91086    229.47935 
   27200    134.32719   -61.956325    140856.16   -39399.152    2696.7199   -42095.872    119.98276    227.59588 
   27250    135.58507   -247.74231    140899.61   -39381.958    2721.9728    -42103.93    120.53692    229.72716 
   27300    132.88194     -212.723    140978.01   -39309.836    2667.7053   -41977.541    120.90255    225.14713 
   27350    134.50222   -420.41449    140966.39    -39324.19    2700.2338   -42024.423    121.21065    227.89245 
   27400     130.7718   -233.79245    140877.25   -39338.521    2625.3427   -41963.863    121.36407    221.57184 
   27450    135.76566   -156.10042    140888.06   -39348.249    2725.5983   -42073.847    121.40698    230.03314 
   27500    134.85203   -193.95675    140905.85   -39290.502    2707.2565   -41997.758    121.67985    228.48514 
   27550    134.72065   -368.94191    140751.62   -39341.195    2704.6188   -42045.814    121.87069    228.26253 
   27600    135.11672   -363.94942    140606.72   -39339.856    2712.5702   -42052.426    121.85031     228.9336 
   27650    133.73892   -140.00265    140591.82   -39347.145      2684.91   -42032.055    121.94931    226.59916 
   27700    135.77579    -168.6433    140566.82   -39335.644    2725.8015   -42061.446    121.96299     230.0503 
   27750    135.89487   -183.08099    140622.39   -39309.401    2728.1923   -42037.593    122.27448    230.25207 
   27800    135.90285   -109.78396    140644.27   -39297.514    2728.3524   -42025.866    122.58825    230.26558 
   27850    136.11403   -223.21852    140631.56   -39303.401    2732.5921   -42035.993    122.63375     230.6234 
   27900    136.00505   -424.63668    140574.26   -39326.558    2730.4041   -42056.962    122.79757    230.43874 
   27950    131.90256   -268.99801    140490.43   -39439.546    2648.0436    -42087.59     123.3668    223.48774 
   28000    129.46955   -120.90271    140496.61   -39420.846    2599.1991   -42020.045    123.50243    219.36539 
   28050    131.78408   -30.444708    140481.28   -39359.998     2645.665   -42005.663    123.67128    223.28699 
   28100    134.41503   -276.76343    140477.16   -39333.395    2698.4834   -42031.878    123.86848    227.74472 
   28150    132.57219   -360.20954     140412.8   -39349.093    2661.4869    -42010.58    123.86924    224.62231 
   28200    134.95792   -199.91282    140367.41   -39331.146    2709.3823   -42040.528    123.80497    228.66456 
   28250    132.97371   -62.441088    140410.24   -39376.634    2669.5478   -42046.182    124.04371    225.30263 
   28300    132.71613   -292.23057    140430.75   -39380.915    2664.3766   -42045.292    124.47835     224.8662 
   28350    131.51516   -69.589279    140508.94   -39383.915    2640.2661   -42024.181    124.74781    222.83134 
   28400    132.71588   -338.86923    140527.17   -39389.599    2664.3716    -42053.97    125.16257    224.86577 
   28450    134.48525    -245.1328    140462.39   -39337.123     2699.893   -42037.016    125.46522    227.86368 
   28500    134.24823   -232.27923    140522.72   -39325.017    2695.1346   -42020.152    125.61617    227.46209 
   28550    130.69695   -164.51655    140545.06   -39393.785      2623.84   -42017.625    125.66517    221.44502 
   28600    134.02769   -338.27884    140487.12   -39405.781    2690.7072   -42096.489    125.68043    227.08843 
   28650    132.53398   -10.282267    140518.72   -39443.579    2660.7199   -42104.299    125.94378    224.55758 
   28700    132.46893   -288.34849    140522.47   -39494.723    2659.4138   -42154.137    125.91857    224.44735 
   28750     131.5472   -245.61338    140432.06   -39485.294    2640.9095   -42126.203     126.0865    222.88564 
   28800    130.95812   -444.74816    140319.82   -39461.366    2629.0832   -42090.449    126.16555    221.88753 
   28850      130.189   -333.48782    140286.12   -39480.509    2613.6425   -42094.152    126.33985    220.58437 
   28900    130.70804    89.269788    140189.32   -39452.763    2624.0626   -42076.826    126.70833    221.46381 
   28950    132.15037   -174.79679    140262.96   -39444.737    2653.0185   -42097.755    127.27857     223.9076 
   29000    134.45268   -170.93821    140351.77   -39419.054    2699.2392   -42118.293    127.36514    227.80851 
   29050    130.11811    -185.3573    140439.19   -39464.034    2612.2194   -42076.253     127.6146    220.46427 
   29100    131.48606   -123.09973    140481.24   -39459.112     2639.682   -42098.794    127.47911    222.78204 
   29150    132.17897   -177.37385    140515.16   -39422.824    2653.5927   -42076.417      127.897    223.95606 
   29200    133.85103   -125.96819     140604.6   -39406.375    2687.1605   -42093.536    128.17119     226.7891 
   29250    132.46921    -300.7536    140678.29   -39422.819    2659.4195   -42082.238    128.20417    224.44783 
   29300    129.94132   -230.27519    140665.48   -39480.477    2608.6702   -42089.148    128.57463    220.16473 
   29350    130.58492   -105.85417    140700.67   -39464.891    2621.5909   -42086.482    128.80379     221.2552 
   29400    130.48219   -183.17914    140630.96   -39446.498    2619.5287   -42066.027    129.15203    221.08115 
   29450    130.75298   -116.51415    140665.67   -39424.885    2624.9649    -42049.85    129.56587    221.53996 
   29500    134.38267   -289.39548    140620.83   -39411.065    2697.8336   -42108.899    129.76034    227.68988 
   29550    128.99487    7.5792147    140557.38   -39433.979    2589.6694   -42023.648    130.04547    218.56111 
   29600    134.99872    4.6932551     140597.3   -39330.279    2710.2014   -42040.481    129.94773    228.73368 
   29650    134.33354   -160.12069    140647.82   -39341.987    2696.8473   -42038.835    130.24079    227.60664 
   29700    130.43845   -108.13692    140708.87   -39356.512    2618.6504   -41975.162    130.27881    221.00703 
   29750    136.30463   -240.09287    140728.07   -39318.908    2736.4185   -42055.326    130.33857    230.94634 
   29800    134.09115   -254.64779    140745.94   -39317.807    2691.9812   -42009.788    130.54452    227.19595 
   29850    133.99798   -213.38943    140761.17   -39257.069    2690.1107    -41947.18    130.66272    227.03809 
   29900    134.13243   -338.32901    140795.96   -39279.499      2692.81   -41972.309    131.19748     227.2659 
   29950    135.46121   -118.74066    140836.59   -39337.574    2719.4862    -42057.06    131.18646     229.5173 
   30000    132.49737   -272.16987    140886.24   -39316.283    2659.9848   -41976.268    131.54339    224.49554 
   30050    135.15041   -61.139676    140892.92   -39308.865    2713.2465   -42022.111    131.89868    228.99069 
   30100     132.2906   -266.48816    140888.27   -39372.505    2655.8337   -42028.339    132.24064     224.1452 
   30150    132.59184   -207.70536    140842.57   -39365.701    2661.8813   -42027.582    132.82632     224.6556 
   30200    133.99728   -228.30488    140803.33    -39364.93    2690.0966   -42055.027    133.21592     227.0369 
   30250    133.38202   -122.01504    140801.91   -39390.494    2677.7449   -42068.239    133.50598    225.99445 
   30300    132.95328   -224.91367    140840.89   -39393.922    2669.1375    -42063.06    133.83459    225.26801 
   30350    132.04129   -241.53602    140876.57   -39383.165    2650.8286   -42033.994    134.13241    223.72278 
   30400    132.74778   -88.579693    140786.06   -39370.978    2665.0121    -42035.99     134.1754    224.91983 
   30450    133.73315   -298.39729    140771.68   -39343.555     2684.794   -42028.349    134.61106    226.58938 
   30500    133.73122    -340.5781    140793.76   -39372.037    2684.7554   -42056.792    134.91503    226.58611 
   30550    134.07995   -119.79988    140717.25   -39420.782    2691.7564   -42112.538    135.17921    227.17698 
   30600    134.73466    49.968769    140681.64   -39420.406    2704.9001   -42125.306    135.27375    228.28627 
   30650    132.44415   -46.506735    140753.32   -39408.072    2658.9164   -42066.988    135.54972    224.40537 
   30700    132.57068   -461.71582    140716.15   -39427.903    2661.4566    -42089.36    135.83595    224.61976 
   30750    128.77042   -278.77754     140636.7   -39465.603    2585.1634   -42050.766    135.90062    218.18082 
   30800    132.87978   -345.03636    140620.62   -39474.318     2667.662    -42141.98    136.07961    225.14348 
   30850    131.10284   -290.02343    140521.76   -39474.791    2631.9885   -42106.779    136.08491    222.13273 
   30900    131.22797   -53.434508    140535.51   -39458.142    2634.5007   -42092.643    136.32497    222.34475 
   30950    133.04879   -118.70226    140522.68   -39445.525     2671.055    -42116.58    136.42854    225.42984 
   31000    132.96236   -90.040129    140530.92   -39491.879    2669.3199   -42161.199    136.55837     225.2834 
   31050    132.73633   -163.75216    140539.89    -39467.28    2664.7822   -42132.062    136.76214    224.90043 
   31100    134.74466   -265.47891    140525.65   -39471.463    2705.1009   -42176.564    136.92459    228.30322 
   31150    134.30971    13.854703    140572.44   -39462.863    2696.3689   -42159.232     137.2656    227.56626 
   31200    132.02356   -400.51232    140608.25   -39472.732    2650.4727   -42123.205    137.54156    223.69274 
   31250    131.77196   -187.25291    140667.94    -39400.78    2645.4217   -42046.201    137.67322    223.26646 
   31300     135.5464   -45.393243    140714.96   -39411.607    2721.1965   -42132.803    137.88577    229.66164 
   31350    132.34657   -98.110218    140731.38   -39457.625    2656.9574   -42114.582    138.11942    224.24003 
   31400    133.02094   -216.02907    140735.84    -39454.43    2670.4959   -42124.926    138.48135    225.38265 
   31450    131.69234   -107.86241    140747.33   -39414.745    2643.8233   -42058.569    138.68505    223.13156 
   31500    132.93736   -27.340089    140814.72   -39351.204     2668.818   -42020.022     138.7543    225.24104 
   31550    136.12377   -169.46402    140892.45   -39321.919    2732.7876   -42054.706    138.97289     230.6399 
   31600    135.13229   -189.80945    140889.66   -39280.999    2712.8828   -41993.882     139.4901    228.95999 
   31650    137.60284   -89.321176    140931.39   -39305.867     2762.481   -42068.348    139.62681    233.14595 
   31700    135.16904   -354.24417    140937.42    -39321.68    2713.6207   -42035.301    139.87901    229.02226 
   31750    138.10227   -422.08772    140903.99   -39318.109    2772.5074   -42090.616    140.21238    233.99214 
   31800    136.65704   -350.28502     140949.6   -39363.107    2743.4934     -42106.6    140.54229    231.54344 
   31850    134.06258   -216.42482    140898.92   -39419.146    2691.4076   -42110.553     140.7637    227.14754 
   31900    133.64088   -250.66479    140892.63   -39463.847    2682.9417   -42146.788    140.78706    226.43304 
   31950    133.80243   -277.93552    140836.65   -39411.113    2686.1849   -42097.297    140.96579    226.70676 
   32000    131.22462   -253.69124    140855.99   -39377.819    2634.4334   -42012.253    141.10989    222.33907 
   32050     133.6751   -259.24235    140795.46   -39386.345    2683.6286   -42069.974    140.90807    226.49101 
   32100     133.6852   -225.32585     140785.4   -39404.054    2683.8313   -42087.885    140.87011    226.50812 
   32150    131.06617    -168.6946     140818.3   -39446.843    2631.2524   -42078.095    140.98276    222.07061 
   32200    131.89115   -206.15146    140829.52   -39430.943    2647.8145   -42078.758    141.47726     223.4684 
   32250    132.38971   -156.00411     140846.5   -39464.214    2657.8234   -42122.038    141.54047    224.31312 
   32300    132.37707   -453.29176    140848.46   -39446.495    2657.5697   -42104.065     141.3768    224.29171 
   32350    132.15919   -311.35849    140802.63    -39418.86    2653.1956   -42072.056    141.44536    223.92255 
   32400    130.68004   -108.56297    140710.43   -39450.914    2623.5006   -42074.414    141.58714    221.41637 
   32450    132.40369   -207.95569    140745.45    -39380.37     2658.104   -42038.474    142.20923    224.33681 
   32500    131.82959    -166.6674    140815.98   -39335.833    2646.5785   -41982.412    142.71147    223.36409 
   32550    132.16017   -202.43388    140779.59   -39325.016    2653.2153   -41978.231    142.65907    223.92421 
   32600    139.21851   -1.6830786    140877.75   -39321.773    2794.9168   -42116.689    142.79098    235.88344 
   32650    133.70188   -260.40915    140979.25   -39336.301    2684.1664   -42020.467    143.16926     226.5364 
   32700    133.88674   -149.62868       141036   -39386.918    2687.8774   -42074.795    143.24356     226.8496 
   32750    132.94834   -55.928205    141061.27   -39366.949    2669.0385   -42035.988    143.31108    225.25965 
   32800    135.53462   -309.71499    141018.08   -39377.315      2720.96   -42098.275    143.58967    229.64168 
   32850    135.20241    -246.2553     140960.7   -39348.834    2714.2905   -42063.124    143.97504     229.0788 
   32900    134.84952   -320.10866    140934.57   -39419.917     2707.206   -42127.123    144.31777    228.48088 
   32950    134.05733   -205.03314    140915.88   -39396.853    2691.3021   -42088.155     144.6772    227.13864 
   33000    129.06197   -84.784909    140883.49   -39442.257    2591.0166   -42033.274    144.95352    218.67481 
   33050    130.54275   -266.09157    140921.44   -39470.289    2620.7444   -42091.033    145.17812    221.18375 
   33100    132.54156   -362.60617    140916.57   -39471.714     2660.872   -42132.586    145.46748    224.57042 
   33150     130.1189   -386.89036    140897.27   -39421.101    2612.2352   -42033.336    145.79977     220.4656 
   33200    132.83143   -361.56323    140861.51   -39395.459    2666.6914   -42062.151    145.89578    225.06156 
   33250    131.58561   -253.90479    140835.06    -39439.51    2641.6806   -42081.191    146.28225    222.95072 
   33300    129.96197   -342.66728    140822.05   -39416.235    2609.0848    -42025.32    146.68515    220.19972 
   33350    129.79536   -250.46004     140833.5   -39398.253      2605.74   -42003.993    147.09386    219.91742 
   33400    132.78963   -106.44742    140892.18   -39422.258    2665.8522   -42088.111    147.18815    224.99074 
   33450    127.61861    -166.6977    140872.66   -39440.307    2562.0401   -42002.347    147.57084    216.22927 
   33500    134.13931   -206.93548    140830.51   -39440.219     2692.948   -42133.167    147.79448    227.27754 
   33550    131.01244     -233.295    140758.85    -39444.02    2630.1737   -42074.193    148.03237    221.97956 
   33600    133.52067   -124.69292    140779.25   -39439.601    2680.5283    -42120.13    148.49125    226.22936 
   33650    133.88208   -95.507463    140911.21   -39403.852     2687.784   -42091.636    148.56887    226.84172 
   33700    131.20868   -238.59925     140992.7   -39426.832    2634.1135   -42060.945    149.01012    222.31207 
   33750    132.53552   -277.69166    140964.64   -39399.875    2660.7506   -42060.625    148.99647    224.56018 
   33800    132.96803   -397.84335    140938.01   -39430.319    2669.4337   -42099.753      149.164    225.29301 
   33850    131.78705   -370.99486    140844.43   -39418.474    2645.7247   -42064.198    149.74635    223.29203 
   33900    133.29015   -185.43788    140864.93   -39351.832    2675.9004   -42027.732     150.1411    225.83878 
   33950    133.24146   -143.37805    140906.63   -39371.622     2674.923   -42046.545    150.37245    225.75628 
[...]
   92000     135.3951   -428.49183    140967.86   -39386.502    2718.1589   -42104.661    385.10487    229.40527 
   92050    134.71646    -221.3649    140955.55   -39318.034    2704.5347   -42022.569    385.21305    228.25543 
   92100    135.67356   -333.02066    140913.28    -39343.54    2723.7492   -42067.289    385.49336    229.87708 
   92150    133.75645   -396.57444    140829.12   -39366.899    2685.2618    -42052.16    385.69145    226.62885 
   92200    134.69923   -357.52049    140708.86   -39400.802    2704.1888   -42104.991    385.85668    228.22624 
   92250    131.26333    -257.2585     140628.4   -39378.868    2635.2106   -42014.078      385.956    222.40467 
   92300    131.79924   -298.43584    140630.31   -39400.631    2645.9693   -42046.601    386.21929    223.31267 
   92350    132.75974   -191.47674    140607.21    -39429.41    2665.2521   -42094.662     386.8079    224.94009 
   92400    132.67233   -130.15107    140632.73   -39389.354    2663.4972   -42052.851    386.75065    224.79198 
   92450    134.07268   -110.42421    140662.43   -39353.177    2691.6103   -42044.787    386.98857    227.16465 
   92500    136.86734   -67.167479    140762.69   -39337.371    2747.7152   -42085.086     387.3258    231.89975 
   92550     133.8741   -238.31021    140803.81   -39398.744    2687.6236   -42086.368    388.17258    226.82819 
   92600    135.14964   -377.30992    140794.93   -39337.798    2713.2312    -42051.03    388.69521    228.98939 
   92650    132.49028   -113.46596    140752.93   -39369.844    2659.8426   -42029.687    388.89742    224.48354 
   92700    134.12531   -170.27976    140746.53   -39351.871    2692.6669   -42044.538    389.16142    227.25383 
   92750    133.22466   -326.05371    140749.93   -39314.319    2674.5858   -41988.904    389.61359    225.72782 
   92800    133.53718   -209.02766    140720.97   -39291.706    2680.8598   -41972.566    389.69953    226.25733 
   92850    135.08014   -79.903415    140679.53    -39279.77    2711.8359   -41991.606    390.12367    228.87164 
   92900    135.92932   -122.05745    140630.96   -39269.977    2728.8839   -41998.861    390.27808    230.31044 
   92950    135.59564   -89.411847    140662.89    -39303.39    2722.1849   -42025.575    390.12453    229.74507 
   93000    132.10212   -106.81856    140737.48   -39371.798      2652.05   -42023.848    390.06709    223.82586 
   93050    131.68866   -81.821259    140745.94   -39415.436    2643.7495   -42059.185    390.26639    223.12532 
   93100    130.98153   -176.57317    140779.26   -39414.109    2629.5531   -42043.662    390.92847    221.92719 
   93150    132.23147   -240.42547    140837.88   -39467.345    2654.6467   -42121.992    390.90592    224.04502 
   93200    130.99814   -84.803266    140859.78   -39511.277    2629.8867   -42141.164    391.31237    221.95535 
   93250     132.9706   -224.05148    140858.42   -39491.987    2669.4853   -42161.472    391.60728    225.29736 
   93300    130.68774   -100.73208    140812.97   -39535.319    2623.6551   -42158.974    391.74126    221.42941 
   93350    132.94953   -150.93918    140829.92   -39482.228    2669.0624   -42151.291    392.18785    225.26166 
   93400    131.21493   -140.23751    140842.03    -39502.98     2634.239   -42137.219    392.16659    222.32266 
   93450    133.17833    -261.0758    140872.97   -39499.133    2673.6556   -42172.789    391.96471    225.64932 
   93500    129.94136    -16.52846    140848.57   -39468.936    2608.6711   -42077.607    392.84061     220.1648 
   93550    133.04149   -179.54817    140813.42   -39471.348    2670.9085   -42142.257    393.12572    225.41747 
   93600    131.42965   -63.605296    140798.83   -39454.079    2638.5496   -42092.628    393.05034    222.68646 
   93650    130.02792     -61.5414    140772.47       -39479    2610.4087   -42089.409    392.97193    220.31145 
   93700    134.59262   -8.7232406    140733.13   -39455.964    2702.0485   -42158.013    393.18022    228.04561 
   93750    133.33428   -207.94089    140681.43   -39457.234    2676.7865   -42134.021    394.05815    225.91356 
   93800    131.78438   -142.40261     140598.1   -39464.179    2645.6711    -42109.85    394.34582     223.2875 
   93850    132.87546    -101.9942    140556.02   -39440.256    2667.5752   -42107.831    394.70764    225.13615 
   93900    132.11985   -192.94381    140589.97   -39415.743    2652.4059   -42068.148     395.5237     223.8559 
   93950    135.39356   -159.82916    140558.47   -39388.483    2718.1281   -42106.611    395.78621    229.40267 
   94000    129.67493   -208.84924    140529.86   -39403.033    2603.3222   -42006.355    396.12489    219.71337 
   94050    133.55708    -64.74444    140530.12     -39441.7    2681.2593   -42122.959    396.16677    226.29105 
   94100    133.78412    77.534051    140641.61   -39463.337    2685.8172   -42149.155    396.74562    226.67573 
   94150    133.30122   -149.19534    140697.71   -39434.419    2676.1227   -42110.541     396.9207    225.85754 
   94200    133.53813   -108.73596    140726.52   -39442.031    2680.8788    -42122.91    397.57803    226.25894 
   94250    133.86637   -154.90948    140774.51   -39467.133    2687.4685   -42154.602    398.19334    226.81509 
   94300    131.19944    9.4066979     140817.4   -39489.548    2633.9279   -42123.476    399.10341    222.29641 
   94350    129.59794   -146.81874    140886.89   -39499.243    2601.7766   -42101.019    399.37378    219.58292 
   94400    130.98574   -213.14796    140870.03   -39463.615    2629.6378   -42093.253    399.50244    221.93433 
   94450    132.94999   -188.14571    140883.58    -39413.64    2669.0716   -42082.711    399.79749    225.26244 
   94500    132.24534   -119.99148    140935.14   -39419.836    2654.9252   -42074.762     400.3066    224.06853 
   94550    132.35908   -370.17475    140903.27   -39425.151    2657.2086    -42082.36    400.94486    224.26124 
   94600    129.21981   -360.04871    140813.84   -39440.549    2594.1853   -42034.734     401.0613    218.94224 
   94650    129.60739   -323.04805    140787.39   -39394.366    2601.9664   -41996.332    400.69682    219.59894 
   94700    132.71974     -351.139    140719.55   -39397.998    2664.4492   -42062.448    401.19483    224.87232 
   94750    134.76883   -148.54386    140729.16   -39394.688    2705.5862   -42100.274      401.022    228.34418 
   94800    131.52366    -294.2858     140746.1   -39462.547    2640.4368   -42102.984    401.37729    222.84575 
   94850    133.58838   -382.83171    140834.19   -39422.636    2681.8877   -42104.524    402.02215    226.34409 
   94900    131.49931   -490.72862    140843.79   -39438.574    2639.9479   -42078.522    402.19261    222.80448 
   94950    132.02929   -310.66512    140737.31   -39417.142    2650.5878   -42067.729    402.50852    223.70246 
   95000     133.5138   -152.19848    140719.32    -39371.35    2680.3905    -42051.74    402.40281    226.21773 
   95050     132.2015   -213.91594    140774.69   -39435.864    2654.0451   -42089.909    402.54863    223.99425 
   95100    133.40471   -306.95378    140736.51   -39413.529    2678.2003   -42091.729    402.72084    226.03288 
   95150    131.68258   -171.62327    140763.64   -39467.522    2643.6273   -42111.149    402.71514    223.11501 
   95200    132.60485   -357.22168    140645.25   -39526.235    2662.1426   -42188.377    402.61992    224.67766 
   95250    131.86564   -269.35674    140586.42   -39518.058    2647.3024   -42165.361    402.41391    223.42518 
   95300    128.31555   -195.62039    140601.31   -39549.574    2576.0316   -42125.606    402.84078    217.41012 
   95350    131.37062    -44.57835    140588.13   -39536.628    2637.3645   -42173.992     402.9024    222.58645 
   95400    131.92419   -110.72947    140691.58   -39468.881    2648.4777   -42117.359    402.87487    223.52438 
   95450    133.09847   -147.62542     140773.2   -39445.223    2672.0523   -42117.276     402.9465    225.51401 
   95500    131.91913   -175.08324    140754.34    -39454.29    2648.3762   -42102.666    403.66367    223.51581 
   95550    130.64216   -318.34286     140719.5   -39493.545    2622.7401   -42116.285    403.71891    221.35219 
   95600    127.98609   -148.97525    140753.77   -39483.038    2569.4174   -42052.456    403.65142     216.8519 
   95650    132.24524    -175.1296    140802.14   -39465.371    2654.9231   -42120.294    403.39126    224.06835 
   95700    130.97118   -305.74578    140783.96   -39456.723    2629.3454   -42086.068    403.42699    221.90966 
   95750    132.94549   -249.98872    140786.91   -39427.162    2668.9812   -42096.143    403.65512    225.25481 
   95800     129.7067   -238.59929    140861.92   -39440.038    2603.9601   -42043.998    404.03564    219.76721 
   95850    132.36041   -299.30398    140856.11    -39357.36    2657.2352   -42014.595     404.5687    224.26348 
   95900    129.94159   -83.151703    140830.83    -39424.04    2608.6756   -42032.715    405.47301    220.16518 
   95950     132.9868   -369.48643    140794.07   -39374.698    2669.8105   -42044.509    405.87018    225.32481 
   96000    132.65285   -322.72341    140762.08   -39336.875    2663.1063   -41999.981    406.32155    224.75898 
   96050    131.30725   -302.18346    140782.34    -39387.63    2636.0923   -42023.722    406.63529    222.47908 
   96100    133.94132   -265.35755    140623.47   -39408.864    2688.9733   -42097.837    406.16584    226.94209 
   96150    134.34088    -281.1096    140592.18   -39398.264    2696.9946   -42095.259    406.29811    227.61907 
   96200    134.87559   -281.28617    140585.52    -39352.64    2707.7294    -42060.37    406.55888    228.52505 
   96250    133.37047   -121.31175     140593.6   -39381.371     2677.513   -42058.884    406.88414    225.97487 
   96300    130.78172   -124.52515    140667.24   -39433.643    2625.5419   -42059.185    407.00229    221.58865 
   96350    131.15632    -196.6032    140757.12   -39469.212    2633.0623   -42102.275       406.96    222.22335 
   96400    133.95681   -161.03027    140734.37   -39462.387    2689.2842   -42151.671    407.22407    226.96833 
   96450    129.86518   -140.22181    140768.32   -39517.338    2607.1417   -42124.479    407.64815    220.03573 
   96500      127.833   -63.060393    140861.86   -39493.878    2566.3441   -42060.223    407.54217    216.59252 
   96550    132.21759   -331.78257    140863.22   -39448.428     2654.368   -42102.796    407.68621     224.0215 
   96600    130.12907   -115.58241    140854.26   -39424.398    2612.4395   -42036.838    407.87552    220.48285 
   96650    131.28054   -263.05014    140830.77   -39473.843    2635.5561   -42109.399    408.20015    222.43383 
   96700     130.8924    -226.1986    140804.74   -39481.639    2627.7638   -42109.403    408.35649    221.77617 
   96750    132.76182   -6.0608471    140847.66   -39442.456    2665.2938   -42107.749    408.30007    224.94361 
   96800    131.82316   -168.30444    140871.74   -39433.985    2646.4495   -42080.434    408.56576     223.3532 
   96850    130.48121   -132.75297    140898.37   -39464.563    2619.5088   -42084.072    408.95708    221.07948 
   96900    131.95585   -101.45338    140880.99   -39448.407    2649.1135   -42097.521    409.23183    223.57803 
   96950    135.40811   -258.59061    140800.32    -39459.74      2718.42    -42178.16    409.21516    229.42732 
   97000    131.76494   -120.35611    140849.79   -39463.997    2645.2807   -42109.277    409.52064    223.25456 
   97050    129.83768   -141.23927     140957.6   -39468.126    2606.5895   -42074.716    409.58092    219.98912 
   97100    130.78106   -199.92712     140987.8   -39535.456    2625.5286   -42160.984    409.99224    221.58753 
   97150    128.41728   -168.74223    140996.22   -39517.047    2578.0739   -42095.121    410.65444    217.58248 
   97200    133.16247   -274.01063    140956.97   -39537.889    2673.3373   -42211.226    410.76718    225.62245 
   97250    132.13961   -138.41618    140924.54   -39540.818    2652.8025    -42193.62     411.2627    223.88937 
   97300    133.39669   -228.76369    140874.59   -39544.408    2678.0393   -42222.448    411.78184    226.01929 
   97350    129.54234   -206.98041    140915.16   -39554.968    2600.6605   -42155.629    411.94423    219.48873 
   97400    133.24402   -194.27446    140997.24   -39534.644    2674.9745   -42209.619    411.65433    225.76063 
   97450    133.46964     -235.394    141023.69   -39533.343     2679.504   -42212.847    411.67083    226.14291 
   97500      133.093    -212.0033    141047.92   -39502.922    2671.9426   -42174.865    411.90071    225.50475 
   97550    132.46131   -155.82333    141006.59   -39529.439     2659.261     -42188.7    411.78331    224.43445 
   97600    130.09765   -237.48242    140982.43   -39549.771    2611.8087    -42161.58    411.81775    220.42961 
   97650    133.84219   -356.69009    140950.14   -39487.726    2686.9831   -42174.709    412.32765    226.77412 
   97700    132.83986   -344.73131    140904.65   -39522.326    2666.8607   -42189.187    412.27334    225.07584 
   97750    134.71255   -314.29681    140896.22   -39498.018    2704.4563   -42202.474    412.45854    228.24882 
   97800    131.22952   -195.43888    140809.79   -39512.526    2634.5318   -42147.058    412.09279    222.34738 
   97850    133.73459   -207.92955    140781.88   -39490.144     2684.823   -42174.967    412.42832    226.59182 
   97900    134.40886   -152.18982    140821.09   -39476.822    2698.3594   -42175.181     412.5074    227.73426 
   97950    133.39436   -205.36564    140815.58    -39506.19    2677.9925   -42184.182    413.15577    226.01535 
   98000    133.23983   -197.07097    140887.79   -39470.384    2674.8902   -42145.274     413.7078    225.75352 
   98050    132.03551   -271.52362     140814.1   -39474.192    2650.7126   -42124.905    413.64176    223.71299 
   98100    131.42917   -340.75961    140727.65   -39451.753    2638.5399   -42090.293    413.24018    222.68565 
   98150    132.57121   -55.145668    140704.29   -39453.764    2661.4672   -42115.231      413.561    224.62065 
   98200    129.64038   -182.79446    140699.85   -39499.583    2602.6286   -42102.211    413.41261    219.65483 
   98250    134.74725   -67.213822    140778.38   -39482.869    2705.1528   -42188.022    413.45792     228.3076 
   98300    133.16891   -342.18028    140775.72   -39478.782    2673.4666   -42152.248    413.74358    225.63337 
   98350     131.8095   -102.10963    140725.15   -39465.371    2646.1753   -42111.546     413.8105    223.33005 
   98400     130.7399   -16.240234    140754.99   -39468.499    2624.7023   -42093.202    414.29552    221.51779 
   98450    130.42399   -198.64139    140750.53   -39430.749    2618.3602    -42049.11    414.70203    220.98254 
   98500    132.89116   -336.18271    140750.81   -39415.331    2667.8905   -42083.222    415.19782    225.16276 
   98550    134.19282   -203.58279    140733.95   -39413.279    2694.0223   -42107.302    415.01875    227.36822 
   98600    135.46804   -263.28185    140690.51   -39397.027    2719.6232    -42116.65    415.03994    229.52886 
   98650     131.8159   -192.10629    140701.83   -39462.229    2646.3039   -42108.533    415.06981    223.34091 
   98700    130.11471   -117.71842    140698.98   -39424.512    2612.1511   -42036.663    415.59838    220.45851 
   98750    131.80461    14.765652    140765.99   -39438.534    2646.0771   -42084.611    415.65741    223.32177 
   98800    130.74464   -349.51846    140783.49   -39437.035    2624.7974   -42061.833    415.82537    221.52582 
   98850    131.95626   -302.47713    140742.45   -39413.949    2649.1217   -42063.071    415.59484    223.57873 
   98900     130.5702   -161.96668    140735.94   -39397.302    2621.2955   -42018.597    416.18068    221.23027 
   98950    132.94112   -129.80772    140726.08   -39372.079    2668.8935   -42040.972    416.39808    225.24741 
   99000    134.05212   -253.80887    140684.73   -39334.899    2691.1976   -42026.097    416.82262    227.12982 
   99050     133.8862   -204.75113    140651.39   -39325.799    2687.8667   -42013.666    416.86054     226.8487 
   99100    132.67437    -242.7249    140572.09   -39349.282    2663.5382    -42012.82    416.73482    224.79544 
   99150    134.68644   -327.22771    140529.66    -39336.59    2703.9321   -42040.522    416.98327    228.20458 
   99200    134.43284   -260.66664    140502.22   -39299.569    2698.8409    -41998.41    417.44604    227.77489 
   99250      131.701    -123.7251    140548.18   -39287.709    2643.9971   -41931.707    417.01734    223.14622 
   99300    133.49487   -259.24827    140558.87   -39270.338    2680.0104   -41950.348    417.76954    226.18564 
   99350    131.84426   -295.69089    140501.78   -39300.771    2646.8731   -41947.644    417.93174    223.38895 
   99400    136.08464   -123.40801    140478.64    -39229.74     2732.002   -41961.742    417.83161     230.5736 
   99450    132.17346   -87.990006    140474.61   -39299.512    2653.4822   -41952.994    417.83531    223.94674 
   99500    133.78809   -127.37739    140653.38   -39327.592     2685.897   -42013.489    417.98315    226.68246 
   99550    134.82744   -424.35273    140679.06   -39306.472    2706.7628   -42013.235    417.67247    228.44348 
   99600    135.38896   -89.314178    140652.83   -39306.922    2718.0357   -42024.958    418.01763    229.39488 
   99650    135.77257   -316.17177    140578.64   -39294.879    2725.7369   -42020.616    417.86428    230.04484 
   99700    132.51702   -220.49391    140529.14   -39303.755    2660.3794   -41964.134    418.21545    224.52884 
   99750    132.43442   -135.76241    140556.91   -39249.092    2658.7211   -41907.813    419.02908    224.38889 
   99800    133.08465   -217.47594    140572.63    -39286.03    2671.7748   -41957.805    419.16737    225.49059 
   99850    133.30525   -47.320604    140586.73   -39258.445    2676.2036   -41934.649    419.42022    225.86437 
   99900    135.53777   -140.60197    140627.91   -39280.316    2721.0231   -42001.339    419.32635    229.64701 
   99950    133.04737   -198.89841    140669.58   -39266.929    2671.0264   -41937.955    420.04965    225.42742 
  100000    135.40453   -46.501975    140764.49   -39242.019    2718.3483   -41960.368    420.75959    229.42127 
Loop time of 195.941 on 64 procs for 100000 steps with 6736 atoms

Performance: 220.474 ns/day, 0.109 hours/ns, 510.357 timesteps/s
100.0% CPU use with 64 MPI tasks x no OpenMP threads

MPI task timing breakdown:
Section |  min time  |  avg time  |  max time  |%varavg| %total
---------------------------------------------------------------
Pair    | 36.872     | 92.879     | 153.27     | 574.5 | 47.40
Neigh   | 1.2995     | 2.6322     | 5.2053     |  88.2 |  1.34
Comm    | 29.364     | 87.979     | 146.44     | 568.6 | 44.90
Output  | 0.12405    | 0.12544    | 0.13789    |   0.5 |  0.06
Modify  | 7.3102     | 11.585     | 21.009     | 139.3 |  5.91
Other   |            | 0.7406     |            |       |  0.38

Nlocal:    105.25 ave 172 max 69 min
Histogram: 31 1 0 12 4 0 0 0 2 14
Nghost:    999.75 ave 1349 max 682 min
Histogram: 32 0 0 0 0 0 0 0 13 19
Neighs:    0 ave 0 max 0 min
Histogram: 64 0 0 0 0 0 0 0 0 0
FullNghs:  12654.4 ave 27322 max 4419 min
Histogram: 32 0 0 0 15 1 0 0 0 16

Total # of neighbors = 809882
Ave neighs/atom = 120.232
Neighbor list builds = 6144
Dangerous builds = 0

write_data		${DIR}/data.eq-${NAME}-${TEMP}
write_data		run_15/data.eq-${NAME}-${TEMP}
write_data		run_15/data.eq-het_freeze_15-${TEMP}
write_data		run_15/data.eq-het_freeze_15-225
undump          1

reset_timestep  0

unfix           2
unfix           3
unfix           4


################################################
#######         Run Simulation         #########
################################################

log				${DIR}/log.run_${NAME}
log				run_15/log.run_${NAME}
log				run_15/log.run_het_freeze_15
