LAMMPS data file via write_data, version 16 Mar 2018, timestep = 8000000

6328 atoms
2 atom types

0.0000000000000000e+00 4.9219999999999999e+01 xlo xhi
0.0000000000000000e+00 4.9019635930410494e+01 ylo yhi
2.0266259762628316e+00 5.8035374023750435e+01 zlo zhi

Masses

1 18.015
2 12.01

Atoms # atomic

1421 1 4.1805664087577883e+00 1.3597866255128976e+00 4.6608236072160452e+00 -1 4 1
6062 1 3.9597840668524822e+00 4.0788790323967596e+00 5.8635879691161161e+00 1 1 0
4647 1 7.5324875474727504e+00 1.0387555448125593e+01 2.2369438015604435e+00 -1 -2 1
6287 1 8.1530675749663608e+00 1.6291446442140860e+01 9.7941827996486133e+00 5 1 0
4562 1 6.0937195439753742e+00 1.5144601530680061e+01 8.1555505487315401e+00 -3 0 0
157 1 8.6586151414041890e+00 1.8933424491705795e+00 5.0290126369725030e+00 -2 1 1
6047 1 6.5557248242278199e+00 4.4309348037877122e-01 5.6715682123410485e+00 1 0 0
3684 1 8.9171076454881870e-02 1.3122287572142103e+01 5.2480538159204180e+00 1 3 1
1885 1 1.6500686788223613e+00 5.1406205171270747e+00 4.9660810290462729e+00 -4 3 0
5169 1 1.0270415830722970e+00 7.8154321919714000e+00 5.8375998146521173e+00 0 -2 0
4664 1 1.0072572261755830e-01 1.3152635954007968e+01 2.4680009636183415e+00 -1 0 0
4637 1 6.2527563658594323e+00 5.8312980729531576e+00 4.7698445813094370e+00 -2 -4 1
142 1 8.3475944680078271e+00 4.5870391360807456e+00 5.9987758381177869e+00 -1 0 0
5181 1 1.1084785966721058e+00 1.5028391854552005e+01 1.0794593385160157e+01 0 1 0
4459 1 1.6780370862368943e+00 4.9949800842053023e+00 2.3825127519192058e+00 0 5 1
1792 1 2.8669294606269595e+00 9.6740884111081797e+00 5.0085376047167216e+00 1 -2 0
3430 1 5.3574786854675480e+00 8.5617997888583890e+00 5.6371834564452739e+00 1 -2 0
3054 1 7.3518178372794978e+00 1.0308968013594397e+01 4.9989608813570978e+00 0 0 0
3572 1 9.5091550810759493e+00 8.9951850951213874e+00 5.9106267836599935e+00 -2 4 1
1731 1 4.5204972132898478e+00 1.4099471428948448e+01 2.0696695904333806e+00 1 1 0
2060 1 6.7882993341762035e+00 1.1928031339045056e+01 8.6813955634499038e+00 -1 -5 1
549 1 2.5023120953774254e+00 1.2337223255949361e+01 6.0204702039743445e+00 3 5 1
4814 1 4.4120529668965736e+00 1.3953446321981591e+01 4.9138532480039849e+00 3 0 0
6044 1 4.3529155968428235e+00 1.3539039405791359e+01 9.6634181284342340e+00 2 0 1
3375 1 6.7324946112408623e+00 1.2946340140909724e+01 6.0491004212318273e+00 -1 -2 1
3405 1 8.8068296890214324e+00 1.4888458234704634e+01 5.5219945596257389e+00 1 2 1
4995 1 4.6189644884298362e+00 1.3727884447384131e+00 9.5591976077610905e+00 6 5 0
1561 1 4.4787040552773316e+00 3.9126812585498860e+00 8.6342343990694541e+00 -2 -2 1
1911 1 5.4214369346399693e-01 1.2551445464123120e+01 9.9499616251499958e+00 2 -3 0
3443 1 6.9337926743766332e+00 4.6273593115852313e-01 8.4218681497040038e+00 4 0 0
1826 1 8.9550378649255133e+00 2.1253111075547229e+00 9.4109544730595491e+00 -3 -2 1
4407 1 1.0765190843447032e+00 7.6257975427495710e+00 8.6443316861600188e+00 -1 1 1
5011 1 1.8579649633304238e+00 4.9234925213514940e+00 9.3395979220831773e+00 2 0 1
6010 1 6.2098986575957671e+00 5.5856112372384707e+00 9.4674619548652394e+00 1 0 1
300 1 8.6666574971787451e+00 4.9533900963976727e+00 8.7957480976689659e+00 2 1 0
6188 1 2.6446475820914368e+00 1.1732402413198642e+01 8.6277206128009176e+00 0 1 1
5066 1 3.2762462628175224e+00 9.1161273468796740e+00 9.3889979750804748e+00 0 2 0
457 1 7.8488303275457119e+00 9.5644959045884796e+00 9.6037126154384573e+00 0 -5 0
1641 1 5.7856472373461942e+00 8.2105757192701603e+00 8.5127286661493216e+00 1 -1 1
3569 1 8.7836099503740339e+00 1.3494094443249322e+01 9.9224874749014091e+00 1 -1 0
3086 1 3.7957620887675882e+00 1.6170330456053577e+01 1.0579095448362130e+01 3 2 1
4742 1 6.1826982825922414e+00 6.3300463820947943e+00 2.2896789361303052e+00 -2 3 0
3155 1 8.7307989569008466e+00 1.4945070227473476e+01 2.6831586093034976e+00 1 -3 1
1646 1 3.0645516329587417e+00 9.3769069598886432e+00 2.1448665512647573e+00 4 2 0
1528 1 8.9368486244839342e+00 2.4227235972366432e+00 2.1236052054494934e+00 0 0 0
1855 1 1.1194393532125702e-01 1.0401996196059149e+00 4.7424204081220651e+00 3 2 0
1771 1 8.8882188675114548e-03 4.6698708764511199e-01 9.3550018840292406e+00 0 3 1
475 1 7.3679704188497522e-02 7.3487799842645674e-01 2.0813369306911937e+00 1 0 0
4733 1 2.2272503463996625e+00 2.2428107386359928e+00 1.3092276154022928e+01 7 0 0
5004 1 4.9065628541836395e+00 1.6254693903698942e+00 1.2313681098603755e+01 1 0 0
3220 1 4.5960440056279666e+00 1.5295536058106808e+01 2.0161749122532648e+01 0 -1 0
6323 1 7.0522558097513661e+00 2.9765301026268154e+00 1.3169497218187448e+01 -1 2 1
2009 1 9.3132423412480865e+00 1.8194638787832602e+00 1.2290159080069962e+01 0 -2 0
4665 1 1.8124920227839918e+00 4.8908518991922456e+00 1.2320788145139197e+01 1 2 0
5262 1 3.7860874137625666e+00 6.4931620013462350e+00 1.3277180212085550e+01 2 -2 0
1499 1 3.8534252673885629e+00 6.4328883720396526e+00 1.6101447942109566e+01 0 0 0
1877 1 6.0793376542592323e+00 5.4062609376177475e+00 1.2177055226626008e+01 3 -2 0
4585 1 8.2067354414506823e+00 6.6743324991925235e+00 1.3080171338140495e+01 4 3 1
6236 1 3.2577937664097858e+00 9.0941724362249818e+00 1.2336172120880942e+01 4 2 1
126 1 8.9723415911129201e-01 9.5535344781827281e+00 1.3517028893637244e+01 -1 -2 0
422 1 5.5065619393904024e+00 1.0509630363399053e+01 1.3358577763754079e+01 4 -1 1
4441 1 7.6857520481668891e+00 9.3796816339416456e+00 1.2486143882688280e+01 -2 0 2
3211 1 2.5362088435225616e-01 1.4138034863017490e+01 1.7329312309096565e+01 1 1 0
4903 1 7.0802186457164629e+00 2.9801815681612659e-01 1.7018651256540110e+01 0 1 0
4594 1 2.2198469724536891e+00 1.3591270030671417e+01 1.3525319029479069e+01 -2 -1 0
4654 1 4.5678550331359737e+00 1.2975865962503342e+01 1.2407064268424172e+01 5 2 1
224 1 6.4818928678466641e+00 1.4548684665734161e+01 1.3490058082430037e+01 0 0 0
4406 1 8.9155739301351655e+00 1.3248987928391719e+01 1.2742519199133326e+01 3 -1 1
2912 1 2.4084448761567336e+00 2.1414427763171711e+00 1.5846095088277858e+01 3 -2 0
4748 1 2.7788236014764678e+00 1.3580515708941284e+01 1.6229439485352870e+01 -2 0 1
6008 1 4.1520154892699441e+00 3.9218643723640825e+00 1.6904150585851308e+01 2 1 0
1337 1 3.9986471403863386e+00 3.2986885338514815e+00 1.9733058379561982e+01 -1 -2 1
534 1 6.6858990835029752e+00 1.4851979182089643e+01 1.6348100058665473e+01 3 7 1
3415 1 6.4666605693512214e+00 2.7817176368522989e+00 1.6087439620617889e+01 -2 -4 0
3711 1 9.4951913030940300e+00 1.0812938592895767e+01 1.3403349218932425e+01 1 1 1
5006 1 9.8012783486995367e+00 1.0944830902829658e+01 1.6346913072333805e+01 2 0 1
193 1 1.3615066469388224e+00 6.8195340086293816e+00 2.0205391939957217e+01 -1 -1 1
5976 1 1.2918411410156703e+00 6.9315265649506497e+00 1.7470057261807057e+01 -2 4 1
1564 1 8.1637283320718232e+00 6.5098799741123168e+00 1.5944097288647226e+01 -1 -3 1
4612 1 8.6174549696156575e+00 4.0866281180522508e+00 1.9799678879721021e+01 -3 0 1
1464 1 8.6008990169962320e+00 4.0414508315129298e+00 1.6983594199626033e+01 -1 1 1
1271 1 6.0139998354605950e+00 7.7472833011119082e+00 1.6954966552867688e+01 1 -2 1
188 1 5.5249996482843207e+00 7.6673572958950684e+00 1.9970413013423958e+01 1 -1 0
4738 1 4.3838110672115942e+00 1.5304979783562656e+01 1.7538763215574733e+01 4 0 1
1329 1 1.1238126477697532e+00 9.2488182616718717e+00 1.6390410115946985e+01 -1 -4 1
5283 1 3.0084926079930558e+00 1.1114545912253012e+01 1.9901883561923757e+01 1 -1 1
1873 1 3.0572941934201667e+00 1.1002124403684828e+01 1.7127679575684098e+01 4 -1 0
5068 1 7.2186404198763823e+00 1.1676687911032621e+01 2.0123159688743815e+01 -2 -5 0
3592 1 5.7336381051296232e+00 1.0483888542365474e+01 1.6062181378133296e+01 3 0 0
6093 1 7.3916426055184141e+00 1.2103504130585073e+01 1.7285554182433984e+01 2 0 1
1357 1 2.7564502883795633e-01 1.1901960908952292e+01 1.2732994225820748e+01 1 1 0
3636 1 3.1239469870888292e-01 1.4713528262316112e+01 2.0001818965141265e+01 2 -2 0
1653 1 6.5596388774885890e+00 2.5828908476170476e+00 2.0513463983601874e+01 -5 1 0
152 1 8.1692997272417731e+00 6.5930265634611267e+00 2.0675040524298630e+01 0 0 0
1619 1 1.0434360024926548e-01 5.6773946887725446e-01 1.2115244494303189e+01 2 0 1
6162 1 8.7964635917547689e+00 1.6327781921808057e+01 1.7354027597263258e+01 0 3 1
3432 1 2.6139669052281187e+00 1.3592880905492930e+01 2.0655641223196195e+01 -2 3 0
3643 1 1.9668877959922830e+00 1.9877056123912931e+00 2.3513715320890924e+01 0 1 1
4785 1 4.0084759390625457e+00 3.4339958903939287e+00 2.4209939299801043e+01 -1 4 0
722 2 7.3829999999999991e+00 1.2787731112280996e+01 2.6688669343276764e+01 0 0 0
720 2 7.3829999999999991e+00 1.5629449137232333e+01 2.6688669343276764e+01 0 0 0
1431 1 6.3968220907965252e+00 2.5617767788765171e+00 2.3232278750222488e+01 2 1 0
515 1 8.2613017546077998e+00 4.0046989749589841e+00 2.4399123750422998e+01 -1 -5 1
113 1 8.7919440414901806e-01 9.3171051110515926e+00 2.0924771798838112e+01 0 1 1
303 1 1.2886021192884189e+00 7.0431998742097308e+00 2.4134728523313985e+01 -4 4 0
4806 1 3.8067486950867173e+00 6.1071956351645449e+00 2.3592020378134627e+01 2 1 0
2072 1 6.9102815774837740e+00 1.4454531256148289e+01 2.1029557149315732e+01 4 1 1
3312 1 8.2370892499916586e+00 6.5537197899103061e+00 2.3262839648876817e+01 -3 0 0
6318 1 5.9870416962161412e+00 7.3242359130469339e+00 2.4370354445124736e+01 1 -2 1
4827 1 2.9715637880841199e+00 1.0944673674958224e+01 2.4499800564490954e+01 -1 1 1
5219 1 6.4931791353177803e-01 9.6472724453446936e+00 2.3694237245339494e+01 -3 1 0
673 2 4.9220000000000006e+00 1.5629449137232333e+01 2.6688669343276764e+01 0 0 0
4677 1 5.5255689085885225e+00 9.9469294987237120e+00 2.3945131353337192e+01 -1 -3 1
675 2 4.9220000000000006e+00 1.2787731112280996e+01 2.6688669343276764e+01 0 0 0
1720 1 7.4692361193272498e+00 1.1899966292769978e+01 2.4425232614481995e+01 2 -5 1
677 2 6.1524999999999990e+00 1.3498160618518829e+01 2.6688669343276764e+01 0 0 0
1524 1 3.8983750976779881e+00 5.7836780577633400e+00 2.0863717493839058e+01 -2 0 1
6087 1 2.3362720010138780e+00 1.3613152781140695e+01 2.3473298924130301e+01 0 4 1
5088 1 6.9545129550556322e+00 1.9684614684467075e-01 2.4180406171789212e+01 -2 -1 0
3588 1 4.0711384510991149e+00 1.5471011370432691e+01 2.4115127306826519e+01 1 1 0
3303 1 6.6539481149400288e+00 1.4446504208558743e+01 2.3801110276791064e+01 2 2 0
552 2 0.0000000000000000e+00 2.8417180249513345e+00 2.6688669343276764e+01 0 0 0
554 2 0.0000000000000000e+00 0.0000000000000000e+00 2.6688669343276764e+01 0 0 0
556 2 1.2305000000000001e+00 7.1042950623783474e-01 2.6688669343276764e+01 0 0 0
563 2 1.2305000000000001e+00 2.1312885187134998e+00 2.6688669343276764e+01 0 0 0
565 2 2.4610000000000003e+00 2.8417180249513345e+00 2.6688669343276764e+01 0 0 0
567 2 2.4610000000000003e+00 0.0000000000000000e+00 2.6688669343276764e+01 0 0 0
569 2 3.6915000000000004e+00 7.1042950623783474e-01 2.6688669343276764e+01 0 0 0
584 2 3.6914999999999996e+00 2.1312885187134998e+00 2.6688669343276764e+01 0 0 0
586 2 4.9220000000000006e+00 2.8417180249513332e+00 2.6688669343276764e+01 0 0 0
588 2 4.9220000000000006e+00 0.0000000000000000e+00 2.6688669343276764e+01 0 0 0
590 2 6.1524999999999999e+00 7.1042950623783407e-01 2.6688669343276764e+01 0 0 0
613 2 6.1524999999999999e+00 2.1312885187134989e+00 2.6688669343276764e+01 0 0 0
615 2 7.3829999999999991e+00 2.8417180249513345e+00 2.6688669343276764e+01 0 0 0
617 2 7.3829999999999991e+00 0.0000000000000000e+00 2.6688669343276764e+01 0 0 0
619 2 8.6134999999999984e+00 7.1042950623783407e-01 2.6688669343276764e+01 0 0 0
650 2 8.6134999999999984e+00 2.1312885187135002e+00 2.6688669343276764e+01 0 0 0
559 2 0.0000000000000000e+00 4.2625770374269996e+00 2.6688669343276764e+01 0 0 0
561 2 1.2305000000000001e+00 4.9730065436648339e+00 2.6688669343276764e+01 0 0 0
576 2 1.2305000000000001e+00 6.3938655561404980e+00 2.6688669343276764e+01 0 0 0
580 2 2.4610000000000003e+00 4.2625770374269996e+00 2.6688669343276764e+01 0 0 0
582 2 3.6914999999999996e+00 4.9730065436648339e+00 2.6688669343276764e+01 0 0 0
605 2 3.6914999999999996e+00 6.3938655561404980e+00 2.6688669343276764e+01 0 0 0
557 2 0.0000000000000000e+00 7.1042950623783341e+00 2.6688669343276764e+01 0 0 0
578 2 2.4610000000000003e+00 7.1042950623783341e+00 2.6688669343276764e+01 0 0 0
609 2 4.9220000000000006e+00 4.2625770374269978e+00 2.6688669343276764e+01 0 0 0
611 2 6.1524999999999999e+00 4.9730065436648339e+00 2.6688669343276764e+01 0 0 0
642 2 6.1524999999999999e+00 6.3938655561404980e+00 2.6688669343276764e+01 0 0 0
646 2 7.3829999999999991e+00 4.2625770374269996e+00 2.6688669343276764e+01 0 0 0
648 2 8.6135000000000002e+00 4.9730065436648339e+00 2.6688669343276764e+01 0 0 0
687 2 8.6135000000000002e+00 6.3938655561404980e+00 2.6688669343276764e+01 0 0 0
607 2 4.9220000000000006e+00 7.1042950623783341e+00 2.6688669343276764e+01 0 0 0
644 2 7.3830000000000009e+00 7.1042950623783341e+00 2.6688669343276764e+01 0 0 0
572 2 0.0000000000000000e+00 8.5251540748539991e+00 2.6688669343276764e+01 0 0 0
574 2 1.2305000000000001e+00 9.2355835810918343e+00 2.6688669343276764e+01 0 0 0
601 2 2.4610000000000003e+00 8.5251540748539991e+00 2.6688669343276764e+01 0 0 0
603 2 3.6915000000000004e+00 9.2355835810918343e+00 2.6688669343276764e+01 0 0 0
570 2 0.0000000000000000e+00 1.1366872099805333e+01 2.6688669343276764e+01 0 0 0
597 2 1.2305000000000001e+00 1.0656442593567498e+01 2.6688669343276764e+01 0 0 0
599 2 2.4610000000000003e+00 1.1366872099805333e+01 2.6688669343276764e+01 0 0 0
634 2 3.6914999999999996e+00 1.0656442593567499e+01 2.6688669343276764e+01 0 0 0
638 2 4.9220000000000006e+00 8.5251540748539991e+00 2.6688669343276764e+01 0 0 0
640 2 6.1524999999999999e+00 9.2355835810918343e+00 2.6688669343276764e+01 0 0 0
683 2 7.3830000000000009e+00 8.5251540748539991e+00 2.6688669343276764e+01 0 0 0
685 2 8.6134999999999984e+00 9.2355835810918343e+00 2.6688669343276764e+01 0 0 0
636 2 4.9220000000000006e+00 1.1366872099805333e+01 2.6688669343276764e+01 0 0 0
679 2 6.1524999999999999e+00 1.0656442593567499e+01 2.6688669343276764e+01 0 0 0
681 2 7.3829999999999991e+00 1.1366872099805333e+01 2.6688669343276764e+01 0 0 0
726 2 8.6134999999999984e+00 1.0656442593567498e+01 2.6688669343276764e+01 0 0 0
671 2 3.6915000000000004e+00 1.4919019630994494e+01 2.6688669343276764e+01 0 0 0
632 2 3.6915000000000004e+00 1.3498160618518829e+01 2.6688669343276764e+01 0 0 0
628 2 2.4610000000000003e+00 1.5629449137232328e+01 2.6688669343276764e+01 0 0 0
630 2 2.4610000000000003e+00 1.2787731112280996e+01 2.6688669343276764e+01 0 0 0
595 2 1.2305000000000001e+00 1.3498160618518829e+01 2.6688669343276764e+01 0 0 0
591 2 0.0000000000000000e+00 1.5629449137232333e+01 2.6688669343276764e+01 0 0 0
626 2 1.2305000000000001e+00 1.4919019630994494e+01 2.6688669343276764e+01 0 0 0
593 2 0.0000000000000000e+00 1.2787731112280996e+01 2.6688669343276764e+01 0 0 0
724 2 8.6135000000000002e+00 1.3498160618518835e+01 2.6688669343276764e+01 0 0 0
718 2 6.1524999999999990e+00 1.4919019630994494e+01 2.6688669343276764e+01 0 0 0
765 2 8.6135000000000002e+00 1.4919019630994494e+01 2.6688669343276764e+01 0 0 0
6089 1 1.9217496658652904e+00 2.0486780393529176e+00 2.0845122255640558e+01 1 4 1
4592 1 9.7519903722475281e+00 1.1024348336470910e+01 2.3421893005741147e+01 3 -1 1
1841 1 5.3005471223512277e+00 1.0142339188447663e+01 2.1063004393744333e+01 -3 -2 0
541 1 9.6722639371830219e+00 1.0946492705932993e+01 2.0764580304387213e+01 -3 0 1
553 2 0.0000000000000000e+00 1.4208590124756650e+00 3.0031000000006724e+01 0 0 0
555 2 0.0000000000000000e+00 0.0000000000000000e+00 3.0031000000006724e+01 0 0 0
564 2 1.2305000000000001e+00 2.1312885187134998e+00 3.0031000000006724e+01 0 0 0
566 2 2.4610000000000003e+00 1.4208590124756650e+00 3.0031000000006724e+01 0 0 0
568 2 2.4610000000000003e+00 0.0000000000000000e+00 3.0031000000006724e+01 0 0 0
585 2 3.6914999999999996e+00 2.1312885187134998e+00 3.0031000000006724e+01 0 0 0
562 2 1.2305000000000001e+00 3.5521475311891644e+00 3.0031000000006724e+01 0 0 0
583 2 3.6914999999999996e+00 3.5521475311891644e+00 3.0031000000006724e+01 0 0 0
881 2 0.0000000000000000e+00 2.8417180249513345e+00 3.3373330656714842e+01 0 0 0
882 2 0.0000000000000000e+00 0.0000000000000000e+00 3.3373330656714842e+01 0 0 0
883 2 1.2305000000000001e+00 7.1042950623783474e-01 3.3373330656714842e+01 0 0 0
887 2 1.2305000000000001e+00 2.1312885187134998e+00 3.3373330656714842e+01 0 0 0
888 2 2.4610000000000003e+00 2.8417180249513345e+00 3.3373330656714842e+01 0 0 0
889 2 2.4610000000000003e+00 0.0000000000000000e+00 3.3373330656714842e+01 0 0 0
890 2 3.6915000000000004e+00 7.1042950623783474e-01 3.3373330656714842e+01 0 0 0
898 2 3.6914999999999996e+00 2.1312885187134998e+00 3.3373330656714842e+01 0 0 0
587 2 4.9220000000000006e+00 1.4208590124756650e+00 3.0031000000006724e+01 0 0 0
589 2 4.9220000000000006e+00 0.0000000000000000e+00 3.0031000000006724e+01 0 0 0
614 2 6.1524999999999999e+00 2.1312885187134989e+00 3.0031000000006724e+01 0 0 0
616 2 7.3829999999999991e+00 1.4208590124756659e+00 3.0031000000006724e+01 0 0 0
618 2 7.3829999999999991e+00 0.0000000000000000e+00 3.0031000000006724e+01 0 0 0
651 2 8.6134999999999984e+00 2.1312885187135002e+00 3.0031000000006724e+01 0 0 0
612 2 6.1524999999999999e+00 3.5521475311891644e+00 3.0031000000006724e+01 0 0 0
649 2 8.6134999999999984e+00 3.5521475311891657e+00 3.0031000000006724e+01 0 0 0
899 2 4.9220000000000006e+00 2.8417180249513332e+00 3.3373330656714842e+01 0 0 0
900 2 4.9220000000000006e+00 0.0000000000000000e+00 3.3373330656714842e+01 0 0 0
901 2 6.1524999999999999e+00 7.1042950623783407e-01 3.3373330656714842e+01 0 0 0
913 2 6.1524999999999999e+00 2.1312885187134989e+00 3.3373330656714842e+01 0 0 0
914 2 7.3829999999999991e+00 2.8417180249513345e+00 3.3373330656714842e+01 0 0 0
915 2 7.3829999999999991e+00 0.0000000000000000e+00 3.3373330656714842e+01 0 0 0
916 2 8.6134999999999984e+00 7.1042950623783407e-01 3.3373330656714842e+01 0 0 0
932 2 8.6134999999999984e+00 2.1312885187135002e+00 3.3373330656714842e+01 0 0 0
558 2 0.0000000000000000e+00 5.6834360499026637e+00 3.0031000000006724e+01 0 0 0
560 2 0.0000000000000000e+00 4.2625770374269996e+00 3.0031000000006724e+01 0 0 0
577 2 1.2305000000000001e+00 6.3938655561404980e+00 3.0031000000006724e+01 0 0 0
579 2 2.4610000000000003e+00 5.6834360499026637e+00 3.0031000000006724e+01 0 0 0
581 2 2.4610000000000003e+00 4.2625770374269996e+00 3.0031000000006724e+01 0 0 0
606 2 3.6914999999999996e+00 6.3938655561404980e+00 3.0031000000006724e+01 0 0 0
575 2 1.2305000000000001e+00 7.8147245686161639e+00 3.0031000000006724e+01 0 0 0
604 2 3.6914999999999996e+00 7.8147245686161639e+00 3.0031000000006724e+01 0 0 0
885 2 0.0000000000000000e+00 4.2625770374269996e+00 3.3373330656714842e+01 0 0 0
886 2 1.2305000000000001e+00 4.9730065436648339e+00 3.3373330656714842e+01 0 0 0
894 2 1.2305000000000001e+00 6.3938655561404980e+00 3.3373330656714842e+01 0 0 0
896 2 2.4610000000000003e+00 4.2625770374269996e+00 3.3373330656714842e+01 0 0 0
897 2 3.6914999999999996e+00 4.9730065436648339e+00 3.3373330656714842e+01 0 0 0
909 2 3.6914999999999996e+00 6.3938655561404980e+00 3.3373330656714842e+01 0 0 0
884 2 0.0000000000000000e+00 7.1042950623783341e+00 3.3373330656714842e+01 0 0 0
895 2 2.4610000000000003e+00 7.1042950623783341e+00 3.3373330656714842e+01 0 0 0
608 2 4.9220000000000006e+00 5.6834360499026637e+00 3.0031000000006724e+01 0 0 0
610 2 4.9220000000000006e+00 4.2625770374269978e+00 3.0031000000006724e+01 0 0 0
643 2 6.1524999999999999e+00 6.3938655561404980e+00 3.0031000000006724e+01 0 0 0
645 2 7.3829999999999991e+00 5.6834360499026637e+00 3.0031000000006724e+01 0 0 0
647 2 7.3829999999999991e+00 4.2625770374269996e+00 3.0031000000006724e+01 0 0 0
688 2 8.6135000000000002e+00 6.3938655561404980e+00 3.0031000000006724e+01 0 0 0
641 2 6.1524999999999999e+00 7.8147245686161639e+00 3.0031000000006724e+01 0 0 0
686 2 8.6135000000000002e+00 7.8147245686161639e+00 3.0031000000006724e+01 0 0 0
911 2 4.9220000000000006e+00 4.2625770374269978e+00 3.3373330656714842e+01 0 0 0
912 2 6.1524999999999999e+00 4.9730065436648339e+00 3.3373330656714842e+01 0 0 0
928 2 6.1524999999999999e+00 6.3938655561404980e+00 3.3373330656714842e+01 0 0 0
930 2 7.3829999999999991e+00 4.2625770374269996e+00 3.3373330656714842e+01 0 0 0
931 2 8.6135000000000002e+00 4.9730065436648339e+00 3.3373330656714842e+01 0 0 0
951 2 8.6135000000000002e+00 6.3938655561404980e+00 3.3373330656714842e+01 0 0 0
910 2 4.9220000000000006e+00 7.1042950623783341e+00 3.3373330656714842e+01 0 0 0
929 2 7.3830000000000009e+00 7.1042950623783341e+00 3.3373330656714842e+01 0 0 0
571 2 0.0000000000000000e+00 9.9460130873296642e+00 3.0031000000006724e+01 0 0 0
573 2 0.0000000000000000e+00 8.5251540748539991e+00 3.0031000000006724e+01 0 0 0
600 2 2.4610000000000003e+00 9.9460130873296642e+00 3.0031000000006724e+01 0 0 0
602 2 2.4610000000000003e+00 8.5251540748539991e+00 3.0031000000006724e+01 0 0 0
596 2 1.2305000000000001e+00 1.2077301606043163e+01 3.0031000000006724e+01 0 0 0
598 2 1.2305000000000001e+00 1.0656442593567498e+01 3.0031000000006724e+01 0 0 0
633 2 3.6914999999999996e+00 1.2077301606043163e+01 3.0031000000006724e+01 0 0 0
635 2 3.6914999999999996e+00 1.0656442593567499e+01 3.0031000000006724e+01 0 0 0
892 2 0.0000000000000000e+00 8.5251540748539991e+00 3.3373330656714842e+01 0 0 0
893 2 1.2305000000000001e+00 9.2355835810918343e+00 3.3373330656714842e+01 0 0 0
907 2 2.4610000000000003e+00 8.5251540748539991e+00 3.3373330656714842e+01 0 0 0
908 2 3.6915000000000004e+00 9.2355835810918343e+00 3.3373330656714842e+01 0 0 0
891 2 0.0000000000000000e+00 1.1366872099805333e+01 3.3373330656714842e+01 0 0 0
905 2 1.2305000000000001e+00 1.0656442593567498e+01 3.3373330656714842e+01 0 0 0
906 2 2.4610000000000003e+00 1.1366872099805333e+01 3.3373330656714842e+01 0 0 0
924 2 3.6914999999999996e+00 1.0656442593567499e+01 3.3373330656714842e+01 0 0 0
637 2 4.9220000000000006e+00 9.9460130873296642e+00 3.0031000000006724e+01 0 0 0
639 2 4.9220000000000006e+00 8.5251540748539991e+00 3.0031000000006724e+01 0 0 0
682 2 7.3830000000000009e+00 9.9460130873296642e+00 3.0031000000006724e+01 0 0 0
684 2 7.3830000000000009e+00 8.5251540748539991e+00 3.0031000000006724e+01 0 0 0
678 2 6.1524999999999999e+00 1.2077301606043163e+01 3.0031000000006724e+01 0 0 0
680 2 6.1524999999999999e+00 1.0656442593567499e+01 3.0031000000006724e+01 0 0 0
725 2 8.6135000000000002e+00 1.2077301606043163e+01 3.0031000000006724e+01 0 0 0
727 2 8.6134999999999984e+00 1.0656442593567498e+01 3.0031000000006724e+01 0 0 0
926 2 4.9220000000000006e+00 8.5251540748539991e+00 3.3373330656714842e+01 0 0 0
927 2 6.1524999999999999e+00 9.2355835810918343e+00 3.3373330656714842e+01 0 0 0
949 2 7.3830000000000009e+00 8.5251540748539991e+00 3.3373330656714842e+01 0 0 0
950 2 8.6134999999999984e+00 9.2355835810918343e+00 3.3373330656714842e+01 0 0 0
925 2 4.9220000000000006e+00 1.1366872099805333e+01 3.3373330656714842e+01 0 0 0
947 2 6.1524999999999999e+00 1.0656442593567499e+01 3.3373330656714842e+01 0 0 0
948 2 7.3829999999999991e+00 1.1366872099805333e+01 3.3373330656714842e+01 0 0 0
971 2 8.6134999999999984e+00 1.0656442593567498e+01 3.3373330656714842e+01 0 0 0
594 2 0.0000000000000000e+00 1.2787731112280996e+01 3.0031000000006724e+01 0 0 0
631 2 2.4610000000000003e+00 1.2787731112280996e+01 3.0031000000006724e+01 0 0 0
592 2 0.0000000000000000e+00 1.4208590124756663e+01 3.0031000000006724e+01 0 0 0
627 2 1.2305000000000001e+00 1.4919019630994494e+01 3.0031000000006724e+01 0 0 0
629 2 2.4610000000000003e+00 1.4208590124756663e+01 3.0031000000006724e+01 0 0 0
672 2 3.6915000000000004e+00 1.4919019630994494e+01 3.0031000000006724e+01 0 0 0
903 2 0.0000000000000000e+00 1.2787731112280996e+01 3.3373330656714842e+01 0 0 0
904 2 1.2305000000000001e+00 1.3498160618518829e+01 3.3373330656714842e+01 0 0 0
922 2 2.4610000000000003e+00 1.2787731112280996e+01 3.3373330656714842e+01 0 0 0
923 2 3.6915000000000004e+00 1.3498160618518829e+01 3.3373330656714842e+01 0 0 0
902 2 0.0000000000000000e+00 1.5629449137232333e+01 3.3373330656714842e+01 0 0 0
920 2 1.2305000000000001e+00 1.4919019630994494e+01 3.3373330656714842e+01 0 0 0
921 2 2.4610000000000003e+00 1.5629449137232328e+01 3.3373330656714842e+01 0 0 0
943 2 3.6915000000000004e+00 1.4919019630994494e+01 3.3373330656714842e+01 0 0 0
676 2 4.9220000000000006e+00 1.2787731112280996e+01 3.0031000000006724e+01 0 0 0
723 2 7.3829999999999991e+00 1.2787731112280996e+01 3.0031000000006724e+01 0 0 0
674 2 4.9220000000000006e+00 1.4208590124756663e+01 3.0031000000006724e+01 0 0 0
719 2 6.1524999999999990e+00 1.4919019630994494e+01 3.0031000000006724e+01 0 0 0
721 2 7.3830000000000009e+00 1.4208590124756663e+01 3.0031000000006724e+01 0 0 0
766 2 8.6135000000000002e+00 1.4919019630994494e+01 3.0031000000006724e+01 0 0 0
945 2 4.9220000000000006e+00 1.2787731112280996e+01 3.3373330656714842e+01 0 0 0
946 2 6.1524999999999990e+00 1.3498160618518829e+01 3.3373330656714842e+01 0 0 0
969 2 7.3829999999999991e+00 1.2787731112280996e+01 3.3373330656714842e+01 0 0 0
970 2 8.6135000000000002e+00 1.3498160618518835e+01 3.3373330656714842e+01 0 0 0
944 2 4.9220000000000006e+00 1.5629449137232333e+01 3.3373330656714842e+01 0 0 0
967 2 6.1524999999999990e+00 1.4919019630994494e+01 3.3373330656714842e+01 0 0 0
968 2 7.3829999999999991e+00 1.5629449137232333e+01 3.3373330656714842e+01 0 0 0
991 2 8.6135000000000002e+00 1.4919019630994494e+01 3.3373330656714842e+01 0 0 0
6053 1 6.6807371415979580e+00 1.2914111703036822e+01 3.5923143612206502e+01 -3 2 0
4798 1 4.4828092083589173e+00 1.8167844826214996e+00 3.6599339720141529e+01 -3 2 -1
4417 1 4.1157881034078452e+00 4.4693779509274298e+00 3.6009291970367599e+01 1 3 0
5302 1 4.7037601010350230e+00 1.6500248776890505e+00 3.9349409417878022e+01 -4 2 0
184 1 9.0363851362969108e+00 2.9078444366791887e+00 3.6570235512839929e+01 -1 2 0
4992 1 6.9235780875330564e+00 1.0887059345999941e+00 3.5875219295633599e+01 0 -2 0
514 1 9.0011446592151003e+00 2.8511033405073016e+00 3.9212418486073119e+01 3 -3 0
6167 1 1.6393726292372768e+00 5.5617057076775938e+00 3.6753072285833682e+01 -4 2 0
4726 1 1.1923638717299312e+00 8.0808803990571683e+00 3.5752867524121370e+01 0 6 -1
1303 1 2.4147828162611544e+00 2.3958932292092538e-01 3.5939561007330482e+01 2 1 0
3406 1 8.4767333776068323e+00 5.5489340431549987e+00 3.5930001935307089e+01 0 -3 -1
405 1 6.0251759228186490e+00 6.3250571001848490e+00 3.6842306796910762e+01 2 1 -1
3011 1 4.0277931634042563e-01 1.1094138421522837e+00 3.9086033895195754e+01 1 -1 -1
4724 1 2.8393490481620565e+00 9.8617754657915135e+00 3.6794974648019689e+01 -1 2 0
3066 1 2.2553336939104129e+00 1.2311009715030069e+01 3.5735719392415888e+01 2 -2 0
4719 1 8.4189274813205213e+00 1.4645951927212282e+01 3.6625167133333463e+01 3 -2 -1
439 1 7.3761928176113880e+00 1.0326874127218408e+01 3.6175803856782665e+01 -1 -2 0
6224 1 5.2651625553374632e+00 8.6643277657661066e+00 3.5898056528079508e+01 0 2 -1
4676 1 4.1101433308656903e+00 1.4018966142719012e+01 3.9311000062231287e+01 -3 3 0
1616 1 4.0916967853880326e+00 1.4115264170539774e+01 3.6394748802602919e+01 0 -1 -1
2070 1 9.5241425381877076e-02 1.1508426349900214e+00 3.6380483210771260e+01 -2 0 -1
125 1 7.2342696444479575e+00 1.0600049319654302e+01 3.9185413378147189e+01 2 3 -1
455 1 6.1379832613332450e+00 6.1736262560381325e+00 3.9352792352695857e+01 0 -2 -1
4956 1 1.6425518331436300e+00 2.7585115280036545e+00 4.3473893683342283e+01 1 -2 -1
3020 1 5.4503620703474276e+00 8.5474411856587924e+00 4.7084846408011984e+01 4 -1 0
6298 1 8.4980591293730487e+00 5.3132858744905489e+00 4.0393435094279539e+01 1 0 0
6020 1 7.1093791226176934e+00 9.5134138854594452e-01 4.0248694789794513e+01 2 1 -1
3646 1 7.2247671892399357e+00 8.5630456705118696e-01 4.2892359473301184e+01 0 2 0
2859 1 6.3362577469654866e+00 3.4173761582007303e+00 4.3604946911967261e+01 1 -2 0
1787 1 4.0453380584287997e+00 4.3257277122472590e+00 4.2738396093937865e+01 1 0 -1
3106 1 4.1798981613473680e+00 4.3649713776226911e+00 4.0165006103026457e+01 0 0 -1
57 1 3.6466585846739199e+00 7.1505626070343187e+00 4.3489516585524129e+01 -4 2 -1
3329 1 1.2356563892042061e+00 8.1445722472979476e+00 4.0456003491848236e+01 0 -5 -1
3471 1 1.0364377488628218e+00 8.0987462825515593e+00 4.3142940689402096e+01 0 1 -1
6122 1 8.3120495475161498e+00 5.2457306959197147e+00 4.2978089998092386e+01 2 2 0
6054 1 9.8017764865752390e+00 9.3629317891258914e+00 4.7167469183328009e+01 -3 0 0
5061 1 8.1360496247330669e+00 7.9926347912370748e+00 4.4057576500652729e+01 1 1 -1
2826 1 8.2076853867456701e-01 1.0759255256398831e+01 4.3757099396278491e+01 3 1 -1
3457 1 5.1422185677133072e+00 1.1405613023433979e+01 4.4053501179461037e+01 4 2 -1
6068 1 5.5414587634122983e+00 8.6814852937885476e+00 4.0325954396709406e+01 -1 1 0
4571 1 5.5543503281061390e+00 9.0266541414859240e+00 4.3123774135185826e+01 -1 1 0
259 1 9.3560606561943320e+00 1.1933311697717857e+01 4.3771078910219018e+01 6 -1 -1
5274 1 9.1021311887312155e+00 1.1976511471553216e+01 4.6358025428999539e+01 1 1 0
2887 1 2.4339116015293278e+00 1.5032817827290488e+01 4.6802853371740781e+01 1 1 0
94 1 7.0939621397041739e+00 1.3429151176923314e+01 4.7611324832616305e+01 2 -1 0
116 1 2.2448801183462099e+00 1.2487373246524479e+01 4.0540171991443160e+01 -3 1 0
1649 1 2.8489666815336241e+00 1.2557418808974955e+01 4.3406338877274706e+01 3 0 -1
462 1 2.1361780195513145e+00 1.4987460475729776e+01 4.4073032597446101e+01 -3 1 0
5303 1 6.6448119744732415e+00 1.3210698740573944e+01 4.0003118726586294e+01 1 1 0
3259 1 6.9433805885159394e+00 1.3074263552682709e+01 4.2988436447063549e+01 1 1 0
448 1 6.3128784432572465e+00 1.5508781766433717e+01 4.3662589034182744e+01 1 5 0
3387 1 6.1134180597062793e+00 1.5827441094259573e+01 4.6404419995466185e+01 -1 -3 -1
3357 1 1.6138633765381678e+00 2.9030886991240794e+00 4.6347033073191739e+01 -1 1 0
6036 1 6.8557356458199656e+00 9.4895084920676387e-01 4.6854911947524471e+01 -2 0 -1
5199 1 6.1192271474593483e+00 3.6662083597939983e+00 4.6384079840035611e+01 -1 1 -1