
# Create simulation box and atoms

read_data data.ML_graphite_1atm_240K
  orthogonal box = (0 0 3.74403) to (49.22 49.0196 56.318)
  5 by 3 by 6 MPI processor grid
  reading atoms ...
  6328 atoms
  reading velocities ...
  6328 velocities
group water type 1
3568 atoms in group water
group graphite type 2
2760 atoms in group graphite

# Define potential

pair_style sw
pair_coeff * * MLC_e.sw mW C


# Fix graphite atoms in place

fix 5 graphite setforce 0.0 0.0 0.0
velocity graphite set 0.0 0.0 0.0


# Equilibration of molecular water

# Add velocity/set timestep

velocity	    water create ${TEMP} ${SEED} rot yes dist gaussian
velocity	    water create 240 ${SEED} rot yes dist gaussian
velocity	    water create 240 14369 rot yes dist gaussian
timestep	    5.0

# Define output

compute			1 water msd
compute			3 water temp
thermo	    	50
thermo_style	custom step temp press vol etotal ke pe c_1[4] c_3

# Neighbor lists

neigh_modify    delay 0 every 1 check yes

# Set fixes

fix             1 water momentum 10 linear 1 1 1 rescale
fix             2 water nve
fix             3 water temp/csvr ${TEMP} ${TEMP} 500.0 ${SEED}
fix             3 water temp/csvr 240 ${TEMP} 500.0 ${SEED}
fix             3 water temp/csvr 240 240 500.0 ${SEED}
fix             3 water temp/csvr 240 240 500.0 14369
fix             4 water press/berendsen z ${PRES} ${PRES} 1000.0 modulus 20000
fix             4 water press/berendsen z 1 ${PRES} 1000.0 modulus 20000
fix             4 water press/berendsen z 1 1 1000.0 modulus 20000

# Run 0.5 ns equilibration

dump		    1 all atom 2000 ${DIR}/eq.${NAME}-${TEMP}.dump
dump		    1 all atom 2000 run_2/eq.${NAME}-${TEMP}.dump
dump		    1 all atom 2000 run_2/eq.het_freeze_2-${TEMP}.dump
dump		    1 all atom 2000 run_2/eq.het_freeze_2-240.dump

reset_timestep  0

run	            100000
Neighbor list info ...
  update every 1 steps, delay 0 steps, check yes
  max neighbors/atom: 2000, page size: 100000
  master list distance cutoff = 6.67472
  ghost atom cutoff = 6.67472
  binsize = 3.33736, bins = 15 15 16
  1 neighbor lists, perpetual/occasional/extra = 1 0 0
  (1) pair sw, perpetual
      attributes: full, newton on
      pair build: full/bin/atomonly
      stencil: full/bin/3d
      bin: standard
Per MPI rank memory allocation (min/avg/max) = 4.07 | 4.222 | 4.501 Mbytes
Step Temp Press Volume TotEng KinEng PotEng c_1[4] c_3 
       0    135.30583   -58.143592    126847.59   -33960.221    2551.8119   -36512.033            0          240 
      50    135.38423   -462.37478    126875.87   -33977.735    2553.2904   -36531.025   0.49867522    240.13906 
     100    133.97197   -379.34405    126833.15   -33978.122    2526.6558   -36504.777   0.89531763    237.63405 
     150    137.75869   -292.22778    126901.65   -33911.039    2598.0717   -36509.111    1.1930558    244.35078 
     200    140.42067   -368.96431    126930.21   -33878.736    2648.2756   -36527.012    1.4782829    249.07249 
     250    139.21128   -256.94143    126864.59   -33846.089    2625.4671   -36471.556    1.7709366    246.92733 
     300     140.3307   -315.52443    126906.59   -33852.484    2646.5788   -36499.063    2.0121322    248.91291 
     350    137.27721   -256.53414    126929.61    -33897.64    2588.9913   -36486.631     2.305821    243.49676 
     400    139.99502   -341.30349    126935.74   -33856.553    2640.2481   -36496.801    2.5881522     248.3175 
     450    139.88189   -147.15469    126997.69   -33869.191    2638.1144   -36507.305    2.8083837    248.11682 
     500    139.13264   -177.29546    127029.23   -33875.667    2623.9839   -36499.651    3.0747022    246.78784 
     550      135.838   -331.38788    127028.13   -33931.768    2561.8484   -36493.616    3.3989205    240.94394 
     600    136.76086   -129.44196    126969.75   -33966.309    2579.2531   -36545.562    3.6277254    242.58087 
     650    134.40955   -116.55329    127029.19   -33993.003    2534.9083   -36527.912     3.767117     238.4102 
     700    133.65124   -274.27074     127114.5   -34039.832    2520.6069   -36560.439     4.029105    237.06515 
     750    132.84454   -165.45872    127203.84   -34065.259    2505.3929   -36570.652    4.3307837    235.63426 
     800    133.31069   -325.07173    127269.37   -34028.235    2514.1842   -36542.419    4.6289843    236.46109 
     850    133.23065   -322.75898    127195.01   -34017.629    2512.6748   -36530.304    4.8254527    236.31913 
     900    133.46468   -202.91925    127154.04   -33998.535    2517.0886   -36515.624    5.0552203    236.73424 
     950    134.29229   -330.23987    127159.45   -33983.274    2532.6968   -36515.971    5.3098272    238.20221 
    1000    135.17604    5.6556931       127114   -34014.027     2549.364   -36563.391    5.4708538    239.76977 
    1050    131.85011   -261.27967    127117.43   -34020.548    2486.6384   -36507.186    5.7429441    233.87038 
    1100    131.77119   -366.89304    127054.69   -33971.832      2485.15   -36456.982    5.9736245     233.7304 
    1150    134.53304   -291.89068    127006.84   -33997.224    2537.2373   -36534.461    6.1380676    238.62925 
    1200    132.38838   -388.72005    127034.14   -34054.919    2496.7899   -36551.709    6.3111568    234.82514 
    1250    132.90879   -378.06858    127009.61   -34058.995    2506.6047     -36565.6    6.5239554    235.74823 
    1300    134.16851   -334.88875    126981.29   -34038.298    2530.3624    -36568.66     6.745619    237.98266 
    1350    132.86344   -251.09281     127026.4    -34103.96    2505.7493   -36609.709     6.979178    235.66778 
    1400    132.14056   -417.00205    126930.81   -34129.185    2492.1161   -36621.301    7.2033503    234.38556 
    1450    132.49912   -291.40347    126886.11    -34120.09    2498.8784   -36618.968    7.4217696    235.02156 
    1500     131.7239   -190.29703    126890.22   -34121.173    2484.2582   -36605.432    7.7108972    233.64652 
    1550    130.91814   -330.83247    126850.81   -34111.541    2469.0618   -36580.603    8.0029124    232.21728 
    1600    132.39248   -295.16607    126883.64   -34096.634    2496.8673   -36593.502    8.2972755    234.83242 
    1650     132.9875   -39.755181    126897.42   -34071.205    2508.0892   -36579.294    8.4706334    235.88784 
    1700    135.27036   -136.85749     126939.1   -33989.576    2551.1428   -36540.719    8.7384051    239.93708 
    1750    136.61082   -390.20889    126941.03    -33967.89    2576.4234   -36544.313    8.9754457    242.31474 
    1800    135.59406   -478.82621    126866.81   -33935.982    2557.2478    -36493.23    9.2552862    240.51125 
    1850    136.35062    -312.6849    126884.79   -33965.217    2571.5161   -36536.733    9.4854029     241.8532 
    1900    134.06358   -251.59926    126910.15    -33978.22    2528.3835   -36506.604    9.7384784    237.79654 
    1950    135.92208   -385.57152     126925.9    -33997.69    2563.4341   -36561.124    10.012302    241.09308 
    2000    139.13625   -351.70385    127000.44   -33993.218     2624.052    -36617.27    10.256215    246.79424 
    2050    133.17949   -446.12235    126934.08   -34010.087    2511.7099   -36521.797    10.524563    236.22837 
    2100    133.92534   -334.11163    126885.26   -34056.959    2525.7764   -36582.735    10.808385    237.55135 
    2150    138.85315    3.8492753    126969.19   -34008.832    2618.7128   -36627.545    11.011531    246.29208 
    2200    133.14753   -185.73872     127088.5   -34017.009    2511.1072   -36528.117    11.244456    236.17169 
    2250    137.04783   -290.59922     127188.5   -33985.609    2584.6652   -36570.275    11.636921    243.08988 
    2300    136.48448   -30.109749    127126.59   -33990.369    2574.0407    -36564.41    11.874631    242.09064 
    2350    137.11454   -83.538968    127106.76    -33987.65    2585.9234   -36573.574    12.097072    243.20822 
    2400    136.72467   -237.86153    127140.98   -33962.904    2578.5705   -36541.474    12.461962    242.51667 
    2450    134.04101   -150.98645    127198.23   -34018.311    2527.9579   -36546.268    12.753056    237.75651 
    2500     135.0834   -281.28464    127209.75    -34008.46    2547.6168   -36556.077     12.96322    239.60545 
    2550    135.20858   -259.63774    127187.57    -34023.32    2549.9778   -36573.298    13.214274    239.82751 
    2600    136.27675   -183.63151    127203.32   -33965.251    2570.1229   -36535.374    13.484749    241.72217 
    2650    136.38098   -177.77976    127247.25   -33940.908    2572.0887   -36512.997    13.700863    241.90705 
    2700    136.79141   -267.38969    127338.51   -33951.927    2579.8293   -36531.757    13.767075    242.63506 
    2750    135.82592   -240.02536    127315.94   -33966.936    2561.6204   -36528.556    14.029354     240.9225 
    2800    137.25036   -33.807332    127318.03   -33927.775    2588.4849    -36516.26    14.249787    243.44912 
    2850     135.1511   -234.85897     127401.9   -33980.588    2548.8937   -36529.482    14.500369    239.72555 
    2900    134.51988   -237.15162    127403.34   -34018.352    2536.9892   -36555.341    14.818734    238.60591 
    2950    132.80326   -161.26337       127390   -34086.852    2504.6144   -36591.466    15.008051    235.56104 
    3000    130.84583   -203.56004    127460.09   -34096.651    2467.6982   -36564.349    15.295666    232.08904 
    3050    130.87901    -340.3624    127514.84   -34099.439    2468.3237   -36567.763    15.535175    232.14787 
    3100    134.79037   -450.31892    127537.49   -34095.041    2542.0904   -36637.131    15.847446    239.08569 
    3150    133.76543   -125.74615    127402.51   -34099.348    2522.7606   -36622.109    16.063546     237.2677 
    3200    133.11713   -352.85651    127410.48   -34092.844    2510.5338   -36603.378    16.368691    236.11777 
    3250    138.48106   -389.11937    127382.98   -34008.592    2611.6953   -36620.287    16.690233    245.63208 
    3300    135.76966   -377.32501    127319.74   -33983.199    2560.5595   -36543.759    16.912141    240.82272 
    3350    135.47446   -365.95969    127344.31   -34020.487    2554.9921   -36575.479    17.113308     240.2991 
    3400    137.50661   -132.28647    127380.09   -33985.894    2593.3176   -36579.211    17.273159    243.90365 
    3450     135.7745    25.031592    127407.27   -33966.291    2560.6508   -36526.942    17.549341    240.83131 
    3500    135.06675    10.000848    127484.03   -34008.895    2547.3028   -36556.198     17.84883    239.57592 
    3550     134.6477   -24.885778     127575.6   -34037.698    2539.3998   -36577.097    18.094015    238.83263 
    3600    134.72177   -284.44515    127643.21   -34062.711    2540.7966   -36603.508    18.313572    238.96401 
    3650    134.93611   -460.91368    127600.61   -34094.319    2544.8391   -36639.158    18.490301    239.34421 
    3700    134.65758   -202.50101     127650.1   -34145.233    2539.5861   -36684.819    18.575516    238.85015 
    3750    134.31693    17.001829    127764.85   -34176.084    2533.1616   -36709.246    18.837152    238.24593 
    3800    133.31546   -106.27938    127851.33   -34162.181    2514.2742   -36676.455    18.962483    236.46955 
    3850    134.27698   -527.04321    127773.54   -34167.192    2532.4081     -36699.6    19.041151    238.17506 
    3900    135.08937   -305.94725    127764.92   -34131.103    2547.7295   -36678.832    19.154706    239.61605 
    3950    133.47028   -176.60237    127804.92   -34113.527    2517.1941   -36630.722    19.289555    236.74417 
    4000    134.58519   -305.37299    127786.57   -34080.686    2538.2208   -36618.907    19.413296    238.72175 
    4050    133.42604    -98.17839    127804.76   -34015.068    2516.3598   -36531.428    19.670392    236.66571 
    4100    136.27073   -254.36122    127818.57   -34006.372    2570.0093   -36576.381    19.867949    241.71149 
    4150    136.42133   -342.32089    127816.84   -34020.392    2572.8497   -36593.242     19.96133    241.97862 
    4200    138.59169   -427.17775     127782.5   -33950.997    2613.7817   -36564.779    20.177051    245.82831 
    4250    138.54361    -66.64026    127842.12   -33957.709     2612.875   -36570.584    20.406874    245.74304 
    4300    134.43719    289.79681    127992.73   -34026.148    2535.4297   -36561.577    20.610161    238.45924 
    4350    137.13593    41.545016    128123.41   -34022.558    2586.3267   -36608.885    20.936367    243.24615 
    4400    134.11806   -131.62586    128154.52    -33994.32    2529.4109   -36523.731     21.23448    237.89317 
    4450    134.74764   -63.375784    128115.99   -34018.627    2541.2845   -36559.911    21.362171     239.0099 
    4500    135.19632   -157.05975    128190.84   -34086.363    2549.7466    -36636.11    21.575774    239.80576 
    4550    135.61494   -609.34087    128226.59   -34093.084    2557.6415   -36650.726    21.698141    240.54828 
    4600    135.11614    -362.3752    128099.81   -34060.812    2548.2344   -36609.047     21.95843    239.66354 
    4650    137.02134   -582.69082    128070.32   -34024.795    2584.1656   -36608.961    22.280243     243.0429 
    4700     134.8603   -134.31696     128007.1   -34089.888    2543.4093   -36633.297    22.564583    239.20973 
    4750    134.58586   -289.50289    128026.83   -34061.322    2538.2334   -36599.556    22.707995    238.72294 
    4800    131.85985   -216.59563    127986.36   -34054.738    2486.8221    -36541.56    22.868846    233.88766 
    4850    137.36214   -435.86216     127920.3   -34008.116     2590.593   -36598.709    22.877278     243.6474 
    4900     136.8182    21.187382    127816.44     -34018.5    2580.3345   -36598.834    22.825229    242.68258 
    4950    137.39333   -431.43179    127782.92   -33982.352    2591.1813   -36573.533    22.990915    243.70272 
    5000    137.82765   -472.97072    127821.21   -33973.847    2599.3723   -36573.219    23.287151    244.47309 
    5050    134.50706    -510.2623    127762.25   -33952.495    2536.7474   -36489.242    23.681383    238.58317 
    5100    136.35482   -92.072547    127824.51   -33997.045    2571.5953   -36568.641    24.001235    241.86065 
    5150    138.23789    38.630722    127895.71   -34002.467    2607.1093   -36609.576    24.447152    245.20077 
    5200     135.3933   -294.52094    127919.51   -33980.189    2553.4615   -36533.651    24.859511    240.15515 
    5250    136.47555   -587.93179    127908.84   -34020.837    2573.8722   -36594.709    25.209031    242.07479 
    5300    135.43215   -321.07526    127876.15   -33983.841    2554.1941   -36538.035    25.509116    240.22405 
    5350    136.69071    -273.2277    127862.19   -33967.967    2577.9301   -36545.897    25.665514    242.45644 
    5400    135.40092   -444.35294    127810.22   -34005.351    2553.6051   -36558.956    25.743434    240.16866 
    5450    133.10079   -591.45637    127699.56   -34055.735    2510.2256    -36565.96    25.846059    236.08878 
    5500    135.09595   -115.80963    127617.69   -34077.624    2547.8535   -36625.478    25.992979    239.62771 
    5550    134.34495   -276.80069    127681.11    -34045.86      2533.69    -36579.55    26.114833    238.29562 
    5600    135.87815   -240.72444    127811.42   -34030.822    2562.6055   -36593.427    26.221673    241.01515 
    5650    135.96183   -241.20713    127813.96   -34071.207    2564.1838   -36635.391    26.418006    241.16359 
    5700    136.42899    -110.8573    127946.07   -34004.236    2572.9941    -36577.23    26.641955     241.9922 
    5750     140.6216    -269.2037    128023.97   -33928.575     2652.065    -36580.64    26.720829    249.42889 
    5800    138.49705   -202.53836       128024   -33946.097    2611.9969   -36558.094    26.924876    245.66045 
    5850    136.54813   -416.08435    127951.76   -33983.776    2575.2411   -36559.018    27.236854    242.20354 
    5900     137.0204   -517.92233    127860.77    -33997.82    2584.1479   -36581.968    27.416246    243.04123 
    5950    138.02013   -487.53446    127889.14   -34021.889    2603.0025   -36624.891    27.692039    244.81452 
    6000    135.06955   -258.64343    127918.27   -33995.742    2547.3557   -36543.098    27.772417     239.5809 
    6050    135.70144   -455.42612    127969.48   -33999.768     2559.273   -36559.041    28.034631    240.70172 
    6100    136.85608   -146.90207    127964.64   -34016.141     2581.049    -36597.19    28.162164    242.74977 
    6150    137.13654   -281.10872    128021.63    -34014.99    2586.3382   -36601.328    28.373587    243.24723 
    6200    135.10867   -461.60926    127934.57   -34032.989    2548.0935   -36581.082    28.483742    239.65029 
    6250    132.64103   -328.45991    127886.64   -34017.193    2501.5547   -36518.747    28.762948    235.27328 
    6300    133.86067   -724.97985    127754.09    -34122.53    2524.5567   -36647.087    28.968435    237.43663 
    6350    134.70774   -302.44419    127661.52   -34097.592    2540.5321   -36638.124    29.084106    238.93912 
    6400    133.30157   -268.99371    127612.31   -34127.428    2514.0123    -36641.44    29.421778    236.44492 
    6450    129.12761   -259.04203    127663.93   -34146.138    2435.2931   -36581.431    29.537949    229.04132 
    6500    133.23181   -580.90344    127587.09   -34114.073    2512.6967    -36626.77    29.729262    236.32119 
    6550    132.55107   -305.23539    127595.82   -34122.036    2499.8583   -36621.894     29.83683    235.11372 
    6600    132.95425   -615.86912    127491.41   -34123.586    2507.4619   -36631.048    30.086966    235.82885 
    6650    132.83465   -218.57661    127374.19   -34150.228    2505.2064   -36655.434    30.246696    235.61671 
    6700    134.59795   -211.29512    127366.71   -34156.789    2538.4616   -36695.251    30.264106    238.74439 
    6750    132.06083   -167.89526    127361.86   -34130.891    2490.6125   -36621.504    30.437117    234.24415 
    6800    133.15062   -329.97917    127401.89   -34131.892    2511.1655   -36643.057    30.541005    236.17717 
    6850    136.84319   -50.715228    127458.44   -34088.484    2580.8058    -36669.29    30.706327    242.72691 
    6900    133.06492   -529.50442    127444.39   -34056.406    2509.5491   -36565.955    30.768953    236.02515 
    6950    134.01793   -202.39735    127388.13   -34025.245    2527.5226   -36552.767     30.97695    237.71557 
    7000    136.46499    -610.7661    127440.37   -34014.033    2573.6731   -36587.706    31.025237    242.05607 
    7050    136.43724   -436.88886    127385.53   -34018.903    2573.1497   -36592.053    31.248854    242.00684 
    7100    138.00889   -412.23368    127441.01   -34008.497    2602.7904   -36611.287    31.710962    244.79457 
    7150    138.21677   -123.01714     127458.5   -33989.725     2606.711   -36596.436    32.025009    245.16331 
    7200    136.78705   -215.23392    127463.69   -34012.909    2579.7471   -36592.656    32.108348    242.62733 
    7250    138.20058   -307.05723    127448.86   -34010.426    2606.4055   -36616.832    32.256597    245.13458 
    7300    135.26779   -289.83359    127407.67   -34036.485    2551.0943   -36587.579    32.312865    239.93251 
    7350    132.67271   -186.83531    127385.16   -34090.457    2502.1523    -36592.61    32.457897    235.32947 
    7400    133.31318   -167.73864    127399.95   -34084.627    2514.2313   -36598.859    32.754105    236.46552 
    7450    133.57619   -87.236364    127400.53   -34094.202    2519.1915   -36613.394    32.900564    236.93202 
    7500    135.85746    53.201183    127391.39    -34063.52    2562.2154   -36625.735    33.232549    240.97846 
    7550    137.35952    23.431061    127458.97   -34035.228    2590.5435   -36625.771    33.445495    243.64274 
    7600    135.46742   -224.66771    127460.83   -34033.419    2554.8594   -36588.278    33.707318    240.28662 
    7650    136.99177   -289.19589    127510.87   -34013.132     2583.608    -36596.74    34.002429    242.99045 
    7700    138.17117   -183.38227    127493.12   -33998.969     2605.851    -36604.82    34.246318    245.08243 
    7750    137.79848   -496.25029    127515.35   -33987.941    2598.8223   -36586.763    34.539839    244.42137 
    7800    133.01328   -236.41178    127477.84   -33988.013    2508.5754   -36496.589    34.794276    235.93357 
    7850    133.24361   -351.61463    127399.21   -33973.205    2512.9192   -36486.124    35.057194    236.34211 
    7900    134.71422   -120.27861    127404.71   -33957.766    2540.6543    -36498.42    35.268216    238.95062 
    7950    134.89009    98.347526    127417.17   -33925.183    2543.9711   -36469.154    35.561344    239.26257 
    8000    138.20441   -198.61453    127484.81   -33929.566    2606.4779   -36536.044    35.636502    245.14138 
    8050    137.00715   -273.70487     127498.8   -33937.291    2583.8981   -36521.189     35.86878    243.01773 
    8100    133.36356    -150.8532    127529.75     -33958.8    2515.1815   -36473.982    35.977823    236.55488 
    8150    137.97886   -486.99444    127498.41    -33961.79     2602.224   -36564.014    36.288127     244.7413 
    8200    135.37495   -383.21342     127452.3   -33990.197    2553.1155   -36543.312    36.549889    240.12261 
    8250    137.13895   -308.16473    127377.26   -33967.999    2586.3838   -36554.383    36.819484    243.25151 
    8300    137.52231     -143.041    127379.08   -33969.887    2593.6137     -36563.5    37.128271     243.9315 
    8350    135.34935   -93.610132    127341.37   -33965.259    2552.6326   -36517.892    37.262835    240.07719 
    8400    134.64105   -272.80611    127320.54   -33966.102    2539.2744   -36505.376    37.548192    238.82084 
    8450    133.25361   -256.56201    127256.78   -33985.088    2513.1078   -36498.196    37.687408    236.35985 
    8500    134.24316   -276.80306    127263.93   -33947.326    2531.7702   -36479.096    37.981814    238.11507 
    8550    135.23418    -143.1379     127325.4   -33968.095    2550.4606   -36518.555    38.211926    239.87291 
    8600    134.99202    -153.9497    127395.21   -33943.978    2545.8935   -36489.871    38.483439    239.44337 
    8650    133.87304   -476.21188     127497.8   -33968.517      2524.79   -36493.307    38.671007    237.45857 
    8700    135.98515    -362.5031    127501.96   -34000.476    2564.6235   -36565.099    38.931148    241.20495 
    8750    134.83008   -456.86377    127541.29   -34069.695    2542.8395   -36612.534    38.987457    239.15614 
    8800    133.38351    -226.0059       127421   -34067.757    2515.5576   -36583.315    39.269645    236.59026 
    8850     136.6521   -371.82169     127409.1   -34003.476    2577.2018   -36580.678    39.468735    242.38795 
    8900    134.95111    -329.4975    127389.87   -34027.078     2545.122     -36572.2    39.657158    239.37081 
    8950    132.61372   -170.17811    127314.48   -34017.745    2501.0398   -36518.785    39.736577    235.22484 
    9000    134.03876   -537.53024    127237.02   -34009.352    2527.9154   -36537.268    39.799444    237.75252 
    9050    135.87888   -41.147301    127167.83   -34030.826    2562.6192   -36593.445    40.057984    241.01644 
    9100    136.04348   -234.90681    127220.45   -34047.943    2565.7237   -36613.667    40.253594    241.30842 
    9150    134.90013   -190.02838    127222.97   -33993.292    2544.1605   -36537.453    40.596643    239.28038 
    9200    133.40315   -175.47003    127225.62   -34023.555    2515.9281   -36539.483    40.821885     236.6251 
    9250    134.65747   -344.73666    127249.07   -34033.624     2539.584   -36573.208    41.085731    238.84996 
    9300    136.78109    -154.5672    127184.52   -34029.384    2579.6347   -36609.019    41.180273    242.61676 
    9350    133.93059   -313.00755     127133.2    -34062.61    2525.8754   -36588.486    41.434882    237.56065 
    9400    135.99255    67.705329    127082.35    -34025.66    2564.7631   -36590.423    41.668609    241.21808 
    9450    136.32696   -191.41108    127226.23    -33993.14    2571.0699    -36564.21    42.074747    241.81123 
    9500    135.79503   -500.45212    127233.71   -34053.349     2561.038   -36614.387    42.231525    240.86772 
    9550    134.37266    -49.72999    127251.57   -34011.222    2534.2127   -36545.434    42.404581    238.34478 
    9600    138.13411   -416.48594    127265.88   -33953.728     2605.152    -36558.88     42.45057    245.01669 
    9650    135.26459    -291.0588    127183.11   -33963.206    2551.0341    -36514.24     42.59388    239.92685 
    9700    135.82183   -196.26416    127220.39   -33965.444    2561.5433   -36526.987     42.75993    240.91525 
    9750     135.9736   -291.32591    127243.77   -34006.026    2564.4057   -36570.432    42.875849    241.18446 
    9800    137.10788   -212.95537    127253.98   -34004.452    2585.7978    -36590.25    43.047536    243.19641 
    9850    137.13495   -336.38196    127275.21   -33984.756    2586.3083   -36571.064     43.21768    243.24442 
    9900    135.96887   -69.518609    127249.48   -33938.557    2564.3164   -36502.874    43.572077    241.17607 
    9950    136.06661   -210.97614    127279.39   -33915.142    2566.1599   -36481.302    43.790703    241.34944 
   10000    138.00585   -133.74345    127231.71   -33959.266    2602.7331   -36561.999    44.009464    244.78918 
   10050    134.31899    64.760706    127208.96   -33971.728    2533.2004   -36504.928    44.255224    238.24958 
   10100    134.94121   -203.60207     127108.4   -34042.031    2544.9352   -36586.967    44.405683    239.35324 
   10150    134.17223   -386.99606    127029.14   -34038.769    2530.4327   -36569.202    44.470071    237.98927 
   10200    135.20867   -127.55538    127023.66    -34027.68    2549.9795   -36577.659    44.789019    239.82766 
   10250    134.68134   -155.82738     127107.7   -34060.061    2540.0343   -36600.095    45.196001    238.89231 
   10300    134.15826   -115.93773    127099.28   -34039.449    2530.1692   -36569.618    45.429762    237.96449 
   10350    136.28732   -384.04351    127123.04   -34002.459    2570.3223   -36572.782    45.553043    241.74092 
   10400    137.23026   -191.00155    127141.33   -34037.257    2588.1057   -36625.363    45.462718    243.41347 
   10450     133.4647   -209.70952    127109.99   -34088.689     2517.089   -36605.778    45.424896    236.73428 
   10500    133.67682   -272.23234    127156.31   -34100.711    2521.0893     -36621.8    45.692403    237.11052 
   10550    137.15691   -163.28056     127037.4   -34079.872    2586.7225   -36666.595    45.799988    243.28337 
   10600    133.63157   -188.17809    127147.81   -34121.878     2520.236   -36642.114    45.988621    237.03027 
   10650    134.98676    -100.6402    127203.65   -34123.051    2545.7943   -36668.846    46.037671    239.43404 
   10700    132.89316   -128.07693    127313.07   -34089.352    2506.3098   -36595.661    46.049519     235.7205 
   10750    134.28845   -217.09628    127278.25    -34059.42    2532.6245   -36592.045     46.25315    238.19541 
   10800    137.04846   -388.34951    127317.13    -34021.57     2584.677   -36606.247    46.445054      243.091 
   10850    138.24468   -322.68163    127326.14   -33974.144    2607.2374   -36581.382    46.725401    245.21282 
   10900    134.43625   -159.64822    127359.84   -33954.163    2535.4119   -36489.575    47.078243    238.45757 
   10950    136.10623   -186.76747    127402.85   -33964.255    2566.9069   -36531.162    47.527755     241.4197 
   11000    138.50799   -209.24867    127425.82    -33944.37    2612.2031   -36556.573    47.894704    245.67985 
   11050    135.82659   -323.49063    127467.02   -33951.951    2561.6331   -36513.584    48.295144     240.9237 
   11100    135.05257   -342.98461    127493.81   -33939.442    2547.0355   -36486.477    48.574712    239.55077 
   11150    137.30852   -450.18567    127464.85   -33919.297    2589.5816   -36508.878    48.890286    243.55228 
   11200    137.07417   -190.12309    127499.72   -33895.974    2585.1619   -36481.136    49.066415     243.1366 
   11250    135.87114   -523.55457    127506.47   -33949.087    2562.4734    -36511.56     49.20245    241.00272 
   11300    136.01873   -233.37902    127497.41   -33927.897    2565.2568   -36493.154    49.210106     241.2645 
   11350    136.59905   -687.22844    127400.37     -33909.7    2576.2014   -36485.902    49.180999    242.29386 
   11400    138.88405   -322.96919    127280.74    -33923.46    2619.2957   -36542.756     49.28207    246.34691 
   11450    133.19211   -165.35725    127295.48   -33943.645    2511.9479   -36455.593    49.528325    236.25076 
   11500    137.99478   -208.58497    127306.07   -33945.254    2602.5242   -36547.779    49.651475    244.76954 
   11550    136.26352   -289.17969    127328.77   -33938.674    2569.8734   -36508.548    49.974743     241.6987 
   11600    136.21866   -321.36146    127295.69   -33925.281    2569.0273   -36494.308    50.261973    241.61913 
   11650    137.43889   -128.66834    127323.25   -33915.882    2592.0405   -36507.923    50.344402    243.78354 
   11700    136.94195   -556.20578    127415.45   -33941.896    2582.6684   -36524.565    50.343553    242.90208 
   11750    136.86019   -309.09864    127410.14   -33959.258    2581.1263   -36540.384    50.421254    242.75705 
   11800    135.73239   -234.25294    127409.68   -33936.981    2559.8565   -36496.837    50.422855     240.7566 
   11850    136.18639   -309.81301    127459.63   -33973.214    2568.4188   -36541.633    50.615207    241.56189 
   11900    136.37166   -611.37454    127497.96   -33979.892    2571.9129   -36551.805    50.712835    241.89051 
   11950    137.19382    -123.1759    127507.08   -33974.347    2587.4185   -36561.765      51.0088    243.34883 
   12000    136.76388   -495.07908     127539.8   -33939.302      2579.31   -36518.612    51.097927    242.58622 
   12050     133.9009   -416.24785    127530.84   -34009.337    2525.3155   -36534.653    51.343727    237.50799 
   12100     133.7469   -400.51595    127444.69       -34004    2522.4111   -36526.411    51.464741    237.23483 
   12150    130.85522   -385.03789     127313.5   -34098.774    2467.8753   -36566.649    51.419322    232.10569 
   12200    136.71444   -185.96907    127206.98   -34054.786    2578.3776   -36633.164    51.574361    242.49853 
   12250    132.39773   -148.57942    127179.71   -34074.295    2496.9663   -36571.261    51.946314    234.84173 
   12300    130.52914   -79.726079    127175.55   -34066.024    2461.7255    -36527.75    52.181194     231.5273 
   12350     136.3764   -307.18428    127109.21   -34051.511    2572.0023   -36623.513    52.384997    241.89892 
   12400    133.87785   -38.233512    127156.53   -34092.459    2524.8808    -36617.34     52.53555    237.46711 
   12450    132.49657   -53.048089    127158.78   -34078.335    2498.8303   -36577.166    52.921946    235.01704 
   12500    134.97849    -304.2917    127057.45   -34063.356    2545.6383   -36608.994    53.074171    239.41937 
   12550    133.77312   -303.55588    126965.64   -34160.584    2522.9055   -36683.489    53.312986    237.28133 
   12600    135.20372    8.5268282    126968.94   -34069.363     2549.886   -36619.249    53.484396    239.81887 
   12650    135.94788   -94.927745    126970.81   -34041.749    2563.9207    -36605.67    53.707516    241.13884 
   12700    134.49231   -354.49757    126957.86   -34022.026    2536.4693   -36558.496    53.879869    238.55701 
   12750    134.33727   -296.33783    127078.97   -34020.974    2533.5452    -36554.52    54.140147      238.282 
   12800    136.39975   -299.13731    127035.28   -34000.746    2572.4428   -36573.189    54.379612    241.94035 
   12850    132.98791    47.824968    127000.38   -33976.447    2508.0968   -36484.544    54.692028    235.88856 
   12900    138.13608   -404.53067    127009.67    -33940.37    2605.1892    -36545.56    54.937726    245.02019 
   12950    135.88196    -245.3914    127096.41   -33942.722    2562.6774   -36505.399    55.189276    241.02191 
   13000    135.63002   -296.40758    127100.36   -33942.602    2557.9259   -36500.528    55.471896    240.57503 
   13050    133.40522   -145.50941    127182.85   -33986.416     2515.967   -36502.383    55.617841    236.62876 
   13100    135.79232   -268.37607    127127.05   -33981.163    2560.9868   -36542.149    55.868912    240.86291 
   13150    137.54291   -360.41441     127068.3   -33974.288    2594.0022    -36568.29    56.301478    243.96804 
   13200    134.80406    29.124317    127162.53   -34001.035    2542.3486   -36543.384    56.750692    239.10998 
   13250    135.78615   -66.524265    127133.69   -34019.893    2560.8705   -36580.763    57.040927    240.85198 
   13300    136.58401    74.902029    127079.51   -33980.923    2575.9178   -36556.841     57.08913    242.26718 
   13350    135.19089   -88.747533    127077.39   -34010.144    2549.6441   -36559.788    57.182209    239.79612 
   13400    133.72535   -409.06968    127116.67    -34049.06    2522.0047   -36571.065     57.47194    237.19661 
   13450    137.09997   -290.30025    127085.27   -34036.065    2585.6486   -36621.713    57.743694    243.18237 
   13500    135.21069    -320.9596     126974.2   -34027.612    2550.0175    -36577.63    57.885355    239.83124 
   13550    134.57057   -107.91586    127067.54   -34039.554    2537.9452   -36577.499    57.957689    238.69583 
   13600      137.134   -67.022891    127088.48   -34032.453    2586.2903   -36618.743    58.101272    243.24272 
   13650    136.69787   -314.64129    127161.29   -34043.632    2578.0651   -36621.697    58.217687    242.46914 
   13700    135.99866    -29.09577    127180.81   -34046.468    2564.8784   -36611.347    58.245358    241.22892 
   13750    136.65257   -150.92104    127198.96   -34087.804    2577.2108   -36665.015    58.260212    242.38879 
   13800    133.48062   -424.77645    127196.29   -34071.296    2517.3892   -36588.685     58.61128    236.76252 
   13850    135.88911   -129.57654    127154.51   -34006.954    2562.8123   -36569.766    58.751307     241.0346 
   13900    134.26971     -167.117     127216.9   -33992.837    2532.2711   -36525.108    58.926785    238.16217 
   13950    136.69175   -374.59425     127215.7    -33971.89    2577.9497    -36549.84    59.143846    242.45829 
   14000    138.10287   -154.04859    127162.71   -33950.055    2604.5628   -36554.618    59.337926    244.96126 
   14050    135.22388   -31.490068    127256.22   -34037.976    2550.2663   -36588.242    59.612745    239.85464 
   14100    131.26885   -223.68014    127200.69   -34096.125     2475.676   -36571.801    59.841915    232.83936 
   14150    133.35155   -151.25195    127192.24   -34169.591    2514.9548   -36684.546    60.042816    236.53357 
   14200    131.22807   -335.06133    127250.58   -34182.583     2474.907    -36657.49    60.188117    232.76703 
   14250    134.34006   -118.86934    127192.51   -34137.346    2533.5978   -36670.944    60.101166    238.28695 
   14300    134.11387   -237.49623    127213.67   -34137.264     2529.332   -36666.596    60.515105    237.88575 
   14350    133.11727    -400.5507    127183.37   -34130.571    2510.5365   -36641.108    60.720891    236.11802 
   14400    132.36409   -317.57734    127196.78   -34096.267    2496.3317   -36592.598    60.982779    234.78205 
   14450    134.93692   -238.62388    127200.65   -34076.541    2544.8543   -36621.395    61.540443    239.34564 
   14500    133.41569    -394.6585     127175.2   -34092.045    2516.1646    -36608.21     61.70756    236.64734 
   14550    134.85243   -392.72518    127111.85   -34104.614    2543.2609   -36647.875    61.950997    239.19578 
   14600    133.10054   -404.76799    127033.85   -34049.205     2510.221   -36559.425    61.966401    236.08834 
   14650    136.17439   -11.225395    127041.68   -34024.245    2568.1925   -36592.437    62.050892    241.54061 
   14700    134.67918   -64.772433    127117.06    -34017.46    2539.9935   -36557.454    62.313007    238.88848 
   14750    134.38284   -134.38453    127131.31   -34039.112    2534.4047   -36573.517     62.71428    238.36284 
   14800    132.63586   -413.86045     127126.8   -34046.433    2501.4572    -36547.89    62.876755     235.2641 
   14850    133.71399   -335.91989    127096.74   -34096.662    2521.7904   -36618.453    63.164138    237.17646 
   14900     135.1181   -157.36366    127125.84   -34065.649    2548.2713    -36613.92    63.555673      239.667 
   14950    134.68398    -309.8093    127142.12   -34033.418    2540.0841   -36573.502    63.775728    238.89699 
   15000     135.3742   -361.10194    127166.88   -34056.382    2553.1013   -36609.484    63.806133    240.12127 
   15050    134.73789   -315.88543     127149.3   -34018.782    2541.1007   -36559.883    64.154825    238.99261 
   15100     136.5011   -244.93461    127167.16   -33983.292    2574.3541   -36557.646    64.240771    242.12012 
   15150    136.21328   -307.75136    127093.58   -34038.919     2568.926   -36607.845    64.563855     241.6096 
   15200    132.76521   -47.322526    127064.77   -34026.414    2503.8968   -36530.311    64.767123    235.49355 
   15250    133.21369   -374.87071     127071.5   -34045.307    2512.3549   -36557.661     65.03806    236.28904 
   15300    135.93726   -200.53836    127105.35   -34042.651    2563.7203   -36606.372    65.337561       241.12 
   15350    131.83041    44.160328    127086.26   -34104.431    2486.2668   -36590.698     65.47827    233.83544 
   15400    135.72864   -273.63855    127035.33   -34057.951    2559.7859   -36617.737    66.053295    240.74996 
   15450    135.30348   -262.79067    127033.07   -34058.182    2551.7674    -36609.95    66.305506    239.99582 
   15500    135.71827     -289.389    127077.94   -33992.122    2559.5902   -36551.712    66.443935    240.73156 
   15550    130.33764   -258.69398    127102.14   -34040.588    2458.1138   -36498.701    66.522741    231.18762 
   15600      130.675   -170.52297    127106.51   -34047.934    2464.4763    -36512.41    66.893447    231.78602 
   15650    130.15876   -243.08847     127050.6   -34057.134    2454.7402   -36511.874    67.032537    230.87033 
   15700     134.7887    175.32984    127103.36   -34044.063     2542.059   -36586.122    67.231655    239.08274 
   15750    133.99966    -172.2668    127150.11   -34069.102     2527.178    -36596.28     67.46376    237.68316 
   15800    133.43151   -249.58032    127139.53   -34060.891    2516.4629   -36577.354    67.588516     236.6754 
   15850    135.32675    -37.23699    127201.38   -34057.061    2552.2063   -36609.267    67.739678     240.0371 
   15900    133.91532   -260.73784    127197.35   -34035.378    2525.5874   -36560.966    67.931359    237.53357 
   15950    137.58664   -525.94647    127226.05   -34030.541     2594.827   -36625.368    68.222847    244.04561 
   16000    133.24321   -252.83743    127180.76   -34009.447    2512.9117   -36522.358    68.596704     236.3414 
   16050     134.7471   -389.24461    127227.55   -34009.699    2541.2744   -36550.973    68.892101    239.00894 
   16100     132.7867   -348.47655    127191.35   -33986.151    2504.3021   -36490.453    69.203091    235.53167 
   16150    136.36207   -217.05382    127311.92   -33944.496     2571.732   -36516.228    69.564787     241.8735 
   16200    135.68638   -447.29135    127280.66   -33986.354    2558.9888   -36545.343    69.629165    240.67499 
   16250    135.97762   -527.45145    127147.67   -33970.461    2564.4814   -36534.943    69.938236    241.19158 
   16300    136.55006   -480.88172    127111.67   -33954.065    2575.2774   -36529.342    70.448726    242.20696 
   16350    135.62151   -162.61166    127103.98   -34011.341    2557.7655   -36569.106    70.494708    240.55994 
   16400    134.48486   -567.03325    127128.36    -34053.91    2536.3287   -36590.239    70.095483    238.54379 
   16450    132.35446    -138.0729    127080.71   -33998.095    2496.1501   -36494.245    70.479218    234.76497 
   16500    134.75897   -335.95568    127086.87   -33973.334    2541.4983   -36514.833    70.698205       239.03 
   16550    135.41309   -168.82157    127114.55   -33981.541    2553.8347   -36535.376    70.754841    240.19025 
   16600     135.9514   -398.88531    127069.13   -33977.997    2563.9871   -36541.984    70.959092    241.14509 
   16650    136.38629   -153.82756    127118.82   -33941.913    2572.1889   -36514.102     71.22929    241.91647 
   16700    135.51608   -174.56278    127136.24   -33953.259     2555.777   -36509.036    71.196619    240.37292 
   16750    135.59083    19.912142    127098.62   -34031.043    2557.1867    -36588.23    71.330314    240.50551 
   16800    131.99731   -374.53667     127040.5   -34117.883    2489.4145   -36607.298    71.695604    234.13148 
   16850    131.40166    3.8449235    126967.73   -34093.703    2478.1808   -36571.883    71.685173    233.07494 
   16900    131.41738   -15.939264    127089.11   -34074.053    2478.4772    -36552.53    71.976666    233.10281 
   16950    135.83752   -222.12078    127130.49   -34098.854    2561.8392   -36660.693    71.957281    240.94308 
   17000    134.20082   -495.90439    127124.46   -34059.421    2530.9718   -36590.392     71.93297    238.03997 
   17050    133.40787   -253.58241    127039.18   -34102.219    2516.0172   -36618.236    72.359747    236.63348 
   17100     134.0075   -304.43634    127040.11   -34077.355     2527.326   -36604.681    72.607987    237.69708 
   17150     136.4635   -469.83504    126992.91   -34045.523     2573.645   -36619.168    72.836115    242.05342 
   17200    132.90674   -98.641141     127001.9   -34018.286    2506.5661   -36524.852    73.009409     235.7446 
   17250    129.73151   -208.33233    127087.11   -34056.069    2446.6824   -36502.751    73.238465    230.11249 
   17300    134.06736   -249.07179    127179.52   -33987.971    2528.4547   -36516.426    73.348867    237.80324 
   17350    138.29522   -194.16236    127177.19   -33913.267    2608.1904   -36521.457     73.76879    245.30245 
   17400    135.26336   -134.42838    127140.04   -33936.946    2551.0108   -36487.957    74.090614    239.92466 
   17450    131.30084   -243.41623    127071.56   -33976.045    2476.2795   -36452.324    74.478656    232.89612 
   17500    138.59327   -250.70287     127018.2    -33961.16    2613.8116   -36574.972    74.487234    245.83113 
   17550    132.86977   -163.85299    126953.22   -33953.853    2505.8687   -36459.722    74.750889    235.67901 
   17600    137.78514   -146.22913    126983.82   -33914.679    2598.5707    -36513.25    75.310984     244.3977 
   17650    137.76428   -162.54176    126990.41    -33886.84    2598.1772   -36485.017    75.839345    244.36069 
   17700    140.98502    44.848287    127098.08   -33858.555     2658.919   -36517.474     76.20476    250.07352 
   17750    138.41662   -81.225084    127193.08   -33837.638    2610.4801   -36448.118    76.445704    245.51779 
   17800    136.94722    108.92054    127319.82    -33923.07    2582.7677   -36505.838    76.473481    242.91143 
   17850    135.55537   -339.94088    127413.31   -33954.829    2556.5181   -36511.347    76.559572    240.44262 
   17900    134.54046   -277.90946    127395.47   -33904.769    2537.3773   -36442.147    76.800485    238.64242 
   17950    137.18795    -320.6179    127333.31   -33914.571    2587.3079   -36501.879    77.190158    243.33843 
   18000     132.9706   -57.487672       127416   -33964.287    2507.7704   -36472.058    77.233867    235.85786 
   18050    135.44715   -125.65921    127531.47   -33972.899     2554.477   -36527.376      77.2862    240.25066 
   18100    133.74574    -87.21062    127673.27   -34018.176    2522.3891   -36540.566    77.567686    237.23276 
   18150    134.23302    -380.2068    127702.44   -34029.515    2531.5791   -36561.094    77.801363     238.0971 
   18200     134.5751    -350.7439    127728.78    -34038.36    2538.0305    -36576.39    77.946063    238.70385 
   18250    133.84776   -184.06016    127665.74   -34019.292    2524.3133   -36543.606    78.251162    237.41374 
   18300    135.57493   -356.84397    127620.25   -34001.358    2556.8869   -36558.245    78.482185    240.47731 
   18350    134.48314   -24.411515     127553.9   -34017.233    2536.2963   -36553.529    78.821368    238.54075 
   18400    138.08786    -189.0138    127609.55   -33986.424    2604.2797   -36590.703      79.2758    244.93464 
   18450     131.6787    -683.4873    127518.41   -34022.121    2483.4057   -36505.527      79.2776    233.56634 
   18500    135.90667   -309.84986    127459.23   -34048.642    2563.1435   -36611.786    79.583555    241.06575 
   18550    137.88036   -403.86217    127446.07   -34012.005    2600.3664   -36612.372    79.731891    244.56659 
   18600    136.29362   -291.92564    127416.25   -33980.523    2570.4411   -36550.964    79.805959     241.7521 
   18650    133.99458   -251.74335    127345.83   -34073.028    2527.0822    -36600.11    80.172619    237.67415 
   18700    135.82671   -443.21352    127292.13   -34124.148    2561.6354   -36685.783    80.560798    240.92391 
   18750    135.47752   -8.4896951    127368.01   -34101.531    2555.0499   -36656.581    80.903557    240.30454 
   18800    136.58882   -424.97812    127452.92   -34066.964    2576.0084   -36642.973    81.142415     242.2757 
   18850    134.03018   -411.63725    127424.01   -34069.111    2527.7536   -36596.865    81.221557     237.7373 
   18900    135.70045   -144.75773    127354.91   -34044.041    2559.2541   -36603.295    81.315175    240.69995 
   18950    135.31131   -77.841455    127400.64   -34030.223    2551.9151   -36582.139    81.501043    240.00971 
   19000    136.18943   -323.45545    127464.46   -33997.542    2568.4762   -36566.018    81.716986     241.5673 
   19050    137.29033    24.814439    127559.52   -34025.055    2589.2386   -36614.293    81.822183    243.52002 
   19100    132.86684   -253.80441    127630.51   -34087.488    2505.8135   -36593.301    82.265077    235.67382 
   19150     132.0705   -202.19618    127667.96   -34062.525    2490.7948    -36553.32    82.211971     234.2613 
   19200    134.43845  -0.73366488    127701.11   -34059.292    2535.4533   -36594.746    82.158498    238.46147 
   19250    136.56392   -361.35974    127700.04   -34010.606    2575.5389   -36586.145    82.340759    242.23155 
   19300    136.81404   -482.21743    127732.66   -34067.481    2580.2561   -36647.737    82.470433     242.6752 
   19350    137.20872   -359.42985    127716.65   -34066.801    2587.6995     -36654.5    82.604433    243.37526 
   19400    131.84392   -285.36513    127758.34   -34075.786    2486.5216   -36562.308    82.875367    233.85939 
   19450    134.89023    -171.7573    127823.44   -34087.065    2543.9737   -36631.039    83.631475    239.26282 
   19500    133.71461   -122.69353    127831.96   -34094.172    2521.8021   -36615.974    83.819406    237.17756 
   19550    130.57661   -140.12767     127899.8   -34152.207    2462.6207   -36614.828    84.125997     231.6115 
   19600    132.01227    3.9593053    127957.76   -34141.297    2489.6967   -36630.994    84.589338    234.15802 
   19650    132.19543    31.889359    127944.68    -34132.53     2493.151   -36625.681    84.895135     234.4829 
   19700    133.34933    35.853159    128025.81   -34124.543     2514.913   -36639.456    85.047217    236.52963 
   19750    134.07601   -523.42124     128019.3   -34087.368     2528.618   -36615.986    85.495568    237.81859 
   19800    136.24253   -37.900327    127994.67   -34041.643    2569.4777   -36611.121    85.656319    241.66149 
   19850    137.46656   -70.682216    128036.09   -34010.786    2592.5624   -36603.349    85.582996    243.83262 
   19900    135.20946    -447.4656    127971.98   -34049.403    2549.9944   -36599.397    85.624474    239.82906 
   19950    134.98328   -129.64653    127921.26   -34015.264    2545.7287   -36560.993      86.1032    239.42787 
   20000    136.72704   -180.02207     127942.8   -34004.477    2578.6153   -36583.092    86.558408    242.52089 
   20050    136.43299   -211.46702    127989.74   -34003.375    2573.0695   -36576.444    86.886737     241.9993 
   20100    135.68659   -279.66688    127924.86   -33993.098    2558.9927   -36552.091    86.964066    240.67537 
   20150    134.36447   -316.84024    127797.87   -34003.652    2534.0581    -36537.71     87.33538    238.33024 
   20200    138.96383    -28.09721    127785.65   -33934.703    2620.8002   -36555.503    87.645089    246.48841 
   20250    136.47702   -408.21245    127799.26   -33958.624    2573.8999   -36532.524    87.705016     242.0774 
   20300    133.05921   -382.64625    127713.24   -33967.788    2509.4415   -36477.229    87.910715    236.01504 
   20350    133.86589   -132.80201    127660.47   -33988.586    2524.6552   -36513.242    88.075463    237.44589 
   20400     133.5681   -139.42344    127724.96   -33972.618    2519.0389   -36491.657     88.00655    236.91767 
   20450    133.95394   -381.37534    127702.79   -33967.202    2526.3157   -36493.518    88.165037    237.60206 
   20500    136.63595   -304.66474    127686.22   -33926.744    2576.8973   -36503.641    88.283414     242.3593 
   20550    138.60576   -243.59575    127708.81   -33933.039    2614.0471   -36547.086    88.514954    245.85327 
   20600    135.09881   -155.64028    127658.91   -33990.297    2547.9076   -36538.204    88.630663     239.6328 
   20650    136.23264   -136.75383    127584.56    -33995.01     2569.291   -36564.301     88.70396    241.64393 
   20700    137.76834   -318.86066    127568.03   -33961.412    2598.2538   -36559.665    89.131262    244.36791 
   20750    132.88823   -181.02497    127517.69   -33949.582    2506.2168   -36455.799    89.186892    235.71175 
   20800    135.38694   -286.15401    127484.07   -33976.148    2553.3415   -36529.489    89.376875    240.14386 
   20850    137.87148   -231.26513    127463.03   -33960.479    2600.1988   -36560.678    89.823397    244.55084 
   20900    135.22625   -222.92006    127454.72   -33961.526    2550.3109   -36511.837    90.207537    239.85884 
   20950    134.30156    -322.7206    127430.55   -34022.995    2532.8716   -36555.867     90.30708    238.21866 
   21000    133.99749    93.666852     127323.3   -34068.339    2527.1371   -36595.476    90.376485    237.67932 
   21050    137.66011   -78.924624    127408.68   -34037.621    2596.2125   -36633.834    90.475549    244.17592 
   21100    134.94577   -179.64252    127476.66   -34027.865    2545.0213   -36572.886    90.520201    239.36134 
   21150    134.14776   -428.13946    127436.06    -34033.79     2529.971   -36563.761    90.833169    237.94585 
   21200    132.20949   -275.21562    127453.43   -34059.884    2493.4161     -36553.3    91.203715    234.50783 
   21250    136.27845   -278.59552    127405.01   -34032.104    2570.1551   -36602.259    91.374588     241.7252 
   21300    132.38123   -192.87138    127343.17   -34038.034    2496.6551   -36534.689    91.483125    234.81246 
   21350    133.85312   -361.26496    127311.16   -34066.384    2524.4143   -36590.798    91.891182    237.42324 
   21400    135.04328     -422.271    127288.61   -34070.271    2546.8603   -36617.131    92.138449     239.5343 
   21450    134.81639   -68.782611    127260.98    -34085.59    2542.5811   -36628.171    92.253887    239.13184 
   21500    131.32053   -98.163634    127203.88   -34125.125    2476.6507   -36601.776    92.201455    232.93103 
   21550    136.26416   -161.24981    127145.41   -34065.984    2569.8855   -36635.869      92.3607    241.69984 
   21600      135.366   -315.65791    127100.61   -34048.314    2552.9467    -36601.26    92.696017    240.10673 
   21650    135.09461   -313.34603    127021.61    -34088.18    2547.8283   -36636.008    92.853385    239.62534 
   21700    137.63689   -291.61549    127004.12   -34090.374    2595.7746   -36686.149    93.149862    244.13473 
   21750    133.95959   -411.90859    127006.43    -34076.52    2526.4224   -36602.942    93.426829     237.6121 
   21800    135.83496   -226.01159    127021.65   -34062.869     2561.791    -36624.66    93.668198    240.93854 
   21850    133.75234   -149.79679    127037.18   -34079.223    2522.5136   -36601.737    93.934224    237.24448 
   21900    132.35175   -145.00308    127070.02   -34129.731    2496.0991   -36625.831    94.070409    234.76017 
   21950    132.85931   -329.70857       127118   -34127.978    2505.6714   -36633.649      94.5217    235.66045 
   22000    134.70884   -103.61224    127189.99   -34128.206    2540.5529   -36668.759    94.788761    238.94108 
   22050    132.69336   -419.73555    127217.56   -34139.158    2502.5416     -36641.7    94.859709    235.36609 
   22100     137.1741   0.87963984    127208.95   -34074.302    2587.0466   -36661.349    95.001286    243.31386 
   22150    132.51492   -57.143525    127273.66   -34052.146    2499.1765   -36551.322    95.213531     235.0496 
   22200    133.87169   -388.53099    127264.54   -34094.742    2524.7645   -36619.506    95.479627    237.45617 
   22250    133.44762   -438.94233    127249.85   -34084.875    2516.7667   -36601.641    95.411732    236.70397 
   22300     133.1371   -9.8284224    127361.81    -34033.64    2510.9104    -36544.55    95.826013    236.15319 
   22350    133.45164   -195.25302    127502.61   -34064.064    2516.8427   -36580.906      96.2431    236.71112 
   22400    135.69285   -471.05854    127483.98   -34056.037    2559.1109   -36615.148    96.466872    240.68648 
   22450    137.03278   -141.81167    127516.87   -34023.446    2584.3814   -36607.827    96.446928    243.06319 
   22500     134.0246   -158.05171    127532.02   -34013.489    2527.6484   -36541.137    96.540268    237.72741 
   22550    135.68643   -169.43211     127485.8   -33991.316    2558.9899   -36550.306    96.747475     240.6751 
   22600    138.07499   -284.71708    127476.42   -33956.519    2604.0371   -36560.556    96.861393    244.91183 
   22650    134.36695   -88.413071    127511.88   -34000.036    2534.1049   -36534.141    96.890098    238.33465 
   22700     138.3406   -258.93385    127577.43   -33996.531    2609.0463   -36605.577    96.947991    245.38295 
   22750    135.18227   -125.02715    127646.16   -33959.114    2549.4815   -36508.595    97.230972    239.78083 
   22800    135.46265   -315.39105    127592.41   -33983.324    2554.7694   -36538.093     97.26245    240.27816 
   22850    134.97166   -369.10313    127593.85   -33979.493    2545.5095   -36525.003    97.562614    239.40726 
   22900    136.52372   -314.42575    127705.82   -33995.733    2574.7808   -36570.513    97.852913    242.16024 
   22950    136.46055   -37.867341    127706.14   -33912.551    2573.5894    -36486.14    97.890594     242.0482 
   23000    137.08704   -153.72991    127763.51   -33955.346    2585.4048   -36540.751    97.985271    243.15944 
   23050    134.62322   -31.487752    127822.37   -33946.661    2538.9382   -36485.599    98.318188    238.78922 
   23100    136.03432   -327.65532    127922.65   -33961.219    2565.5509    -36526.77    98.746959    241.29216 
   23150    139.03083   -356.34981    127880.96     -33964.9    2622.0638   -36586.964     99.09455    246.60725 
   23200    136.74955    148.43971    127912.89   -33989.056    2579.0398   -36568.095    98.910296    242.56081 
   23250    134.64141    -276.7598    127954.13   -34014.904    2539.2812   -36554.185    99.072488    238.82148 
   23300    135.87442   -363.56743    127962.75   -34036.611    2562.5352   -36599.146    99.385412    241.00854 
   23350    135.18868   -112.02674    128035.04   -34039.307    2549.6023   -36588.909    99.567141    239.79219 
   23400     136.0927   -303.97853       128059   -33978.421    2566.6518   -36545.073    100.01224    241.39571 
   23450    136.68302   -245.59813    128018.23   -34012.932    2577.7851   -36590.717    100.09134     242.4428 
   23500    134.03705   -182.80463    128040.65   -34040.578    2527.8833   -36568.462    100.43732    237.74949 
   23550    136.61613   -518.77694    128084.49   -34042.872    2576.5235   -36619.395    100.63109    242.32415 
   23600    133.42334   -274.09042    128087.16   -34042.588    2516.3088   -36558.897    100.63108    236.66091 
   23650    135.76753   -345.16864    128137.12   -34064.618    2560.5193   -36625.138    101.10241    240.81894 
   23700    133.57826   -292.97681       128128   -34048.174    2519.2306   -36567.404    101.42324    236.93571 
   23750      136.302   -210.67312       128131   -34000.597    2570.5992   -36571.196    101.51676    241.76696 
   23800    135.16359   -468.29202     128193.8    -34000.19    2549.1292   -36549.319    101.87621    239.74769 
   23850    136.36481   -142.15584    128113.22    -34033.79    2571.7837   -36605.574     101.9132    241.87836 
   23900    136.16754   -301.38494    128082.68   -34013.701    2568.0633   -36581.764    101.96353    241.52846 
   23950    137.23343   -112.45938    128075.53   -33974.115    2588.1656    -36562.28     102.0514     243.4191 
   24000     137.0133   -420.02832    128076.24   -33952.975    2584.0139   -36536.989    102.34611    243.02863 
   24050    134.48523   -273.47091    128137.86   -33996.807    2536.3356   -36533.143    102.86573    238.54445 
   24100     135.3088   -144.20313    128164.64   -34022.264    2551.8678   -36574.132    103.02947    240.00526 
   24150    135.88155   -523.31086    128142.16   -34020.324    2562.6696   -36582.993    103.23346    241.02118 
   24200    132.76692   -208.84889    128119.89   -34040.671     2503.929     -36544.6    103.06281    235.49657 
   24250    134.48363   -338.94836    128115.52   -34061.732    2536.3054   -36598.037     103.3257    238.54161 
   24300    133.14935   -521.51196    127986.78   -34052.198    2511.1414    -36563.34    103.36042    236.17491 
   24350    132.16135   -353.12229    127932.96   -34101.163    2492.5082   -36593.672    103.61564    234.42244 
   24400    134.53705    -256.9068    127939.06   -34096.918     2537.313   -36634.231     103.5867    238.63637 
   24450     134.8893   -471.86059    127981.84   -34101.459    2543.9563   -36645.416    103.75747    239.26118 
   24500    132.75689   -527.77873    127986.49   -34142.349      2503.74   -36646.089    103.65563     235.4788 
   24550    131.47799   -442.40294    127902.92   -34184.312    2479.6203   -36663.932    103.80628    233.21032 
   24600    132.42813   -270.42554     127876.2   -34108.879    2497.5395   -36606.419    103.97324    234.89564 
   24650    132.98017   -743.47119    127822.28    -34098.53    2507.9509   -36606.481    104.09327    235.87484 
   24700    131.09457    -373.5137       127787   -34081.309    2472.3891   -36553.698    104.29246    232.53023 
   24750    131.68201   -382.80289    127808.95   -34134.007    2483.4681   -36617.475     104.5154    233.57221 
   24800    133.28918   -65.626828    127717.48   -34122.404    2513.7787   -36636.183    104.85885    236.42295 
   24850    133.52907   -381.25683    127724.45   -34105.169    2518.3028   -36623.472    105.13011    236.84845 
   24900    135.94814   -540.74285    127537.17    -34114.42    2563.9255   -36678.346    105.17044     241.1393 
   24950    134.94596    -369.7843    127492.62   -34109.917    2545.0249   -36654.942    105.17664    239.36168 
   25000     132.5639    -311.9115    127487.01   -34098.219    2500.1001   -36598.319    105.24625    235.13647 
   25050    133.20179   -214.30212    127502.23   -34070.735    2512.1306   -36582.866    105.47952    236.26794 
   25100     132.8535   -495.95162    127399.73   -34111.359    2505.5618   -36616.921    105.48021    235.65015 
   25150    134.06765   -219.54753    127306.18   -34088.295    2528.4603   -36616.755    105.21977    237.80377 
   25200     134.8846   -360.33716    127320.66   -34092.274    2543.8676   -36636.141    105.60731    239.25284 
   25250    134.14187    43.616345    127325.51   -34120.178    2529.8601   -36650.038    106.00981    237.93542 
   25300    134.47671    -115.1105     127489.4   -34146.245     2536.175    -36682.42    106.48469    238.52934 
   25350    133.99104   -298.68726    127570.89   -34083.753    2527.0154   -36610.768    106.70582    237.66787 
   25400     134.3753    -369.1651    127622.64   -34050.417    2534.2624    -36584.68    106.76283    238.34946 
   25450    131.28618   -73.777125    127622.42   -34045.062    2476.0029   -36521.065    106.89727     232.8701 
   25500    136.24067   -151.67311    127688.06   -34058.721    2569.4426   -36628.164    107.19661    241.65819 
   25550    134.12412   -237.51353    127655.82    -34077.69    2529.5252   -36607.215    107.15151    237.90392 
   25600    132.87378   -307.35681    127536.03    -34105.69    2505.9443   -36611.635    107.09413    235.68612 
   25650    133.25494     96.56728    127623.29   -34099.354    2513.1328   -36612.487    107.26718     236.3622 
   25700    132.23539   -258.57728    127599.96   -34153.412    2493.9046   -36647.316     107.5803    234.55377 
   25750    133.22275   -200.07519     127576.9   -34121.042    2512.5258   -36633.568    107.59821    236.30512 
   25800    134.40864   -370.82689    127504.66   -34068.864    2534.8912   -36603.755    107.76126     238.4086 
   25850    137.95013   -52.415744    127464.45   -34090.662    2601.6823   -36692.344    107.84348    244.69035 
   25900    133.69975    64.147565    127601.32   -34089.828    2521.5218   -36611.349    108.16624     237.1512 
   25950    135.28048   -236.08656    127740.53   -34100.067    2551.3338   -36651.401    108.53644    239.95504 
   26000    134.58843     -445.556    127757.36   -34034.298    2538.2819    -36572.58    108.84406     238.7275 
   26050    135.42326   -326.15974    127681.78   -34002.862    2554.0265   -36556.888    108.84784    240.20828 
   26100    135.16687   -298.54086    127735.97   -34001.998     2549.191   -36551.189    109.27958    239.75351 
   26150    131.67507   -287.83639    127871.78   -33987.692    2483.3372    -36471.03     109.9487     233.5599 
   26200    136.51742   -250.22373    127990.79   -33969.311    2574.6619   -36543.973    110.09495    242.14906 
   26250    138.67636   -322.65905    128025.53   -33938.102    2615.3786   -36553.481    110.01844     245.9785 
   26300    135.32291   -307.98498    128064.33   -33978.871     2552.134   -36531.005      110.017    240.03029 
   26350    139.30011    -189.7375    128003.45   -33964.834    2627.1423   -36591.976    110.06283    247.08489 
   26400    135.20904   -259.08958    128019.73   -33982.758    2549.9865   -36532.744    110.38842    239.82832 
   26450      139.376   -271.25821     128062.9   -33992.081    2628.5736   -36620.655    110.31517    247.21951 
   26500    133.84882   -178.21653    128137.26   -34051.765    2524.3332   -36576.098    110.61057    237.41561 
   26550     135.5047   -231.76911    128092.69   -34053.898    2555.5625    -36609.46    110.99941    240.35275 
   26600    135.86582    135.54662    128066.64    -34011.65    2562.3731   -36574.023    111.19478    240.99329 
   26650    134.13436   -185.20197    128073.93   -34039.116    2529.7184   -36568.834    111.36825    237.92209 
   26700    136.25161   -221.12193    128099.85   -34031.334    2569.6489   -36600.983    111.92997    241.67759 
   26750    135.72453   -268.35329    128097.75   -34027.397    2559.7083   -36587.106    112.31277    240.74266 
   26800    140.06198   -107.86604    128049.99   -33989.771    2641.5109   -36631.282    112.38391    248.43627 
   26850    135.78914   -209.21819    128101.37   -34000.876    2560.9268   -36561.803    112.50212    240.85727 
   26900    134.85113   -349.88655     128165.9   -34048.492    2543.2364   -36591.728    112.57334    239.19347 
   26950    134.39713   -448.07674    128150.57   -34066.178    2534.6741   -36600.852    113.19685    238.38818 
   27000    137.49514   -268.82705    128102.69   -33954.514    2593.1013   -36547.615    113.34655    243.88331 
   27050    137.17848    -377.6483    128114.03    -33945.13    2587.1293   -36532.259    113.93987    243.32163 
   27100    138.75031   -511.29039       128089   -33916.013    2616.7733   -36532.786    114.08341    246.10968 
   27150    137.51999   -418.03838    128002.37   -33961.665    2593.5699   -36555.235    114.37967    243.92738 
   27200    135.99981   -165.05993    127994.62   -33989.502    2564.8999   -36554.402    114.53134    241.23094 
   27250    136.62188     -251.313    127868.38   -34033.014     2576.632   -36609.646    114.59669    242.33435 
   27300    137.17363   -347.60282    127813.48   -34038.433    2587.0377   -36625.471    114.88035    243.31302 
   27350    135.80501   -16.128354    127847.96   -34069.812    2561.2261   -36631.038    115.14956    240.88542 
   27400    132.84436   -74.315494    127925.45   -34092.758    2505.3895   -36598.148    115.19054    235.63394 
   27450    135.03308   -171.94211    127933.14   -34096.061    2546.6679   -36642.729    115.11571     239.5162 
   27500    135.13436   -197.64273    127901.73   -34137.815    2548.5779   -36686.393    115.29091    239.69584 
   27550    132.85827   -436.48949    127904.28   -34135.045    2505.6519   -36640.697    115.30384    235.65862 
   27600    132.94589   -155.73516    127934.52   -34136.141    2507.3043   -36643.445    115.79259    235.81403 
   27650    132.27081   -240.23817    127952.89   -34125.943    2494.5725   -36620.515    115.78828    234.61659 
   27700    135.22999   -298.69766     127926.2   -34110.513    2550.3816   -36660.895    115.83254    239.86548 
   27750     133.9785    16.991676     127936.8   -34098.939     2526.779   -36625.718     115.9118    237.64564 
   27800    131.28824   -93.831548    127978.29   -34086.254    2476.0417   -36562.295      116.079    232.87375 
   27850    134.32631   -542.69082    127902.02    -34088.96    2533.3385   -36622.299    116.49617    238.26257 
   27900    136.21263   -345.58005    127885.91   -34052.516    2568.9137    -36621.43    116.33781    241.60844 
   27950    136.73247   -385.64979    127787.54    -33998.72    2578.7177   -36577.437    116.27139    242.53051 
   28000    134.33127   -262.61812    127802.63   -34081.601     2533.432   -36615.033    116.60714    238.27136 
   28050    133.98124   -348.57047    127869.97   -34055.475    2526.8307   -36582.305    117.12613     237.6505 
   28100    134.42187   -230.51954     127896.4    -34090.28    2535.1408   -36625.421    117.20047    238.43207 
   28150    134.36441   -83.354735    127936.46   -34078.977    2534.0571   -36613.034    117.08884    238.33015 
   28200    135.00089     8.388059    127980.92   -34036.692    2546.0609   -36582.753    117.34733    239.45911 
   28250    133.36366    -201.3282    128002.53   -34062.611    2515.1833   -36577.794    117.20162    236.55506 
   28300    134.92608   -488.98252    127957.18   -34041.704    2544.6498   -36586.354    117.53492     239.3264 
   28350    135.70108   -376.26912    127900.18   -34090.303     2559.266   -36649.569    117.75854    240.70107 
   28400    135.94581   -420.01645    127754.19   -34102.078    2563.8816    -36665.96    117.81678    241.13517 
   28450    136.19726   -295.40571    127718.08   -34090.307    2568.6238   -36658.931    117.55624    241.58118 
   28500    134.84929   -178.32221    127663.57     -34034.4    2543.2017   -36577.602    117.80624    239.19021 
   28550    135.06734   -426.35634    127716.69   -34051.592     2547.314   -36598.906    117.96686    239.57698 
   28600    131.93725   -393.85348    127715.12   -34059.858    2488.2817    -36548.14    118.03629    234.02494 
   28650     133.6008   -151.49434    127684.03   -34105.159    2519.6557   -36624.815     117.9215    236.97569 
   28700    133.52527   -385.96109    127758.11   -34116.078    2518.2311   -36634.309    118.15008     236.8417 
   28750    135.18201   -333.69011    127780.68   -34102.636    2549.4767   -36652.113    118.32639    239.78038 
   28800     135.8214   -337.63253    127729.31   -34041.855    2561.5353    -36603.39    118.41015     240.9145 
   28850    132.47055   -361.10431    127744.48   -34047.631    2498.3396    -36545.97    118.85024    234.97088 
   28900    133.73478   -261.65723    127770.72   -34034.928    2522.1824    -36557.11    119.29165    237.21333 
   28950    137.02708   -455.34951    127831.06   -34023.997    2584.2738   -36608.271    119.59853    243.05307 
   29000    136.60939   -409.97789    127830.65   -34034.708    2576.3964   -36611.105    119.78517     242.3122 
   29050    134.83316   -317.41054    127826.38   -34043.592    2542.8974    -36586.49     119.9807    239.16159 
   29100    134.56995    -283.1458    127838.66   -34016.799    2537.9335   -36554.732    120.34595    238.69473 
   29150    134.03687    -38.45061    127808.98   -33989.808    2527.8798   -36517.688    120.59612    237.74917 
   29200    138.02915    -401.1272    127816.99   -33968.836    2603.1726   -36572.008    120.48767    244.83052 
   29250    136.17407   -335.28115     127813.5    -34015.76    2568.1864   -36583.946    120.77102    241.54004 
   29300    136.01517   -437.80374     127822.4   -34043.943    2565.1896   -36609.133    120.93837    241.25819 
   29350    133.22387   -293.59384    127770.52   -34044.848    2512.5469   -36557.395    121.10303    236.30709 
   29400    134.33979   -168.12021     127741.3   -34083.476    2533.5926   -36617.069    121.14337    238.28647 
   29450    131.76308   -369.98454    127734.04   -34143.021     2484.997   -36628.018    121.30675      233.716 
   29500    130.10379    -353.4809    127694.87   -34143.953    2453.7035   -36597.656    121.19837    230.77283 
   29550      133.794   -95.946481    127743.15   -34129.131    2523.2993    -36652.43    121.60168    237.31837 
   29600    133.30744   -90.063905    127775.18   -34131.087     2514.123    -36645.21    121.39111    236.45533 
   29650    134.14139   -89.328971    127729.93   -34137.087    2529.8509   -36666.938    121.36163    237.93455 
   29700    135.41424   -155.84887    127689.58   -34152.424    2553.8564    -36706.28    121.63999    240.19229 
   29750    132.20819   -303.14276    127714.13   -34155.252    2493.3917   -36648.643    121.93131    234.50553 
   29800    135.90238   -383.39795    127699.94   -34131.707    2563.0625   -36694.769    122.29457    241.05814 
   29850    135.77148   -338.91532    127730.61    -34097.14    2560.5938   -36657.734    122.42592    240.82595 
   29900    136.99296   -313.27342    127729.77   -34029.994    2583.6304   -36613.625    122.44804    242.99256 
   29950    133.81838   -473.24445    127667.52   -34043.345    2523.7592   -36567.104    122.95679    237.36162 
   30000     135.5087   -16.065575     127609.3   -34018.567    2555.6378   -36574.205    123.00754    240.35983 
   30050    133.55984   -126.95954    127741.71   -34049.066    2518.8832   -36567.949     123.3986    236.90304 
   30100    136.39866   -101.94958     127740.9   -34026.314    2572.4222   -36598.737    123.44756    241.93842 
   30150    137.37751   -182.48957    127671.53   -33990.365    2590.8829   -36581.248    124.08692    243.67466 
   30200    133.56168   -325.68929    127792.32   -34007.315     2518.918   -36526.233    124.20806     236.9063 
   30250    136.17854   -295.17887    127834.08   -33975.011    2568.2707   -36543.282    124.39037    241.54797 
   30300    134.85042   -591.58622    127758.25   -33958.421     2543.223   -36501.644    124.60055    239.19221 
   30350    137.61706   -245.59776    127726.06   -34003.188    2595.4006   -36598.589    125.12436    244.09956 
   30400    138.63343   -415.87773    127738.49   -33955.051     2614.569    -36569.62    125.22957    245.90236 
   30450    140.77383    -124.5184    127771.54   -33931.445    2654.9361   -36586.381    125.37798    249.69892 
   30500    141.30169   -247.73401    127815.31    -33910.71    2664.8912   -36575.602    125.39541    250.63521 
   30550    137.13045    -592.6284    127698.69   -33897.728    2586.2233   -36483.952    125.48436    243.23643 
   30600     137.8646   -458.77983    127675.62    -33983.33    2600.0691   -36583.399    126.04617    244.53863 
   30650    134.57335   -389.51046    127679.72   -34062.596    2537.9976   -36600.593    126.23936    238.70076 
   30700    134.25336   -209.33614    127599.94   -34087.154    2531.9626   -36619.116    126.32357    238.13316 
   30750     134.7694   -344.82276    127533.88   -34038.211    2541.6951   -36579.907    126.43076    239.04851 
   30800     136.3326   -107.02524    127548.52   -34054.262    2571.1763   -36625.438    126.27785    241.82124 
   30850    131.38858   -77.833954    127578.41   -34097.934     2477.934   -36575.868    126.38322    233.05173 
   30900    135.40399    -116.4025    127589.43    -34051.51    2553.6631   -36605.173    126.30571    240.17411 
   30950    135.37386   -132.28972    127539.57   -34059.788    2553.0948   -36612.883    126.49707    240.12066 
   31000    137.79257   -282.06035    127483.69   -33986.952    2598.7108   -36585.663    126.77681    244.41088 
   31050     135.8587   -409.43592    127479.07   -34025.907    2562.2387   -36588.146    127.10783    240.98065 
   31100     135.6182   -523.50372    127443.98   -34040.457    2557.7031    -36598.16    127.44651    240.55407 
   31150    131.88127   -209.43427    127339.92   -34066.104     2487.226    -36553.33    127.41125    233.92565 
   31200    135.98156   -369.01236    127360.81   -34014.358    2564.5558   -36578.914    127.78616    241.19858 
   31250    137.67698   -317.66707    127408.33   -34050.828    2596.5308   -36647.359    128.33126    244.20585 
   31300    133.67896   -175.12336    127401.18   -34101.075    2521.1297   -36622.205    128.68327    237.11432 
   31350    135.99852   -50.509649    127468.66   -34085.547    2564.8758   -36650.423     129.2417    241.22867 
   31400    135.99912   -139.86857    127500.13   -34000.729     2564.887   -36565.616    129.82998    241.22972 
   31450    133.10205   -241.97636    127504.95   -33979.913    2510.2494   -36490.163    130.22581    236.09101 
   31500    134.12312   -172.86641    127440.93   -34026.793    2529.5064   -36556.299    130.55532    237.90215 
   31550    134.84062   -224.12924    127430.85   -34015.824    2543.0382   -36558.862    130.79874    239.17483 
   31600    134.00239   -213.61151    127395.81   -34025.052    2527.2295   -36552.281    130.87823    237.68801 
   31650    133.70788   -134.66749    127429.67   -34040.416    2521.6752   -36562.091    131.14989    237.16562 
   31700    135.02001   -71.200146    127482.52   -34041.298    2546.4214   -36587.719    131.22002    239.49302 
   31750    134.39569   -92.415116     127476.3   -34063.585     2534.647   -36598.232    131.36794    238.38563 
   31800    134.30996   -257.14578    127496.94   -34017.448    2533.0301   -36550.479    131.39174    238.23356 
   31850     133.4426   -177.81625    127455.04   -34064.162    2516.6721   -36580.834    131.42121    236.69508 
   31900    135.63398   -269.13212    127404.11   -34096.474    2558.0007   -36654.475    131.81098    240.58206 
   31950    133.35329   -330.43986    127477.99   -34090.694    2514.9877   -36605.682    131.85691    236.53666 
   32000    132.73475   -381.15769    127489.86   -34114.878    2503.3222     -36618.2    132.00875    235.43951 
   32050    133.11263   -439.45131    127498.74   -34065.268     2510.449   -36575.717    132.10348    236.10979 
   32100    134.33009   -285.17048    127502.41   -34040.347    2533.4097   -36573.757    132.64762    238.26926 
   32150    135.00093    -71.01388    127454.13   -34067.826    2546.0615   -36613.887    132.84461    239.45918 
   32200    139.80936   -250.50049    127575.28   -34017.244    2636.7465    -36653.99    133.13186    247.98817 
   32250    135.07266   -354.12938    127660.78   -34031.493    2547.4143   -36578.907    133.53021    239.58641 
   32300    134.22959   -192.51361    127734.53   -33985.139    2531.5143   -36516.653    133.86785      238.091 
   32350    137.15395   -381.81723    127833.12   -34010.036    2586.6666   -36596.703    134.27284    243.27812 
   32400    134.83087   -268.39873    127840.21   -34042.606    2542.8544    -36585.46     134.4129    239.15754 
   32450     134.7867   -365.23826    127862.28   -33989.813    2542.0212   -36531.834    134.50182    239.07918 
   32500    137.56808   -524.87212    127793.82   -34004.915    2594.4769   -36599.392    134.48394    244.01268 
   32550    138.04645    -345.3457    127719.58   -33975.889    2603.4989   -36579.388    134.65026     244.8612 
   32600    136.77047   -484.45026    127666.02   -34018.248    2579.4343   -36597.682    135.03044    242.59791 
   32650    136.70036   -343.52572    127647.33   -34049.134    2578.1121   -36627.246    135.05193    242.47356 
   32700    135.15916   -121.42409    127769.14   -34097.783    2549.0456   -36646.829    135.55617    239.73983 
   32750    136.14437   -548.29224    127869.64   -34073.146    2567.6264   -36640.772    136.17709    241.48737 
   32800    135.23077   -395.93819    127919.01   -34044.084    2550.3963    -36594.48    136.15826    239.86686 
   32850    136.21513   -499.84159    127875.87   -34027.952    2568.9609   -36596.913    136.48326    241.61288 
   32900    139.51809   -258.82257     127871.3   -33986.776    2631.2533   -36618.029    136.67758    247.47153 
   32950    134.95187   -199.57252     127913.7   -34015.731    2545.1363   -36560.867    136.92705    239.37216 
   33000     137.8222   -148.69493    127855.42     -34023.2    2599.2695    -36622.47     137.0998    244.46343 
   33050    133.98969   -49.454049    127874.71   -34040.675    2526.9899   -36567.665    137.53408    237.66548 
   33100    134.92219   -170.54429    127860.27   -34066.315    2544.5766   -36610.892     137.6924    239.31952 
   33150    137.38881   -90.493314    127901.78    -34103.01     2591.096   -36694.106    138.11108    243.69471 
   33200    136.53483    -215.2916    127953.99   -34115.243    2574.9903   -36690.233    138.53755    242.17995 
   33250    137.00172   -65.972718    127913.24   -34113.947    2583.7956   -36697.742    138.72585     243.0081 
   33300    136.89078   -293.44255    127930.23   -34101.244    2581.7034   -36682.948    139.02475    242.81132 
   33350    133.04001   -75.415594    127850.73   -34153.571    2509.0794    -36662.65     138.9884    235.98097 
   33400    133.56659   -106.43748    127811.33   -34105.906    2519.0105   -36624.916    139.22887      236.915 
   33450    132.95152   -290.18275    127855.55   -34124.659    2507.4106    -36632.07    139.43526    235.82402 
   33500    132.32993   -95.197271     127865.6   -34117.215    2495.6876   -36612.902    139.28938    234.72146 
   33550    133.80925    -241.2355    127807.73   -34132.987    2523.5869   -36656.574    139.55554    237.34542 
   33600    131.37539   -148.20576    127850.03   -34123.095    2477.6854    -36600.78    139.59833    233.02834 
   33650    134.67418    -325.5713     127793.7   -34061.795    2539.8991   -36601.694    139.56399     238.8796 
   33700    133.04498   -151.97203    127746.25   -34097.818    2509.1731   -36606.992    139.75132    235.98979 
   33750    134.60031   -222.18576    127726.01   -34057.605    2538.5059   -36596.111    139.76494    238.74857 
   33800    134.87145   -285.64507    127715.22   -34075.046    2543.6196   -36618.665    139.99037    239.22951 
   33850    135.93492    27.843517    127785.66   -34027.977    2563.6763   -36591.654    140.42594    241.11586 
   33900    137.36633   -275.90566     127799.4   -34006.454     2590.672   -36597.126    140.67158    243.65483 
   33950    137.67283   -296.39352    127828.61   -34053.235    2596.4524   -36649.688    140.61943    244.19848 
[...]
   92000    134.83197     113.7092    127050.42   -34014.302     2542.875   -36557.177     382.5291    239.15948 
   92050    132.93763   -50.126344    127169.13   -34009.447    2507.1486   -36516.596    382.62733    235.79938 
   92100    136.73871   -108.19195    127231.13   -33971.615    2578.8353    -36550.45    382.76947    242.54157 
   92150    135.18761   -344.10207    127175.25   -33977.231    2549.5823   -36526.814    382.90169    239.79031 
   92200     138.1805   -12.292623    127181.21     -33929.1    2606.0269   -36535.127    382.96023    245.09896 
   92250    137.71376    74.440357    127284.81   -33948.944    2597.2243   -36546.168    383.06574    244.27108 
   92300     136.2225   -354.80268     127281.6    -33989.14    2569.0999   -36558.239    382.96266    241.62595 
   92350    135.50403   -365.74114    127271.26   -33975.392    2555.5499   -36530.942      383.462    240.35156 
   92400    137.08743   -241.53496    127185.22   -33994.258    2585.4121    -36579.67    383.35653    243.16013 
   92450    135.79929   -339.90716    127202.11   -34029.222    2561.1182    -36590.34    383.75553    240.87527 
   92500    135.59124   -476.34002     127115.2    -34080.48    2557.1945   -36637.674    383.89391    240.50624 
   92550    135.02345   -458.34053    127061.77   -34048.232    2546.4862   -36594.719    383.88492    239.49912 
   92600    137.19729   -618.58746    127029.96    -33997.84     2587.484   -36585.324    383.93303      243.355 
   92650    138.72102   -369.44579    126989.24   -34008.369     2616.221    -36624.59    383.98041    246.05773 
   92700    133.21524   -551.56785    126957.01   -34044.038    2512.3842   -36556.422    384.49903     236.2918 
   92750    135.16303    -121.4758    126960.92   -34016.058    2549.1186   -36565.176    385.14157    239.74669 
   92800    136.49836   -79.017225    127080.38   -33982.159    2574.3024   -36556.462    385.70069    242.11526 
   92850    137.66771   -367.14277    127107.36   -33947.208    2596.3559   -36543.564    386.13851     244.1894 
   92900    134.75259   -459.11193    127104.91   -33992.952    2541.3779    -36534.33    386.61298    239.01868 
   92950    137.57841   -265.12319    127115.48    -34030.66    2594.6717   -36625.331    386.90657      244.031 
   93000    134.01214    -411.8454    127072.64   -34037.152    2527.4134   -36564.565    387.33959     237.7053 
   93050    133.48429   -417.28274    127023.87   -34000.445    2517.4584   -36517.903    387.24485    236.76903 
   93100    133.92219   -250.78307    127023.75   -33996.468    2525.7169   -36522.185    387.67781    237.54574 
   93150     132.9606   -503.43681    126937.49   -33985.497    2507.5818   -36493.079    387.89073    235.84013 
   93200    134.13831   -376.46571     126931.5    -33989.27    2529.7928   -36519.063     387.9368    237.92909 
   93250    133.26214   -321.23982    126990.99   -34019.824    2513.2687   -36533.092    388.28878    236.37498 
   93300    132.32998   -216.33241    127063.11   -34000.192    2495.6885   -36495.881    388.69944    234.72155 
   93350    134.80354   -93.596736    127050.93   -34018.551    2542.3389    -36560.89    388.94519    239.10906 
   93400    133.27449   -319.12504    126990.51   -34006.297    2513.5017   -36519.798    389.30353    236.39689 
   93450    134.62966   -109.94927    127064.77   -34001.079    2539.0595   -36540.138    389.80244    238.80063 
   93500    133.20344   -132.85589    127090.77   -34077.537    2512.1616   -36589.698    389.82646    236.27086 
   93550    136.25414   -72.717682    127097.28   -34014.297    2569.6965   -36583.993    389.74298    241.68207 
   93600    134.39398    -357.6581    127044.82   -33951.744    2534.6147   -36486.359    389.94696    238.38259 
   93650    135.05345   -176.71375     127030.4   -33948.201    2547.0521   -36495.253    390.32805    239.55234 
   93700    137.67118   -63.326774    127028.89   -33908.153    2596.4213   -36504.574    390.54521    244.19556 
   93750    136.23255   -234.40282    127079.55   -33932.721    2569.2893   -36502.011    390.89025    241.64377 
   93800    138.67824   -324.01243    127055.88   -33930.784     2615.414   -36546.198    391.35743    245.98183 
   93850    137.91699   -296.59755    127058.04   -33885.394    2601.0572   -36486.452    391.86585    244.63156 
   93900    136.09962   -175.94597    127076.46   -33934.185    2566.7824   -36500.968    392.20386    241.40799 
   93950     135.7484    -322.6633    127017.19   -33955.379    2560.1585   -36515.538    392.01947    240.78501 
   94000    134.06934   -488.54419    126983.08    -33968.53    2528.4922   -36497.022    392.56916    237.80677 
   94050    137.93007   -418.86813    126903.77   -33939.739    2601.3039   -36541.043     393.1674    244.65476 
   94100    135.90568   -260.66785    126923.75   -33994.813    2563.1247   -36557.938    393.62082    241.06399 
   94150    132.84649   -330.11109    126847.07   -34017.668    2505.4297   -36523.098    393.98838    235.63772 
   94200    130.88304    62.673028    126882.65   -34018.696    2468.3997   -36487.096    394.26593    232.15502 
   94250    135.84941   -175.49802    126916.91   -33962.722    2562.0636   -36524.786    394.58409    240.96418 
   94300    136.73263     -134.453    126956.92   -33969.198    2578.7207   -36547.919    394.67716     242.5308 
   94350    138.99397   -237.17428    126949.32    -34035.02    2621.3686   -36656.389    394.88087    246.54186 
   94400    136.15235   -231.25867    126990.43   -34028.985    2567.7768   -36596.762    395.30507    241.50152 
   94450    134.62094   -386.28546    127011.51   -34033.114    2538.8951   -36572.009    395.85255    238.78516 
   94500     135.2517   -245.48816    126990.38   -34007.214     2550.791   -36558.005    396.24987    239.90399 
   94550    134.00664   -253.14259    127001.72   -33974.189    2527.3097   -36501.498    396.26867    237.69555 
   94600    135.95176   -311.55912    126922.07   -33972.927    2563.9938   -36536.921    396.18581    241.14572 
   94650    135.92647   -187.37862    126958.33   -33982.968    2563.5169   -36546.485     396.2444    241.10087 
   94700    136.27302     -173.133    127033.65   -34006.524    2570.0525   -36576.577    397.07111    241.71555 
   94750    136.21832    -122.2009    127151.89   -33982.085    2569.0211   -36551.106    397.35621    241.61854 
   94800    135.50518   -233.45185    127242.19   -34006.558    2555.5715   -36562.129    397.85244    240.35359 
   94850    130.41946   -158.95045    127264.18   -34001.278    2459.6569   -36460.935    398.12342    231.33275 
   94900    135.90206   -382.33999    127326.63   -34000.581    2563.0566   -36563.638    397.79562    241.05757 
   94950    136.14792   -351.42366    127333.55   -33985.312    2567.6932   -36553.005    398.13169    241.49366 
   95000    136.24685   -303.77244    127307.57   -33988.225    2569.5591   -36557.784    398.71481    241.66914 
   95050    136.11659    37.391369    127357.33   -34011.278    2567.1024    -36578.38    398.82456    241.43808 
   95100    134.94064    65.513882    127492.85   -33982.548    2544.9245   -36527.473    398.74076    239.35224 
   95150      131.978   -297.74488    127513.14   -33983.207    2489.0503   -36472.257    398.98624    234.09723 
   95200    133.23595   -119.50273    127573.07   -33985.583    2512.7747   -36498.358    399.09577    236.32852 
   95250    133.75216   -368.43095    127520.94   -33984.674    2522.5103   -36507.185    399.35439    237.24417 
   95300    133.14554   -86.742001    127508.73   -33980.523    2511.0696   -36491.592    399.70334    236.16816 
   95350    137.95106   -387.50442    127566.04   -33940.995    2601.6998   -36542.695    400.15291      244.692 
   95400    136.52174   -213.55167    127480.71    -33992.04    2574.7434   -36566.783    400.26302    242.15673 
   95450    134.35507   -154.95042    127397.71    -34021.88    2533.8808   -36555.761    400.67614    238.31357 
   95500    136.28051      -246.07    127397.65   -33971.439    2570.1939   -36541.633    401.13401    241.72885 
   95550    134.69483   -405.35611    127431.96   -33941.973    2540.2885   -36482.261    401.70933    238.91622 
   95600    136.02005   -413.60074    127369.88   -33934.454    2565.2817   -36499.736    402.01913    241.26685 
   95650    132.90443   -159.96535    127409.16   -33955.243    2506.5224   -36461.765    402.36625    235.74049 
   95700    135.39634   -333.02349    127435.93   -34025.979    2553.5189   -36579.498    402.89463    240.16054 
   95750    132.32906   -215.74862    127463.04   -34022.298    2495.6711   -36517.969     403.3572    234.71991 
   95800    133.33965   -338.66972    127586.04   -34083.968    2514.7305   -36598.698    404.10708    236.51247 
   95850    132.34904   -27.927919    127659.12   -34089.827     2496.048   -36585.875    403.76569    234.75536 
   95900    135.88331   -484.29815    127672.74   -34047.507    2562.7029   -36610.209    404.10824    241.02431 
   95950    135.99643   -480.41462    127698.54   -34031.267    2564.8363   -36596.103    403.88556    241.22496 
   96000    136.02241   -617.98286    127586.55   -34028.865    2565.3263   -36594.191    404.03187    241.27104 
   96050    136.88234    -263.9249    127501.66   -34068.564    2581.5441   -36650.108    404.42346    242.79634 
   96100    134.75163   -309.43275    127551.97   -34058.579    2541.3598   -36599.939    404.54418    239.01697 
   96150     133.2718     -211.005    127514.22   -34091.147    2513.4509   -36604.598    404.40564    236.39212 
   96200    132.73031   -391.14774    127450.45   -34068.589    2503.2386   -36571.827    404.29445    235.43165 
   96250    133.74595   -597.53906    127368.86   -34071.854    2522.3932   -36594.247    404.36498    237.23315 
   96300    134.38791   -127.61656    127363.54   -34089.442    2534.5002   -36623.942    404.43116    238.37182 
   96350    133.85186   -267.07478    127356.36   -34054.446    2524.3906   -36578.836    404.46849    237.42101 
   96400     132.7516   -382.31704     127393.5   -34042.093    2503.6401   -36545.733    404.87614     235.4694 
   96450    134.07962   -256.01109    127341.38   -34059.091     2528.686   -36587.777    405.32052    237.82499 
   96500    133.37764   -397.55163    127335.54   -34089.794     2515.447   -36605.241    405.45189    236.57985 
   96550    135.07752    19.611394    127215.78    -34044.58    2547.5061   -36592.086    405.85578    239.59504 
   96600    139.17434   -148.31526    127203.51   -33994.798    2624.7704   -36619.568    406.19074    246.86181 
   96650    135.99815   -89.988945    127293.13   -34014.986    2564.8686   -36579.854    406.97493      241.228 
   96700    132.82812   -376.66711    127257.64   -34082.626    2505.0832   -36587.709    407.04798    235.60513 
   96750    134.80741   -358.34206    127213.06   -34020.838    2542.4119    -36563.25    406.93867    239.11592 
   96800    136.60736   -77.342004     127251.6   -34033.335    2576.3582   -36609.693    407.09629     242.3086 
   96850    134.45014   -178.12088    127260.29   -34031.396    2535.6739    -36567.07    407.17944    238.48221 
   96900    137.34782   -175.05051    127314.36   -34047.924     2590.323   -36638.247    407.03865      243.622 
   96950    131.16841   -325.34909    127321.94   -34027.859    2473.7818   -36501.641    407.65248     232.6612 
   97000    134.28229   -410.27574    127321.02   -34005.368    2532.5083   -36537.876    407.90784    238.18448 
   97050    133.44744    -506.3766    127316.07   -33976.062    2516.7634   -36492.825    407.96455    236.70366 
   97100    134.90411   -132.70324    127293.35   -33985.568    2544.2355   -36529.803    408.05579    239.28744 
   97150    137.45612   -113.12681    127360.01   -33968.925    2592.3655    -36561.29    408.94128     243.8141 
   97200    134.90031   -293.43813    127393.03   -33965.602    2544.1639   -36509.766    409.45645     239.2807 
   97250    136.66444   -495.50769    127333.39   -33911.581    2577.4346   -36489.016     409.9016    242.40984 
   97300    134.96662   -260.93906    127193.85   -33917.734    2545.4146   -36463.149     410.0727    239.39833 
   97350    134.91905   -298.01491     127127.4   -33978.423    2544.5173   -36522.941    410.19496    239.31394 
   97400    135.67188   -650.05631    127103.06   -34026.589    2558.7154   -36585.305    410.22296    240.64928 
   97450     135.9559   -188.16167    126996.72   -33978.489    2564.0718   -36542.561    410.43941    241.15306 
   97500    133.23584   -423.43405     126982.4   -33917.505    2512.7726   -36430.278    410.72892    236.32832 
   97550    136.33098    68.082782    126974.06   -33902.791    2571.1457   -36473.936    410.62485    241.81837 
   97600    138.34433    87.027738    127050.93   -33925.564    2609.1167    -36534.68    411.45148    245.38957 
   97650    134.36015   -234.10002    127064.09   -33910.084    2533.9768   -36444.061    411.48743    238.32259 
   97700    140.08186    128.49911    127043.95   -33917.568    2641.8857   -36559.454    411.55619    248.47152 
   97750    137.85944    37.228619    127138.07   -33998.098    2599.9719    -36598.07    411.95601    244.52949 
   97800    135.65762   -625.29751    127140.92   -34011.776    2558.4464   -36570.223    412.02392    240.62398 
   97850    133.60378   -97.288581    127126.05    -34026.05    2519.7118   -36545.762     411.5247    236.98097 
   97900    134.74486   -384.66817    127215.69   -34047.837    2541.2321   -36589.069    411.71709    239.00496 
   97950    135.05575   -333.53109    127225.72   -34060.615    2547.0955   -36607.711    411.73376    239.55642 
   98000    136.49837   -270.26179    127295.02   -34055.326    2574.3026   -36629.629    411.92376    242.11527 
   98050    138.16498   -219.37821    127277.53   -34032.537    2605.7342   -36638.271    412.58136    245.07144 
   98100    134.70883   -429.22846    127240.11   -34054.623    2540.5526   -36595.175    412.76762    238.94106 
   98150    132.93324   -366.85771     127250.4   -34012.193    2507.0658   -36519.258    412.68975     235.7916 
   98200    137.38794   -525.37344    127192.48   -34018.635    2591.0796   -36609.714    413.14025    243.69316 
   98250    133.68568   -356.47333    127091.09   -34044.422    2521.2565   -36565.678    413.69406    237.12625 
   98300    135.77018    -217.9588    127053.48   -34049.234    2560.5692   -36609.803    413.99973    240.82363 
   98350    133.55131   -91.978565    127082.36   -34049.131    2518.7223   -36567.853    414.38041     236.8879 
   98400    133.21072   -190.87743    127105.45   -34096.691     2512.299    -36608.99    414.85974    236.28378 
   98450     134.3382   -319.11492    127147.76   -34032.608    2533.5627   -36566.171    414.93995    238.28365 
   98500    136.61257    -276.0673    127086.06   -34029.742    2576.4565   -36606.199    415.27227    242.31784 
   98550    133.16187   -85.895908    127152.95   -34009.437    2511.3777   -36520.814    415.24649    236.19713 
   98600    135.56945   -98.310967    127187.02   -33958.014    2556.7837   -36514.797    415.51806     240.4676 
   98650    137.21439   -11.888259    127203.75   -33979.063    2587.8064    -36566.87    416.04763    243.38532 
   98700    136.77015   -319.68471    127212.82   -33938.968    2579.4282   -36518.396    417.17735    242.59734 
   98750    137.60223    88.167959    127224.41   -33938.268     2595.121   -36533.389    417.00897    244.07326 
   98800    136.46379   -466.17995    127275.48   -33940.707    2573.6505   -36514.357    417.29691    242.05394 
   98850    135.05502   -291.35106    127231.27    -33951.44    2547.0817   -36498.522    417.47466    239.55513 
   98900    132.18231   -656.09032     127147.9   -34038.417    2492.9035   -36531.321    417.61891    234.45962 
   98950    131.66993   -140.44516    127106.57   -34043.279    2483.2402   -36526.519    417.63178    233.55078 
   99000    131.93023     -115.664     127151.1   -34009.824    2488.1494   -36497.974    418.18677    234.01249 
   99050    137.34029   -273.98669    127182.86   -33972.367     2590.181   -36562.548    418.70854    243.60865 
   99100    135.26542   -338.85649    127115.25   -33970.841    2551.0498   -36521.891    418.81392    239.92832 
   99150    139.36022   -142.20175    127076.26   -33957.757    2628.2759   -36586.033    418.83835    247.19151 
   99200    135.29478   -199.14891    127095.92   -33972.484    2551.6034   -36524.087    419.18717    239.98039 
   99250    134.78002    18.791783     127187.2   -33977.929    2541.8952   -36519.825    419.26998    239.06733 
   99300    136.79564   -182.98943    127167.77   -33980.991    2579.9091     -36560.9    418.66702    242.64256 
   99350    136.19396   -406.30097    127169.01   -34000.652    2568.5616   -36569.214    418.89202    241.57532 
   99400    136.20203   -98.294851    127277.53   -33981.997    2568.7138   -36550.711    418.71817    241.58965 
   99450    133.81777   -413.49705    127320.01   -34012.031    2523.7477   -36535.779    419.70337    237.36054 
   99500    133.86275   -192.50411     127329.4   -34018.716     2524.596   -36543.312    420.32541    237.44033 
   99550    135.25776   -483.36513    127312.17   -34043.295    2550.9053     -36594.2    420.72509    239.91473 
   99600    136.94625   -116.95522    127350.31   -34073.609    2582.7495   -36656.359    420.96444    242.90971 
   99650    133.62015   -16.035437    127519.29   -34038.042    2520.0207   -36558.063    421.56812    237.01001 
   99700    136.38967   -21.534367     127734.3   -34097.576    2572.2526   -36669.828    421.50109    241.92247 
   99750    133.79646   -331.33915    127784.28   -34134.229    2523.3458   -36657.574     421.5281    237.32274 
   99800    136.95475   -625.59516    127749.27   -34103.809    2582.9097   -36686.719    421.85405    242.92478 
   99850    135.75621   -475.27502    127651.91   -34115.233    2560.3059   -36675.538    422.19985    240.79887 
   99900    133.38543   -478.30594    127632.34   -34176.352    2515.5938   -36691.946    422.15373    236.59366 
   99950    134.30201   -328.86593    127611.32   -34146.963    2532.8803   -36679.843    422.35641    238.21947 
  100000    136.26224   -497.30453     127577.5   -34177.903    2569.8492   -36747.752    422.32482    241.69643 
Loop time of 56.8485 on 90 procs for 100000 steps with 6328 atoms

Performance: 759.914 ns/day, 0.032 hours/ns, 1759.061 timesteps/s
97.3% CPU use with 90 MPI tasks x no OpenMP threads

MPI task timing breakdown:
Section |  min time  |  avg time  |  max time  |%varavg| %total
---------------------------------------------------------------
Pair    | 7.9064     | 18.801     | 40.242     | 297.5 | 33.07
Neigh   | 0.62191    | 1.3016     | 3.228      |  78.0 |  2.29
Comm    | 5.3323     | 19.219     | 42.544     | 307.5 | 33.81
Output  | 0.15112    | 0.15381    | 0.16471    |   0.5 |  0.27
Modify  | 3.5355     | 16.562     | 38.381     | 377.1 | 29.13
Other   |            | 0.8117     |            |       |  1.43

Nlocal:    70.3111 ave 155 max 40 min
Histogram: 60 0 0 4 11 0 0 0 2 13
Nghost:    717.1 ave 1051 max 446 min
Histogram: 30 0 0 27 3 0 0 0 14 16
Neighs:    0 ave 0 max 0 min
Histogram: 90 0 0 0 0 0 0 0 0 0
FullNghs:  5782.09 ave 18793 max 1549 min
Histogram: 60 0 0 0 15 0 0 0 0 15

Total # of neighbors = 520388
Ave neighs/atom = 82.2358
Neighbor list builds = 5995
Dangerous builds = 0

write_data		${DIR}/data.eq-${NAME}-${TEMP}
write_data		run_2/data.eq-${NAME}-${TEMP}
write_data		run_2/data.eq-het_freeze_2-${TEMP}
write_data		run_2/data.eq-het_freeze_2-240
undump          1

reset_timestep  0

unfix           2
unfix           3
unfix           4


################################################
#######         Run Simulation         #########
################################################

log				${DIR}/log.run_${NAME}
log				run_2/log.run_${NAME}
log				run_2/log.run_het_freeze_2
