LAMMPS data file via write_data, version 16 Mar 2018, timestep = 8000000

6328 atoms
2 atom types

0.0000000000000000e+00 4.9219999999999999e+01 xlo xhi
0.0000000000000000e+00 4.9019635930410494e+01 ylo yhi
1.9536283956087992e+00 5.8108371604406209e+01 zlo zhi

Masses

1 18.015
2 12.01

Atoms # atomic

3221 1 3.7659334381529721e+00 1.1297671265010689e+00 2.8695939053187476e+00 1 -2 0
1536 1 3.8452896645625141e+00 1.1383092292157648e+00 5.3919422835756601e+00 -2 -2 1
5058 1 1.2108061597382244e+01 1.1955449507845550e+01 1.2935812674223751e+01 5 4 1
1273 1 1.0787479238323311e+01 3.7604463958331920e+00 5.4392998529731926e+00 4 1 1
4580 1 1.1180716333856727e+01 3.8273388204698233e+00 2.6543120653338441e+00 2 5 0
4542 1 2.3748934788055864e+00 5.2176023173081436e+00 2.8912259082289777e+00 -2 -2 0
1432 1 2.1555753684169492e+00 5.4629108683600860e+00 5.8902502611998866e+00 -2 -3 0
1516 1 6.7560028370834369e+00 4.8935181901412586e+00 2.7508950905842151e+00 -2 5 1
5304 1 6.7604690431997483e+00 4.8612274203758963e+00 5.4222135380250123e+00 0 -1 1
28 1 9.2764925071717457e+00 8.3428651524425348e+00 2.8218896267327214e+00 0 0 1
3141 1 9.9475705567964257e-01 9.7284330446489751e+00 5.5408623989634389e+00 3 3 1
4468 1 9.1965722312152087e-01 9.6069800842711501e+00 2.8219774720078572e+00 -1 1 1
4903 1 1.3266265292191490e+00 4.1097834473418970e-02 9.3622744226983521e+00 -1 1 0
4766 1 4.9884639783301070e+00 8.8513999394904204e+00 2.8425743890675643e+00 0 -2 1
5023 1 5.0810486946861948e+00 8.5909771048877630e+00 5.3930215583383827e+00 -1 -1 0
430 1 8.1857353777954422e+00 4.7602989073426050e-01 2.3641742545661355e+00 3 1 0
1972 1 9.6336329333604827e+00 8.1256786664550145e+00 5.4731183351862862e+00 0 -1 0
4742 1 9.4343976776932887e+00 8.3797538303402455e+00 1.3049306635100095e+01 0 -5 0
1460 1 3.7459620155427533e+00 1.3008273783362448e+01 2.9579329966087857e+00 -4 -5 1
4462 1 1.0568784172061147e+01 1.6174954297239253e+01 2.7645001466735315e+00 3 3 1
3037 1 8.0878070931061892e+00 1.2554012514212181e+01 2.7356888260235355e+00 -1 3 1
1627 1 7.9619855721117174e+00 1.2346787028326094e+01 5.3294119371085369e+00 -2 2 0
5285 1 4.3971833893875409e+00 1.5746321037970466e+01 9.2025617087516611e+00 -2 0 1
2005 1 1.2272679946540640e+01 1.1630623507555626e+01 3.0105133246253835e+00 -3 1 1
1987 1 1.4610554501493742e+00 1.1040050906494057e-01 6.4361806327217197e+00 -2 1 0
405 1 5.0071397792925687e+00 9.0295375279497101e+00 1.2876725248921131e+01 -2 -1 0
3602 1 4.2270648930504731e+00 3.2317431055230115e+00 9.2589604058102317e+00 -2 3 1
205 1 4.2733802105457288e+00 3.5592226452964324e+00 6.5133296783688834e+00 0 -1 0
5026 1 8.5764525787486434e+00 2.9630717334876118e+00 9.0539762421590435e+00 -3 0 1
1671 1 8.4972760191864491e+00 2.7574074710590262e+00 6.2898524801538587e+00 -3 -2 1
6214 1 2.7236565256939107e+00 7.9386035312069758e+00 9.3982530732516061e+00 3 1 0
4805 1 7.2787448299442374e+00 7.3048619234882048e+00 6.2889516283862417e+00 -1 2 0
3274 1 7.0241533008189370e+00 7.1717225036776675e+00 9.0800387779006080e+00 4 -5 1
3003 1 1.1494994674010043e+01 6.4346719922252360e+00 6.6565425672617575e+00 0 -1 0
3279 1 1.1484445455541527e+01 6.7340782909219357e+00 9.7212918610152954e+00 0 0 1
3549 1 2.7968525165796225e+00 7.8584761686604310e+00 6.5615538878740969e+00 1 0 0
4905 1 5.9329827259249122e+00 1.0856251110092048e+01 6.5844131268205865e+00 0 -1 1
1866 1 5.4592551688388582e+00 1.1489150270654159e+01 9.3143507812268567e+00 1 3 0
5155 1 1.0091862598399365e+01 1.0669524277275590e+01 6.4518701173510413e+00 2 1 1
72 1 1.0135016547361737e+01 1.0951079390961388e+01 9.1287906818682600e+00 -3 2 0
90 1 3.8855399235593397e+00 1.2743680309414298e+01 5.7089139485948923e+00 3 0 0
3111 1 4.2758163168623744e+00 1.5529861679172262e+01 6.2185663306275432e+00 1 1 1
2938 1 1.3678435509201348e+00 1.1932204545565460e+01 6.5638384731359345e+00 -2 -1 0
2025 1 1.0222231023887747e+00 1.2088726815928286e+01 9.2241318131193815e+00 4 1 0
1828 1 8.6187725162998792e+00 1.5022402062150613e+01 8.9112017424070871e+00 1 -5 0
1583 1 8.1078349184049490e+00 3.2014901660297324e-01 9.8976861339435729e+00 1 1 0
2034 1 8.6020351618238795e+00 1.5165941964642222e+01 6.0827439923387683e+00 3 -2 0
356 1 3.5912272549310771e+00 7.3554383966340020e-01 1.0213136034345302e+01 1 -2 1
1699 1 3.6056009304734955e+00 5.4249245086890108e-01 1.3034228072188219e+01 0 3 0
3491 1 6.0850648058607637e-01 9.6465048108432843e+00 1.2611350988509363e+01 4 2 0
4784 1 8.2372123357845055e+00 2.4937266771112596e-01 5.1564134587920298e+00 5 3 0
5269 1 7.7301132676310038e+00 1.2586745368500045e+01 1.2688999958556574e+01 -2 1 1
113 1 1.1003775392131768e+01 3.9073344800940033e+00 9.9307934714299719e+00 1 4 1
3228 1 2.2429648922505767e+00 5.2769717150916859e+00 9.9504542470276149e+00 2 -2 0
2920 1 2.3110078249761505e+00 5.5145388808845022e+00 1.2661960913516976e+01 1 0 1
2843 1 6.2670319694835417e+00 4.2531318704652170e+00 1.2955297648724507e+01 0 -1 0
3593 1 6.4515004767110282e+00 4.5573955347261164e+00 1.0145713438917877e+01 2 2 0
4715 1 9.2939887548432338e+00 8.3621238253825840e+00 1.0290719334358938e+01 0 2 1
3045 1 5.5360930611333203e-01 9.3708493325379081e+00 9.9238585124421039e+00 3 0 0
1807 1 8.0296516982718718e+00 1.2566350994533511e+01 9.8074151432002150e+00 -1 -2 0
432 1 5.2204620475962580e+00 8.8451659986665341e+00 1.0052095496557632e+01 0 5 0
4605 1 4.0407136431380891e-01 7.0878582935807533e+00 1.9975452862962975e+00 -2 -1 1
4841 1 3.3930162911648476e+00 1.3315483825572446e+01 9.9867588461775885e+00 4 -1 1
2990 1 1.0907903913165411e+01 1.5861400260301162e+01 1.0153051976857517e+01 0 -1 1
1810 1 1.1033570580891768e+01 3.7321388127551427e+00 1.2781392557657687e+01 1 1 0
4466 1 3.8812032909476382e+00 1.3411898448974462e+01 1.2710001073415500e+01 0 1 1
1468 1 1.1027254824538787e+01 1.6182414559508249e+01 1.2903226366828839e+01 -2 0 1
1335 1 6.3104684269834941e+00 2.2223603075512717e+00 1.9606998247637080e+00 -1 1 1
3535 1 1.1670618950519245e+01 8.9436417374312853e+00 2.0655069140306779e+00 2 -2 0
3365 1 1.8718735271730500e+00 2.5979815531720449e+00 1.9553142794519545e+00 2 0 1
4939 1 6.0841814237349308e+00 1.4337433233379526e+01 2.0523245008211433e+00 1 4 1
4541 1 1.8080890859416736e+00 2.7357870838771023e+00 1.6582526681270330e+01 -1 4 1
1702 1 9.0811577670498735e+00 5.5516678219699340e+00 1.3691769949625565e+01 1 0 0
3120 1 6.1314458829822494e+00 1.8448903346065559e+00 1.6571852953603504e+01 3 2 0
3127 1 8.4109772365625324e-01 1.8000534907886909e+00 2.4161596653942887e+01 2 -2 0
6031 1 1.0708706850308188e+01 1.2787425172960540e+00 1.6163180056644158e+01 -6 -7 1
1254 1 1.0496492605306614e+01 1.1485577030253764e+00 1.3419031459246867e+01 2 4 0
1365 1 9.7888792407493810e+00 1.3295956680275630e+01 2.4208904274991745e+01 -2 3 1
6163 1 4.2056613231518253e-01 7.0393274725952191e+00 1.4107263377223987e+01 -1 -1 0
5052 1 4.6858960510200527e+00 6.1787534284192098e+00 1.3642927013611210e+01 2 -3 0
1296 1 4.7004430406785529e+00 6.3387451747086132e+00 1.6308028425001506e+01 -4 -1 1
4657 1 6.2677599499211301e+00 1.7103603508217293e+00 1.3794710902571733e+01 2 -3 1
6050 1 9.3054564393760355e+00 5.4521245338776430e+00 1.6400466657694018e+01 1 -1 1
3129 1 7.8158516494155270e+00 1.3037811773790283e+01 2.0919462842942373e+01 -3 0 1
6229 1 2.9347394866281760e+00 1.0391558857875557e+01 1.6414464629140788e+01 1 -2 1
4499 1 7.3992444454289235e+00 9.7883090684316620e+00 1.6526253822218607e+01 -1 -2 1
2854 1 4.1407315555455497e+00 8.5485614030914885e+00 2.4158347116807462e+01 1 -4 1
2808 1 1.1848269196586685e+01 8.9679547978872076e+00 1.6735132163881641e+01 -2 0 1
2078 1 1.1858673323216314e+01 9.1785157168189091e+00 1.3704812053401501e+01 -1 1 0
4540 1 2.0547837732436425e+00 1.4841808406880549e+01 1.6406290735576597e+01 2 0 1
6304 1 1.9262308086464706e+00 1.4927187785805163e+01 1.3807380960622373e+01 0 -1 0
6017 1 6.1586377707981388e+00 1.4621594440924623e+01 1.3841866070054087e+01 -3 2 1
2102 1 5.8909727846784357e+00 1.4026188538808061e+01 1.6522414449501959e+01 1 1 1
1414 1 1.0163381102497580e+01 1.3730970357713311e+01 1.3858743034286690e+01 -4 -3 0
5197 1 1.0118702030374697e+01 1.3400087865888141e+01 1.6455462417977383e+01 -3 2 1
1832 1 1.0477439887546559e+01 1.6043135659812055e+01 2.3772952216847099e+01 -5 -4 0
5114 1 7.3932031474413931e+00 9.9698253446161917e+00 1.3718279404088076e+01 -1 0 1
41 1 4.1254605653488055e+00 3.9283787837669091e+00 1.7330511788725076e+01 3 -2 1
4514 1 4.1868361979258060e+00 3.3909899484478547e+00 2.0155220638156653e+01 1 -2 1
3027 1 8.8487964180748389e+00 2.7587316235446764e+00 1.7062830397735031e+01 -1 1 0
1961 1 8.4948159917492028e+00 2.6400772170576357e+00 2.0051207147425810e+01 -3 4 0
315 1 2.5817052150835385e+00 7.8279486013633859e+00 1.7334038499354914e+01 -4 0 1
3068 1 2.9017264126727893e+00 7.5199005099957166e+00 1.9872978587203690e+01 2 0 1
1660 1 7.1413304114404976e+00 7.1656984959725323e+00 1.7116474370062932e+01 3 0 1
6201 1 6.9694970213286878e+00 7.2181653501354388e+00 1.9902216902680369e+01 0 -3 1
2048 1 1.1624489200627393e+01 6.3716722352939010e+00 1.7775559096286567e+01 -1 -1 1
1376 1 1.1332304596658883e+01 6.7073910498817568e+00 2.0473395854787171e+01 6 0 1
3560 1 9.1096009032661822e+00 8.3144555538785916e+00 2.1189137685057723e+01 3 5 1
2956 1 5.1586704419686749e+00 1.1356927207106237e+01 1.7471195624903540e+01 0 0 1
5081 1 5.5094319293250775e+00 1.1710312635715855e+01 2.0015180226524741e+01 -2 2 0
1461 1 9.7588959624376468e+00 1.0815699636220844e+01 1.7368802997476010e+01 1 -2 1
2837 1 9.4355618628700633e+00 1.0839063800736492e+01 2.0093191939749254e+01 -1 1 1
4884 1 1.2266742556129950e+00 1.2249589270207938e+01 1.7319309297345743e+01 4 5 0
418 1 4.2145215264601008e+00 1.6192813026354326e+01 1.9876327257895561e+01 -1 0 0
23 1 4.2384039113595877e+00 1.6120604158766870e+01 1.7363208091388977e+01 -2 2 1
427 1 1.8394954955643195e+00 1.2295905871267131e+01 2.0256778895852001e+01 0 3 0
4637 1 8.3402391765228714e+00 1.5457080757612163e+01 1.9828016521852074e+01 -4 0 1
6053 1 8.2603506554083435e+00 1.5025130042355695e+01 1.7273374977923055e+01 6 4 1
232 1 7.2921333853766841e+00 1.2329117610124158e+01 2.3858956265978865e+01 0 1 1
110 1 3.2521064688833254e+00 8.6282894408109001e-01 2.1013682095029822e+01 4 1 0
6298 1 3.2076438006096533e+00 2.6043495829926905e-01 2.3721935319332839e+01 -1 0 1
3460 1 7.8155932180201093e+00 3.4405334264055831e-01 2.3767780724233344e+01 0 -1 1
1442 1 2.0331300059740123e+00 1.2188725921263680e+01 2.3576489923895341e+01 -1 2 1
1618 1 1.0458793000933674e+01 3.6622244623569382e+00 2.3646917994875341e+01 0 1 0
4977 1 2.5326581909000314e+00 5.2578508221537570e+00 2.1476112090170897e+01 -2 2 0
3368 1 7.8302717517716047e+00 3.5413724751715758e-01 2.0991472516099613e+01 1 -2 0
1319 1 1.3150933859385705e+00 4.7666700506425199e+00 2.4007950671497856e+01 -1 2 0
3284 1 5.8048974845304420e+00 4.4245536438609365e+00 2.3777964066403179e+01 0 0 0
3303 1 6.7089498887932537e+00 4.5734410806967354e+00 2.1109670575548240e+01 0 3 0
3203 1 1.8887579056521531e+00 2.8072509555175706e+00 1.3912029574424876e+01 1 3 0
295 1 1.0911918938233784e+01 3.6877241640644618e+00 2.0964456903718915e+01 2 0 0
138 1 1.0748309302316570e+00 9.5723973372927791e+00 2.0683245989603321e+01 0 2 1
3140 1 1.5525378133000689e+00 9.4063109072509459e+00 2.3354740454575413e+01 0 -2 1
3305 1 1.2016035592222812e+01 1.1744960320488547e+01 2.3523762901670715e+01 0 -2 1
5979 1 5.0994249068815467e+00 9.0426045306097951e+00 2.1135517556087375e+01 3 1 1
1879 1 4.0794238344135314e+00 1.3778339549703906e+01 2.1128924930383462e+01 -1 3 0
511 1 9.0165500996273593e+00 8.2506932014545100e+00 2.3821953392324669e+01 1 3 1
161 1 3.7971736576196999e+00 5.9494809651137084e+00 2.4213755273535462e+01 1 1 0
3007 1 2.9462270675298701e+00 1.0691194853762514e+01 1.3603068135309186e+01 0 0 1
2898 1 5.0917771813248676e+00 1.6224674335261557e+01 2.3711661452514623e+01 4 0 1
5234 1 8.6569823590294165e-02 6.8994722967235695e+00 1.6834593890116153e+01 3 -5 1
6207 1 8.4430516195269814e+00 5.4546073746553079e+00 2.3894038950742292e+01 4 3 0
464 1 4.9409735946186020e+00 1.3477756353286043e+01 2.4042143413117969e+01 -1 3 0
3117 1 6.6367551318110332e+00 9.5934827118002062e+00 2.4284655238239342e+01 -1 0 0
3651 1 1.0374166938687209e+01 9.1367469411602353e-01 2.4272112631775954e+01 0 3 1
517 1 1.2059992834536381e+01 1.2008789000672884e+01 2.0753311693774712e+01 -1 1 0
1349 1 1.0544858415323054e+01 1.6019076953842692e+01 2.1128350065649027e+01 1 0 1
552 2 0.0000000000000000e+00 2.8417180249513345e+00 2.6679957059579131e+01 0 0 0
554 2 0.0000000000000000e+00 0.0000000000000000e+00 2.6679957059579131e+01 0 0 0
556 2 1.2305000000000001e+00 7.1042950623783474e-01 2.6679957059579131e+01 0 0 0
563 2 1.2305000000000001e+00 2.1312885187134998e+00 2.6679957059579131e+01 0 0 0
565 2 2.4610000000000003e+00 2.8417180249513345e+00 2.6679957059579131e+01 0 0 0
567 2 2.4610000000000003e+00 0.0000000000000000e+00 2.6679957059579131e+01 0 0 0
569 2 3.6915000000000004e+00 7.1042950623783474e-01 2.6679957059579131e+01 0 0 0
584 2 3.6914999999999996e+00 2.1312885187134998e+00 2.6679957059579131e+01 0 0 0
586 2 4.9220000000000006e+00 2.8417180249513332e+00 2.6679957059579131e+01 0 0 0
588 2 4.9220000000000006e+00 0.0000000000000000e+00 2.6679957059579131e+01 0 0 0
590 2 6.1524999999999999e+00 7.1042950623783407e-01 2.6679957059579131e+01 0 0 0
613 2 6.1524999999999999e+00 2.1312885187134989e+00 2.6679957059579131e+01 0 0 0
615 2 7.3829999999999991e+00 2.8417180249513345e+00 2.6679957059579131e+01 0 0 0
617 2 7.3829999999999991e+00 0.0000000000000000e+00 2.6679957059579131e+01 0 0 0
993 2 9.8440000000000012e+00 1.2787731112280996e+01 3.3382042940458668e+01 0 0 0
619 2 8.6134999999999984e+00 7.1042950623783407e-01 2.6679957059579131e+01 0 0 0
650 2 8.6134999999999984e+00 2.1312885187135002e+00 2.6679957059579131e+01 0 0 0
652 2 9.8440000000000012e+00 2.8417180249513332e+00 2.6679957059579131e+01 0 0 0
654 2 9.8440000000000012e+00 0.0000000000000000e+00 2.6679957059579131e+01 0 0 0
656 2 1.1074500000000002e+01 7.1042950623783330e-01 2.6679957059579131e+01 0 0 0
695 2 1.1074500000000002e+01 2.1312885187135002e+00 2.6679957059579131e+01 0 0 0
991 2 8.6135000000000002e+00 1.4919019630994494e+01 3.3382042940458668e+01 0 0 0
559 2 0.0000000000000000e+00 4.2625770374269996e+00 2.6679957059579131e+01 0 0 0
561 2 1.2305000000000001e+00 4.9730065436648339e+00 2.6679957059579131e+01 0 0 0
576 2 1.2305000000000001e+00 6.3938655561404980e+00 2.6679957059579131e+01 0 0 0
580 2 2.4610000000000003e+00 4.2625770374269996e+00 2.6679957059579131e+01 0 0 0
582 2 3.6914999999999996e+00 4.9730065436648339e+00 2.6679957059579131e+01 0 0 0
605 2 3.6914999999999996e+00 6.3938655561404980e+00 2.6679957059579131e+01 0 0 0
557 2 0.0000000000000000e+00 7.1042950623783341e+00 2.6679957059579131e+01 0 0 0
578 2 2.4610000000000003e+00 7.1042950623783341e+00 2.6679957059579131e+01 0 0 0
609 2 4.9220000000000006e+00 4.2625770374269978e+00 2.6679957059579131e+01 0 0 0
611 2 6.1524999999999999e+00 4.9730065436648339e+00 2.6679957059579131e+01 0 0 0
642 2 6.1524999999999999e+00 6.3938655561404980e+00 2.6679957059579131e+01 0 0 0
646 2 7.3829999999999991e+00 4.2625770374269996e+00 2.6679957059579131e+01 0 0 0
607 2 4.9220000000000006e+00 7.1042950623783341e+00 2.6679957059579131e+01 0 0 0
644 2 7.3830000000000009e+00 7.1042950623783341e+00 2.6679957059579131e+01 0 0 0
648 2 8.6135000000000002e+00 4.9730065436648339e+00 2.6679957059579131e+01 0 0 0
687 2 8.6135000000000002e+00 6.3938655561404980e+00 2.6679957059579131e+01 0 0 0
691 2 9.8440000000000012e+00 4.2625770374270004e+00 2.6679957059579131e+01 0 0 0
693 2 1.1074500000000002e+01 4.9730065436648339e+00 2.6679957059579131e+01 0 0 0
734 2 1.1074500000000002e+01 6.3938655561404980e+00 2.6679957059579131e+01 0 0 0
689 2 9.8440000000000012e+00 7.1042950623783341e+00 2.6679957059579131e+01 0 0 0
572 2 0.0000000000000000e+00 8.5251540748539991e+00 2.6679957059579131e+01 0 0 0
574 2 1.2305000000000001e+00 9.2355835810918343e+00 2.6679957059579131e+01 0 0 0
601 2 2.4610000000000003e+00 8.5251540748539991e+00 2.6679957059579131e+01 0 0 0
603 2 3.6915000000000004e+00 9.2355835810918343e+00 2.6679957059579131e+01 0 0 0
570 2 0.0000000000000000e+00 1.1366872099805333e+01 2.6679957059579131e+01 0 0 0
597 2 1.2305000000000001e+00 1.0656442593567498e+01 2.6679957059579131e+01 0 0 0
599 2 2.4610000000000003e+00 1.1366872099805333e+01 2.6679957059579131e+01 0 0 0
634 2 3.6914999999999996e+00 1.0656442593567499e+01 2.6679957059579131e+01 0 0 0
638 2 4.9220000000000006e+00 8.5251540748539991e+00 2.6679957059579131e+01 0 0 0
640 2 6.1524999999999999e+00 9.2355835810918343e+00 2.6679957059579131e+01 0 0 0
683 2 7.3830000000000009e+00 8.5251540748539991e+00 2.6679957059579131e+01 0 0 0
636 2 4.9220000000000006e+00 1.1366872099805333e+01 2.6679957059579131e+01 0 0 0
679 2 6.1524999999999999e+00 1.0656442593567499e+01 2.6679957059579131e+01 0 0 0
681 2 7.3829999999999991e+00 1.1366872099805333e+01 2.6679957059579131e+01 0 0 0
685 2 8.6134999999999984e+00 9.2355835810918343e+00 2.6679957059579131e+01 0 0 0
730 2 9.8440000000000012e+00 8.5251540748539956e+00 2.6679957059579131e+01 0 0 0
732 2 1.1074500000000002e+01 9.2355835810918343e+00 2.6679957059579131e+01 0 0 0
726 2 8.6134999999999984e+00 1.0656442593567498e+01 2.6679957059579131e+01 0 0 0
728 2 9.8440000000000012e+00 1.1366872099805333e+01 2.6679957059579131e+01 0 0 0
773 2 1.1074500000000002e+01 1.0656442593567498e+01 2.6679957059579131e+01 0 0 0
775 2 1.2304999999999998e+01 1.1366872099805333e+01 2.6679957059579131e+01 0 0 0
593 2 0.0000000000000000e+00 1.2787731112280996e+01 2.6679957059579131e+01 0 0 0
595 2 1.2305000000000001e+00 1.3498160618518829e+01 2.6679957059579131e+01 0 0 0
630 2 2.4610000000000003e+00 1.2787731112280996e+01 2.6679957059579131e+01 0 0 0
632 2 3.6915000000000004e+00 1.3498160618518829e+01 2.6679957059579131e+01 0 0 0
591 2 0.0000000000000000e+00 1.5629449137232333e+01 2.6679957059579131e+01 0 0 0
626 2 1.2305000000000001e+00 1.4919019630994494e+01 2.6679957059579131e+01 0 0 0
628 2 2.4610000000000003e+00 1.5629449137232328e+01 2.6679957059579131e+01 0 0 0
671 2 3.6915000000000004e+00 1.4919019630994494e+01 2.6679957059579131e+01 0 0 0
675 2 4.9220000000000006e+00 1.2787731112280996e+01 2.6679957059579131e+01 0 0 0
677 2 6.1524999999999990e+00 1.3498160618518829e+01 2.6679957059579131e+01 0 0 0
722 2 7.3829999999999991e+00 1.2787731112280996e+01 2.6679957059579131e+01 0 0 0
673 2 4.9220000000000006e+00 1.5629449137232333e+01 2.6679957059579131e+01 0 0 0
718 2 6.1524999999999990e+00 1.4919019630994494e+01 2.6679957059579131e+01 0 0 0
720 2 7.3829999999999991e+00 1.5629449137232333e+01 2.6679957059579131e+01 0 0 0
724 2 8.6135000000000002e+00 1.3498160618518835e+01 2.6679957059579131e+01 0 0 0
769 2 9.8440000000000012e+00 1.2787731112280996e+01 2.6679957059579131e+01 0 0 0
771 2 1.1074500000000002e+01 1.3498160618518829e+01 2.6679957059579131e+01 0 0 0
765 2 8.6135000000000002e+00 1.4919019630994494e+01 2.6679957059579131e+01 0 0 0
767 2 9.8440000000000012e+00 1.5629449137232328e+01 2.6679957059579131e+01 0 0 0
807 2 1.1074500000000002e+01 1.4919019630994494e+01 2.6679957059579131e+01 0 0 0
553 2 0.0000000000000000e+00 1.4208590124756650e+00 3.0031000000007595e+01 0 0 0
555 2 0.0000000000000000e+00 0.0000000000000000e+00 3.0031000000007595e+01 0 0 0
564 2 1.2305000000000001e+00 2.1312885187134998e+00 3.0031000000007595e+01 0 0 0
566 2 2.4610000000000003e+00 1.4208590124756650e+00 3.0031000000007595e+01 0 0 0
568 2 2.4610000000000003e+00 0.0000000000000000e+00 3.0031000000007595e+01 0 0 0
585 2 3.6914999999999996e+00 2.1312885187134998e+00 3.0031000000007595e+01 0 0 0
562 2 1.2305000000000001e+00 3.5521475311891644e+00 3.0031000000007595e+01 0 0 0
583 2 3.6914999999999996e+00 3.5521475311891644e+00 3.0031000000007595e+01 0 0 0
587 2 4.9220000000000006e+00 1.4208590124756650e+00 3.0031000000007595e+01 0 0 0
589 2 4.9220000000000006e+00 0.0000000000000000e+00 3.0031000000007595e+01 0 0 0
614 2 6.1524999999999999e+00 2.1312885187134989e+00 3.0031000000007595e+01 0 0 0
616 2 7.3829999999999991e+00 1.4208590124756659e+00 3.0031000000007595e+01 0 0 0
618 2 7.3829999999999991e+00 0.0000000000000000e+00 3.0031000000007595e+01 0 0 0
612 2 6.1524999999999999e+00 3.5521475311891644e+00 3.0031000000007595e+01 0 0 0
651 2 8.6134999999999984e+00 2.1312885187135002e+00 3.0031000000007595e+01 0 0 0
653 2 9.8440000000000012e+00 1.4208590124756659e+00 3.0031000000007595e+01 0 0 0
655 2 9.8440000000000012e+00 0.0000000000000000e+00 3.0031000000007595e+01 0 0 0
696 2 1.1074500000000002e+01 2.1312885187135002e+00 3.0031000000007595e+01 0 0 0
649 2 8.6134999999999984e+00 3.5521475311891657e+00 3.0031000000007595e+01 0 0 0
694 2 1.1074500000000002e+01 3.5521475311891644e+00 3.0031000000007595e+01 0 0 0
558 2 0.0000000000000000e+00 5.6834360499026637e+00 3.0031000000007595e+01 0 0 0
560 2 0.0000000000000000e+00 4.2625770374269996e+00 3.0031000000007595e+01 0 0 0
577 2 1.2305000000000001e+00 6.3938655561404980e+00 3.0031000000007595e+01 0 0 0
579 2 2.4610000000000003e+00 5.6834360499026637e+00 3.0031000000007595e+01 0 0 0
581 2 2.4610000000000003e+00 4.2625770374269996e+00 3.0031000000007595e+01 0 0 0
606 2 3.6914999999999996e+00 6.3938655561404980e+00 3.0031000000007595e+01 0 0 0
575 2 1.2305000000000001e+00 7.8147245686161639e+00 3.0031000000007595e+01 0 0 0
604 2 3.6914999999999996e+00 7.8147245686161639e+00 3.0031000000007595e+01 0 0 0
608 2 4.9220000000000006e+00 5.6834360499026637e+00 3.0031000000007595e+01 0 0 0
610 2 4.9220000000000006e+00 4.2625770374269978e+00 3.0031000000007595e+01 0 0 0
643 2 6.1524999999999999e+00 6.3938655561404980e+00 3.0031000000007595e+01 0 0 0
645 2 7.3829999999999991e+00 5.6834360499026637e+00 3.0031000000007595e+01 0 0 0
647 2 7.3829999999999991e+00 4.2625770374269996e+00 3.0031000000007595e+01 0 0 0
641 2 6.1524999999999999e+00 7.8147245686161639e+00 3.0031000000007595e+01 0 0 0
688 2 8.6135000000000002e+00 6.3938655561404980e+00 3.0031000000007595e+01 0 0 0
690 2 9.8440000000000012e+00 5.6834360499026637e+00 3.0031000000007595e+01 0 0 0
692 2 9.8440000000000012e+00 4.2625770374270004e+00 3.0031000000007595e+01 0 0 0
735 2 1.1074500000000002e+01 6.3938655561404980e+00 3.0031000000007595e+01 0 0 0
686 2 8.6135000000000002e+00 7.8147245686161639e+00 3.0031000000007595e+01 0 0 0
733 2 1.1074500000000002e+01 7.8147245686161639e+00 3.0031000000007595e+01 0 0 0
571 2 0.0000000000000000e+00 9.9460130873296642e+00 3.0031000000007595e+01 0 0 0
573 2 0.0000000000000000e+00 8.5251540748539991e+00 3.0031000000007595e+01 0 0 0
600 2 2.4610000000000003e+00 9.9460130873296642e+00 3.0031000000007595e+01 0 0 0
602 2 2.4610000000000003e+00 8.5251540748539991e+00 3.0031000000007595e+01 0 0 0
596 2 1.2305000000000001e+00 1.2077301606043163e+01 3.0031000000007595e+01 0 0 0
598 2 1.2305000000000001e+00 1.0656442593567498e+01 3.0031000000007595e+01 0 0 0
633 2 3.6914999999999996e+00 1.2077301606043163e+01 3.0031000000007595e+01 0 0 0
635 2 3.6914999999999996e+00 1.0656442593567499e+01 3.0031000000007595e+01 0 0 0
637 2 4.9220000000000006e+00 9.9460130873296642e+00 3.0031000000007595e+01 0 0 0
639 2 4.9220000000000006e+00 8.5251540748539991e+00 3.0031000000007595e+01 0 0 0
682 2 7.3830000000000009e+00 9.9460130873296642e+00 3.0031000000007595e+01 0 0 0
684 2 7.3830000000000009e+00 8.5251540748539991e+00 3.0031000000007595e+01 0 0 0
678 2 6.1524999999999999e+00 1.2077301606043163e+01 3.0031000000007595e+01 0 0 0
680 2 6.1524999999999999e+00 1.0656442593567499e+01 3.0031000000007595e+01 0 0 0
729 2 9.8440000000000012e+00 9.9460130873296642e+00 3.0031000000007595e+01 0 0 0
731 2 9.8440000000000012e+00 8.5251540748539956e+00 3.0031000000007595e+01 0 0 0
725 2 8.6135000000000002e+00 1.2077301606043163e+01 3.0031000000007595e+01 0 0 0
727 2 8.6134999999999984e+00 1.0656442593567498e+01 3.0031000000007595e+01 0 0 0
772 2 1.1074500000000002e+01 1.2077301606043163e+01 3.0031000000007595e+01 0 0 0
774 2 1.1074500000000002e+01 1.0656442593567498e+01 3.0031000000007595e+01 0 0 0
594 2 0.0000000000000000e+00 1.2787731112280996e+01 3.0031000000007595e+01 0 0 0
631 2 2.4610000000000003e+00 1.2787731112280996e+01 3.0031000000007595e+01 0 0 0
592 2 0.0000000000000000e+00 1.4208590124756663e+01 3.0031000000007595e+01 0 0 0
627 2 1.2305000000000001e+00 1.4919019630994494e+01 3.0031000000007595e+01 0 0 0
629 2 2.4610000000000003e+00 1.4208590124756663e+01 3.0031000000007595e+01 0 0 0
672 2 3.6915000000000004e+00 1.4919019630994494e+01 3.0031000000007595e+01 0 0 0
676 2 4.9220000000000006e+00 1.2787731112280996e+01 3.0031000000007595e+01 0 0 0
723 2 7.3829999999999991e+00 1.2787731112280996e+01 3.0031000000007595e+01 0 0 0
674 2 4.9220000000000006e+00 1.4208590124756663e+01 3.0031000000007595e+01 0 0 0
719 2 6.1524999999999990e+00 1.4919019630994494e+01 3.0031000000007595e+01 0 0 0
721 2 7.3830000000000009e+00 1.4208590124756663e+01 3.0031000000007595e+01 0 0 0
770 2 9.8440000000000012e+00 1.2787731112280996e+01 3.0031000000007595e+01 0 0 0
766 2 8.6135000000000002e+00 1.4919019630994494e+01 3.0031000000007595e+01 0 0 0
768 2 9.8440000000000012e+00 1.4208590124756663e+01 3.0031000000007595e+01 0 0 0
806 2 1.1074500000000002e+01 1.6339878643470161e+01 3.0031000000007595e+01 0 0 0
808 2 1.1074500000000002e+01 1.4919019630994494e+01 3.0031000000007595e+01 0 0 0
810 2 1.2304999999999998e+01 1.4208590124756658e+01 3.0031000000007595e+01 0 0 0
881 2 0.0000000000000000e+00 2.8417180249513345e+00 3.3382042940458668e+01 0 0 0
882 2 0.0000000000000000e+00 0.0000000000000000e+00 3.3382042940458668e+01 0 0 0
883 2 1.2305000000000001e+00 7.1042950623783474e-01 3.3382042940458668e+01 0 0 0
887 2 1.2305000000000001e+00 2.1312885187134998e+00 3.3382042940458668e+01 0 0 0
888 2 2.4610000000000003e+00 2.8417180249513345e+00 3.3382042940458668e+01 0 0 0
889 2 2.4610000000000003e+00 0.0000000000000000e+00 3.3382042940458668e+01 0 0 0
890 2 3.6915000000000004e+00 7.1042950623783474e-01 3.3382042940458668e+01 0 0 0
898 2 3.6914999999999996e+00 2.1312885187134998e+00 3.3382042940458668e+01 0 0 0
899 2 4.9220000000000006e+00 2.8417180249513332e+00 3.3382042940458668e+01 0 0 0
900 2 4.9220000000000006e+00 0.0000000000000000e+00 3.3382042940458668e+01 0 0 0
901 2 6.1524999999999999e+00 7.1042950623783407e-01 3.3382042940458668e+01 0 0 0
913 2 6.1524999999999999e+00 2.1312885187134989e+00 3.3382042940458668e+01 0 0 0
914 2 7.3829999999999991e+00 2.8417180249513345e+00 3.3382042940458668e+01 0 0 0
915 2 7.3829999999999991e+00 0.0000000000000000e+00 3.3382042940458668e+01 0 0 0
916 2 8.6134999999999984e+00 7.1042950623783407e-01 3.3382042940458668e+01 0 0 0
932 2 8.6134999999999984e+00 2.1312885187135002e+00 3.3382042940458668e+01 0 0 0
933 2 9.8440000000000012e+00 2.8417180249513332e+00 3.3382042940458668e+01 0 0 0
934 2 9.8440000000000012e+00 0.0000000000000000e+00 3.3382042940458668e+01 0 0 0
935 2 1.1074500000000002e+01 7.1042950623783330e-01 3.3382042940458668e+01 0 0 0
955 2 1.1074500000000002e+01 2.1312885187135002e+00 3.3382042940458668e+01 0 0 0
885 2 0.0000000000000000e+00 4.2625770374269996e+00 3.3382042940458668e+01 0 0 0
886 2 1.2305000000000001e+00 4.9730065436648339e+00 3.3382042940458668e+01 0 0 0
894 2 1.2305000000000001e+00 6.3938655561404980e+00 3.3382042940458668e+01 0 0 0
896 2 2.4610000000000003e+00 4.2625770374269996e+00 3.3382042940458668e+01 0 0 0
897 2 3.6914999999999996e+00 4.9730065436648339e+00 3.3382042940458668e+01 0 0 0
909 2 3.6914999999999996e+00 6.3938655561404980e+00 3.3382042940458668e+01 0 0 0
884 2 0.0000000000000000e+00 7.1042950623783341e+00 3.3382042940458668e+01 0 0 0
895 2 2.4610000000000003e+00 7.1042950623783341e+00 3.3382042940458668e+01 0 0 0
911 2 4.9220000000000006e+00 4.2625770374269978e+00 3.3382042940458668e+01 0 0 0
912 2 6.1524999999999999e+00 4.9730065436648339e+00 3.3382042940458668e+01 0 0 0
928 2 6.1524999999999999e+00 6.3938655561404980e+00 3.3382042940458668e+01 0 0 0
930 2 7.3829999999999991e+00 4.2625770374269996e+00 3.3382042940458668e+01 0 0 0
910 2 4.9220000000000006e+00 7.1042950623783341e+00 3.3382042940458668e+01 0 0 0
929 2 7.3830000000000009e+00 7.1042950623783341e+00 3.3382042940458668e+01 0 0 0
931 2 8.6135000000000002e+00 4.9730065436648339e+00 3.3382042940458668e+01 0 0 0
951 2 8.6135000000000002e+00 6.3938655561404980e+00 3.3382042940458668e+01 0 0 0
953 2 9.8440000000000012e+00 4.2625770374270004e+00 3.3382042940458668e+01 0 0 0
954 2 1.1074500000000002e+01 4.9730065436648339e+00 3.3382042940458668e+01 0 0 0
975 2 1.1074500000000002e+01 6.3938655561404980e+00 3.3382042940458668e+01 0 0 0
952 2 9.8440000000000012e+00 7.1042950623783341e+00 3.3382042940458668e+01 0 0 0
892 2 0.0000000000000000e+00 8.5251540748539991e+00 3.3382042940458668e+01 0 0 0
893 2 1.2305000000000001e+00 9.2355835810918343e+00 3.3382042940458668e+01 0 0 0
907 2 2.4610000000000003e+00 8.5251540748539991e+00 3.3382042940458668e+01 0 0 0
908 2 3.6915000000000004e+00 9.2355835810918343e+00 3.3382042940458668e+01 0 0 0
891 2 0.0000000000000000e+00 1.1366872099805333e+01 3.3382042940458668e+01 0 0 0
905 2 1.2305000000000001e+00 1.0656442593567498e+01 3.3382042940458668e+01 0 0 0
906 2 2.4610000000000003e+00 1.1366872099805333e+01 3.3382042940458668e+01 0 0 0
924 2 3.6914999999999996e+00 1.0656442593567499e+01 3.3382042940458668e+01 0 0 0
926 2 4.9220000000000006e+00 8.5251540748539991e+00 3.3382042940458668e+01 0 0 0
927 2 6.1524999999999999e+00 9.2355835810918343e+00 3.3382042940458668e+01 0 0 0
949 2 7.3830000000000009e+00 8.5251540748539991e+00 3.3382042940458668e+01 0 0 0
925 2 4.9220000000000006e+00 1.1366872099805333e+01 3.3382042940458668e+01 0 0 0
947 2 6.1524999999999999e+00 1.0656442593567499e+01 3.3382042940458668e+01 0 0 0
948 2 7.3829999999999991e+00 1.1366872099805333e+01 3.3382042940458668e+01 0 0 0
950 2 8.6134999999999984e+00 9.2355835810918343e+00 3.3382042940458668e+01 0 0 0
973 2 9.8440000000000012e+00 8.5251540748539956e+00 3.3382042940458668e+01 0 0 0