LAMMPS data file via write_data, version 16 Mar 2018, timestep = 100000

6328 atoms
2 atom types

0.0000000000000000e+00 4.9219999999999999e+01 xlo xhi
0.0000000000000000e+00 4.9019635930410494e+01 ylo yhi
3.4957266698995149e+00 5.6566273330100138e+01 zlo zhi

Masses

1 18.015
2 12.01

Atoms # atomic

1331 1 1.8906667027954500e+00 9.3410239265230044e-01 5.5512933926085033e+00 1 0 0
1764 1 1.1044252556744027e+01 4.5741894954791800e+00 5.9947609196715614e+00 -1 1 0
2990 1 5.8654913981393930e+00 1.2660624707036924e+01 3.5310063145528683e+00 0 0 1
3346 1 5.3752418596703864e+00 4.4116581147319716e+00 5.0037177781722084e+00 0 0 0
4977 1 5.7291306887042417e+00 1.3171466260838621e+01 1.0421105401470374e+01 0 0 0
1820 1 1.0773988046374896e+01 1.8924369670672792e+00 5.2312778974159926e+00 0 1 1
533 1 3.7821632648488959e+00 5.8944807063209215e+00 6.4830904066638340e+00 1 2 1
3665 1 4.4551042466608921e+00 1.1225071416820674e+01 8.0428245410235739e+00 0 0 0
3032 1 1.9255705023143592e+00 7.5579148219628536e+00 4.9980402724441602e+00 2 1 1
289 1 8.5254694210455604e+00 1.0125085355219598e+01 3.8308188495594062e+00 1 0 1
4508 1 7.9614530464927613e+00 5.1210623941285274e+00 6.3312627814417697e+00 1 -1 0
4666 1 1.1558392284646553e+01 5.0564815115905617e+00 8.7076145181527203e+00 -1 0 1
1872 1 9.0679563899781357e+00 8.0149730463351379e+00 6.7236784292174772e+00 0 0 0
397 1 7.7303594050146718e-01 1.1557395719041882e+01 5.3982126090579348e+00 1 0 1
3510 1 2.9216209877565227e+00 9.9284707810232273e+00 6.1208668573378269e+00 0 1 0
1538 1 5.7289459833096208e+00 8.3038896560130893e-01 7.5350796331725522e+00 -1 0 1
6293 1 8.1717715699833118e+00 1.9439523207201224e+00 6.8944198070140486e+00 0 -1 0
218 1 8.4769746003487381e+00 1.5566263139918778e+01 1.4059913955814332e+01 1 1 0
166 1 9.2418885800291033e+00 1.2121191747324474e+01 9.4322558836033892e+00 2 1 0
1516 1 5.4629284112059073e+00 1.4445876861145337e+01 5.9977878132090545e+00 0 1 1
4475 1 8.7641006473182004e-01 1.4321041062993050e+01 5.7614818991981203e+00 0 1 1
334 1 1.2131470532457991e+01 8.8268261002758237e+00 7.1772127300089803e+00 0 0 1
6180 1 4.0117181141792502e+00 1.0881425889154116e+01 1.1555378851879986e+01 1 1 1
4490 1 4.9124583491395235e+00 9.7446464379896032e+00 4.3804319853383022e+00 1 0 1
1519 1 1.6077734642029595e+00 1.0934637914117985e+01 1.3135630550951841e+01 1 0 1
6080 1 1.1463069339288369e+01 1.4568411394964366e+01 5.9327404848369003e+00 0 0 0
3480 1 1.5680416499530285e+00 1.3664729081820699e+01 1.2454794072834302e+01 1 1 0
3462 1 1.8224991186583412e+00 1.7043877171804107e+00 8.1673485931617815e+00 0 0 0
3557 1 2.6204067116879108e+00 4.2158218030017656e+00 8.1722480115288079e+00 1 1 0
2899 1 7.4371261631840939e+00 4.9447753302996551e+00 9.1940630943201178e+00 0 1 0
2928 1 9.5894525209889316e+00 1.1098402794561779e+00 9.2882107602439863e+00 0 1 1
3518 1 9.3366652373379146e+00 3.4715711504750337e+00 1.0609564288557019e+01 0 0 0
6300 1 9.7665995511794659e+00 6.5987486559968849e+00 1.4075212962979963e+01 0 1 1
1573 1 5.2332986918659818e+00 3.0649456032439812e+00 8.9647033678579664e+00 0 1 0
3506 1 4.8347108355705650e+00 8.1634352282111724e+00 8.0943076647341279e+00 1 0 0
3571 1 8.3132453576142904e+00 8.1334881758477113e+00 1.2305916935083134e+01 0 0 0
3279 1 3.8546445470710018e+00 8.3535215984261644e+00 1.0805313312127188e+01 1 1 1
4618 1 2.2969812419719267e+00 1.2345007173915567e+01 9.5778098889709664e+00 1 0 1
1432 1 6.8402594573061908e+00 9.6764694628076153e+00 6.4614610236642482e+00 1 0 0
3385 1 7.0406886503958264e+00 1.2686556096336046e+01 7.7043987686563034e+00 1 0 1
4466 1 7.4965812589027809e+00 7.7525299671825669e+00 9.4737475494848269e+00 -2 0 1
3542 1 9.8954391621466780e+00 9.5347909737069436e+00 9.4673153526378027e+00 0 0 0
4446 1 7.9746628924149050e+00 1.3196979601276992e+01 1.2067455913520179e+01 1 0 1
1622 1 1.1558133889376144e+01 9.4901900815818561e+00 1.1920661209000960e+01 0 1 0
3349 1 1.0684508148837365e+01 6.9762907118119681e+00 3.9986648986595066e+00 0 1 0
339 1 3.0774978512959241e+00 1.4650009211741327e+01 7.5332065864367692e+00 -1 0 0
4717 1 1.1174241616287583e+01 9.7314640656213438e+00 4.7416714172195098e+00 0 1 1
1681 1 9.6724644662814452e+00 1.5712489788752105e+01 7.7350896687334485e+00 0 0 1
164 1 8.3135938832807490e+00 1.2588988013954889e+01 4.9976796259181588e+00 1 1 1
4648 1 9.6390303933900316e+00 1.5719618422575566e+01 1.0738609890630162e+01 0 1 1
2816 1 9.5365103388402839e-01 7.2989600757542590e+00 1.3487442696980148e+01 1 1 1
488 1 9.0847639000241092e+00 1.0501118801640164e+01 1.3069815834962276e+01 0 1 0
473 1 7.8388601388574921e+00 2.3190253224251229e+00 1.2601058981370736e+01 0 0 1
4486 1 5.0565127333236815e+00 2.3161765240488115e+00 1.1642246229736919e+01 0 0 1
2926 1 3.3452663382924142e+00 1.5154007717187518e+01 1.0495632241811007e+01 1 0 1
1369 1 4.6981533565479916e+00 1.5084422441021850e+00 5.0285515923273927e+00 1 0 1
1388 1 1.2188838165940767e+01 6.9361265314941276e+00 1.3049251355471934e+01 -1 0 1
4587 1 9.0489968745394833e-01 4.6519627569929511e+00 1.3757014727413953e+01 1 0 1
1777 1 9.3570360432557143e-01 8.0646062295294403e+00 1.0787237358955879e+01 0 0 0
1810 1 5.5651345810718738e+00 7.5095928112144268e+00 1.3299354613410600e+01 1 1 0
4613 1 1.1715250728894654e+01 1.3569989404868993e+01 1.0343353941065196e+01 0 0 1
1361 1 9.6249576131961394e+00 1.5101955423414019e+01 3.6751745863082612e+00 0 0 0
4878 1 1.0750442546383359e+01 1.1959955542433303e+01 6.5781979374566166e+00 1 1 1
3004 1 6.5684950365660839e+00 1.6200197205767591e+01 1.1294239182714261e+01 0 0 0
1482 1 1.1036244118754738e+01 1.2918531688646651e+01 1.3678226562723436e+01 1 0 0
1892 1 5.6046400100272054e-01 5.0627787135018494e+00 9.9303848346838635e+00 0 0 0
5980 1 1.1480775381169268e+01 4.0969991721716905e+00 1.2496066737135155e+01 1 1 0
380 1 1.1668759409760259e+01 6.3050235858745241e-01 1.2621130196845433e+01 -1 2 0
3311 1 1.2210136672602413e+01 4.0095956876144434e-01 9.3667977696990299e+00 0 -1 0
3525 1 3.7060624873979797e-01 2.3556858877420712e+00 3.8368132565964941e+00 0 1 0
3497 1 1.3676028497049530e+00 1.5874566793376594e+01 3.5639789742502961e+00 1 0 1
6070 1 3.5402989408521233e+00 3.6488941173750646e+00 1.3644899232054852e+01 0 1 1
3369 1 9.9774660717965027e+00 1.0302208050566168e+01 2.1642211208643690e+01 1 0 0
2975 1 3.7573692272019099e+00 2.4082479815834894e+00 1.6173578566732338e+01 0 1 1
4961 1 5.4518430707661905e+00 5.3797835617479430e+00 1.4760958682467274e+01 0 1 0
4663 1 6.0035213718555704e+00 1.2320724387963031e+00 1.7047361717388544e+01 -1 0 1
5076 1 6.2041458739033715e+00 2.7670915436649115e+00 2.4549539025875060e+01 -1 2 -1
1944 1 1.1525572947571215e+01 2.7862183324324401e+00 1.5151327135361591e+01 2 1 0
1948 1 1.0272455554032593e+01 1.1166113227433948e+01 2.4293275411198486e+01 -1 1 0
3643 1 1.2589921250894838e+00 2.9627966855946792e+00 2.4453257327693859e+01 0 0 1
4425 1 1.1469963713928740e+01 1.6202469793259173e+01 1.8377336650757925e+01 0 1 1
266 1 4.9345393887914577e+00 6.3061863500208668e+00 1.7248851309278464e+01 0 0 0
6238 1 9.1488023108651166e+00 7.4304188807419429e+00 1.6522947104386787e+01 0 0 1
6111 1 1.2111478882281695e+01 1.4490841062157870e+01 2.1582461281392828e+01 0 1 1
4956 1 8.9323731382890870e+00 3.9142166863787371e+00 1.4742457306412499e+01 1 0 0
466 1 2.1298660910713338e+00 8.4711142791702319e+00 1.5807579916814436e+01 0 1 0
4416 1 1.1861134328102296e+00 1.1712335452586524e+01 1.5713556709248065e+01 1 1 0
3258 1 6.3033863332860163e+00 9.0312340741503583e+00 1.6979599862005216e+01 -1 0 0
4583 1 8.9591421206053994e+00 1.3891538679907095e+01 1.6521266014026494e+01 0 1 1
14 1 1.0635286811220725e+01 9.9208850932800843e+00 1.7397735988808556e+01 0 0 1
1767 1 9.4946450167574525e+00 5.8291489141575674e+00 2.4254610909239915e+01 0 1 0
3251 1 2.9506621966624609e+00 1.2397810557636753e+01 1.7719507122307128e+01 1 1 1
343 1 6.2717767567232396e-01 1.3053641693102541e+01 1.8935606574073326e+01 1 0 0
2037 1 4.7530020019644024e+00 1.3730343895339104e+01 1.6010445494566774e+01 1 0 0
5135 1 7.1030371079115815e+00 1.2564018301335405e+01 1.9559445594142538e+01 0 0 -1
3565 1 8.6495389608705437e+00 1.5479978751348444e+01 1.8981390329102108e+01 1 1 0
4876 1 8.2873132921808299e+00 6.1661948331513305e-01 2.4072103325562413e+01 -1 1 0
3654 1 1.5495641454517806e+00 2.3418477400011404e+00 1.9570021309348210e+01 0 1 1
4496 1 8.8657269728128938e+00 1.3460197105697564e+01 2.3755124094531364e+01 0 -1 1
3118 1 8.0105345631323637e+00 3.3511503661966477e+00 1.7478912768562914e+01 0 1 1
4822 1 3.8759557475762216e+00 4.0484657022265296e+00 2.0808029307945421e+01 0 0 0
3174 1 1.0262578329270026e+01 1.6247098232863443e+01 2.3802878727070667e+01 -1 -1 1
4581 1 8.4525864893021936e+00 2.8505143584339279e+00 2.1267303955991753e+01 0 0 0
3390 1 8.5926393857173000e+00 8.2822072506213527e+00 2.3173798265396726e+01 0 0 1
3717 1 1.1528417519806716e+01 1.9086512318341713e+00 2.0197972092437944e+01 0 0 1
3324 1 3.1349823738696876e+00 4.2803864087561037e+00 1.7875697859074361e+01 0 1 0
1322 1 9.3287318780932562e+00 1.2521831323520647e+00 1.8576723436366763e+01 1 2 1
60 1 7.2773772121536666e+00 5.8545595941212287e+00 1.8541748262987532e+01 0 1 1
4693 1 4.6170969495501382e+00 8.7521298020582474e+00 2.1952040164133386e+01 2 1 0
1263 1 2.8112665048682834e+00 1.5415326892078731e+01 1.4685020658253627e+01 1 -1 1
1597 1 6.9210286772515168e+00 1.5949140251760779e+01 2.4010805434652113e+01 0 0 0
4963 1 3.0795739687495334e+00 8.3841996033054240e+00 1.8603383965883108e+01 0 1 0
5097 1 1.1653346586092585e+01 1.2700223990628990e+01 1.6732920367191745e+01 1 1 0
6027 1 4.7121017684773037e+00 1.0625349520732048e+01 1.8757459232096963e+01 1 0 0
3536 1 8.1638168327271678e+00 1.0040963403080278e+01 1.9255938331743636e+01 0 0 1
106 1 3.8526457259691780e+00 4.1928825558151228e+00 2.3704660164795484e+01 1 1 0
3046 1 6.2540334647999192e+00 1.2782852025989770e+01 2.4282475163945112e+01 0 -1 1
1929 1 3.0232125814829818e+00 1.3548844466200045e+01 2.4082655239854219e+01 -1 1 0
4448 1 9.5964401488384663e+00 1.3311467344016307e+01 2.1260828619896049e+01 0 1 1
3679 1 3.0779577757517068e-01 1.1456549856576567e+01 2.1499960631653131e+01 0 2 0
3024 1 6.8717810021325292e+00 3.2202633629400745e-01 1.4656123735849029e+01 1 1 0
5057 1 4.7887606408152470e+00 8.2818494793111319e-02 2.4578692582025752e+01 -1 1 0
4713 1 7.9983936326075140e+00 1.1208790886862781e+01 1.5811527243896307e+01 -1 0 0
4588 1 5.6533229010961872e+00 1.2364735750932045e+00 2.1892147895127888e+01 0 1 1
3285 1 1.3128537404103251e+00 8.4454934731651610e-01 1.6429219412452085e+01 0 1 0
3381 1 1.1086962052281097e+01 1.5401018546634433e+00 2.3492009718677412e+01 0 0 0
4479 1 2.8493626097563252e+00 6.7827505319871086e+00 2.0872898762205228e+01 1 -1 1
2878 1 1.1137269455850713e+00 5.6403604128646325e+00 1.6672829334675136e+01 0 0 1
6203 1 2.0395706755006255e+00 6.7741684368699078e+00 2.3926291065876654e+01 0 -1 1
316 1 2.9683889890502355e+00 2.2253810689961417e-01 2.1187225111919542e+01 0 2 0
5100 1 6.5597093411123639e+00 4.9220016423228063e+00 2.1321217567542369e+01 1 1 0
3287 1 4.7471905518799575e+00 7.3115443498503145e+00 2.4506020407795766e+01 0 0 0
1889 1 6.8938503391977255e+00 7.8635757561725859e+00 2.0910514761537325e+01 2 1 0
6216 1 5.2304205358701861e+00 1.2556407063314037e+01 2.1386083523468375e+01 0 0 0
3332 1 6.4474956960489056e+00 9.7784021277323614e+00 2.4161329148035918e+01 1 0 0
4654 1 1.0658764906516430e+01 4.1856965102450596e+00 2.2435715938109617e+01 0 0 1
547 1 1.6549904918367169e+00 1.5702592235005147e+01 1.9755983038986933e+01 1 0 0
6194 1 6.8207620173050438e+00 5.5694395318817991e+00 2.3971818188392390e+01 1 1 1
5074 1 2.7449370686712817e+00 1.0879658733040747e+01 2.2648255790030504e+01 1 0 0
5116 1 2.1425364796262985e+00 3.4273008351677287e-01 2.3920414289255781e+01 0 1 0
3021 1 6.2865915126154528e+00 1.5752289639422694e+01 1.7532987607144047e+01 0 0 1
3450 1 1.1421948151674249e+01 8.3229437197183067e+00 2.4407275855310608e+01 1 0 0
3501 1 4.0485549843470308e+00 1.4824847368165683e+01 2.1423072772962115e+01 0 1 0
4797 1 1.0520236556174840e+01 2.9908741221228174e-01 1.6021080243145775e+01 1 -1 0
5095 1 1.1908773899186160e+01 7.9434082633948746e+00 1.9344496164979368e+01 -1 1 0
4603 1 3.8471604909282475e-01 1.4546540986469994e+01 2.4238805691734267e+01 0 -1 1
3317 1 4.3640537567098798e+00 9.7346680339180782e+00 1.4593585738950408e+01 1 1 1
1924 1 4.1720120319011054e+00 1.6278756877844064e+01 2.4013139453136986e+01 0 0 1
1582 1 1.1437174557906143e+01 6.1277943381038424e+00 1.7338412496757577e+01 1 -1 0
4848 1 6.5947651939075289e+00 1.6338195679340330e+01 2.0903447088574566e+01 0 1 0
3129 1 5.8658562357937170e+00 1.1963149477637982e+01 1.4227047282985804e+01 0 0 1
552 2 0.0000000000000000e+00 2.8417180249513345e+00 2.6864006963106281e+01 0 0 0
554 2 0.0000000000000000e+00 0.0000000000000000e+00 2.6864006963106281e+01 0 0 0
556 2 1.2305000000000001e+00 7.1042950623783474e-01 2.6864006963106281e+01 0 0 0
563 2 1.2305000000000001e+00 2.1312885187134998e+00 2.6864006963106281e+01 0 0 0
565 2 2.4610000000000003e+00 2.8417180249513345e+00 2.6864006963106281e+01 0 0 0
567 2 2.4610000000000003e+00 0.0000000000000000e+00 2.6864006963106281e+01 0 0 0
569 2 3.6915000000000004e+00 7.1042950623783474e-01 2.6864006963106281e+01 0 0 0
584 2 3.6914999999999996e+00 2.1312885187134998e+00 2.6864006963106281e+01 0 0 0
586 2 4.9220000000000006e+00 2.8417180249513332e+00 2.6864006963106281e+01 0 0 0
588 2 4.9220000000000006e+00 0.0000000000000000e+00 2.6864006963106281e+01 0 0 0
590 2 6.1524999999999999e+00 7.1042950623783407e-01 2.6864006963106281e+01 0 0 0
613 2 6.1524999999999999e+00 2.1312885187134989e+00 2.6864006963106281e+01 0 0 0
615 2 7.3829999999999991e+00 2.8417180249513345e+00 2.6864006963106281e+01 0 0 0
617 2 7.3829999999999991e+00 0.0000000000000000e+00 2.6864006963106281e+01 0 0 0
619 2 8.6134999999999984e+00 7.1042950623783407e-01 2.6864006963106281e+01 0 0 0
650 2 8.6134999999999984e+00 2.1312885187135002e+00 2.6864006963106281e+01 0 0 0
652 2 9.8440000000000012e+00 2.8417180249513332e+00 2.6864006963106281e+01 0 0 0
654 2 9.8440000000000012e+00 0.0000000000000000e+00 2.6864006963106281e+01 0 0 0
656 2 1.1074500000000002e+01 7.1042950623783330e-01 2.6864006963106281e+01 0 0 0
695 2 1.1074500000000002e+01 2.1312885187135002e+00 2.6864006963106281e+01 0 0 0
559 2 0.0000000000000000e+00 4.2625770374269996e+00 2.6864006963106281e+01 0 0 0
561 2 1.2305000000000001e+00 4.9730065436648339e+00 2.6864006963106281e+01 0 0 0
576 2 1.2305000000000001e+00 6.3938655561404980e+00 2.6864006963106281e+01 0 0 0
580 2 2.4610000000000003e+00 4.2625770374269996e+00 2.6864006963106281e+01 0 0 0
582 2 3.6914999999999996e+00 4.9730065436648339e+00 2.6864006963106281e+01 0 0 0
605 2 3.6914999999999996e+00 6.3938655561404980e+00 2.6864006963106281e+01 0 0 0
557 2 0.0000000000000000e+00 7.1042950623783341e+00 2.6864006963106281e+01 0 0 0
578 2 2.4610000000000003e+00 7.1042950623783341e+00 2.6864006963106281e+01 0 0 0
609 2 4.9220000000000006e+00 4.2625770374269978e+00 2.6864006963106281e+01 0 0 0
611 2 6.1524999999999999e+00 4.9730065436648339e+00 2.6864006963106281e+01 0 0 0
642 2 6.1524999999999999e+00 6.3938655561404980e+00 2.6864006963106281e+01 0 0 0
646 2 7.3829999999999991e+00 4.2625770374269996e+00 2.6864006963106281e+01 0 0 0
607 2 4.9220000000000006e+00 7.1042950623783341e+00 2.6864006963106281e+01 0 0 0
644 2 7.3830000000000009e+00 7.1042950623783341e+00 2.6864006963106281e+01 0 0 0
648 2 8.6135000000000002e+00 4.9730065436648339e+00 2.6864006963106281e+01 0 0 0
687 2 8.6135000000000002e+00 6.3938655561404980e+00 2.6864006963106281e+01 0 0 0
691 2 9.8440000000000012e+00 4.2625770374270004e+00 2.6864006963106281e+01 0 0 0
693 2 1.1074500000000002e+01 4.9730065436648339e+00 2.6864006963106281e+01 0 0 0
734 2 1.1074500000000002e+01 6.3938655561404980e+00 2.6864006963106281e+01 0 0 0
689 2 9.8440000000000012e+00 7.1042950623783341e+00 2.6864006963106281e+01 0 0 0
572 2 0.0000000000000000e+00 8.5251540748539991e+00 2.6864006963106281e+01 0 0 0
574 2 1.2305000000000001e+00 9.2355835810918343e+00 2.6864006963106281e+01 0 0 0
601 2 2.4610000000000003e+00 8.5251540748539991e+00 2.6864006963106281e+01 0 0 0
603 2 3.6915000000000004e+00 9.2355835810918343e+00 2.6864006963106281e+01 0 0 0
570 2 0.0000000000000000e+00 1.1366872099805333e+01 2.6864006963106281e+01 0 0 0
597 2 1.2305000000000001e+00 1.0656442593567498e+01 2.6864006963106281e+01 0 0 0
599 2 2.4610000000000003e+00 1.1366872099805333e+01 2.6864006963106281e+01 0 0 0
634 2 3.6914999999999996e+00 1.0656442593567499e+01 2.6864006963106281e+01 0 0 0
638 2 4.9220000000000006e+00 8.5251540748539991e+00 2.6864006963106281e+01 0 0 0
640 2 6.1524999999999999e+00 9.2355835810918343e+00 2.6864006963106281e+01 0 0 0
683 2 7.3830000000000009e+00 8.5251540748539991e+00 2.6864006963106281e+01 0 0 0
636 2 4.9220000000000006e+00 1.1366872099805333e+01 2.6864006963106281e+01 0 0 0
679 2 6.1524999999999999e+00 1.0656442593567499e+01 2.6864006963106281e+01 0 0 0
681 2 7.3829999999999991e+00 1.1366872099805333e+01 2.6864006963106281e+01 0 0 0
1012 2 1.1074500000000002e+01 1.4919019630994494e+01 3.3197993036893791e+01 0 0 0
685 2 8.6134999999999984e+00 9.2355835810918343e+00 2.6864006963106281e+01 0 0 0
730 2 9.8440000000000012e+00 8.5251540748539956e+00 2.6864006963106281e+01 0 0 0
732 2 1.1074500000000002e+01 9.2355835810918343e+00 2.6864006963106281e+01 0 0 0
726 2 8.6134999999999984e+00 1.0656442593567498e+01 2.6864006963106281e+01 0 0 0
728 2 9.8440000000000012e+00 1.1366872099805333e+01 2.6864006963106281e+01 0 0 0
773 2 1.1074500000000002e+01 1.0656442593567498e+01 2.6864006963106281e+01 0 0 0
775 2 1.2304999999999998e+01 1.1366872099805333e+01 2.6864006963106281e+01 0 0 0
593 2 0.0000000000000000e+00 1.2787731112280996e+01 2.6864006963106281e+01 0 0 0
595 2 1.2305000000000001e+00 1.3498160618518829e+01 2.6864006963106281e+01 0 0 0
630 2 2.4610000000000003e+00 1.2787731112280996e+01 2.6864006963106281e+01 0 0 0
632 2 3.6915000000000004e+00 1.3498160618518829e+01 2.6864006963106281e+01 0 0 0
591 2 0.0000000000000000e+00 1.5629449137232333e+01 2.6864006963106281e+01 0 0 0
626 2 1.2305000000000001e+00 1.4919019630994494e+01 2.6864006963106281e+01 0 0 0
628 2 2.4610000000000003e+00 1.5629449137232328e+01 2.6864006963106281e+01 0 0 0
671 2 3.6915000000000004e+00 1.4919019630994494e+01 2.6864006963106281e+01 0 0 0
970 2 8.6135000000000002e+00 1.3498160618518835e+01 3.3197993036893791e+01 0 0 0
675 2 4.9220000000000006e+00 1.2787731112280996e+01 2.6864006963106281e+01 0 0 0
677 2 6.1524999999999990e+00 1.3498160618518829e+01 2.6864006963106281e+01 0 0 0
722 2 7.3829999999999991e+00 1.2787731112280996e+01 2.6864006963106281e+01 0 0 0
673 2 4.9220000000000006e+00 1.5629449137232333e+01 2.6864006963106281e+01 0 0 0
718 2 6.1524999999999990e+00 1.4919019630994494e+01 2.6864006963106281e+01 0 0 0
720 2 7.3829999999999991e+00 1.5629449137232333e+01 2.6864006963106281e+01 0 0 0
724 2 8.6135000000000002e+00 1.3498160618518835e+01 2.6864006963106281e+01 0 0 0
769 2 9.8440000000000012e+00 1.2787731112280996e+01 2.6864006963106281e+01 0 0 0
771 2 1.1074500000000002e+01 1.3498160618518829e+01 2.6864006963106281e+01 0 0 0
765 2 8.6135000000000002e+00 1.4919019630994494e+01 2.6864006963106281e+01 0 0 0
767 2 9.8440000000000012e+00 1.5629449137232328e+01 2.6864006963106281e+01 0 0 0
807 2 1.1074500000000002e+01 1.4919019630994494e+01 2.6864006963106281e+01 0 0 0
553 2 0.0000000000000000e+00 1.4208590124756650e+00 3.0030999999999889e+01 0 0 0
555 2 0.0000000000000000e+00 0.0000000000000000e+00 3.0030999999999889e+01 0 0 0
564 2 1.2305000000000001e+00 2.1312885187134998e+00 3.0030999999999889e+01 0 0 0
566 2 2.4610000000000003e+00 1.4208590124756650e+00 3.0030999999999889e+01 0 0 0
568 2 2.4610000000000003e+00 0.0000000000000000e+00 3.0030999999999889e+01 0 0 0
585 2 3.6914999999999996e+00 2.1312885187134998e+00 3.0030999999999889e+01 0 0 0
562 2 1.2305000000000001e+00 3.5521475311891644e+00 3.0030999999999889e+01 0 0 0
583 2 3.6914999999999996e+00 3.5521475311891644e+00 3.0030999999999889e+01 0 0 0
587 2 4.9220000000000006e+00 1.4208590124756650e+00 3.0030999999999889e+01 0 0 0
589 2 4.9220000000000006e+00 0.0000000000000000e+00 3.0030999999999889e+01 0 0 0
614 2 6.1524999999999999e+00 2.1312885187134989e+00 3.0030999999999889e+01 0 0 0
616 2 7.3829999999999991e+00 1.4208590124756659e+00 3.0030999999999889e+01 0 0 0
618 2 7.3829999999999991e+00 0.0000000000000000e+00 3.0030999999999889e+01 0 0 0
612 2 6.1524999999999999e+00 3.5521475311891644e+00 3.0030999999999889e+01 0 0 0
651 2 8.6134999999999984e+00 2.1312885187135002e+00 3.0030999999999889e+01 0 0 0
653 2 9.8440000000000012e+00 1.4208590124756659e+00 3.0030999999999889e+01 0 0 0
655 2 9.8440000000000012e+00 0.0000000000000000e+00 3.0030999999999889e+01 0 0 0
696 2 1.1074500000000002e+01 2.1312885187135002e+00 3.0030999999999889e+01 0 0 0
649 2 8.6134999999999984e+00 3.5521475311891657e+00 3.0030999999999889e+01 0 0 0
694 2 1.1074500000000002e+01 3.5521475311891644e+00 3.0030999999999889e+01 0 0 0
558 2 0.0000000000000000e+00 5.6834360499026637e+00 3.0030999999999889e+01 0 0 0
560 2 0.0000000000000000e+00 4.2625770374269996e+00 3.0030999999999889e+01 0 0 0
577 2 1.2305000000000001e+00 6.3938655561404980e+00 3.0030999999999889e+01 0 0 0
579 2 2.4610000000000003e+00 5.6834360499026637e+00 3.0030999999999889e+01 0 0 0
581 2 2.4610000000000003e+00 4.2625770374269996e+00 3.0030999999999889e+01 0 0 0
606 2 3.6914999999999996e+00 6.3938655561404980e+00 3.0030999999999889e+01 0 0 0
575 2 1.2305000000000001e+00 7.8147245686161639e+00 3.0030999999999889e+01 0 0 0
604 2 3.6914999999999996e+00 7.8147245686161639e+00 3.0030999999999889e+01 0 0 0
608 2 4.9220000000000006e+00 5.6834360499026637e+00 3.0030999999999889e+01 0 0 0
610 2 4.9220000000000006e+00 4.2625770374269978e+00 3.0030999999999889e+01 0 0 0
643 2 6.1524999999999999e+00 6.3938655561404980e+00 3.0030999999999889e+01 0 0 0
645 2 7.3829999999999991e+00 5.6834360499026637e+00 3.0030999999999889e+01 0 0 0
647 2 7.3829999999999991e+00 4.2625770374269996e+00 3.0030999999999889e+01 0 0 0
641 2 6.1524999999999999e+00 7.8147245686161639e+00 3.0030999999999889e+01 0 0 0
688 2 8.6135000000000002e+00 6.3938655561404980e+00 3.0030999999999889e+01 0 0 0
690 2 9.8440000000000012e+00 5.6834360499026637e+00 3.0030999999999889e+01 0 0 0
692 2 9.8440000000000012e+00 4.2625770374270004e+00 3.0030999999999889e+01 0 0 0
735 2 1.1074500000000002e+01 6.3938655561404980e+00 3.0030999999999889e+01 0 0 0
686 2 8.6135000000000002e+00 7.8147245686161639e+00 3.0030999999999889e+01 0 0 0
733 2 1.1074500000000002e+01 7.8147245686161639e+00 3.0030999999999889e+01 0 0 0
571 2 0.0000000000000000e+00 9.9460130873296642e+00 3.0030999999999889e+01 0 0 0
573 2 0.0000000000000000e+00 8.5251540748539991e+00 3.0030999999999889e+01 0 0 0
600 2 2.4610000000000003e+00 9.9460130873296642e+00 3.0030999999999889e+01 0 0 0
602 2 2.4610000000000003e+00 8.5251540748539991e+00 3.0030999999999889e+01 0 0 0
596 2 1.2305000000000001e+00 1.2077301606043163e+01 3.0030999999999889e+01 0 0 0
598 2 1.2305000000000001e+00 1.0656442593567498e+01 3.0030999999999889e+01 0 0 0
633 2 3.6914999999999996e+00 1.2077301606043163e+01 3.0030999999999889e+01 0 0 0
635 2 3.6914999999999996e+00 1.0656442593567499e+01 3.0030999999999889e+01 0 0 0
637 2 4.9220000000000006e+00 9.9460130873296642e+00 3.0030999999999889e+01 0 0 0
639 2 4.9220000000000006e+00 8.5251540748539991e+00 3.0030999999999889e+01 0 0 0
682 2 7.3830000000000009e+00 9.9460130873296642e+00 3.0030999999999889e+01 0 0 0
684 2 7.3830000000000009e+00 8.5251540748539991e+00 3.0030999999999889e+01 0 0 0
678 2 6.1524999999999999e+00 1.2077301606043163e+01 3.0030999999999889e+01 0 0 0
680 2 6.1524999999999999e+00 1.0656442593567499e+01 3.0030999999999889e+01 0 0 0
729 2 9.8440000000000012e+00 9.9460130873296642e+00 3.0030999999999889e+01 0 0 0
731 2 9.8440000000000012e+00 8.5251540748539956e+00 3.0030999999999889e+01 0 0 0
725 2 8.6135000000000002e+00 1.2077301606043163e+01 3.0030999999999889e+01 0 0 0
727 2 8.6134999999999984e+00 1.0656442593567498e+01 3.0030999999999889e+01 0 0 0
772 2 1.1074500000000002e+01 1.2077301606043163e+01 3.0030999999999889e+01 0 0 0
774 2 1.1074500000000002e+01 1.0656442593567498e+01 3.0030999999999889e+01 0 0 0
594 2 0.0000000000000000e+00 1.2787731112280996e+01 3.0030999999999889e+01 0 0 0
631 2 2.4610000000000003e+00 1.2787731112280996e+01 3.0030999999999889e+01 0 0 0
592 2 0.0000000000000000e+00 1.4208590124756663e+01 3.0030999999999889e+01 0 0 0
627 2 1.2305000000000001e+00 1.4919019630994494e+01 3.0030999999999889e+01 0 0 0
629 2 2.4610000000000003e+00 1.4208590124756663e+01 3.0030999999999889e+01 0 0 0
672 2 3.6915000000000004e+00 1.4919019630994494e+01 3.0030999999999889e+01 0 0 0
676 2 4.9220000000000006e+00 1.2787731112280996e+01 3.0030999999999889e+01 0 0 0
723 2 7.3829999999999991e+00 1.2787731112280996e+01 3.0030999999999889e+01 0 0 0
674 2 4.9220000000000006e+00 1.4208590124756663e+01 3.0030999999999889e+01 0 0 0
719 2 6.1524999999999990e+00 1.4919019630994494e+01 3.0030999999999889e+01 0 0 0
721 2 7.3830000000000009e+00 1.4208590124756663e+01 3.0030999999999889e+01 0 0 0
770 2 9.8440000000000012e+00 1.2787731112280996e+01 3.0030999999999889e+01 0 0 0
766 2 8.6135000000000002e+00 1.4919019630994494e+01 3.0030999999999889e+01 0 0 0
768 2 9.8440000000000012e+00 1.4208590124756663e+01 3.0030999999999889e+01 0 0 0
806 2 1.1074500000000002e+01 1.6339878643470161e+01 3.0030999999999889e+01 0 0 0
808 2 1.1074500000000002e+01 1.4919019630994494e+01 3.0030999999999889e+01 0 0 0
810 2 1.2304999999999998e+01 1.4208590124756658e+01 3.0030999999999889e+01 0 0 0
881 2 0.0000000000000000e+00 2.8417180249513345e+00 3.3197993036893791e+01 0 0 0
882 2 0.0000000000000000e+00 0.0000000000000000e+00 3.3197993036893791e+01 0 0 0
883 2 1.2305000000000001e+00 7.1042950623783474e-01 3.3197993036893791e+01 0 0 0
887 2 1.2305000000000001e+00 2.1312885187134998e+00 3.3197993036893791e+01 0 0 0
888 2 2.4610000000000003e+00 2.8417180249513345e+00 3.3197993036893791e+01 0 0 0
889 2 2.4610000000000003e+00 0.0000000000000000e+00 3.3197993036893791e+01 0 0 0
890 2 3.6915000000000004e+00 7.1042950623783474e-01 3.3197993036893791e+01 0 0 0
898 2 3.6914999999999996e+00 2.1312885187134998e+00 3.3197993036893791e+01 0 0 0
899 2 4.9220000000000006e+00 2.8417180249513332e+00 3.3197993036893791e+01 0 0 0
900 2 4.9220000000000006e+00 0.0000000000000000e+00 3.3197993036893791e+01 0 0 0
901 2 6.1524999999999999e+00 7.1042950623783407e-01 3.3197993036893791e+01 0 0 0
913 2 6.1524999999999999e+00 2.1312885187134989e+00 3.3197993036893791e+01 0 0 0
914 2 7.3829999999999991e+00 2.8417180249513345e+00 3.3197993036893791e+01 0 0 0
915 2 7.3829999999999991e+00 0.0000000000000000e+00 3.3197993036893791e+01 0 0 0
916 2 8.6134999999999984e+00 7.1042950623783407e-01 3.3197993036893791e+01 0 0 0
932 2 8.6134999999999984e+00 2.1312885187135002e+00 3.3197993036893791e+01 0 0 0
933 2 9.8440000000000012e+00 2.8417180249513332e+00 3.3197993036893791e+01 0 0 0
934 2 9.8440000000000012e+00 0.0000000000000000e+00 3.3197993036893791e+01 0 0 0
935 2 1.1074500000000002e+01 7.1042950623783330e-01 3.3197993036893791e+01 0 0 0
955 2 1.1074500000000002e+01 2.1312885187135002e+00 3.3197993036893791e+01 0 0 0
885 2 0.0000000000000000e+00 4.2625770374269996e+00 3.3197993036893791e+01 0 0 0
886 2 1.2305000000000001e+00 4.9730065436648339e+00 3.3197993036893791e+01 0 0 0
894 2 1.2305000000000001e+00 6.3938655561404980e+00 3.3197993036893791e+01 0 0 0
896 2 2.4610000000000003e+00 4.2625770374269996e+00 3.3197993036893791e+01 0 0 0
897 2 3.6914999999999996e+00 4.9730065436648339e+00 3.3197993036893791e+01 0 0 0
909 2 3.6914999999999996e+00 6.3938655561404980e+00 3.3197993036893791e+01 0 0 0
884 2 0.0000000000000000e+00 7.1042950623783341e+00 3.3197993036893791e+01 0 0 0
895 2 2.4610000000000003e+00 7.1042950623783341e+00 3.3197993036893791e+01 0 0 0
911 2 4.9220000000000006e+00 4.2625770374269978e+00 3.3197993036893791e+01 0 0 0
912 2 6.1524999999999999e+00 4.9730065436648339e+00 3.3197993036893791e+01 0 0 0
928 2 6.1524999999999999e+00 6.3938655561404980e+00 3.3197993036893791e+01 0 0 0
930 2 7.3829999999999991e+00 4.2625770374269996e+00 3.3197993036893791e+01 0 0 0
910 2 4.9220000000000006e+00 7.1042950623783341e+00 3.3197993036893791e+01 0 0 0
929 2 7.3830000000000009e+00 7.1042950623783341e+00 3.3197993036893791e+01 0 0 0
931 2 8.6135000000000002e+00 4.9730065436648339e+00 3.3197993036893791e+01 0 0 0
951 2 8.6135000000000002e+00 6.3938655561404980e+00 3.3197993036893791e+01 0 0 0
953 2 9.8440000000000012e+00 4.2625770374270004e+00 3.3197993036893791e+01 0 0 0
954 2 1.1074500000000002e+01 4.9730065436648339e+00 3.3197993036893791e+01 0 0 0
975 2 1.1074500000000002e+01 6.3938655561404980e+00 3.3197993036893791e+01 0 0 0
952 2 9.8440000000000012e+00 7.1042950623783341e+00 3.3197993036893791e+01 0 0 0
892 2 0.0000000000000000e+00 8.5251540748539991e+00 3.3197993036893791e+01 0 0 0
893 2 1.2305000000000001e+00 9.2355835810918343e+00 3.3197993036893791e+01 0 0 0
907 2 2.4610000000000003e+00 8.5251540748539991e+00 3.3197993036893791e+01 0 0 0
908 2 3.6915000000000004e+00 9.2355835810918343e+00 3.3197993036893791e+01 0 0 0
891 2 0.0000000000000000e+00 1.1366872099805333e+01 3.3197993036893791e+01 0 0 0
905 2 1.2305000000000001e+00 1.0656442593567498e+01 3.3197993036893791e+01 0 0 0
906 2 2.4610000000000003e+00 1.1366872099805333e+01 3.3197993036893791e+01 0 0 0
924 2 3.6914999999999996e+00 1.0656442593567499e+01 3.3197993036893791e+01 0 0 0
926 2 4.9220000000000006e+00 8.5251540748539991e+00 3.3197993036893791e+01 0 0 0
927 2 6.1524999999999999e+00 9.2355835810918343e+00 3.3197993036893791e+01 0 0 0
949 2 7.3830000000000009e+00 8.5251540748539991e+00 3.3197993036893791e+01 0 0 0
925 2 4.9220000000000006e+00 1.1366872099805333e+01 3.3197993036893791e+01 0 0 0
947 2 6.1524999999999999e+00 1.0656442593567499e+01 3.3197993036893791e+01 0 0 0