LAMMPS data file via write_data, version 16 Mar 2018, timestep = 6000000

6768 atoms
2 atom types

-8.9117506293099780e-02 4.9309117506284494e+01 xlo xhi
-8.8754728030078667e-02 4.9108390658446631e+01 ylo yhi
-1.1510968040374507e+00 6.1213096804016892e+01 zlo zhi

Masses

1 18.015
2 12.01

Atoms # atomic

2024 1 2.2649880437966754e+00 3.0428484835556477e+00 2.0007983883802845e+00 0 2 0
3795 1 2.1790963442271711e+00 3.2219768427000903e+00 -5.8282118967621954e-01 2 2 0
5564 1 6.7128819716898391e+00 2.6302685460987711e+00 2.1067815555374465e+00 0 -1 0
1561 1 4.7880883750319843e+00 1.7152352818191893e+01 -1.1281282486619886e+00 -1 2 1
3622 1 1.1168720006136081e+01 3.1319192518046632e+00 2.2598855116997756e+00 1 1 1
4812 1 1.1245978496631235e+01 3.1249085935416359e+00 -2.4097122642723423e-01 0 0 0
265 1 1.5555852615135265e+01 3.2620232679834986e+00 2.2862729204376691e+00 0 1 0
2214 1 1.6273588480647831e+01 5.7754947979043036e-01 3.0234538442847594e+00 2 -1 0
2131 1 1.5780215025643473e+01 2.6864846527074886e+00 -2.2503864317360656e-01 -1 -1 1
5271 1 1.5811416809911396e+01 2.0304377057677520e+01 9.5842289500797158e+00 -2 3 0
6538 1 2.1639031521891030e+00 8.0690718101060543e+00 3.1848303394753739e+00 0 1 1
3564 1 4.4949863382819819e+00 6.9462061361872802e+00 -5.4566365862472321e-01 0 0 1
2002 1 4.3824039102263397e+00 6.5860013061972076e+00 2.1794226409182715e+00 2 1 0
5567 1 8.7337969214034707e+00 6.9020884539327225e+00 2.3007611670930519e+00 0 3 0
4760 1 9.2853318672975771e+00 6.8077919660193666e+00 -4.6910486143795660e-01 1 0 1
3977 1 1.3363869900100587e+01 4.3399934536302052e+00 3.3704193058603771e+00 0 0 1
2276 1 1.3418183409820735e+01 6.7695815782869095e+00 2.1933999165223161e+00 0 2 1
2315 1 1.3377213400463056e+01 6.9457290481321481e+00 -4.7928197051056654e-01 1 1 1
5520 1 2.2011484720998218e+00 1.0820711485391598e+01 2.4747071025190781e+00 0 -2 1
3240 1 2.2183307625408730e+00 1.0819277373563081e+01 -1.8858642581376728e-01 0 2 1
3936 1 6.8698863087106155e+00 1.0617346585762494e+01 2.1535464425732207e+00 1 -2 1
3701 1 6.8234308083684736e+00 1.0614779358685112e+01 -6.2128321750312254e-01 0 -1 0
1856 1 1.1074476732319900e+01 1.0703299846175481e+01 -4.8275662377219475e-01 4 1 1
230 1 1.1322130477652898e+01 1.0994205335457663e+01 2.2319487511144445e+00 2 0 0
2135 1 8.9262997120820273e+00 1.2058976254907771e+01 3.2600034260283905e+00 2 1 1
5120 1 1.6358085596332160e+01 1.0631372187894319e+01 2.2455834363773399e+00 1 2 0
3490 1 1.5903160435822231e+01 8.1157542456959515e+00 2.9187751529372035e+00 2 1 0
2248 1 1.5739279260005791e+01 1.0646595424813619e+01 -6.6941626393259512e-01 0 1 1
3713 1 4.5787618277943549e+00 1.4414466392793445e+01 2.3482073844601254e+00 -1 1 0
1929 1 9.1858136400077441e+00 2.1755436266286093e+01 -3.5425988486154925e-01 0 -1 0
5677 1 7.2007272087670273e+00 1.5422672203369929e+01 3.0246366083785192e+00 3 0 1
1344 1 1.9155923202726294e-01 2.2072196483394794e+01 1.0165226954007935e+01 -2 1 1
48 1 9.5751109254881737e+00 1.4402033112158977e+01 2.2838047018602667e+00 -2 0 1
3869 1 1.1502820979967026e+01 1.5974045868517894e+01 3.2110175820935813e+00 2 1 0
5685 1 1.6041997328749350e+01 1.5673078273285075e+01 6.0179422902693238e+00 -1 2 1
5585 1 1.3759961644720246e+01 1.4637315039153968e+01 2.4150235709010728e+00 2 -3 1
3570 1 1.5951127457417659e+01 1.5707020469286256e+01 3.3829855082153619e+00 -1 -1 0
2335 1 2.3623267776443084e+00 1.8152989733312324e+01 -5.8369318469843279e-02 0 -2 1
4943 1 2.4487309721143604e+00 1.8370462302826702e+01 2.3123360295840651e+00 -2 2 0
5102 1 6.9134376756442606e+00 1.8141335865755213e+01 2.3947127971756412e+00 0 -1 1
3389 1 7.2059243318018931e+00 1.8148483009378673e+01 -2.3627132985551835e-01 1 -1 0
416 1 4.8256089382405278e+00 1.9491966010500743e+01 3.0546023502519200e+00 0 1 0
6476 1 1.1382413349490998e+01 1.8517733433209230e+01 2.2074150428105974e+00 1 0 1
1769 1 9.0036974645556747e+00 1.9421209137048464e+01 3.2952547283811056e+00 0 0 0
5459 1 6.8730084626196666e+00 3.2263849930113353e+00 -4.0381783206906441e-01 -1 2 0
6682 1 1.6149112573102560e+01 1.8415029125295522e+01 -4.8770847087203317e-01 1 2 0
423 1 1.5976993232686919e+01 1.8120030650086452e+01 2.3028130395132189e+00 1 0 0
65 1 1.3425123620585733e+01 2.1606951334568976e+01 1.0438171302056572e+01 -1 3 0
6515 1 8.8035115099815364e+00 2.1767614023194170e+01 9.9146943746009608e+00 1 -1 0
4703 1 -1.7600586154820519e-02 1.9705964857141218e+01 2.7649270550609111e+00 -1 3 1
130 1 4.5300009913156156e+00 2.1967591505837220e+01 2.1598576802121752e+00 1 2 0
439 1 8.8796485839419006e+00 2.1869295928367034e+01 2.2747381680036951e+00 1 -2 1
209 1 4.3438083396976781e+00 2.4498235443027149e+01 6.7356865574149758e+00 1 -1 0
3214 1 1.1328245477704101e+01 2.2903523586794339e+01 3.0691226131945655e+00 1 -2 1
424 1 1.3637299104574033e+01 2.2386823788886904e+01 -6.3809632835526975e-01 0 1 0
397 1 1.3402233234346170e+01 2.1783255542751498e+01 2.2089826984546277e+00 -1 4 0
242 1 1.5833227760630491e+01 2.3055004902355275e+01 3.0911258690663814e+00 0 -1 0
236 1 2.0467487714170680e+00 4.6232883381843404e-01 3.3697307632203630e+00 -1 2 0
5675 1 2.3942206316546217e+00 2.9351526235975833e-01 5.8542103967971242e+00 0 0 1
1384 1 6.6260549694632180e+00 1.3191009437874146e-01 2.7188789474585251e+00 -1 1 1
267 1 4.5340099092925810e+00 1.7886108604439617e+00 6.6120716089500862e+00 2 0 0
6595 1 6.7661891342194558e+00 6.3539210626085552e-01 5.4889795607348839e+00 -2 -2 1
6586 1 1.1322836123552051e+01 5.6315677657552365e-01 3.0248585067629836e+00 -1 2 1
6739 1 1.1325643813515249e+01 4.3266320467588071e-01 5.8377103207299417e+00 -1 1 0
3683 1 9.0652999465679187e+00 1.4758648541110080e+00 6.6257010913667900e+00 0 0 0
3763 1 1.5895648311746143e+01 3.9851176187100179e-01 5.6775795146415344e+00 0 -1 0
135 1 1.3559990177109107e+01 1.7115204642166884e+00 6.6303312811911645e+00 0 1 0
3480 1 2.4424366502901820e+00 5.5572106270447010e+00 6.6563751344198190e+00 1 1 0
5551 1 2.2581851252196579e+00 8.2150212593283705e+00 5.8306350828945464e+00 0 -1 0
4782 1 4.5275512374277094e+00 4.1252579479678495e+00 3.1370114565905656e+00 -2 0 1
3560 1 4.5148294361908565e+00 4.2671102690480298e+00 5.6897473480460130e+00 2 1 0
3575 1 6.8710447808547679e+00 5.3461502490168717e+00 6.7170299704879231e+00 -1 1 0
6578 1 6.8244600347265321e+00 8.0013004878508553e+00 5.9697763389220393e+00 3 1 1
1767 1 8.7517930683013319e+00 4.1974916682402696e+00 3.0055305947762472e+00 0 0 1
3051 1 8.8715571904463655e+00 3.8964523751981863e+00 5.8328430265668167e+00 0 -1 1
5320 1 1.1116545664211953e+01 5.1563606519294725e+00 6.6238958909859473e+00 0 0 1
4860 1 1.3528174936595912e+01 4.4204137527670762e+00 5.8609170748257462e+00 2 0 1
5267 1 1.5948811248811964e+01 5.6559766015921698e+00 6.2373339449363145e+00 1 0 0
6673 1 6.6792035356111752e+00 8.0586088364407544e+00 3.2943662945892909e+00 0 -1 1
3260 1 4.4032905720267435e+00 9.0626647376136962e+00 6.9606050327455797e+00 1 1 1
474 1 4.5786828450535548e+00 1.1792847642121242e+01 3.2666388288792607e+00 -1 -1 1
6369 1 4.5833864108175630e+00 1.1473542372147239e+01 5.9082040877897368e+00 3 2 1
91 1 1.1176213450484715e+01 8.2252213859387737e+00 2.9647676094785558e+00 0 0 0
1398 1 1.1103218129508752e+01 7.7825382027608550e+00 5.7480972377382074e+00 0 -1 1
497 1 9.0695648310161889e+00 9.2741644103862448e+00 6.8202157088540085e+00 0 0 0
5637 1 9.0561301296748571e+00 1.1796432299052244e+01 5.7298058481174259e+00 1 -3 0
484 1 1.3580690510003329e+01 1.2071919721091612e+01 2.9436934857052730e+00 -1 1 1
537 1 1.5679145509024266e+01 8.0695547656211275e+00 5.4826209311590768e+00 -1 0 1
5132 1 1.3342449721597886e+01 9.2708067545709696e+00 6.5156809086132279e+00 -1 0 0
10 1 1.3673653138790304e+01 1.1721618483166441e+01 5.8628502332544299e+00 1 1 1
2088 1 2.2603448832880018e+00 1.5657535001064142e+01 2.8699186976829223e+00 0 1 0
6743 1 2.5722547914765390e+00 1.3026763279685568e+01 6.6050762411291437e+00 -1 1 0
1567 1 2.1787169222344636e+00 1.5522522608449501e+01 5.7698032886346216e+00 1 0 1
3167 1 6.8899267700656370e+00 1.5649929404532660e+01 5.6558433118297620e+00 1 0 1
387 1 6.9313766117801574e+00 1.3052134727043358e+01 6.8021049939300493e+00 1 0 0
350 1 1.1463772992222534e+01 1.3118034839187542e+01 6.6147396847036291e+00 -1 1 0
4925 1 1.1597073298258985e+01 1.5681188486576978e+01 5.7443246374182930e+00 -3 1 1
6529 1 9.2949929508018023e+00 1.4513942594701273e+01 -2.9731462086773264e-01 2 0 1
5620 1 1.5717460540959515e+01 1.2866934255428450e+01 6.6445976079279596e+00 0 1 1
3450 1 4.4907142463497385e+00 1.9538672687227571e+01 5.7467758945669862e+00 1 0 0
5422 1 4.7640936359678614e+00 1.7129579673803079e+01 6.5443070694132022e+00 2 0 0
49 1 8.9179210648768379e+00 1.9487790674338871e+01 6.0540112118886320e+00 2 0 0
1990 1 8.9452234887306901e+00 1.6781319449552786e+01 6.4545936571924702e+00 0 0 0
5366 1 1.3551262355515956e+01 1.9209107423003104e+01 3.3321405812970646e+00 0 2 1
6588 1 1.3622370656198884e+01 1.6709540773818865e+01 7.0443066907575247e+00 0 0 1
145 1 1.3402050279374164e+01 1.9318737967544198e+01 6.0788860100412654e+00 0 0 0
2115 1 2.0820999014087729e+00 2.3383620895261252e+01 2.7437393747286776e+00 -2 0 0
107 1 2.0091942993993146e+00 2.0915525194484381e+01 6.3554933756248815e+00 1 1 0
4817 1 2.3535018277403612e+00 2.3334328619004484e+01 5.5793221629749299e+00 0 0 1
3753 1 6.6806931781687036e+00 2.3241735584203887e+01 2.9998395170060466e+00 0 -1 0
2168 1 6.6580857643147429e+00 2.0751070015209436e+01 6.5784479649875349e+00 2 -1 1
5181 1 6.7042148527119716e+00 2.3143024010743954e+01 5.5431047299454699e+00 0 0 0
216 1 1.0966500585223468e+01 2.0261315794657836e+01 6.9427041987237992e+00 0 1 0
3880 1 1.1332446061368122e+01 2.2773025049109311e+01 5.6788071237117048e+00 0 0 1
3124 1 1.6030811025270427e+01 2.2928602943868313e+01 5.7126417529664586e+00 2 2 1
5049 1 1.5462805827330284e+01 2.0676397243371710e+01 6.9093068833896343e+00 -2 2 1
6676 1 2.3144614517771709e+00 2.8699567101638590e+00 1.0361483064426652e+01 0 0 1
5419 1 4.5230152812613582e+00 1.8289050950938002e+00 9.4745029948274961e+00 0 -1 0
1692 1 6.7424037167011832e+00 2.9451626504069117e+00 1.0174795926087162e+01 5 3 1
5045 1 9.0372272024198406e+00 1.5853317396216611e+00 9.4070839774561819e+00 0 -1 1
2097 1 1.1114392831627505e+01 3.0459567206705951e+00 9.8825229566211181e+00 0 1 0
4008 1 1.3674207478629423e+01 1.6677750845136423e+00 9.1858768150540833e+00 1 2 1
3092 1 1.5894749349113550e+01 3.1799817008733213e+00 9.9581432847972735e+00 -1 0 1
3119 1 1.8892760752684896e+00 5.4097704304412906e+00 9.5055343458646888e+00 2 1 1
6596 1 1.0982008250810949e+01 2.0544227075612348e+01 9.6680554753504548e+00 1 1 1
5130 1 4.2837617072753860e+00 6.5931101075267851e+00 1.0411081346234390e+01 1 2 1
3222 1 6.7079666925875250e+00 5.3794798803420685e+00 9.4634453417298037e+00 1 3 1
3105 1 8.6032375637300476e+00 6.7585289510299340e+00 1.0335803745489093e+01 0 3 1
4874 1 1.1079497300313413e+01 5.8956145061532004e+00 9.1264069374920656e+00 -1 0 1
116 1 1.5773124530794446e+01 5.6883994049919560e+00 9.1018103735493963e+00 0 1 0
530 1 1.3326673711793728e+01 6.7795846619961653e+00 1.0257184244964151e+01 1 1 0
1948 1 6.5548448174751117e+00 2.0542393817686051e+01 9.2641535037004594e+00 0 1 0
3642 1 2.1905543308325188e+00 1.0523136365481156e+01 1.0467519081106834e+01 -1 0 0
5184 1 4.3724990100548613e+00 9.1878220234468859e+00 9.6283939081616428e+00 -3 4 0
2005 1 6.6477311671375610e+00 1.0494615924060588e+01 1.0187592949312368e+01 2 1 0
6374 1 8.7440730544742333e+00 9.2451259119073086e+00 9.5408416427431550e+00 3 -2 1
451 1 1.1275578376134872e+01 1.0495843280028364e+01 1.0182366833603254e+01 2 -1 0
2006 1 1.3495361483119972e+01 9.1057448933701828e+00 9.0566280293824093e+00 -1 2 0
24 1 1.5438066690837335e+01 1.0405086502888746e+01 1.0346690225513379e+01 2 1 1
3743 1 2.1751135679518296e+00 1.3074856545683163e+01 9.4761854765436269e+00 -2 -1 0
4714 1 4.3325155393239116e+00 1.4346265488936618e+01 1.0617963127243833e+01 1 1 1
5688 1 6.6436714678842224e+00 1.3066901236202211e+01 9.4647119073179518e+00 0 2 1
3178 1 8.9515541310735678e+00 1.4580170298446916e+01 1.0293460560304545e+01 2 2 1
513 1 1.1275054307814353e+01 1.3310221343206655e+01 9.3181447510457183e+00 -1 0 1
3786 1 1.5577879636050463e+01 1.2907870713284021e+01 9.4398135071306903e+00 2 -1 0
4958 1 1.3339379364095167e+01 1.4364575083919096e+01 1.0621211322891275e+01 3 1 1
4832 1 1.9654853966772068e+00 1.7925602613662399e+01 9.9842478058257491e+00 0 0 1
2274 1 4.0053376738973032e+00 1.6666256529519490e+01 9.1950994922058928e+00 -1 1 1
5424 1 6.2276617471126263e+00 1.8007447552253726e+01 9.9965663508703368e+00 1 1 0
3619 1 1.0981256284595771e+01 1.8147680995417524e+01 1.0303922825009693e+01 1 1 0
1909 1 8.6475655796970567e+00 1.7126342385236434e+01 9.3380431146232006e+00 -1 1 1
3275 1 1.3325151102308011e+01 1.6907598656164055e+01 9.7289162049630011e+00 0 0 1
5373 1 1.5690224762251463e+01 1.7733949371755539e+01 1.0538775357761160e+01 1 1 0
1954 1 2.2980644051495251e+00 2.0474388422531721e+01 8.9417926959323690e+00 2 0 0
3145 1 4.4797252565428973e+00 2.1755765815609358e+01 1.0515326816405942e+01 -1 -1 0
3959 1 1.3774101050563743e+01 1.4637682808613583e+01 -3.2115994626613820e-01 0 -1 1
2159 1 4.2269709763335855e-02 1.1978904438151725e+01 5.8580468930381224e+00 0 1 0
5368 1 4.7894517216173504e+00 2.2013188017413874e+01 -5.0449336536690104e-01 0 -1 0
1828 1 -2.6509450829715606e-02 1.4237679694170739e+01 2.1465465134417148e+00 -1 1 1
1712 1 1.1635116916161778e+01 1.8420642756551356e+01 -5.7643376648627798e-01 1 -2 1
2108 1 1.3443502868499968e+01 2.4146363329288672e+01 9.2630322613943203e+00 -2 -1 0
5071 1 4.4737073867071686e+00 2.4437161006392625e+01 9.5633653970181562e+00 0 1 1
4934 1 4.3775306082572971e+00 1.4447813846364349e+01 -4.1421812222401133e-01 2 0 1
3325 1 2.1381117910831754e-01 2.4493266168137598e+01 6.7007313430592834e+00 0 0 1
261 1 6.0721622047638174e-02 2.1984151408296938e+01 -7.0599634020166846e-01 2 -1 0
3776 1 1.1265747078733679e-01 4.0607303069059428e+00 5.8544303279921435e+00 0 1 0
5076 1 9.0652355467069228e+00 2.4306240479446984e+01 6.2245826802971829e+00 2 -1 0
4742 1 1.3669856910815348e+01 2.4147820162209538e+01 6.6378722105514365e+00 0 -1 1
528 1 3.0044051818346279e-01 1.5655938902050655e+00 6.9746534929213428e+00 -2 3 0
3925 1 5.5248116044241596e-02 2.0059933782584252e+00 9.5354768988828233e+00 1 0 1
2134 1 7.8491832905397629e-02 6.7288965096006859e+00 2.3794398779944657e+00 -1 1 0
6702 1 1.6973232919385073e-02 9.3182100363252882e+00 9.1754818245204497e+00 1 1 1
4766 1 4.9711158623624296e-01 4.2845637413912403e+00 3.3635510122201770e+00 1 -1 1
1558 1 -5.7018590324609875e-02 9.4124373238588035e+00 6.7164443180786142e+00 1 0 1
2192 1 1.6198475908560539e-01 7.1369949612317578e+00 -1.3587005570510424e-01 0 2 0
502 1 6.7819425405330458e+00 1.3284427281996861e+01 -1.0430087372129506e+00 0 0 1
5279 1 1.1363139210546473e+01 2.1032827676623725e+01 -1.1031851824808712e+00 -1 3 1
3457 1 1.3914509182341583e+01 1.7036312514375563e+01 -1.0890028780915202e+00 -2 -1 0
3824 1 9.0974535445455178e+00 1.8219596804763700e+00 -1.0703058087618658e+00 1 2 0
5005 1 3.3281006055004525e-01 1.6852940288685918e+01 -1.1256558666432284e+00 1 0 1
3245 1 5.4498276415273494e-02 1.8897162190928867e+00 -1.1467905222898480e+00 -2 4 1
1710 1 2.3443884636553918e+00 2.5340813520553387e+00 1.3146317172490003e+01 0 -1 0
5371 1 -7.4873999447206074e-02 1.1834577211295599e+01 1.4091057137407150e+01 0 0 0
51 1 6.6480383575275441e+00 2.5187617001890961e+00 1.2822589918214517e+01 2 4 0
6753 1 2.2025202245032416e-01 3.3429674840943533e+00 2.0746364473379796e+01 0 2 1
6617 1 1.0884947853771068e+01 2.7836267906235559e+00 1.2852734779242402e+01 1 3 1
5199 1 8.9378903432146011e+00 4.0714141641187274e+00 1.3813248173301146e+01 0 1 0
3179 1 1.5717586546612068e+01 2.7000354899440127e+00 1.2732899580122506e+01 -1 3 1
90 1 -5.6731567050706463e-02 1.1838761995311936e+01 1.6762770813815948e+01 1 -1 0
3305 1 2.0854524324976729e+00 7.6996195944083405e+00 1.3885509229168186e+01 -2 2 1
6518 1 4.5936690871831045e+00 3.7286703223761894e+00 1.3502677639147254e+01 0 0 1
6619 1 4.2392084694101424e+00 6.5708355506142357e+00 1.2866359321720390e+01 3 2 1
6381 1 6.5496674349048609e+00 7.6897435219098558e+00 1.4308877352038985e+01 2 -2 1
4014 1 8.6520382398651670e+00 6.5778009305094010e+00 1.3027470674886507e+01 1 3 1
4773 1 1.1083592121682582e+01 7.7080730597118343e+00 1.3627841397729542e+01 2 0 1
6659 1 1.3511309574137284e+01 3.8036199281129748e+00 1.3753290228805740e+01 -1 -1 0
4785 1 1.3305748903134427e+01 6.4397869684264908e+00 1.3192137898396808e+01 2 -1 1
2113 1 1.5597443375678834e+01 7.5755379197542752e+00 1.4291556161590856e+01 -1 1 0
4707 1 2.2451276007560264e+00 1.0191149035081491e+01 1.3229955400058738e+01 1 -1 1
2153 1 1.3302855178948375e+01 1.9773217759008112e+01 2.3593051614249511e+01 0 0 0
2318 1 6.5203903295730843e+00 1.0564708896953629e+01 1.3049900466792920e+01 -1 -2 1
1490 1 4.3916405260140499e+00 1.1719556906434399e+01 1.4086426292106980e+01 1 1 1
4738 1 1.1085622507327491e+01 1.0424454419450052e+01 1.2916467399299867e+01 -1 1 0
538 1 8.8718648395182242e+00 1.1769532580088592e+01 1.3885486384034667e+01 1 0 0
180 1 1.3342972631041253e+01 1.1683214954469321e+01 1.4070268866491237e+01 2 1 1
2013 1 1.5480947186184364e+01 1.0398495984339078e+01 1.2926715065333225e+01 -1 1 1
1822 1 -1.5783901026355032e-02 2.1773315270400737e+01 1.2943338174003188e+01 2 0 0
4960 1 1.8529111418958986e+00 1.5595612426046538e+01 1.3720405051998876e+01 1 0 1
3661 1 4.2191708594403465e+00 1.4263950260376747e+01 1.3235190095486434e+01 -2 1 0
2154 1 6.6339982057952929e+00 1.5435392772668315e+01 1.3840815225314069e+01 1 2 0
3764 1 9.2379504207085059e+00 1.4404332256760952e+01 1.3031325274488331e+01 0 -2 0
5479 1 1.1321019292598818e+01 1.5516863701130852e+01 1.4137687802980759e+01 2 0 0
3464 1 1.3216281980614440e+01 1.4059720101851266e+01 1.3047560036336465e+01 3 1 0
1686 1 1.5509507339958168e+01 1.5369993828045907e+01 1.4213079977877072e+01 0 3 1
1661 1 1.9529517655264086e+00 1.8050338890738011e+01 1.2692660103770363e+01 3 -2 1
3232 1 4.1640899906665974e+00 1.9530191789894968e+01 1.3780209542306515e+01 0 0 1
150 1 6.1072355951676576e+00 1.8040758058503656e+01 1.2799583665174076e+01 0 0 0
5030 1 8.3912435018649880e+00 1.9258794908132867e+01 1.3692432043172216e+01 2 1 1
4921 1 1.0761255865547493e+01 1.8037112401723398e+01 1.2823634708833481e+01 -1 1 1
469 1 1.3497460998896367e+01 1.9008142998083315e+01 1.3765411527752654e+01 0 -1 0
5006 1 1.5783851137652034e+01 1.7924386159274992e+01 1.3194358878943934e+01 1 2 0
6391 1 1.5623400333903811e+01 2.3412580674128293e+01 2.0960719603330979e+01 -2 1 1
1579 1 2.2619849676704864e+00 2.3292256289368854e+01 1.3641646257708993e+01 1 1 1
3182 1 4.3542197978453769e+00 2.1967970721875247e+01 1.3124188271742604e+01 0 1 1
1680 1 6.4071616223480881e+00 2.3139699105098085e+01 1.3849572236702233e+01 -1 2 0
342 1 8.9254046223412011e+00 2.2014717796998699e+01 1.2849656706957528e+01 2 -1 0
3371 1 1.0988777430967206e+01 2.3028518923189196e+01 1.3735117360725102e+01 0 1 1
1539 1 1.3543055938120327e+01 2.1845424383783502e+01 1.3374001518748182e+01 0 1 1
1655 1 1.5774373429293616e+01 2.3137373465777056e+01 1.3940798482905231e+01 -2 -3 1
3965 1 7.1489722190113465e+00 3.2329886514642359e-01 1.6051147932017006e+01 -1 1 1
3298 1 1.1315244803592628e-01 1.9599559605085965e+01 2.3624005102398179e+01 -1 0 1
4804 1 -2.8968568152751346e-02 1.9218533962958723e+01 1.3955603032111012e+01 -1 -3 1
6390 1 4.7474057357816202e+00 1.1683626303325214e+00 1.6931257429658977e+01 3 1 1
3296 1 4.6895275300803227e+00 4.0170100413565111e+00 1.6248149726881771e+01 -1 1 0
6520 1 9.1441881566239882e+00 1.5664160774249956e+00 1.6930229320455343e+01 1 1 1
3691 1 9.0806360051086870e+00 4.0670780107280873e+00 1.6625664801058996e+01 3 1 0
1621 1 1.3496692471821707e+01 1.3755269594913837e+00 1.7209130926543523e+01 0 2 1
2321 1 1.3348507317244451e+01 3.9290828071872923e+00 1.6456146910602833e+01 -2 -2 0
4928 1 1.6814584193690496e-01 1.6984350949009105e+01 2.0277189300260055e+01 0 0 0
3813 1 2.3577202162786715e+00 5.0262515821258589e+00 1.7271447430238254e+01 1 2 0
174 1 2.1713041212681019e+00 7.7187887002543860e+00 1.6644641453893943e+01 1 0 0
2004 1 6.8134114468026841e+00 5.1595322900174230e+00 1.7427240575138857e+01 -1 0 0
2078 1 6.5129460954527181e+00 7.8039350230707427e+00 1.6870397491353749e+01 1 0 0
3216 1 1.1176129399621077e+01 5.2345424417619100e+00 1.7573220817109302e+01 0 0 1
5629 1 1.1273601406278523e+01 7.7228487547626274e+00 1.6401062172598056e+01 0 1 0
3944 1 1.5592060802614577e+01 5.3656788030143092e+00 1.7146901944376648e+01 2 1 1
3398 1 1.5760219878851842e+01 7.9527181060418126e+00 1.7222288848467628e+01 0 1 1
5041 1 8.9872735593518875e+00 2.4312334849809442e+01 1.7395284459028666e+01 2 0 1
5010 1 4.5330550611129370e+00 9.1477146968419571e+00 1.7860165301010703e+01 2 1 1
1345 1 4.5440781019796290e+00 1.1620023232527521e+01 1.6631770182483379e+01 0 1 1
283 1 9.1473940299349170e+00 9.0105650119636884e+00 1.7590918300142121e+01 -4 4 0
5302 1 8.9420234792542033e+00 1.1579449392907167e+01 1.6649985342373888e+01 1 1 0
6455 1 1.3255788388860841e+01 9.1223086913389970e+00 1.7572266466355604e+01 1 2 1
4884 1 1.3035237478146165e+01 1.1511360365074225e+01 1.6870281002466275e+01 2 0 1
5515 1 2.3266252628041397e+00 1.3226163472918937e+01 1.7250839930321419e+01 0 1 1
1729 1 2.3096189735586741e+00 1.5603994093839480e+01 1.6294892598128214e+01 1 0 0
5209 1 6.7109332966132884e+00 1.3028126672114706e+01 1.7532310726499418e+01 1 0 0
6555 1 6.5737583652569871e+00 1.5429517400945642e+01 1.6499966988327841e+01 0 -2 1
1525 1 1.1210147252320521e+01 1.3105065376881260e+01 1.7278854278648833e+01 0 1 1
3009 1 1.0917979568334587e+01 1.5615901288828507e+01 1.6603497387152153e+01 -1 0 1
1586 1 1.5463663353112521e+01 1.5535811790106294e+01 1.6618645030630649e+01 2 0 1
3866 1 1.5510547668035166e+01 1.3003533039077398e+01 1.7741936685219517e+01 0 0 0
5106 1 -3.7031045824817317e-02 1.4174752818818430e+01 1.2755365795370984e+01 2 1 0
5549 1 2.4575219353600231e-01 9.4258649155585736e+00 1.7551816395973258e+01 1 0 0
3607 1 4.4879641752395933e+00 1.6832232280936882e+01 1.7322731032088509e+01 0 0 0
5205 1 4.3254561372188896e+00 1.9522624277306214e+01 1.6563044692564613e+01 1 0 0
5503 1 8.6960438923487260e+00 1.6922747818346640e+01 1.7650952089869691e+01 1 -2 0
3294 1 8.6417850395749749e+00 1.9468974869759862e+01 1.6510147508094398e+01 0 2 1
1464 1 1.3096479366501086e+01 1.6960555241949177e+01 1.7398340201889646e+01 1 -1 1
6461 1 1.3360304007277440e+01 1.9534633673110800e+01 1.6661846355665457e+01 2 -2 1
5518 1 2.0682823601779874e+00 2.0689234245964315e+01 1.7165212091308902e+01 0 -2 0
2069 1 2.0090392149619580e+00 2.3161388753554501e+01 1.6366887140296253e+01 2 -1 0
2195 1 6.6796752898203922e+00 2.0966308316861880e+01 1.7223294024964410e+01 -3 -4 0
3737 1 6.5715255224326521e+00 2.3635417413764085e+01 1.6459794864597956e+01 1 0 0
3060 1 1.1075915871423703e+01 2.0742228147224310e+01 1.7254128902055665e+01 -1 -1 1
6533 1 1.0914155373134571e+01 2.3151881062224120e+01 1.6384908339282646e+01 -2 2 1
1313 1 1.5626066483940216e+01 2.3294133465269017e+01 1.6528679806246632e+01 -1 -1 1
5365 1 1.5682228227944007e+01 -6.9232702901885546e-02 2.0661399053881603e+01 -1 1 0
4726 1 1.5709139256675014e+01 2.0649721317783129e+01 1.7312121116815881e+01 -1 0 1
1533 1 1.1124108622435783e+01 2.3412456249453570e+01 2.1019659662251211e+01 -1 0 1
5703 1 2.2517267420593345e+00 7.6246555036235009e-02 1.3843820215816999e+01 -2 2 0
4973 1 1.6874295244848747e-01 1.0125644888742276e+00 1.9732552417827915e+01 1 0 1
141 1 4.5976985398914545e+00 1.5252703965145216e+00 1.9649425736730318e+01 2 -1 0
552 1 4.7423266740025278e+00 3.7717079065080146e+00 2.0852173149248205e+01 0 -1 1
3274 1 9.0305670014567720e+00 8.7359304145083727e-01 1.9687356770007970e+01 -2 -3 0
485 1 9.0441006690630044e+00 3.4329188568498461e+00 2.0475817357170833e+01 -1 0 0
323 1 2.0405416101463009e-01 1.0738883150212948e+00 1.7108590636911575e+01 0 1 0
1371 1 1.5390621111327123e+01 7.9153154220973487e+00 2.0841498301853544e+01 0 1 1
3375 1 1.3339536165491923e+01 1.1560123158428270e+00 1.9672024050604811e+01 0 3 1
192 1 1.3488918156794369e+01 3.7118776227433039e+00 2.0392345138400845e+01 1 0 0
5673 1 1.1128415860024951e+01 2.0730378500087031e+01 1.9988332211786528e+01 0 1 1
1325 1 2.6237243567804005e+00 5.0665610730603587e+00 1.9896812537882717e+01 -2 1 1
5339 1 2.5213862799064417e+00 7.6926171468451958e+00 2.1017050171139086e+01 2 0 0
5068 1 7.0497401661151740e+00 5.0840918697961355e+00 2.0084895710223670e+01 1 1 0
3112 1 7.3207158072996306e+00 7.2715515062110230e+00 2.1612127420640753e+01 -2 -1 1
2223 1 1.1233089186378056e+01 4.9676812127271708e+00 1.9926311413932826e+01 -1 1 1
1889 1 1.0977448227362956e+01 7.4879337888210076e+00 2.1137159320208919e+01 2 0 0
4887 1 1.5601117683853719e+01 -3.6922179458926507e-02 1.3439015155190177e+01 0 2 1
3587 1 1.0949842986006903e+01 -5.7375059322206254e-02 1.3590281117871047e+01 2 3 0
3862 1 1.5516036730638806e+01 5.5183396503707609e+00 1.9818821746393766e+01 -1 0 1
4764 1 1.2674956884095090e-01 1.9471997484318631e+01 2.1165518672579825e+01 1 -2 1
5174 1 1.5599514161594554e+01 2.0871153149579570e+01 2.0154543139097964e+01 1 2 1
448 1 5.0271931454229648e+00 8.8900603517709271e+00 2.0895371872093676e+01 -1 -2 0
6648 1 4.9196209354234535e+00 1.1808701352594218e+01 2.1469843772174109e+01 2 2 1
1438 1 8.8973762836662260e+00 9.0257080539548067e+00 2.0228722517735662e+01 0 2 1
5669 1 8.7338522273315995e+00 1.1451605899142537e+01 2.0969079863353571e+01 0 -1 1
3319 1 6.7664939299526488e+00 2.0912299872850085e+01 1.9899970794039334e+01 -1 1 1
4908 1 1.5542052980891107e+01 7.4058004300318983e+00 2.3434547766780703e+01 1 -1 1
3478 1 1.2932876046142544e+01 9.0625982149957345e+00 2.0291655853739719e+01 1 0 0
3870 1 1.3405756255829145e+01 1.1530822894430120e+01 2.1216402365037879e+01 2 -1 0
1577 1 2.2442297288020079e+00 1.3003748882374158e+01 2.0213112666978549e+01 2 2 1
2035 1 2.2747576395445104e+00 1.5286275772758815e+01 2.1616439548083509e+01 0 -1 0
3707 1 6.9231807341817007e+00 1.3138366921026831e+01 2.0269399520004630e+01 -1 -1 0
1917 1 6.5740890124276765e+00 1.5489693851984747e+01 2.0892763844149091e+01 1 1 0
544 1 4.4127959291853296e+00 3.3283764704650451e+00 2.3435020711844224e+01 3 2 1
110 1 1.1183732252909239e+01 1.2952520810537989e+01 2.0134031260719944e+01 3 0 0
3030 1 1.1023216636880392e+01 1.5390723091860478e+01 2.1047775301715777e+01 -2 -1 1
6457 1 1.7884588240737631e+00 2.3256275985668942e+01 2.3360391430457359e+01 1 -1 1
4733 1 1.5405823626749646e+01 1.5661116488344117e+01 2.1158695486083374e+01 0 0 1
6419 1 1.5748736158956726e+01 1.2949786069357835e+01 2.0534031590203004e+01 -1 0 0
6434 1 6.7371927065766011e+00 2.3598174016719071e+01 2.0992628699198736e+01 -1 0 1
3903 1 1.5948080806353918e+01 2.3695557062305273e+01 2.3585703847310807e+01 1 1 1
3833 1 -2.2208533962295024e-03 9.0140568487429409e+00 2.0226922980170482e+01 1 0 1
2071 1 4.2922776080694520e+00 1.6975928139903566e+01 2.0063679887143568e+01 2 0 0
1866 1 4.6768752354199057e+00 1.9724961980160234e+01 2.0701270129120751e+01 1 0 0
4801 1 4.5687631790612366e+00 1.9287191114082482e+01 2.3437877449110974e+01 -1 1 1
5255 1 4.3610370414735478e+00 2.4470087866175707e+01 1.9994639164317118e+01 -1 0 0
575 1 8.7546013669856038e+00 1.6641337924536124e+01 2.0416369166158475e+01 1 -1 1
5133 1 8.6039682226886782e+00 1.9503145328932064e+01 2.1051796921338134e+01 0 2 0
6402 1 1.3491930018546640e+01 1.1439136110034710e+01 2.3776638650193625e+01 0 1 1
1537 1 1.3271618770797254e+01 1.6900827468569805e+01 2.0123545735260112e+01 1 0 1
3938 1 1.3392479502352419e+01 1.9643438785790405e+01 2.0898824027239005e+01 0 1 0
80 1 1.1324302081536867e+01 5.0668783932873718e-02 1.6049427052546719e+01 1 1 1
4759 1 2.2117812042466651e+00 2.0705642534390968e+01 2.0065316506083452e+01 -1 0 1
1599 1 1.9171904301002938e+00 2.3216489343227678e+01 2.0756614801701026e+01 1 1 1
5399 1 1.5827044962764775e+01 7.8801958348745260e-02 1.6323013205757857e+01 -2 1 0
3414 1 8.9168202025129535e+00 3.4984912604317824e+00 2.3304084332078251e+01 0 2 0
511 1 8.9771728089764053e+00 1.9611839329271575e+01 2.3581256990793236e+01 0 -2 1
5493 1 6.0687916506092572e+00 1.5294029759748929e+01 2.3616202004371001e+01 3 1 0
3154 1 2.4859022174581269e+00 2.7436670128749688e-02 2.0736893835827260e+01 -1 2 1
6628 1 1.0912353192290292e+01 7.3093595961014213e+00 2.3703064552360569e+01 1 1 0
157 1 6.7727755913874432e+00 -5.0656781764153808e-02 2.0645434467373828e+01 1 2 0
4717 1 1.7233016576088211e-01 1.6589732744857994e+01 1.7714409429312337e+01 1 1 1
3685 1 1.4050547037977981e+00 7.1078794230009663e+00 2.3441225906552088e+01 0 -1 0
3067 1 1.3256306796563001e+01 3.1704337334181769e+00 2.3076214043566669e+01 2 -1 1
5648 1 4.0937692103982304e+00 1.6787532530358597e+01 2.3474662656861685e+01 0 1 1
4753 1 1.2903441893877654e+01 1.7114654486077960e+01 2.3783576039044689e+01 -1 1 1
3900 1 4.3272591948639585e+00 7.4583402995617887e-01 2.3726113887673108e+01 2 -1 0
623 2 -8.9117506293099780e-02 2.7632537001723647e+00 2.6699869657478896e+01 0 0 0
625 2 -8.9117506293099780e-02 -8.8754728030078667e-02 2.6699869657478896e+01 0 0 0
627 2 1.1458383690213823e+00 6.2424737902014815e-01 2.6699869657478896e+01 0 0 0
634 2 1.1458383690213823e+00 2.0502515931217293e+00 2.6699869657478896e+01 0 0 0
636 2 2.3807942443358643e+00 2.7632537001723647e+00 2.6699869657478896e+01 0 0 0
638 2 2.3807942443358643e+00 -8.8754728030078667e-02 2.6699869657478896e+01 0 0 0
640 2 3.6157501196511794e+00 6.2424737902014815e-01 2.6699869657478896e+01 0 0 0
655 2 3.6157501196511794e+00 2.0502515931217293e+00 2.6699869657478896e+01 0 0 0
1115 2 1.4730352997484017e+01 2.4153316911681227e+01 3.3362130342492826e+01 0 0 0
657 2 4.8507059949648283e+00 2.7632537001723647e+00 2.6699869657478896e+01 0 0 0
659 2 4.8507059949648283e+00 -8.8754728030078667e-02 2.6699869657478896e+01 0 0 0
661 2 6.0856618702790977e+00 6.2424737902014815e-01 2.6699869657478896e+01 0 0 0