LAMMPS data file via write_data, version 29 Oct 2020, timestep = 100000

6750 atoms
2 atom types

0.28236582001272836 48.93763417998795 xlo xhi
0.28121636928473137 48.7384195611242 ylo yhi
-0.16771241182986074 60.229712411829 zlo zhi

Masses

1 18.015
2 12.01

Atoms # atomic

1980 1 1.138834816575429 2.3091902320230426 1.6429965701531615 0 0 0
1491 1 6.8782055047492925 6.640261104701489 1.1729611907672455 0 0 1
5348 1 1.2954186742827647 1.0161754311085258 4.208093410596487 -1 0 0
1601 1 5.418983824086831 4.834456853950365 3.2578948393607416 1 1 1
4886 1 8.287942526957234 1.9122037337453304 1.3080743278952531 -1 0 1
3552 1 10.35178001996033 2.106605824165978 4.730501006502521 0 2 0
560 1 16.084154301439504 0.6088340778053098 11.86084285591093 0 -1 1
3525 1 13.147933136309844 0.6107878884787201 14.696420014358885 1 1 0
1535 1 16.446366950538355 1.2665059047957832 2.300267438467845 1 1 1
1711 1 15.167488516808884 5.21489103198143 2.5950618697773944 1 1 0
5234 1 20.903533000035722 1.6972212439992893 3.3438461889618605 0 0 0
6726 1 5.612461626382954 15.069463931342785 0.2537546830545366 1 -2 1
476 1 19.96095380202586 13.215801499559436 19.514180686682913 -1 1 1
3487 1 2.3218261277176446 6.49610886803517 1.6878705474576012 1 1 0
1827 1 17.45072703256283 11.180328515949903 0.9449380280700681 0 1 1
6559 1 0.5497587137591351 22.13985452123855 19.044587850446213 1 -1 1
6502 1 6.170367547246345 9.184842111888251 2.4240231388101208 1 1 1
2287 1 8.71592156941005 4.667899411281655 1.781072762961812 1 0 1
3387 1 10.073463773360118 14.377631688453627 2.248283373648109 0 0 1
4742 1 10.999045438799117 6.65862063974953 4.0639573514032 0 1 0
5445 1 8.6391532409527 10.244495302389033 3.74114390686491 0 0 0
6386 1 12.877079531152884 3.00283013702083 5.305270626995419 1 -1 1
5243 1 13.697937922326863 5.792636310117451 4.806399878233418 0 1 0
5282 1 3.8935587989023137 2.785391772496359 1.9817900881947805 2 0 0
5117 1 18.522948084117903 6.550755293107496 3.6843945218156087 -1 0 0
5173 1 15.97894231231555 20.171559137712848 0.2512390010704945 0 1 0
3400 1 1.381395511561475 19.55418232257918 0.03738131657263177 -1 2 0
5587 1 0.6816272260674481 22.419663822399723 2.7413834117804647 0 0 0
6683 1 3.9177023768039745 12.304221360030333 4.124824426318224 1 0 0
1703 1 1.590800536201386 10.852503803193498 1.7062665365480445 1 2 0
3776 1 3.838024293387384 1.1075473169021395 14.344123441127879 1 1 0
4757 1 4.510911090989767 11.165165762746385 1.7482588670647958 1 1 1
1674 1 13.326214859002805 10.076744000458039 3.0519485822500605 0 1 1
3369 1 9.198656939577292 12.906924916363389 5.156165142908793 2 1 0
3623 1 14.805162965212087 13.716262351856221 1.1825791651873467 0 -2 0
4786 1 17.59557688511001 6.868856100741994 1.458354226554902 0 0 1
416 1 0.5389175373518139 8.995699931203282 9.904715962869922 -1 0 0
291 1 17.212876160622695 10.878700425816888 3.546981653976579 0 0 0
1548 1 20.744092719516058 11.087140264431556 2.4647472829986503 1 1 1
3352 1 23.49527753258634 12.89831119637218 13.963672569248658 0 1 0
4802 1 23.086444070707586 9.686548756140876 3.8177135692240975 0 1 1
3906 1 2.3088220203787126 14.608659953789795 3.784374343678909 1 0 0
5507 1 2.7116296828527395 15.781407536257348 1.2960094404191116 1 0 0
5277 1 6.209782485394484 13.917716380561398 5.164332185451238 0 -1 0
300 1 10.896606168286851 5.441100123539733 1.3001196266573103 0 0 0
6661 1 7.30103088576404 1.0350815841370942 7.097123165010194 1 2 0
4755 1 12.788749337275233 12.722989461406817 2.5197007222658305 1 1 1
3608 1 14.245506864468657 18.29843456597885 1.9617811160324523 -1 -1 0
4963 1 16.719866251031437 14.236699138176293 2.9621969588057997 -2 0 1
3643 1 21.264248474684116 17.056933154849922 1.2447465415310746 0 0 1
3581 1 19.325702864960714 13.609803550093124 0.469556560808588 0 0 1
4743 1 21.811484043471257 13.694030735273715 2.1207926427519497 0 0 0
6562 1 19.16689439929766 23.277466776076018 7.340384953487141 1 -1 0
3314 1 4.082049057283625 19.273301123111153 2.886619326220569 -1 2 1
3263 1 6.98087067478773 19.433443001085166 3.281542402604489 2 1 0
2157 1 7.986321983073202 17.22138670985685 4.478610896018373 0 1 1
6439 1 7.340265207265702 14.997639632949825 2.7131992568973984 -1 0 1
1427 1 12.658789379535996 20.182594566598013 0.7656066537316665 1 -1 1
5657 1 10.47730114646478 18.249272996790936 0.41409990894190096 0 2 1
6567 1 18.20671252618329 20.158975510313528 4.7437525932723945 1 -2 0
333 1 12.057022926874307 16.82270768097295 19.586969131834046 0 -1 0
6451 1 18.547362179271442 16.190726883562455 1.2262609029932785 0 0 1
5057 1 18.479763452637535 17.38407423395131 3.6800751919023442 1 0 1
3654 1 20.130548616324045 22.829301840980953 1.798209418969528 0 0 0
5350 1 15.908736684681337 20.980726361300515 3.325511578250324 0 2 0
3269 1 20.579653738398118 20.046884908161974 1.1808112985895762 0 1 1
3611 1 23.886717377815334 23.71735071627715 18.827124106541746 0 1 0
2990 1 24.565599624371433 19.40939641560988 15.775766896269626 2 -1 1
6418 1 3.480275251277785 21.888008928549556 2.155632994758345 1 1 1
1516 1 24.593389122400147 7.258084154202384 7.774040920201989 -1 0 1
558 1 8.71164935490072 22.228857203106152 0.3467894965869993 -1 0 1
390 1 11.40459347968757 1.9242143791763762 19.617835520896154 0 1 0
3614 1 12.61539690803458 22.61118956630753 1.8192150924119224 1 -1 0
5275 1 24.341711376179916 13.153002649044353 1.5789520277065636 1 -1 0
1938 1 10.019803530512462 22.9362068934302 2.516719386075934 0 0 0
1785 1 6.925391493679832 0.5784018816261078 17.761454835519697 2 0 0
611 1 23.014539888425986 22.18146459308082 2.2769658826979984 1 -1 1
1891 1 22.083772881938557 20.89222162164086 5.27463847156291 -1 1 0
5631 1 23.27643760954608 0.8111631427295741 15.934901351245674 0 -1 1
285 1 4.2360090201636815 1.8259772343185252 4.516980193297572 0 0 0
5085 1 2.611172790198729 3.128208883685994 6.195594521019043 1 0 1
5247 1 6.351587537341138 3.341509933520885 5.875012370107255 0 2 1
3192 1 8.408797020393278 4.3864896331490595 4.563182823399435 1 0 1
3109 1 10.561513248287524 2.3363052940671865 9.411756585824117 0 -1 1
3568 1 13.015397222619864 2.9298483580274883 8.21263764908875 0 0 0
5553 1 13.353795729389846 3.890809419548322 1.1246351546952842 0 1 0
2327 1 17.176331349775815 4.22856236912038 4.711886922695274 1 1 1
1800 1 15.308861021765088 3.8970502462272165 8.785653410963214 0 2 0
1877 1 19.171462752965958 2.7034358413574306 5.798119084864788 1 -1 0
5588 1 21.18094990137053 2.8744718245221055 7.678266679902704 0 1 0
3858 1 23.392471312401373 0.9235464296152116 4.685665924032732 0 0 1
3096 1 3.8910543577406935 6.560968733688788 4.307871504481623 0 1 1
3787 1 1.7023531214342909 5.561550236054037 6.068220795628065 -1 1 0
2238 1 5.405306413098205 8.778802916274904 4.9887003088967425 0 -1 0
1617 1 6.425398390513682 4.86385309279962 7.935385871105483 1 1 1
5361 1 9.058747145213038 6.227775640822379 6.64557272535335 1 1 0
3539 1 7.7569276056225975 8.973833739413772 6.1178856382857285 1 0 1
5314 1 10.882368342657646 6.981069287937942 10.128325404363748 0 0 1
5042 1 11.723553994082508 5.883241529200383 7.561212697784881 0 0 0
5582 1 15.441981782166463 7.262776983189263 6.34530776731146 0 1 1
3759 1 16.84931113413075 5.304014678343703 7.318608267025372 0 0 0
4879 1 21.247629274587972 4.807316843471992 2.5047466462001413 1 0 1
157 1 17.559614406020142 8.953648678519821 5.240916773822175 0 0 0
5188 1 20.22924706058421 8.709123453564644 6.594736809417207 0 -1 0
5595 1 21.455764062305214 6.946136977499994 4.438494269195306 0 0 0
102 1 1.2364067895151378 9.334856977419372 6.529510840895019 0 -1 0
1448 1 11.742178310928965 11.49492914571696 0.22080232710408793 0 0 1
3052 1 3.5422909165881555 11.901645789110772 10.260031984327526 -1 1 1
568 1 3.7675617496574163 10.59665857308602 5.93784413836804 -1 1 1
5613 1 5.128144617054934 10.818393108118814 8.128895329110856 0 1 0
6609 1 9.128222271303713 11.09931575012122 7.489247067298756 0 0 0
2117 1 11.775783620243201 12.01043795603918 7.1130975699065635 0 1 0
3887 1 13.162170747486536 10.052023708022752 5.8771751862128525 -1 0 0
3695 1 15.329300986112866 11.720034553946762 5.775108289205864 1 0 0
5506 1 19.911675280969348 11.37496255680308 7.352562939139645 -1 0 0
1557 1 17.11808933586006 10.751597041516417 8.113595063712534 0 2 1
3058 1 18.93170587316854 12.559945407812382 4.905997891024788 0 0 1
2124 1 5.895049607250242 0.9471731938786613 1.0874129073970964 0 1 0
6634 1 2.9867706400771787 16.59981380469808 5.3829008084042025 1 1 0
3813 1 16.073386645578367 2.9281113653678137 0.0857192450234916 0 1 0
1687 1 6.739858818386091 12.978098656894709 7.649317693916066 -1 0 1
282 1 5.643375488832434 16.329860434638224 6.077110107349872 0 0 0
3343 1 5.215996129932737 16.661246726390225 8.420533208561778 0 0 0
4982 1 8.954097274739336 14.704148615868696 8.884804155185208 -1 0 1
6398 1 8.136307580156661 18.619545388677604 7.18488182136717 0 1 1
3514 1 11.570293372215191 14.762829048409984 4.8638940750798385 1 1 1
1406 1 14.368332773837956 14.86292542591762 4.617450387804351 0 0 1
293 1 13.872518155121812 16.48588911048053 7.647363999040213 0 -1 1
1967 1 18.06588704701917 14.698941227123845 7.122691766759577 1 0 0
367 1 21.07790184682074 14.438604083639888 4.404852743277654 -1 1 0
405 1 22.61419510429484 14.873299973837753 7.999696039597 -1 0 0
187 1 20.69292179749178 16.881693831044288 5.321346783954386 0 0 0
3934 1 21.280056358465018 20.231127655169562 15.55768280808951 1 0 0
5315 1 2.6424864655743883 18.967201943296658 4.929433680661857 1 1 0
3013 1 0.9707290711799029 2.840173392800841 19.578245221217433 1 1 1
1973 1 23.091661758656883 1.538528362209429 10.154511349199181 0 1 0
4725 1 4.057253759499067 20.004124267948797 6.954908338390011 0 0 1
1953 1 6.738758685990612 20.793429877365096 6.470676413608954 2 1 0
2139 1 10.754309741878286 20.93101613937913 7.893385867491217 0 0 0
2189 1 10.661952333243176 17.24862817353853 3.3446778356752453 2 2 0
5448 1 12.1401558092305 18.934511890260946 4.5815665579970055 0 0 0
5537 1 14.603281983634345 18.746198066340956 6.2647680643660655 2 0 0
3418 1 15.403402556927336 13.988360592092368 7.353613683099812 0 0 0
6620 1 15.554663140981367 17.22457761911219 4.008774461228851 1 -1 0
5665 1 21.765944103980427 18.768578095513107 3.5579704141848194 0 1 1
5203 1 18.92526109415377 17.113300618992223 7.484768908382076 0 0 0
487 1 14.146721232227883 16.126768356727023 0.41235858743547393 1 0 0
4788 1 24.325707126860575 16.875583545632168 16.16055420111184 1 0 1
5351 1 3.8189196026012326 18.177353973742083 0.45645101674487054 1 0 0
3479 1 4.6464321576169425 23.64650468574522 3.7154868314064573 1 -1 1
1968 1 2.41921402574602 22.04123561361255 7.277691372713951 0 1 0
553 1 7.32830899140395 22.284545426750043 4.189334997886268 -1 -1 0
3492 1 10.387444376092375 22.3625971556363 5.554672366250395 0 0 1
1561 1 7.007911024686387 24.341135424131945 14.340134166835279 0 0 1
3926 1 7.101730947340941 23.235467305908323 18.700082117041138 0 0 1
1902 1 13.224067754404006 21.79131170186959 4.548445774501783 0 -1 1
6340 1 24.06421949250101 4.721537851968111 18.49167252321853 0 0 1
6350 1 20.04225079554804 22.575713582674947 5.184598436584043 2 1 0
6594 1 22.539585506121476 19.71989682702638 7.704338246879003 -1 1 1
2023 1 13.103798834553741 23.89072924633928 16.29649210612662 1 1 0
1517 1 4.308185519069542 1.9784442340663104 8.537021699350483 1 1 1
591 1 2.6175207032535677 3.0006439778260146 10.486947473513428 0 0 1
3515 1 7.713679022832319 1.513606872468032 11.4000880263919 0 0 1
584 1 11.949860925761504 2.8074792505904957 11.682634350502722 1 1 0
1307 1 13.186077260644405 0.44795502711318996 11.94531856485173 -1 1 1
287 1 16.460867811666148 1.419957593838837 9.216122893701476 -1 1 0
1812 1 16.207335173071673 2.6662756386306428 13.869107252706462 -1 1 0
5646 1 19.738967609581756 4.4966626106652665 9.48231580959047 1 1 0
326 1 20.18480470265336 2.546646369911293 13.079955026339057 0 1 0
322 1 0.3178930942043769 22.915625352310084 13.156182915316867 0 0 0
304 1 0.8958073715555719 5.142051418971381 10.193760938245397 1 0 1
5323 1 2.095126574374634 7.022993589238974 8.428902177568501 0 1 0
1474 1 8.260533019042281 4.163686343838999 10.212431368168962 0 1 0
6339 1 4.953759169640387 6.76271670115604 9.000858003695075 1 0 1
3273 1 5.054098707150668 4.3148784313242885 11.515679402433255 -1 0 1
319 1 6.202529446033375 8.54534798659871 11.732669218581046 -1 0 0
488 1 8.477685777921623 6.480487328403386 11.641734415431689 0 0 0
3489 1 12.569874337385 5.519186920510403 11.580441299680855 -2 -1 1
3939 1 14.977895814224832 5.734219230263735 10.881741403097624 0 1 0
5483 1 13.412300509614075 8.311697093415436 7.870312173931229 -1 -2 1
349 1 19.10263844448188 6.892375851483929 8.393900352622063 0 0 0
3725 1 15.252899144305847 8.693181852258018 10.65383005683325 1 -1 0
3621 1 21.28990882381577 8.80776682218021 9.892744578978629 0 -1 0
456 1 11.701900303054094 23.74967353105282 19.016846016952552 0 -2 0
5215 1 21.932124437760958 3.9371134047445193 11.031381484631545 1 0 0
6414 1 16.628192921521293 18.094395133707263 19.33320864339883 0 -1 1
5520 1 0.6230156581012445 11.805223597465503 10.386037262321997 0 0 0
1832 1 18.61542526094016 4.348739406368218 0.497216240478075 1 0 0
4936 1 6.620811468109874 8.832549858231244 8.8899536153057 0 0 1
21 1 8.430059305242754 10.715530754695125 10.2648569200753 1 0 0
2282 1 10.781186968889719 9.654870919892122 10.5778434738348 1 0 1
5640 1 8.777813094779777 13.167206075013574 11.433441826405414 0 1 1
6556 1 13.49082362660995 10.825050314802231 10.1207139648762 1 0 1
3762 1 11.755977642212889 13.104866635294695 9.759871408805221 -1 -1 0
6535 1 17.751207628641634 8.792713298514624 10.145114972067503 -1 1 0
5054 1 20.88565343308045 11.277337812242841 11.032475700735464 -1 0 1
5528 1 23.66533828584791 9.899809558158388 8.407034512615999 1 1 0
2187 1 5.486385127473612 14.214195790647757 10.036643880689995 1 0 0
1939 1 20.1450800180878 3.3992251871697854 18.887565837101917 0 -1 0
1361 1 3.4668482011075774 18.740891143197715 9.195777527200974 0 0 1
5062 1 6.792856028929457 14.865065408299039 12.308896967926477 0 1 1
1780 1 7.787051467853877 17.197986076612686 9.290114570575748 1 1 0
3540 1 11.02751744642182 14.139283797789036 12.655497237968802 0 0 0
5267 1 8.147790510763455 17.907906690785968 12.015517570293117 2 0 0
3673 1 11.233172264665937 15.561621698773822 7.368801038871058 0 2 0
1965 1 16.338257841924356 12.213619001633806 10.12677708214316 -1 0 0
1664 1 14.311523535259035 14.213158624630145 10.772213367635402 -1 0 1
3349 1 14.588382523452236 17.193719390679803 10.422453118325173 0 1 1
3594 1 19.881921170886017 13.583384675864496 9.170355318725235 0 0 0
5334 1 22.54652033252478 13.504914157260187 10.67652382623212 0 0 0
2190 1 2.2842060003442106 14.738137035870851 11.230635891439238 -1 1 0
279 1 10.039305631011482 0.7475426952196746 6.775329602366433 0 0 0
2113 1 5.0909362121372075 18.544293409560154 11.847227089159814 1 1 0
5515 1 4.997287391500666 21.448718636640333 10.497066493124025 0 0 0
6735 1 11.041857772053104 18.27997879276007 7.195908351965338 0 1 1
5028 1 10.820059910338765 16.814520237279524 11.842012191485404 0 1 0
5489 1 12.131073559481692 18.619340384230252 10.063764658957819 1 0 0
2034 1 13.436842931430359 21.048329458846005 10.31313616266802 0 1 0
484 1 17.07339562848744 19.389126272764067 7.141796000084713 1 0 0
1713 1 17.742522965804238 18.568522609076197 10.153086000915007 0 0 0
2185 1 19.8683872842698 19.71562141323786 11.34309151463507 0 0 0
5030 1 0.3695554548268117 8.816732227966703 12.82966473202415 0 1 0
3282 1 21.686426379765447 17.336668524498094 8.51893364216065 0 1 0
4949 1 22.092212492525988 17.838061644722625 11.333316431573358 0 -1 1
1844 1 7.916067565304539 19.844844155494382 1.0081260592637131 0 0 0
1945 1 2.287687143983249 22.736201115792145 10.136395834269514 0 0 0
1446 1 6.405566381478138 22.457326596133374 8.8542924995922 0 0 1
5449 1 22.90757396082547 20.682574602614427 18.33860348467159 1 -1 0
4860 1 22.653747150759752 11.091479358985612 6.133956028171849 0 0 1
3403 1 9.023535297683718 22.061280030597636 9.910892602526996 1 0 0
3462 1 22.078508940105916 6.854204944818284 0.6769021487892145 0 -1 1
4704 1 16.975619708772474 20.890938268670066 13.19068160031663 -1 1 1
3606 1 17.138050089128594 23.18396909213551 1.9824610450838236 0 1 0
1801 1 13.853288179113344 21.489575869301536 7.427767717577206 -1 0 0
5002 1 16.50343525960289 22.002014973452194 8.564014461112764 2 0 1
2135 1 19.046134835065192 22.461309509056747 12.287323596303304 -1 0 0
5593 1 21.948809370208174 23.659963709378314 11.0377369753789 1 -1 1
1513 1 20.973719137458115 21.57481227133728 9.37997218751084 0 0 1
3277 1 23.88496618854927 3.951237197001731 3.466302371674707 -1 1 1
3474 1 15.097538967707788 5.28649659562633 17.756558916913857 1 0 0
2256 1 1.656106330897949 1.177074680457762 12.523038385508926 0 1 1
3543 1 2.9503951504489985 0.9515991823964599 19.46540023750342 0 1 0
6745 1 5.760865765269534 2.2501754606201727 13.148776959932016 1 1 0
5041 1 6.705835692931539 3.89148401264763 14.808281005482613 1 2 1
4760 1 10.394804437233573 0.959212854609214 15.241772637040977 -1 0 1
1354 1 19.842596699972802 22.283219051745785 19.470231864196613 0 -2 0
5472 1 10.782130054754616 3.5980362216697266 14.138713182629985 0 1 0
3853 1 14.89363912262808 0.3838697436519082 18.53075287744199 0 0 0
477 1 17.648687995476344 3.1993564348677856 17.861230816847602 0 1 0
6332 1 18.534980663411233 1.4827862040806836 15.213683818882295 0 0 1
46 1 24.25348753642603 7.717165607098825 13.115353584333452 0 1 1
1498 1 20.981968236918426 2.187822109161805 16.191848717575336 0 0 0
4691 1 22.20399625516566 4.6665745691828056 14.999846333906742 1 0 1
3718 1 1.7268635246702373 6.486895797928913 12.652772741569988 0 1 0
3506 1 24.102421052651444 13.236484703753831 17.984009540847158 0 0 0
3057 1 4.248992530757496 6.453178567282334 12.696172595453614 -1 0 1
1532 1 4.86968008969077 5.928998595090717 15.53168442135972 0 0 1
3234 1 8.948517157867439 5.404846850027753 14.070380317842844 0 -1 1
3088 1 12.758086963955654 7.610920872943292 13.651820446227985 0 1 0
3738 1 16.60356034139339 5.371418193697851 13.177985883979016 -1 0 0
436 1 12.190160718458891 7.073798591890538 16.21266560818248 2 0 0
2154 1 17.831023588839944 3.348465497789304 11.120852938524683 0 0 1
2066 1 21.281289260324666 6.562606625860834 12.797072610347566 1 0 0
1727 1 23.457627279229722 6.632425242874929 10.280680220202143 -1 0 0
5332 1 14.761371061687267 8.121790610256173 1.8766125531438265 1 0 0
4999 1 2.270025268653787 10.599600419785663 14.23282192432119 1 1 1
6488 1 4.130342713978039 10.620884337074271 12.548851774851096 0 1 1
336 1 7.0833722776815975 9.558500691952899 14.031549345128147 1 0 0
4927 1 11.657802889659987 10.127890197080582 13.091855029790159 0 1 1
5558 1 9.470226655325925 9.424362977337761 15.190721656560587 0 -1 1
1431 1 15.554816559104413 9.352721472115489 13.300274472885997 0 0 1
3363 1 13.741692231695886 11.313467026024107 14.123646578357496 0 1 0
5538 1 18.925847042285515 7.4612901928660325 13.247565318321133 -1 1 0
5406 1 18.920014416954647 10.049508995091937 12.248699484110132 1 1 0
3628 1 18.06117242350461 13.041236129431708 15.609384569808393 0 1 0
173 1 14.499646083121966 2.2794404280960174 16.352360882011105 0 -1 0
3017 1 1.4225215303093202 14.234183016437052 14.78016672440328 0 1 1
4905 1 3.245227314433904 24.28545695588885 6.451598504434518 -1 1 1
1929 1 22.434575614165407 5.681362108187364 6.8285145948249655 0 2 0
409 1 6.41464899906899 12.45037862557155 14.226658827814756 1 0 1
1364 1 3.5585955924999673 16.304577003550403 12.831441399889359 0 0 1
5443 1 7.575803945117471 18.18486671695916 14.929990423864648 0 1 0
3466 1 8.918379584685953 13.610050848264796 14.910241837504417 1 -1 0
4871 1 12.434891276897172 17.30112572389973 14.12548754110533 1 0 1
2993 1 17.069753959742695 12.098981665441796 13.182124768320854 -1 0 1
5288 1 13.754910146652627 13.78224668163764 13.445767578167478 1 0 0
5163 1 17.593456016238523 15.380522728689863 10.473102894911555 1 0 0
6365 1 17.239020256931123 15.08841888166462 13.103380254541287 1 0 1
5037 1 20.49817660549693 13.686322694110913 15.214360696152724 -1 0 1
490 1 21.345951735168086 10.88950959184693 14.243513075914978 -1 0 1
183 1 11.342430864689575 15.555713537274613 0.1823265944548953 0 -1 0
444 1 22.629651835879642 15.494759452536988 12.651755630154472 -1 0 0
4958 1 2.708427052052988 19.822388328432783 13.516709163634225 -1 1 1
1880 1 1.547968615059246 21.546968666373086 15.374781341621986 0 0 0
1313 1 6.25427041116168 21.885644949544883 13.248422007446353 0 0 1
3453 1 5.317344869892249 19.787596529804404 14.927270702064515 2 0 0
228 1 8.510272523256514 20.797353803446015 12.236051311022482 0 0 1
1709 1 11.660079778450575 19.295662345305573 15.717579118628304 0 0 1
1744 1 15.769034379012592 20.03827158848026 10.880802458393035 0 0 0
5123 1 14.83379162480397 16.917470029598892 13.200703242892637 -1 1 0
6622 1 20.093193366662554 15.552194059374846 13.446683723698012 -1 1 1
3416 1 19.79249291057268 18.059187947652113 14.268848448108756 0 -1 0
5552 1 24.07624563432116 19.78181882363533 11.589649203702006 -1 -1 1
6428 1 0.5929321289339212 19.530979455920082 16.678263633749413 1 1 1
479 1 1.129585033072669 17.10296226296206 14.705437669921785 1 0 0
3775 1 1.4360648907263316 17.160153128475248 9.656279548939482 1 2 0
5337 1 21.30078509044059 17.21405948371335 19.53156057180432 -1 0 0
1863 1 10.761185869477627 21.21258252570673 13.589625562441611 2 0 1
6347 1 10.563948961777548 22.71998980146602 15.748184231216417 1 1 1
1899 1 14.59136940190456 22.618174214623977 14.145022967230442 1 1 1
6647 1 12.738295719501046 22.70415309855157 12.215324570943258 0 0 0
6486 1 17.12824350929686 18.205152233200145 14.424605105202602 2 0 1
372 1 16.94714900302662 21.506983819129083 16.448336305882556 0 0 1
5541 1 17.884353042359272 23.886071472655726 10.280194685418811 -1 1 0
1631 1 22.728783418397228 21.730081613489318 13.463569728682252 0 0 1
1919 1 24.108898226077397 3.532696311389719 6.176207453619011 -1 0 0
1846 1 19.711666739729043 21.8676297526306 16.689680505348964 0 -1 1
1411 1 10.898853368963048 9.045810488592625 2.7035531713736707 1 0 1
34 1 1.4551483391576123 20.228282535906082 10.998973073604523 1 1 0
1507 1 4.588171646754308 2.1683005136601805 16.86954131698998 1 1 1
3482 1 8.425228883774425 2.7039780820200514 16.588822666876876 1 0 1
248 1 6.3508945981412595 15.982730502180846 18.749680770858223 0 -1 0
3014 1 18.294629146319487 0.5174440636731548 7.263762681408959 -1 0 1
532 1 12.4909047159756 4.455771567470828 16.197105824935274 0 1 0
2125 1 20.94009925963387 9.427319473476498 0.5914630169343782 1 -1 0
1310 1 15.706052851622914 7.084402997455378 15.311456337934315 0 1 1
3558 1 1.3708583807050019 15.358695443001677 7.254140244977653 1 0 0
4840 1 1.911258436101961 5.263182040828257 18.55446448260697 0 -1 1
1906 1 0.9908808380951414 6.53123463783817 16.220036320672182 0 0 1
5236 1 4.3287566350991575 4.771826789305529 18.098024393018093 2 -1 1
3124 1 6.140179312661521 8.220452750186222 16.26854105138961 1 0 1
1691 1 6.636902196463831 7.04927883724405 18.865664071338124 0 0 1
3480 1 9.121355286233536 6.912664436092826 16.169763924332585 1 -1 0
4773 1 15.516769471647327 22.992240390683104 17.892938200275925 -1 -1 1
3797 1 10.57174334294246 3.9173008045418145 17.86376373637065 1 0 0
3260 1 13.836755519935718 8.593414879904959 17.790546774496054 -1 2 1
1614 1 18.066501323802537 8.171518828499924 15.894719233649816 -1 1 1
3491 1 21.77141934286628 5.577274957620149 18.083486756142996 1 0 0
6534 1 22.765429382106277 8.973094778456957 15.43670528210761 -1 0 1
5035 1 15.77080252857329 15.617965976560825 19.74050789209953 0 0 0
5408 1 1.7812000112709712 9.21831567059216 16.399825107482474 0 1 0
3557 1 3.7895191676914983 9.355404721311947 18.094501630591974 0 -1 0
1392 1 4.650311686345153 11.94927890409174 18.027816726926776 1 0 1
1958 1 12.872183538711154 0.9605245062305078 2.472747021522966 0 0 0
3354 1 17.992265373859084 6.237372315202108 18.477825368657825 1 0 0
2298 1 7.362112168021319 12.754308910837658 18.780030166325734 1 1 1
2198 1 13.710779779115095 11.046628406478087 16.797695380784738 0 1 0
6551 1 15.512768252184001 12.1288072529257 18.378608531694343 0 1 1
1942 1 18.067629466061543 10.814964883276387 17.36548934250178 0 2 0
290 1 19.416974404334912 23.773274935235847 14.969663166551141 1 -2 0
3030 1 20.71217964619192 7.85548629838737 17.069703572071656 -1 0 1
3501 1 20.588171534438047 0.386477604719424 8.781959435043216 0 0 1
5271 1 3.7537395103689426 22.163444774630978 16.515208029829548 0 1 0
3664 1 9.125577453420567 5.928729078849058 18.987286121557958 -1 1 0
5371 1 9.260033457145731 11.823049114374275 1.22003473810633 1 1 0
1728 1 5.3225228088689365 15.550105767433836 14.701258145400672 0 -1 0
5478 1 3.947638277327097 13.187572880588597 15.793926946727343 1 1 0
3488 1 7.693096728889871 15.731560919853804 16.330567176353327 0 1 0
5439 1 9.48968432643033 21.659512082574185 17.984479951535818 0 1 0
6460 1 9.302618250710424 11.836841778595316 16.559924186268464 1 -1 0
1936 1 11.625847065717036 13.000689164134458 17.36011502627655 -1 1 0
5660 1 12.872074560805183 19.283551701418585 19.662819364810588 0 0 0
11 1 13.311071397456022 15.025207379160568 16.061674870741296 0 1 0
2089 1 15.861672239373917 14.521531772944677 17.13688955684446 1 1 0
1391 1 21.726437191987383 14.559509679331892 17.303240313316383 0 0 1
1733 1 21.62774480996632 17.281061338159592 16.59957290825801 0 1 1
530 1 23.23067657622591 14.08655138081009 5.563665699349252 1 1 0
74 1 3.7997598873895293 16.514595360555123 17.283584943892556 -1 1 0
203 1 7.5162309395777225 18.53383417837296 19.36113920977224 1 -1 0
6573 1 5.066904378259667 18.924721158470756 17.54448333796144 0 0 1
1437 1 9.312188278646527 18.907538116100515 17.17331264984759 0 0 1
3753 1 11.06159409757903 15.993663079987655 17.26322738707231 2 1 0
61 1 21.758753355490995 9.70481305695427 18.863352053228382 2 1 1
1568 1 15.559056869058264 1.7370510953895313 4.918750852677031 -1 0 1
464 1 15.928426373582115 19.07943925207691 16.848763378594892 -1 0 0
3905 1 13.6321607784587 20.054793739430252 17.233031916934948 0 1 0
1702 1 2.9156819271898744 20.478833706514617 19.02472681146225 0 0 1
1567 1 5.524022641680745 23.918762212219477 16.576771924914716 -1 0 1
3536 1 1.2925762841073463 16.826254528628645 17.80990523315776 1 0 0
3885 1 14.998076324575871 24.42636914867289 7.671806371808867 0 0 1
1536 1 1.1661121819594515 1.8194505704308939 22.561825812035842 -1 -1 1
1680 1 12.491466863370986 12.837458460601379 20.090592505599762 1 1 1
4843 1 11.020433078958876 21.354681540701375 20.96137872764195 1 1 1
2018 1 3.98957756564739 1.9808063579093769 23.277338083843386 -1 1 0
6603 1 5.566523003507428 4.37400018593946 20.731712520541354 0 -1 1
93 1 9.424625241117182 1.8219489291920483 21.402924713620756 1 1 0
596 1 10.899774514087968 3.747453891903339 24.321426928836505 0 0 1
3679 1 0.7953059126982037 9.053288014563169 35.99806993278772 -1 1 -1
5263 1 7.27589958711281 22.924852321195043 38.53572597041975 1 1 -1
3537 1 16.25809658344817 1.5760856355069477 39.77542283348944 0 -1 -1
5411 1 18.792430388081478 23.0452666008205 23.759772407527024 1 1 0
5098 1 20.732906501815858 1.5410821728507313 23.528427340600572 0 0 0
1915 1 18.0205759531352 1.7099968007923807 23.85629419735069 0 2 1
307 1 22.918861942965894 3.547327569372652 23.78976205327568 -1 -1 0
5022 1 1.8626531019297794 6.242496189741875 23.56532135791125 0 0 1
3357 1 20.78155383104279 0.43029297925402754 38.91394257506807 1 0 0
252 1 5.929031241835974 6.538153931188247 23.982157811100905 0 -1 0
2147 1 4.353300418851291 4.725976596284806 23.30884330160234 0 0 0
85 1 10.09704991364982 8.411427973881137 20.75976451929179 2 0 0
5249 1 8.266407619206731 4.122264552275694 21.19463407018229 0 0 0
4855 1 9.881090857771499 8.060210786080605 23.244620189936082 1 1 1
5381 1 14.43573564684949 6.660284992398406 20.89859446275285 1 0 0
4869 1 20.511944718392925 1.3715100739823156 20.699240388162575 1 0 1
1324 1 19.082139619661007 5.588606928677057 23.449661105718462 -1 0 1
6678 1 0.6467569444878869 10.880527512220505 20.511055897187557 0 1 1
1524 1 24.43058331828471 3.74562521256405 21.220494355607073 0 1 0
1444 1 17.17921357130871 7.480633768620455 24.052678231506334 0 -1 1
4893 1 22.761482796008313 7.872751927275236 23.531372697500007 0 0 1
6636 1 18.121436402267204 23.585191536952415 21.285120081052685 1 1 1
1920 1 22.37494715099934 7.493158767652216 20.552905189306948 0 0 1
3188 1 2.5386256773949016 8.9639604264231 24.064543623904747 1 0 0
4859 1 22.913903249957514 9.510924252390256 36.091842239738384 0 1 0
5305 1 3.236176411904245 9.519106780627673 20.9740697480336 2 0 0
3221 1 3.798501434283352 12.18682804189403 22.93325195525117 1 1 1
4985 1 5.641034539413782 9.04988992501209 23.475083630562875 -1 1 1
2252 1 8.669826113552425 10.52034249499639 23.95785558835392 -2 1 1
1741 1 8.840239360191651 10.771380677131075 20.734632583236714 -1 1 1
4872 1 13.443630216176214 10.766749438155555 24.088494692499903 0 0 1
2031 1 17.758158915957836 10.206252382857498 20.15557810569307 0 0 0
5580 1 17.871459585434103 10.10183030990102 23.690605149842067 -1 2 1
1420 1 3.092845921407881 23.4122250340715 39.247987866714574 1 -1 0
2285 1 11.2092198559418 1.0335806433337 23.56691892486444 0 0 0
1807 1 14.237902322107107 24.346674678299415 20.831912403811575 0 0 0
6487 1 21.278574057913858 19.996608933803977 20.686334583607284 -1 0 1
5672 1 10.082518274942627 3.075083901960021 39.700921357089044 1 1 0
2195 1 7.057151564271549 14.47361566518618 23.614973913858833 0 0 0
5228 1 4.724551298897054 16.139673796764953 23.1570784085015 0 0 0
5508 1 8.43334034958301 14.675183984563482 21.151645918702904 0 0 0
2997 1 2.8495397308247687 3.6647177065075534 39.19719075854509 1 0 0
1640 1 11.251602166625805 15.066205532679264 24.41060850208795 2 1 1
317 1 10.544098638398207 13.030252925572182 21.746475255047333 1 0 0
5566 1 13.835898034796353 15.815000355247898 23.449683053485035 1 1 1