LAMMPS data file via write_data, version 29 Oct 2020, timestep = 6000000

6750 atoms
2 atom types

0.24535003413553014 48.974649965856514 xlo xhi
0.24435126673416718 48.77528466365449 ylo yhi
-0.2136613546663817 60.27566135466691 zlo zhi

Masses

1 18.015
2 12.01

Atoms # atomic

6448 1 3.513206424034564 2.014219346712598 3.0289450735964154 1 -2 1
5674 1 3.6003329520327223 2.063220435594919 0.4078012904737255 1 1 1
6588 1 1.641905724961097 0.27580772934147113 14.594024363682832 0 -1 0
3830 1 7.992040138423554 3.3313758573335037 3.045569483615735 3 -4 0
1512 1 7.701419569216297 3.1910661583210844 0.3935904821021078 -2 -2 1
6655 1 15.169180283037845 1.1337343894956198 3.048326069658923 4 0 0
2027 1 15.339321830899346 1.011866039235286 0.432747510745051 0 0 0
4871 1 2.521419748561861 13.66582186924665 0.6750528438269128 1 -1 1
5177 1 19.635340256255223 1.9984759781289159 3.049662278982195 0 4 0
6518 1 19.694778726374466 2.290384573911018 0.3800833623296116 0 -1 1
151 1 23.91143400104607 3.5163459652729 3.1120309434775084 -3 0 0
1350 1 24.21096867117124 3.677721468856785 0.5563507389030999 -1 1 1
3085 1 17.614340589757298 0.886490695563696 4.262577647594357 -1 3 1
5094 1 17.70840762400536 0.3397429102258826 7.1592567324382745 -1 3 0
1822 1 4.766091207885254 6.64578023119563 0.8979217790389333 0 2 0
6461 1 4.490468521433591 6.451867935396972 3.4429411890582093 3 2 0
577 1 12.169948730535472 4.365225319153206 0.3281034273893644 0 1 1
434 1 8.978537250174814 7.77906978269275 0.6635711691183322 -2 -1 1
5121 1 8.770880953275213 7.560952155748902 3.161357975562305 -1 0 0
279 1 12.018660830733978 4.401231762756863 3.016592057702049 0 0 0
3840 1 24.428883309245286 10.279364346862735 4.203802851466839 1 -2 0
5036 1 16.461724633937035 5.249204280726565 3.274955624246243 0 1 1
6388 1 16.361200201874745 5.450872595329481 0.4303169393172862 4 1 1
3297 1 20.56841173850542 6.061143568039814 0.4372676588548924 0 2 1
3008 1 20.69094356397023 6.541310169755546 3.075209620696456 2 0 1
1962 1 23.277284589522154 5.96750131719614 4.119460219680494 0 2 0
2107 1 0.4285175272852746 12.2126929643784 6.713232274489569 -1 -1 0
5589 1 1.0452452176546068 9.965790613147313 3.3865906162759907 1 -2 0
4830 1 5.581726011099031 10.881423061016804 3.404794214590072 1 3 0
5252 1 5.640852545745042 10.614510422900445 0.7564454045118082 0 2 0
3630 1 10.036635399656458 11.923579420327414 0.4851367344159483 2 2 0
1648 1 9.801780810689632 12.1114350493918 3.1190619215257906 3 -1 1
3017 1 11.621641578370399 23.53201728153918 17.016495682323605 0 1 1
1947 1 13.111305782086836 8.833088724972255 3.05261816194203 -1 0 0
3128 1 13.283822524604568 8.534449524764987 0.49956313715803524 3 0 1
21 1 12.477181455691499 11.54236601543956 3.9005212374587837 1 0 0
1790 1 17.290239841784395 9.887857417783932 3.5361955494988258 1 -2 0
3877 1 17.479144388438282 9.36567213059203 0.6165652506913483 0 2 1
1695 1 21.896377317825092 10.708028250630566 0.7395116767440898 -4 -1 1
3330 1 21.862962244094938 10.83954993465826 3.3741128875982045 3 0 0
375 1 1.3438319070446105 9.911435451378969 0.7529373391910179 2 2 0
445 1 15.579195577700661 24.014562246065392 6.276869736069951 5 -2 0
3586 1 2.4003953919832965 14.180116032918773 3.268039886994735 1 -1 0
5578 1 6.701046533523782 14.957269373870052 3.088100696001429 1 -1 0
2286 1 6.614013690157086 15.121207266377395 0.5323184775149029 -1 2 1
2041 1 10.803294001095635 15.912466972872085 0.9407641977911807 3 -2 0
3672 1 1.9227154722211568 23.489289247379585 18.072297226323975 4 -1 0
1826 1 14.330304949042633 13.220196782415671 0.5372503163223792 0 -1 1
612 1 14.390903811413754 13.170344210439866 3.222081806579282 -2 0 1
6543 1 13.404758622573738 15.66905613528226 4.043573241496787 -2 -3 1
4884 1 18.70987488608988 14.151269170313403 3.084026761501949 -1 1 1
6374 1 18.524177180646394 14.318823407511886 0.39752415840763267 3 -1 1
520 1 22.812424693406946 15.21906829847428 3.0338356516602247 2 1 0
3778 1 22.643192244860483 15.367642511441804 0.4338246527254289 2 -1 0
2214 1 21.021680898180705 13.58700020834035 4.079781332997183 -2 1 1
4706 1 3.449324876688739 18.47805075640968 3.082934126768746 4 3 1
2261 1 3.137631787393823 18.392005376553207 0.5893641658147715 3 2 1
5283 1 7.71284096870208 19.37054556452387 3.324383087960998 0 3 0
2238 1 7.672006025930023 19.55495670064387 0.5410388389810075 -3 -2 0
1910 1 2.8357471388820876 21.181429675537657 17.374130397749866 1 0 0
4873 1 11.148842703660442 16.129455275097158 3.527678363945107 2 1 0
3813 1 12.382268075474848 20.476522712241483 3.1348349510698954 -1 0 0
5424 1 14.929020491466803 17.354758415588282 0.32103659737144463 0 1 0
3066 1 15.270870856603967 17.320637796532335 3.160557480999261 1 0 1
438 1 19.32568923302326 18.611709163765934 0.3929223794815966 3 -2 0
3468 1 19.534561265283507 18.638244292654665 3.19312260705287 1 -2 0
584 1 18.054912990956932 23.944867536188756 17.76387439020435 1 1 0
2018 1 23.71636508965756 19.340031279955078 2.889832617097564 -5 4 0
2146 1 23.78513489831509 19.422929005094144 0.4491674111316234 -2 3 1
1330 1 2.8769464711159753 21.126589190523656 3.589064783015121 0 3 1
3974 1 7.732436236002897 22.410939049348013 16.7618022467483 -1 3 1
2091 1 4.530828990491707 22.83427737752819 0.29736492421487737 1 0 0
2262 1 4.564093185357382 22.98095428562569 2.7872268339634743 0 4 1
3208 1 13.853729028834497 22.76088360711381 18.07227279493153 1 -2 1
3649 1 9.253034223880695 23.905320396580905 0.37364570495865734 2 2 1
2191 1 8.356041908416765 23.654245924378408 3.118895633590336 0 0 0
1325 1 0.8431177873119683 19.18944533037293 17.737930939972994 -2 0 1
3470 1 1.7187632784918412 0.261641615294656 17.393882828638 -4 0 0
2065 1 16.442152817207347 21.678674421633986 2.8649296559653177 -1 0 0
2125 1 16.38823617899318 21.741211465653965 0.3882098621791924 3 -4 0
3300 1 20.55033866157126 22.912247701564024 0.6620508613559479 0 3 1
123 1 20.260940325868077 23.053857905279525 3.205475203224908 1 2 1
4744 1 0.7796342264049936 2.560310366957048 7.457987134137454 0 0 1
6503 1 8.391046618966945 16.832517656711772 -0.168231949391478 -2 -1 1
2010 1 24.196631265047092 3.002259778681615 13.490612976345835 1 2 0
1485 1 5.967928739630658 1.5926760757871092 3.672474573131422 -2 2 1
2112 1 5.920756897755571 1.4668314764775578 6.834813161085988 -1 -1 0
2136 1 5.278444757685545 3.9531905122319735 7.27520386293425 1 3 0
325 1 10.085128477644384 2.497689569349174 4.217559878504788 -2 -1 0
5096 1 15.718171426442163 24.20692578200465 14.17851781395682 -1 2 1
3861 1 10.073007182090025 2.4791165655627116 6.987708084102901 1 3 0
513 1 14.64443711246409 3.467140149430408 3.6535342162434907 -3 -3 1
4890 1 14.330725247026256 3.549900379541782 6.6291357413444 2 0 1
6695 1 12.5178363538671 1.7994823820845964 7.765039519480897 -1 0 0
1388 1 9.827293087250975 21.74868625402624 18.016505887201482 -1 0 1
3556 1 16.9383030117093 3.056143454406587 7.407208416353372 0 -2 0
1429 1 6.336119945156951 24.299925086896735 10.070689086236387 -1 2 1
2257 1 22.26903850117813 1.659262812479858 3.954090972456295 -1 2 1
3256 1 22.41450179713283 1.6272427847544337 6.891323467575189 3 2 1
441 1 21.398863904745212 4.049853252621821 7.72295465119726 1 2 0
3964 1 2.6947466128765187 4.50370506050325 3.9235170878391 -2 2 1
3092 1 2.60605022967076 4.547264084223558 6.619340775753165 -2 0 1
1374 1 1.9973602924472162 7.169095613457548 7.402662429771355 2 0 1
5238 1 6.883004102259522 5.55496193978127 3.9472083884135323 -1 2 0
5157 1 7.03191340952708 5.8154669170940005 6.378839798837186 1 1 0
1582 1 11.452499010466745 7.037492858401254 3.587499987254896 0 3 0
2023 1 11.342876704644462 7.0545178440095 6.27642675623562 1 0 0
3662 1 9.60147094947929 5.061399447762667 7.216711681656478 -2 3 0
5478 1 13.656663677727192 6.20670353425689 7.459217354458715 -1 1 0
442 1 15.574940918896823 7.94081457561846 3.536739365014516 4 1 0
1928 1 15.364658205519957 7.895214055963953 6.332022487829657 -2 -2 1
3383 1 18.939882604533704 4.736410651998658 4.068882710111662 0 0 1
512 1 18.745122861991877 5.042949927559201 6.527355532737906 1 0 1
3258 1 18.020302658546612 7.243277279651644 7.515106660427271 0 2 0
5501 1 23.339154216597663 5.8463558433420255 6.82394590769725 0 1 0
3454 1 22.634041371499833 8.322165270367424 7.76805749198866 -1 -2 0
1916 1 3.7624777784243655 9.172811684012961 3.898734752776595 2 -4 0
5375 1 3.71926210332496 9.160865244348997 6.536778413013909 2 -1 0
5489 1 2.9270553447713104 11.348286301993173 7.6602885237425 -2 0 0
3894 1 24.07765299793535 9.87041862374909 17.603085188800662 1 2 0
3202 1 6.161628484826796 8.246166679323212 7.367830665244014 3 2 1
3728 1 7.987721093343946 10.15611956320012 3.8332375219597647 2 -1 1
5206 1 7.983719482097296 9.99974642968887 6.582831959453647 -2 0 1
5234 1 10.583958879086023 9.366750679309613 7.486572479119862 1 3 0
4767 1 12.512844088159781 11.060567848051086 6.510873215423743 -1 0 1
2022 1 14.940485967273862 10.22945532318384 7.572198839003553 3 0 0
1440 1 19.89531550353791 8.972658146147097 4.088307364905802 -1 0 0
236 1 20.092178203717296 8.73565075820079 6.801091208287879 0 4 0
4751 1 19.552751442972603 11.364248077023053 7.745758046239262 -1 -1 1
3038 1 8.30443119368396 0.6524269396311304 7.633946023663012 -4 2 1
198 1 2.0088722626445668 7.313112647362669 0.016998559059850177 -1 1 0
5059 1 3.989153751647036 15.969786509494726 7.493994974560641 2 0 1
3479 1 4.810718978152527 13.398173630288728 4.206453473357946 2 -1 1
2253 1 7.556521210635846 12.641386505449935 7.335238333099117 -1 2 1
1724 1 4.886583999732937 13.295672504350783 6.7659572996907915 0 -2 1
1796 1 9.359771854273799 14.498918989358652 4.1821310794962825 -1 0 0
4969 1 9.427615212730453 14.714358797414537 6.786862826559904 -1 -1 1
1624 1 11.837199263782356 13.662413566953655 7.463828715078543 -2 -2 0
4909 1 13.589746648266232 15.615355895196503 6.642523109973763 1 -1 1
1783 1 16.100586850149625 14.762358276345065 7.343639970552509 2 2 0
5198 1 16.615062246361056 12.847480598007799 4.4049759705119245 3 1 1
6515 1 16.94177666023726 12.036407926832794 6.919183571735992 3 -3 1
2059 1 20.29734555505054 15.870304741257696 7.694667992717138 2 -1 0
5352 1 23.59000288683505 12.888196120119552 7.458639210887637 -1 1 0
2989 1 21.01930080279126 13.406076337593051 6.76714324930122 -3 -2 0
4765 1 1.3899034973315079 16.778774451132417 6.585015736232233 -2 1 1
5657 1 1.4460655563067697 16.995270054479608 4.026358036528479 2 2 1
3422 1 0.8889206484305691 19.183117709796832 7.38595993638001 1 1 0
1813 1 5.939001720925813 17.35783198775719 4.021179926938111 0 -2 0
3069 1 6.093638585938449 17.820064672724897 6.78307820830672 2 1 1
1966 1 5.205889164697541 20.41872444849074 7.504420647138173 1 1 0
4916 1 10.223118200429917 18.540435023452435 3.8187167824497417 -2 2 1
1657 1 8.27431515110278 16.995354200641277 7.955540329269864 -1 0 1
3181 1 10.184837856338486 18.731953470543502 6.584921025603577 -1 0 1
1948 1 14.866706525826864 19.978253709297544 4.103516927774442 3 -1 0
1765 1 14.756692271943953 19.8539156540372 6.727364145883269 -2 0 1
3647 1 12.684047342011041 18.312462458344697 7.124193012248369 0 0 0
5631 1 17.91095116674627 16.63549206996012 3.903333471538634 -2 1 1
4733 1 17.832856660814805 16.595769194050426 6.719567354639805 1 0 1
3779 1 17.308618296946484 19.214558881703567 7.549587307252193 -4 1 0
3138 1 21.386649592917113 20.606360834373156 17.44775544365366 0 -2 0
6373 1 21.94142424503359 17.66113384681823 4.028747540653433 0 0 1
321 1 21.86010950090695 17.689918545538074 6.7700604984817625 -3 2 0
4799 1 21.225440215837036 20.239909025199015 7.547761847979492 -2 2 1
3608 1 2.8131606452289732 20.930494866840867 6.09997428235712 -1 -4 0
6359 1 2.002957602152291 23.348268569968965 7.161522107690537 -2 0 1
3621 1 6.7381149408757315 21.893463283101212 4.056273406712406 0 -1 0
575 1 6.862210918228704 22.130639170369857 6.5444180937144925 0 -2 1
1556 1 11.342752096136918 23.101375693599817 3.636873942272952 -2 -2 1
6525 1 11.558555288168856 23.086577430623525 6.454474167597489 0 4 0
2122 1 9.571480356562503 21.403155320948144 7.02878281983722 0 2 0
4929 1 24.289795968103785 10.31894248868445 6.986015105264875 0 0 1
3669 1 13.97322430618178 22.258725212540256 7.571166750208743 3 1 1
3211 1 19.020240584697856 21.049744748643942 3.9945283881237623 2 -1 1
2103 1 18.904909915231794 20.885435196852573 6.568463618568874 0 1 0
1577 1 18.190943526940007 23.31905977028395 7.389046523224906 1 -1 1
3264 1 22.818265368469024 21.83778017609246 3.889870114559649 -3 -1 1
468 1 22.747876273439736 22.169701627690532 6.651274090536688 0 0 1
276 1 0.848975889804651 2.7887564327410614 10.216977573004447 0 1 0
1348 1 3.691721588147127 2.145493554311366 11.208772950311337 1 0 1
213 1 7.722184370417889 3.4361739619476017 10.73572309414034 -1 -2 0
6344 1 8.583899117162025 0.8732657596281249 10.128704365754883 3 1 1
399 1 5.249178792380818 4.080624854595703 10.125737633227363 0 -3 0
2994 1 12.752026139361769 1.3593457520717123 10.21552794374328 1 -1 0
3275 1 15.252341152211157 0.9713665497377136 11.227488902152038 0 -1 1
5042 1 16.96901938310694 2.9834770494261673 10.119704986620775 4 1 0
2147 1 19.552170919083924 2.219747061386832 10.847328908670788 -3 0 0
3539 1 23.84914653321234 3.151757785773019 11.11068929123228 3 -3 1
5149 1 1.8320875118141144 7.490193499182189 9.942423450922998 1 -3 1
6410 1 0.5836907270602678 12.154739886651884 14.35614592330389 -3 1 1
504 1 4.357877739285281 6.5970223482286 10.831381903270584 5 -1 1
1656 1 8.713899463792215 7.6404087736151505 10.985648750958356 1 2 1
535 1 9.638671815969923 5.2219661391550645 9.680181502697504 0 1 1
1331 1 12.054202573707474 4.197016822638267 10.914977678590068 5 1 1
3522 1 13.602244663941292 6.20858513935655 10.314390977945662 2 0 1
2287 1 16.24626642235449 5.539008271282951 10.838694663647436 -3 -1 1
5428 1 18.129070954426364 7.415215279449283 10.098661063591555 0 3 1
3520 1 21.212799039864485 3.9838724730657344 10.262130363055585 4 0 1
1431 1 20.842592659664344 6.530326724654721 11.151947193972266 -3 -1 1
3972 1 1.1127854548316232 9.81291861882353 10.958151842944625 1 -1 1
6610 1 2.886391591184812 11.437161446504915 10.195146931342451 -2 2 1
5530 1 6.316064892973716 8.185190006592865 10.105416223141361 -1 0 0
1347 1 5.710804063170623 10.718783600991653 10.93229012394269 3 -2 1
6721 1 10.373055815356862 9.545202388237662 10.03760748849838 0 0 1
288 1 9.995263905448894 12.153431598151531 11.020146902298368 2 2 0
4906 1 12.916274887351522 8.81283526843003 10.843148011996874 3 2 1
2215 1 14.944372639190421 10.617204168695741 10.21100050375493 -1 0 0
3377 1 17.195835652352883 9.698064521596711 11.211172627013969 -2 2 1
4832 1 19.271346782434293 11.60434574314592 10.295377928310215 0 -1 0
1732 1 22.6749300502869 8.336759619422171 10.510850079836613 1 -2 0
5316 1 21.72184030136756 10.899002074517783 11.396139521668811 -3 1 0
5637 1 2.3523605036711532 14.186502202109795 10.86330350449401 2 2 1
4940 1 4.354003180648741 15.846303502588624 10.227233592245058 -1 -3 1
6614 1 7.443443854576501 12.55671096263431 10.150053805011328 0 -1 1
1682 1 6.894469540884785 14.976875919170164 11.15686165418397 0 -3 0
5167 1 11.943516644562875 13.651198439230143 10.077297131339934 3 2 1
4721 1 14.5101955796348 13.161563466091152 11.006402878053812 -2 1 1
3699 1 15.968486344072767 14.928611249321557 9.96820022685396 3 -1 0
1844 1 18.348219651791798 14.355876578484523 11.038195640275452 1 1 0
2002 1 20.263365184023545 15.992105564492666 10.229364472131907 0 0 0
3603 1 23.457620562706314 12.621239073471612 10.20739997736917 1 1 1
3888 1 22.904149617911056 15.060177574478127 11.154139891199 -2 -4 0
1951 1 0.8929811576645061 19.143642153226477 9.888400859816993 1 2 0
3320 1 3.398255570198685 18.49692952687783 11.110503887560768 1 3 0
6425 1 7.6000689294461 19.914758925827172 10.884883541422372 3 -1 0
3698 1 5.110392580309481 20.22458224256457 10.169524522820423 1 1 0
309 1 11.000225744507956 16.205908498465774 11.291520724236202 0 2 0
3606 1 8.380955394036093 17.1075294728497 10.484605243759818 -1 1 0
3141 1 12.71495036538183 17.791849955149235 9.89946871252331 3 5 1
340 1 15.130618619657776 17.343010482860734 10.956301625930523 2 0 0
4867 1 17.215212294855256 19.108815725502378 10.192350487437334 3 3 1
5048 1 19.703156329819368 18.334083890683033 11.239033815931805 -2 1 1
6647 1 23.849476958427253 19.45775752275701 10.908207531051659 1 1 0
3445 1 21.408724788321823 20.18313099576416 10.318431031889235 2 -1 1
4745 1 1.915508234270674 23.46155983766087 9.834117349523101 -1 -3 1
5151 1 4.217787522187194 15.751200122081467 0.10510309126239431 0 2 0
3427 1 4.336882042622678 22.79086286378977 10.806318446729687 -1 -2 0
312 1 11.884907228013702 20.436490496530006 10.644864227009384 3 2 0
6506 1 8.975969585702066 24.040565306615708 10.491429206674864 2 1 1
5175 1 9.417978494064418 21.393524429940605 9.996333023312939 1 1 0
5083 1 14.10482137877343 22.52166909837543 10.284325252053746 0 0 1
264 1 16.36103851512683 21.52023007984503 11.002730691127008 1 -1 0
5482 1 17.82275784310648 23.593117622904444 10.222132786951143 1 -4 0
2193 1 20.545616906061014 22.962667322212692 11.051722645741014 1 1 1
1537 1 24.1459546450285 10.001944676130611 14.869589625025412 2 0 1
3666 1 3.695430059004147 1.8874982049868017 13.881314816615882 2 1 0
4807 1 6.363214330217587 1.4144352686943675 14.463169491393513 -3 -1 0
5260 1 7.922974580929655 3.369195935044841 13.341090888056211 -2 0 1
4822 1 10.580773442013852 2.7689606063057917 14.322715088751226 0 0 1
2035 1 15.599449147343506 1.2353992289355533 13.584755619391421 1 2 0
1890 1 14.861815549071691 3.7787038649714217 14.25489326289917 1 0 0
1705 1 0.45588002612150547 21.585773240647185 13.508228021831847 2 -1 1
610 1 19.6555727455906 2.1362993138138426 13.59697018907478 2 0 1
3743 1 15.37933502127798 24.29061715642311 3.7113343888771926 2 1 0
6469 1 22.365452875030915 1.6081704026134975 14.544432581803045 2 4 1
393 1 2.667655668843172 4.503536550996046 14.17501300045795 1 2 0
6709 1 4.707025386359084 6.513466827555725 13.343950597560626 1 1 1
3536 1 7.326994625252048 5.586750274618722 14.153427532982628 -1 3 0
3491 1 12.446058536633606 4.479709719767287 13.505979885307719 0 -2 0
156 1 8.967956146398379 7.593270445051179 13.721129655902889 0 -1 0
4814 1 11.767328866637067 6.7789374607552535 14.45461819553623 3 0 1
6686 1 16.459519376411233 5.5631943898398575 13.364498934928564 1 0 1
1391 1 15.462741329096067 8.000861917776238 14.55668828812148 -1 -2 1
186 1 18.815590000468116 4.587295389118801 14.207534274414973 1 1 0
497 1 20.84577563912832 6.560993349623775 13.836841147915514 6 -3 0
4773 1 23.585254983168316 5.469534472191466 14.49721387908264 0 0 1
6341 1 1.4266691294635583 9.45217258193649 13.548938785739413 1 1 1
1344 1 3.9417234743076053 9.060568508683144 14.513015225042304 0 0 1
5241 1 5.557644393776177 10.861078806816073 13.799796122119583 0 3 0
3174 1 8.005750032465558 9.921197469146618 14.640145122317037 1 -2 1
3401 1 9.651182741305796 12.23022002760649 13.741958287307481 1 1 0
6482 1 12.126384516009317 11.097142621575612 14.616508325999368 0 1 1
3395 1 12.817161553494204 8.859940125624428 13.519770381976535 -1 2 0
1958 1 17.60226530353975 9.516561321190848 13.940366141556224 -1 2 0
75 1 20.113868441819875 8.913415592340794 14.792545847730803 -1 2 0
4703 1 16.5625879725142 12.297469342135786 14.395695328215348 4 2 1
5617 1 21.64504156009452 10.81600639892361 14.048006067398726 -1 2 1
1726 1 0.2547503890150318 21.712462657577245 10.89468884379911 1 -2 1
5630 1 2.3509070033822406 13.94379659622644 13.530072124023759 0 -4 0
1417 1 23.086530648550205 22.562656532878503 16.438443683894015 -4 -1 1
4692 1 4.859439255264501 13.37305913018335 14.624532546569188 -2 -2 0
1979 1 6.467542178511821 15.216134532861075 13.72487469951774 1 1 0
3824 1 8.976124811839474 14.658146276826077 14.608655987225147 0 2 0
3944 1 10.78027397151621 16.47946900837712 13.96224330130744 1 2 1
3126 1 14.128536691337228 13.04939328925668 13.798490928186801 -2 0 1
145 1 13.213685514516506 15.696693664089722 14.53938479567292 2 2 0
4860 1 18.18053266503853 14.190327506783376 13.761103698874539 1 -2 1
23 1 20.947281072968025 13.390754012019396 14.378707177777434 4 1 1
1609 1 22.81711103756755 15.32122318528449 13.639665763572026 -1 0 1
6687 1 2.1048127694662035 16.406596067103123 14.320276425800532 1 -1 1
4995 1 3.5039148866266325 18.62118833810535 13.732411136716888 1 2 0
3759 1 5.872220818432829 18.027679410496308 14.442079934383848 -1 1 0
6702 1 7.796435360144556 19.66944936559734 13.60087212061774 -2 -4 1
2003 1 9.96221037291858 19.03890081941929 14.590956098820186 5 0 0
268 1 15.203641920912348 17.459357596921837 13.62413742492712 2 -2 1
1652 1 14.375030102402144 20.17245905551992 14.273325877102392 -1 1 0
4850 1 17.649639779509666 16.81078684363849 14.396383165228235 0 -2 1
3306 1 19.612002892101515 18.459535099150777 13.614426670133012 -2 -1 0
5133 1 24.089145868949824 19.328407438895873 13.521439864788285 -1 -2 0
1750 1 22.111410587520705 17.653204712005625 14.652584299138 0 1 0
3302 1 2.6734587710620783 21.126129936171864 14.662402209824627 -1 0 1
5214 1 4.528888123892423 22.82300430557444 13.625433390679733 -2 1 1
4833 1 6.833592021313886 22.028974978121067 14.401900565540823 2 0 1
6361 1 12.00236995539264 20.708703649513794 13.459649956400854 -1 2 1
3869 1 8.752778750959274 23.780145770631155 13.375498662920435 0 -2 0
1768 1 11.274582420163188 23.240924717235913 14.337849424778568 -1 -2 1
4828 1 16.416460146136583 21.619046375030944 13.753080041415526 1 1 1
5097 1 12.264253834227677 20.53189795295015 0.44172001148417306 2 0 1
1996 1 18.880668136724573 21.26441324797005 14.563817131159148 -2 0 0
214 1 20.75651891280963 22.97165766123458 13.61736206891002 1 1 0
6621 1 23.2988901835474 21.866390666091117 14.001985207891103 2 -2 0
1753 1 1.1173804649776509 2.928073644943824 18.005039496264953 -2 2 0
5665 1 9.00734423191671 0.9254268147876102 17.79645196198611 -1 2 1
6601 1 6.151057988009921 1.4432533107584922 17.32268546268276 3 3 1
1409 1 5.510576994076154 4.034929931045055 17.978564723971264 -3 2 1
1341 1 10.51667305839545 3.0215214005886963 16.992591264652663 -1 3 1
6544 1 12.870416769314486 1.8815797427278622 17.91433116443141 -1 -1 1
1754 1 15.009630929019158 3.5201333994851627 17.145569509283153 0 2 0
6600 1 12.89134720475014 18.185586676405904 17.936444319340147 1 -1 0
3545 1 17.185119464933457 2.5311338318567835 18.372807375607515 1 -1 0
4888 1 18.7003485846134 21.256440142113807 17.22361320703799 4 0 1
3579 1 22.46752005478126 1.6254122960363337 17.100207565702092 1 2 0
3497 1 21.53655280221036 3.9078113635747025 17.54209780819547 0 2 1
3471 1 3.024042921301604 4.541327308089111 17.01631726859211 0 0 0
2132 1 1.9961127814971893 7.0529062808146525 18.06445025729564 1 -1 0
2270 1 7.308980758280229 5.756132305908827 16.997078707997137 0 0 1
5592 1 6.077553957508336 8.028368345801903 18.065065837173307 3 1 1
3339 1 9.637469382186175 5.18729354871595 18.192694094518448 2 2 1
451 1 11.6553164572027 6.630515601978107 17.13082725700385 3 -1 0
5492 1 14.017687639312657 6.197417973157368 18.132717868508145 2 4 0
4961 1 15.293617615019768 8.235085025658623 17.317589772404514 2 2 1
3053 1 19.002549942160666 4.5223004180586415 16.926677071465623 1 0 1
5106 1 17.593614318937068 7.170901392078364 18.143222983521078 0 2 0
5507 1 23.498477304873727 5.693056818389415 17.305263493983816 1 2 0
4746 1 22.225322258919526 7.824501568906597 18.152496861538854 1 1 1
4914 1 3.0630586955690493 11.555180401671015 17.831099392370895 3 0 1
6452 1 3.6090063250668476 9.072758215262963 16.980060755967802 1 -2 1
6489 1 7.8199323970370616 9.964870750405016 17.50692862287111 1 2 0
3736 1 10.401220804621472 8.993066674866348 17.975836422770147 2 0 1
1541 1 12.278212880174065 11.031765533837335 17.197913636584914 -2 3 0
111 1 14.831914123755038 10.711909366858892 18.02162383673393 1 2 1
1776 1 19.22109470103035 11.6743643940242 17.86336693816267 -2 4 1
6661 1 19.807442612171748 8.673424728406026 17.528851071080815 2 1 0
3817 1 16.568442003020337 12.612742690792212 16.999617568838477 -1 1 1
511 1 0.52202978934832 12.239500571717771 17.02219961591594 2 0 1
2983 1 4.132099177717319 15.996879552181543 18.07206963952091 1 2 1
5370 1 22.1425088262564 17.928322412461934 17.401682176669176 -2 1 0
5061 1 7.159901664596777 12.537777554104848 18.386215814285666 2 1 0
164 1 4.890201475744473 13.52094566831965 17.488357438474285 3 0 0
6719 1 9.01552604766379 14.058408683745654 17.122420086158957 1 4 1
5355 1 11.643626561775365 13.376463917974329 18.080863753846135 1 1 0
5275 1 13.46464521895184 15.424765494480937 17.15486248720742 -1 -1 0
3079 1 15.92674427839883 15.221922953447654 17.994291191450053 1 1 1
3255 1 20.158393731028514 15.971970993194493 17.70731073613373 0 0 1
1820 1 17.863847458031167 16.91059860955397 16.938086478993693 -2 1 0
6654 1 23.455443577292552 12.465290743681383 18.19659435883022 -1 2 1
3560 1 20.98755260666555 13.509185076129809 17.48203156943899 1 1 0
5618 1 1.6804841552825205 16.55985154663297 17.124664880621697 4 4 0
1333 1 17.01086237586343 19.38890415603839 17.830434117815695 3 -4 1
5353 1 6.079685505715905 18.209992816199836 16.995937736240556 0 1 0
6497 1 5.595784524977295 20.8334473060397 17.34570310655106 4 1 0
1667 1 8.39531692489058 16.86560402951561 17.851304073902824 -2 -1 0
543 1 10.238005318100187 18.923532600520545 17.31003456544002 0 3 1
5516 1 14.556024588783266 20.324001156190207 16.995831969314725 -4 4 0
6500 1 18.39081477302965 0.4532859206740616 17.194919769651264 2 2 1
1458 1 24.538824786962532 17.00316967201641 7.512032321671618 1 -1 1
4868 1 6.539889240117946 8.38769600690769 -0.08380717369648699 -2 1 0
3703 1 1.7713060615023255 0.2854946273051005 6.479018461867005 1 0 0
5590 1 15.589160635163166 24.26047374025975 16.966628392399695 1 -1 1
5123 1 0.39615937580664196 12.374670090708284 4.066032176729776 0 2 0
6612 1 22.662883976055866 24.482284965382025 -0.1057459006556668 7 0 0
1306 1 16.09011898641696 15.085304582478365 -0.19436462137722388 1 -3 1
6536 1 21.42787350216565 20.33149836652011 -0.12908930767315482 3 -1 1
5521 1 19.314888833046634 11.402584266336502 -0.03285082390897287 -2 1 0
5074 1 12.870447366958459 1.849426457172216 -0.16281324104231487 2 0 1
2095 1 7.456175101800241 12.7498352545982 -0.17772561944532583 0 1 0
1492 1 0.2640209854982315 15.270969501872797 -0.15440666473645592 0 1 1
2997 1 5.057704252613725 20.315568963129785 -0.07171719107003582 -1 1 1
3423 1 1.3227611775338566 2.7372891624161575 20.968793994046273 2 3 1
1728 1 8.23827143667014 3.443363222441314 21.056750210578013 -3 -1 0
1596 1 10.153836854763595 5.510909441912048 20.90375508720528 3 0 1
4953 1 9.145884302177608 0.8560897598608488 20.56366605041209 -1 1 0
5670 1 15.999591076076038 14.945702399064439 40.041167244635304 -2 0 -1
5245 1 16.063173369602268 1.4728058051512185 21.29955560664885 0 -2 0
172 1 13.435624434789847 1.8652857565316114 20.75587482187265 0 -1 0
263 1 18.216791998542554 4.044056053387514 20.802956303970102 -1 1 0
3373 1 20.804019309424962 3.2565804837861316 20.7348651764532 0 -1 1
3851 1 20.9779207205484 3.267254307866159 23.965963986129907 1 1 0
3989 1 18.105035121403446 3.901874715067283 23.56290157312905 1 -1 1
3919 1 21.084998553106804 22.72462276023046 36.247691862935795 -3 -4 0
3732 1 3.2482529664948 4.727512372273866 21.509102238760995 1 2 0
1375 1 0.6272286596325594 12.47833511371668 20.950389346877763 -1 1 1
2279 1 2.9356347502643283 3.9622778958032114 24.31546797375932 2 -1 1
1843 1 5.858267052468338 4.924168582049161 20.793509334479552 -1 -2 0
1516 1 6.469620494091095 7.557028920064297 20.662286413306248 -1 -2 1
3753 1 5.784788171712837 4.447556092296762 23.805862719843386 2 2 0
5224 1 6.543119344853342 7.191899016998204 23.70767483552692 1 -1 0
3968 1 9.164574534768622 8.131364500047091 20.740689087020925 1 -2 1
3793 1 21.209894332655978 0.30394628486534636 21.029677673052518 -2 0 1
1522 1 12.706931030869601 4.5794455116785535 20.830531845347554 2 0 1
1688 1 14.4295834391747 7.115542904346507 20.9956517128914 0 -3 1
1880 1 14.67199263159694 7.005018378493483 23.72982419104365 0 -1 0
3439 1 17.169259043972005 7.006702536743382 21.074229371487462 -3 -2 1
530 1 19.509145672697407 9.107753216222067 20.970749268076702 -2 1 0
1638 1 22.849979985275855 4.977084668871048 21.109480719944475 1 1 0
6401 1 22.746259308126078 5.266969700487309 24.014586780161927 1 -1 1
6561 1 22.248759668544864 7.98000089180183 20.80570457159838 -1 2 1
3367 1 3.3343444345452227 11.578950485865409 20.609987945427118 2 3 1
3792 1 4.149059332052194 8.712542003236367 21.248551904073338 -1 -1 0
3201 1 3.4523892198097204 11.456732375317683 23.629080754865686 0 1 1
6350 1 4.254060478138673 8.556435115646117 23.848113247059437 0 4 0
6574 1 24.45133280411891 17.32718806292614 39.95445862587896 0 0 0
3845 1 11.679809826950674 0.29137079473779653 24.073327360736627 -3 -2 0
6392 1 11.748000761139208 10.498439828271284 20.65419436137112 -1 -1 1
5277 1 11.250831221184772 10.178212364079435 23.52250180342527 -2 -2 0
265 1 16.33040519249448 11.839367297550789 20.88163222372664 -4 0 0
3233 1 14.266110064266115 9.877947776575194 20.60990982898472 1 1 0
5001 1 13.793727203884504 9.723275076574318 23.70005356879274 3 2 1
3645 1 15.817849625813642 11.66661594943487 23.641454323151176 0 -3 1
2260 1 19.068373155655713 11.64370887303029 20.34427767693449 1 0 0
3678 1 18.693759373313373 11.358010006908595 23.66501907948909 -1 4 1
3689 1 19.327360536908646 8.702407275864976 23.65605686102573 1 5 0
3755 1 23.828239205628982 9.985095955216797 21.198544053539386 2 3 0
6386 1 4.100900594516705 16.219900047184048 20.813695617499178 0 -2 1
559 1 8.304547167616134 14.086448617648957 20.641446165103375 -1 -1 1
5334 1 5.235453502507124 13.829512529880427 21.142835248429186 -1 -3 0
5652 1 7.983693744128922 14.211404520625226 23.9973799679887 0 1 1
1745 1 4.936490995895175 13.746801367874498 23.895346096882175 -3 0 1
3517 1 11.005714029245983 13.281904185237847 20.824279386853703 -2 -2 1
5347 1 10.572282013882283 13.361404856451628 23.846137224652686 1 1 0