LAMMPS data file via write_data, version 16 Mar 2018, timestep = 100000

6750 atoms
2 atom types

0.0000000000000000e+00 4.9219999999999999e+01 xlo xhi
0.0000000000000000e+00 4.9019635930410494e+01 ylo yhi
3.6814007916435898e-01 5.9693859920835216e+01 zlo zhi

Masses

1 18.015
2 12.01

Atoms # atomic

5546 1 1.5675836795985130e+00 2.4744086163523256e+00 7.9522544846429111e-01 1 1 1
3690 1 1.0705580428351739e+01 1.5379458220395147e+01 1.1891673921189943e+01 0 -2 0
6414 1 4.5199827919141153e+00 3.5478761595152166e+00 2.4975297274603530e+00 1 -1 1
3192 1 1.6946764465003781e+00 1.0212173464904872e+01 1.0800875315379863e+00 1 0 1
3640 1 8.3620478851994751e+00 4.7338938202894543e+00 5.5555749219166666e+00 2 0 0
1803 1 8.1754653210136663e+00 1.9097281089027958e+00 4.9313939803100668e+00 0 0 0
2201 1 1.9443148341815603e-01 2.9336829134170661e+00 1.3381374902136914e+01 -1 0 1
3763 1 1.1851898319864095e+01 1.0578347056262107e+00 2.6636990685688926e+00 0 1 0
285 1 5.2699232200423367e+00 1.5777885956090687e+01 1.2108284271676769e+01 0 0 0
3430 1 3.3464562932390542e+00 7.6657806016636663e+00 4.3564367241599413e+00 1 -1 0
1755 1 4.1008746690473741e+00 1.6134250943941080e+01 6.0355994413440257e+00 0 0 0
5054 1 1.0653261030325799e+01 1.9718372291942647e+00 1.4112846778383213e+01 -1 0 1
3552 1 6.8467692270654084e+00 1.4884335561701885e+01 1.4234105901786389e+01 0 1 0
6723 1 5.0390975275002532e+00 9.3023310735704712e+00 2.8822521235069734e+00 -1 -2 1
6542 1 6.7850787270706965e+00 6.8441528986033928e+00 2.3023763700987105e+00 3 0 1
6478 1 1.2121158143351387e+01 7.3759219822702820e+00 4.5114529797809064e+00 1 1 1
1804 1 9.0084451477357703e+00 6.9046680683977186e+00 3.7180342792894856e+00 0 0 0
1738 1 9.9275130122706337e+00 5.0073981025094652e+00 1.9019220815032394e+00 -1 0 1
451 1 9.9850617753300597e+00 1.0472765222494274e+01 1.1827902106164691e+01 1 0 0
3454 1 5.9107450212547912e+00 8.4911523677350298e-01 6.0855034439734395e+00 0 1 0
3261 1 8.1846029575812818e+00 2.7232420778099193e+00 1.4551610096949315e+01 0 1 0
2117 1 3.3742421920375532e+00 1.2097378998360680e+01 2.2493456519773947e+00 0 1 0
3321 1 7.1615102225736234e+00 9.4290750601949753e+00 5.0721292928830852e+00 0 1 0
243 1 5.8423289741285345e+00 1.2447047485194267e+01 1.3679928515817075e+00 -1 1 0
3129 1 7.8257963757433693e+00 1.1293241799272472e+01 2.7435255774013827e+00 1 0 1
1844 1 1.0402304806468520e+01 1.1231106136007062e+01 2.0862262327100334e+00 1 0 0
5040 1 1.1446867988647337e+01 1.2924488356010342e+00 7.7192362650893003e+00 1 1 1
4878 1 1.0391912084496711e+00 1.4072723812987777e+01 6.5090673414367926e+00 1 0 1
5550 1 1.0549095654791263e+00 1.5118393286295683e+01 3.1190355050796392e+00 0 1 0
3122 1 1.1041531293413740e+00 7.4622703653314346e+00 1.2467994935701551e+01 1 1 1
227 1 6.8780231374978573e+00 1.5056041666219702e+01 2.0190107045343413e+00 1 0 0
3934 1 9.6584718972311201e+00 1.5444047944941477e+01 2.3197093850590473e+00 1 0 0
2288 1 5.2108011547495483e+00 1.3775563966856671e+01 6.1371683277603220e+00 0 -1 0
1335 1 1.1565444670125546e+01 3.8599761986357199e+00 7.2926757992152309e+00 0 0 1
5380 1 6.5242517856087563e+00 1.7516780027632559e+00 2.3723286353082726e+00 1 1 0
5568 1 2.7880506311748698e+00 3.5389260136563698e+00 6.1941481059416246e+00 2 1 0
483 1 1.5065602905197357e+00 2.5532554192158257e+00 8.3124063570625140e+00 -1 0 0
3557 1 2.2185359419339434e+00 1.8014002881142726e+00 3.7160463313042804e+00 0 -1 0
3480 1 8.2764464886259610e+00 3.0593275745564212e+00 6.1787250312762920e-01 1 -1 0
1942 1 5.7529115885697335e+00 3.8522475882192309e+00 8.9139256975562429e+00 0 2 0
5601 1 5.2494047963148054e+00 7.2089645419389825e-01 9.2763649916043125e+00 0 1 1
67 1 5.4046716051059320e+00 3.9404074686788708e+00 6.1415824606723817e+00 1 2 0
1681 1 1.9617282950885770e+00 1.5138054496510286e+01 9.0863742496375668e+00 1 1 0
2151 1 1.0092242658342716e+01 2.0052005904974006e+00 9.9796182634081028e+00 1 1 0
5288 1 5.8218566628065915e-01 6.9286252245953603e+00 9.5096771294080931e+00 1 0 0
6602 1 2.5253589326884898e+00 6.7433189546978376e+00 7.0597265234595756e+00 1 1 0
5567 1 4.8658424032729881e+00 6.5102848441635652e+00 8.8862927047436138e+00 1 0 1
1765 1 5.2671383350212260e+00 5.6095307191149226e+00 4.0633233411272531e+00 0 -1 1
2113 1 9.4495513774901898e+00 5.4038637180211690e+00 8.0279485756891802e+00 1 1 0
5151 1 8.6449008912749719e+00 6.8831850560365453e+00 1.0829919021990030e+01 0 0 0
4938 1 1.0260871772022957e+01 8.0791868575899173e+00 7.2863863387971648e+00 1 2 1
5280 1 1.2014268751851823e+01 3.7116313444298483e+00 2.7084583183067110e+00 1 1 0
3580 1 9.4071904708776621e+00 1.5917876009569641e+01 1.4077989263066137e+01 0 1 0
2129 1 2.9742491453838227e+00 9.7811577449738625e+00 7.2064461813462968e+00 1 1 0
1730 1 4.1213002203346791e+00 1.1546094495202706e+01 5.1467893046746438e+00 0 0 0
3441 1 7.2426518242308076e+00 1.1151853354408509e+01 8.1744140239185725e+00 1 -1 1
5482 1 7.3748027130987124e+00 8.0371604323129002e+00 8.0539188659421939e+00 2 -1 0
5348 1 9.4162029765193331e+00 1.2091307814759181e+01 9.8659895175401431e+00 -1 0 0
3921 1 1.1510741880462717e+01 1.0441111830368609e+01 4.3653262730233013e+00 1 0 0
5508 1 1.1425825608624265e+00 5.4294422907395896e+00 1.4314209376479242e+01 0 0 0
2246 1 9.8829383508626556e+00 1.0725192021270729e+01 6.5738268279291141e+00 1 -1 0
6536 1 1.5043605081715286e+00 1.2249270486820151e+01 4.9005278041636666e+00 0 0 1
3801 1 3.2820059729499369e+00 1.3528251884985359e+01 1.0686085487803433e+01 -1 0 0
597 1 9.3655433008597755e-01 1.4910936592094222e+01 1.3300229031443546e+01 1 -1 1
3514 1 1.0890199417783698e+01 5.7696783568743077e+00 1.3312237918410235e+01 1 1 1
3135 1 1.1518781617300831e+01 1.2876544278283358e+01 1.2647256694662563e+01 1 1 1
3094 1 5.7571224448162690e+00 1.3370473464426782e+01 8.9644680558432341e+00 1 1 1
3214 1 9.2204845745211461e+00 1.4887297443187252e+01 9.7706097865643837e+00 0 0 1
5031 1 7.6511642900194836e+00 1.2834792246713652e+01 5.1123870500959319e+00 1 -2 1
4775 1 9.1907928453490690e+00 1.5136307533663553e+01 5.0668791271063967e+00 0 2 1
566 1 1.0526121877172855e+01 1.3477938665053182e+01 6.5297188725162347e-01 1 1 1
3732 1 2.7404874955300769e+00 2.2776331228500646e+00 1.3550655630849516e+01 1 1 0
4882 1 6.6920118016552186e+00 3.0549748328842594e+00 1.2523376459765233e+01 2 1 1
5413 1 8.2312845166767108e+00 3.8732844016420462e+00 1.0178804700208158e+01 0 1 0
3158 1 1.1384135954212184e+01 1.4259925089969942e+01 6.6073880104139935e+00 -1 1 1
2247 1 2.0307084779002257e-01 9.7006690354657472e+00 6.3519623353801968e+00 0 2 1
1906 1 3.3521107979052722e+00 5.8064819602075648e+00 1.1072747369992246e+01 -1 0 1
6586 1 5.2481588177898955e+00 9.5646561699333841e+00 1.2572398037278358e+01 1 0 0
1713 1 5.4818767585273220e-01 4.3138061875142153e+00 2.9906739622156628e+00 0 0 0
6527 1 6.2362943100881401e+00 1.2018080601380696e+01 1.4809615275600079e+01 1 1 1
4899 1 2.9689374542604368e+00 3.0767457627741970e+00 1.0603403174576819e+01 1 0 1
2229 1 6.9481785382661858e+00 7.0301374527841682e+00 1.3047253467417711e+01 -1 1 0
3586 1 4.8753690179105424e+00 5.2091911221079297e+00 1.3117982519050658e+01 1 -1 0
1524 1 1.1801665945880490e+01 3.1186301327900035e+00 1.1873578285057460e+01 0 1 0
5353 1 1.1350430782922732e+01 8.0394129200281501e+00 1.1906355278881314e+01 0 0 0
4790 1 7.9845481350402387e+00 1.0280360674331694e+01 1.3609810766236137e+01 3 1 1
6394 1 5.2770120407524901e-01 5.3657184491129097e+00 5.7159070341845952e+00 0 0 1
1401 1 2.7491347024567330e+00 1.2766149951696152e+01 1.3356015257319429e+01 0 0 1
3155 1 1.5037492155501742e+00 6.9222964132930702e+00 2.3712137538479086e+00 1 -1 1
518 1 2.4762748503801597e+00 1.0935979314958628e+01 1.0212459566432129e+01 0 0 0
1483 1 2.3958459366328162e+00 9.7870220729281101e+00 1.3342741587111737e+01 0 1 1
1389 1 5.0143074285480393e+00 9.4893193709744530e+00 9.7757941219230151e+00 1 0 1
1913 1 5.2324480491046872e+00 8.2673185130075943e-01 1.1867196449499763e+01 0 1 0
1734 1 1.2094090234181296e+01 1.1816346443787037e+01 8.3205629376156303e+00 0 0 0
6443 1 1.1934796402450740e+01 7.6394866124495806e+00 9.4373748240823598e+00 0 1 1
57 1 1.5421701028982682e-01 9.8302333173988146e+00 9.3795913806177182e+00 0 0 1
2097 1 1.1043439728463165e+01 1.6128255052339544e+01 8.4826041245775059e+00 -1 0 0
3278 1 6.8437830281663921e+00 1.6147025811687289e+01 9.9506734908380832e+00 0 1 0
5051 1 2.3690064020203274e+00 1.4291060821904836e+01 7.9184876837117013e-01 1 1 0
1640 1 8.4710224277001149e+00 5.4519878555792616e+00 1.4858819958828395e+01 2 1 1
3503 1 2.3775590552132644e+00 1.2161469507219305e-01 1.4976952881457768e+01 0 1 0
3411 1 9.3395899586256341e+00 4.1221052231759071e-02 2.7652970238112742e+00 0 1 0
3314 1 3.2461312363333898e+00 3.3240850519149663e+00 1.7117226241147236e+01 -1 2 1
3088 1 1.0736958060744890e+01 6.7392902159107999e+00 2.4407274585043634e+01 0 1 0
3396 1 1.1366189579448351e+00 2.2762301311970035e+00 2.0663576838935157e+01 0 1 0
5337 1 1.1689664780189895e+00 4.8865804179661616e+00 2.0885881922057013e+01 0 0 0
24 1 7.1250399450779272e+00 2.2883107415475616e+00 1.7147352450511100e+01 1 -1 0
229 1 5.2158998877047349e+00 4.3345581146951266e+00 1.9003673494188494e+01 0 0 0
5486 1 4.8290943937307356e+00 6.7977485327576781e-01 1.7280591902740063e+01 1 1 0
1653 1 8.5402863609720523e+00 3.6355724175346733e+00 1.9003302603875664e+01 0 0 1
5623 1 9.6030173961934402e+00 5.8123612771343982e+00 2.1174417909742420e+01 -1 1 0
2206 1 1.3004748655124410e+00 5.0390398660544049e+00 1.8016620119715977e+01 0 0 1
3218 1 1.1732375989351898e+01 1.3935262731984199e+01 1.9172318845141763e+01 0 0 1
3572 1 4.1229009912922105e+00 1.3760078984095808e+01 2.0429575606259725e+01 1 0 0
5356 1 1.0489023019285270e+01 6.0071896705290637e+00 1.7046928353851708e+01 0 2 0
2314 1 3.6550121263386952e+00 5.6119893014019464e+00 1.5246056029277447e+01 1 1 1
380 1 7.0577794860530956e+00 5.8458078897770429e+00 1.7820169828585176e+01 1 0 0
317 1 6.6697771037588618e+00 6.5779628916927644e+00 2.0920328580631896e+01 1 0 0
833 2 9.8440000000000012e+00 1.5629449137232328e+01 2.6805737528388661e+01 0 0 0
837 2 1.1074500000000002e+01 1.3498160618518829e+01 2.6805737528388661e+01 0 0 0
2322 1 2.9077714005857667e+00 1.0674170048985745e+01 1.6961281308014481e+01 -1 0 1
270 1 1.1532775551979176e+01 3.8415393203341872e+00 1.8528179753827306e+01 -1 0 1
4885 1 5.3436600219387067e+00 8.4258975902119513e+00 1.7911475530839386e+01 2 1 1
228 1 3.7634296413994028e+00 1.0636736142993579e+01 2.2088100067693514e+01 0 0 1
520 1 7.6945576827835183e+00 9.1533019837864948e+00 1.9183491560274767e+01 -1 1 0
232 1 9.7941694575806508e+00 9.0640846147290528e+00 1.5621094778195777e+01 0 -1 0
5032 1 1.0707230549939768e+01 1.4357131270008052e+01 1.6377140310319362e+01 1 1 0
4903 1 7.0927027360239601e+00 1.5293541677765001e+01 2.4222035930652087e+01 0 1 1
835 2 9.8440000000000012e+00 1.2787731112280996e+01 2.6805737528388661e+01 0 0 0
6674 1 3.6970542345251718e+00 1.5169192267928185e+01 1.7807336075946317e+01 1 0 1
5064 1 3.6031844593874123e+00 1.2909932061507238e+01 1.5860757280306276e+01 1 0 0
5298 1 2.5100893925875574e+00 7.2539178381313174e-01 1.9244827509726019e+01 1 0 1
3297 1 3.7887228849883487e+00 8.4834191684913378e+00 1.5210963124778580e+01 2 0 1
5526 1 8.4075481206861848e+00 1.1900821487891431e+01 1.6309745975185585e+01 0 1 0
6617 1 7.1298002942147738e+00 1.2039033104795683e+01 1.8743278979422278e+01 1 -2 0
230 1 9.8659317037606342e-01 1.3630087028577957e+00 2.3355757878763374e+01 1 1 1
6339 1 9.8346406731514335e-01 4.2924205474464747e+00 2.4004552518108692e+01 1 0 1
1610 1 1.1352014587153644e+01 4.0212892951771133e+00 2.3893967771474859e+01 -1 1 1
1394 1 5.9251909130232869e+00 8.6472043753173011e-01 2.3222891925478656e+01 1 2 1
233 1 2.1221667311756556e-01 1.7897564010227121e-01 1.7025075721126495e+01 0 1 0
5392 1 9.0351371549178641e+00 2.6915082857725978e+00 2.3788311748088180e+01 0 0 0
585 1 1.1998984946281382e+01 1.0173708614009188e+01 2.2894812025519521e+01 -1 -1 1
6582 1 1.1493545823109228e+01 1.7687505160504864e+00 2.1268412141285847e+01 1 0 1
6698 1 2.6678996831379092e+00 7.8234021745412754e+00 1.9276764063466771e+01 2 2 1
6337 1 3.5912587015677357e+00 5.4932931899029391e+00 2.1072753713626373e+01 1 0 1
1663 1 6.6319872239165640e+00 7.8742401744026607e+00 2.4536648719222555e+01 0 0 1
5565 1 8.5539132431411851e+00 1.8368670158975131e+00 2.1232660554813322e+01 0 1 1
5110 1 3.8103579828031870e+00 4.5800861713465952e+00 2.3567636038476763e+01 0 0 1
5303 1 3.9716840030708038e+00 7.0224790752239175e+00 2.4344069751280227e+01 3 1 0
6335 1 7.9115643963842590e+00 5.5491753185467552e+00 2.3407859049106250e+01 -1 1 1
3827 1 5.9350634190327511e+00 3.3308501986881018e+00 2.4335376846543316e+01 1 1 1
831 2 8.6135000000000002e+00 1.4919019630994494e+01 2.6805737528388661e+01 0 0 0
6404 1 9.2457387322858686e-01 1.1416986144816779e+01 1.8668776612243882e+01 0 0 0
5649 1 2.3658960360712635e+00 8.2278469749511824e+00 2.2455504425675294e+01 1 1 1
6415 1 6.3852557744939178e+00 9.4658605364550628e+00 2.1920224246430021e+01 1 -1 0
1330 1 3.4770868145513081e+00 1.2609313888800317e+01 2.3919208255055000e+01 1 1 1
4758 1 9.4211356076696227e+00 9.3332828278849895e+00 2.3944534946964250e+01 1 -1 1
3015 1 9.5016305983035192e+00 1.1598512411358501e+01 2.0191920253062978e+01 -1 0 0
21 1 8.4631449792289626e+00 1.1090600197737857e+01 2.2514292058404031e+01 1 0 0
4871 1 7.4710658986128617e+00 1.5061663795507190e+01 1.9681006288114038e+01 1 0 1
472 1 1.5031388990779562e+00 1.3128401512142718e+01 2.0588593251356127e+01 0 0 0
1659 1 9.3034113462850698e-01 1.2798031088313156e+01 2.3123748353620289e+01 1 0 1
1874 1 1.1988484354022583e+01 9.7655572019199948e+00 2.0168225070126116e+01 0 1 0
4944 1 4.6028280592143025e+00 1.0869314743635199e+01 1.9394463437371385e+01 0 0 1
3334 1 4.4205814481253070e+00 1.5167387531020424e+01 2.2964328937938696e+01 2 1 1
873 2 1.1074500000000002e+01 1.4919019630994494e+01 2.6805737528388661e+01 0 0 0
5528 1 1.0034851059762188e+01 8.3877685958866799e+00 1.8407503965202565e+01 1 1 0
3768 1 8.8812583228888045e+00 1.3285602928186037e+01 2.4313983424362089e+01 1 -3 0
3742 1 1.0142574657032620e+01 1.4657945111560904e+01 2.0804649152323794e+01 0 1 1
3602 1 1.0921444848020593e+01 1.4568150662147826e+01 2.3557062893917507e+01 0 1 1
618 2 0.0000000000000000e+00 2.8417180249513345e+00 2.6805737528388661e+01 0 0 0
620 2 0.0000000000000000e+00 0.0000000000000000e+00 2.6805737528388661e+01 0 0 0
622 2 1.2305000000000001e+00 7.1042950623783474e-01 2.6805737528388661e+01 0 0 0
629 2 1.2305000000000001e+00 2.1312885187134998e+00 2.6805737528388661e+01 0 0 0
631 2 2.4610000000000003e+00 2.8417180249513345e+00 2.6805737528388661e+01 0 0 0
633 2 2.4610000000000003e+00 0.0000000000000000e+00 2.6805737528388661e+01 0 0 0
635 2 3.6915000000000004e+00 7.1042950623783474e-01 2.6805737528388661e+01 0 0 0
650 2 3.6914999999999996e+00 2.1312885187134998e+00 2.6805737528388661e+01 0 0 0
652 2 4.9220000000000006e+00 2.8417180249513332e+00 2.6805737528388661e+01 0 0 0
654 2 4.9220000000000006e+00 0.0000000000000000e+00 2.6805737528388661e+01 0 0 0
656 2 6.1524999999999999e+00 7.1042950623783407e-01 2.6805737528388661e+01 0 0 0
679 2 6.1524999999999999e+00 2.1312885187134989e+00 2.6805737528388661e+01 0 0 0
681 2 7.3829999999999991e+00 2.8417180249513345e+00 2.6805737528388661e+01 0 0 0
683 2 7.3829999999999991e+00 0.0000000000000000e+00 2.6805737528388661e+01 0 0 0
685 2 8.6134999999999984e+00 7.1042950623783407e-01 2.6805737528388661e+01 0 0 0
716 2 8.6134999999999984e+00 2.1312885187135002e+00 2.6805737528388661e+01 0 0 0
718 2 9.8440000000000012e+00 2.8417180249513332e+00 2.6805737528388661e+01 0 0 0
720 2 9.8440000000000012e+00 0.0000000000000000e+00 2.6805737528388661e+01 0 0 0
722 2 1.1074500000000002e+01 7.1042950623783330e-01 2.6805737528388661e+01 0 0 0
761 2 1.1074500000000002e+01 2.1312885187135002e+00 2.6805737528388661e+01 0 0 0
623 2 0.0000000000000000e+00 7.1042950623783341e+00 2.6805737528388661e+01 0 0 0
625 2 0.0000000000000000e+00 4.2625770374269996e+00 2.6805737528388661e+01 0 0 0
627 2 1.2305000000000001e+00 4.9730065436648339e+00 2.6805737528388661e+01 0 0 0
642 2 1.2305000000000001e+00 6.3938655561404980e+00 2.6805737528388661e+01 0 0 0
644 2 2.4610000000000003e+00 7.1042950623783341e+00 2.6805737528388661e+01 0 0 0
646 2 2.4610000000000003e+00 4.2625770374269996e+00 2.6805737528388661e+01 0 0 0
648 2 3.6914999999999996e+00 4.9730065436648339e+00 2.6805737528388661e+01 0 0 0
671 2 3.6914999999999996e+00 6.3938655561404980e+00 2.6805737528388661e+01 0 0 0
673 2 4.9220000000000006e+00 7.1042950623783341e+00 2.6805737528388661e+01 0 0 0
675 2 4.9220000000000006e+00 4.2625770374269978e+00 2.6805737528388661e+01 0 0 0
677 2 6.1524999999999999e+00 4.9730065436648339e+00 2.6805737528388661e+01 0 0 0
708 2 6.1524999999999999e+00 6.3938655561404980e+00 2.6805737528388661e+01 0 0 0
710 2 7.3830000000000009e+00 7.1042950623783341e+00 2.6805737528388661e+01 0 0 0
712 2 7.3829999999999991e+00 4.2625770374269996e+00 2.6805737528388661e+01 0 0 0
714 2 8.6135000000000002e+00 4.9730065436648339e+00 2.6805737528388661e+01 0 0 0
753 2 8.6135000000000002e+00 6.3938655561404980e+00 2.6805737528388661e+01 0 0 0
755 2 9.8440000000000012e+00 7.1042950623783341e+00 2.6805737528388661e+01 0 0 0
757 2 9.8440000000000012e+00 4.2625770374270004e+00 2.6805737528388661e+01 0 0 0
759 2 1.1074500000000002e+01 4.9730065436648339e+00 2.6805737528388661e+01 0 0 0
800 2 1.1074500000000002e+01 6.3938655561404980e+00 2.6805737528388661e+01 0 0 0
636 2 0.0000000000000000e+00 1.1366872099805333e+01 2.6805737528388661e+01 0 0 0
638 2 0.0000000000000000e+00 8.5251540748539991e+00 2.6805737528388661e+01 0 0 0
640 2 1.2305000000000001e+00 9.2355835810918343e+00 2.6805737528388661e+01 0 0 0
663 2 1.2305000000000001e+00 1.0656442593567498e+01 2.6805737528388661e+01 0 0 0
665 2 2.4610000000000003e+00 1.1366872099805333e+01 2.6805737528388661e+01 0 0 0
667 2 2.4610000000000003e+00 8.5251540748539991e+00 2.6805737528388661e+01 0 0 0
669 2 3.6915000000000004e+00 9.2355835810918343e+00 2.6805737528388661e+01 0 0 0
700 2 3.6914999999999996e+00 1.0656442593567499e+01 2.6805737528388661e+01 0 0 0
702 2 4.9220000000000006e+00 1.1366872099805333e+01 2.6805737528388661e+01 0 0 0
704 2 4.9220000000000006e+00 8.5251540748539991e+00 2.6805737528388661e+01 0 0 0
706 2 6.1524999999999999e+00 9.2355835810918343e+00 2.6805737528388661e+01 0 0 0
745 2 6.1524999999999999e+00 1.0656442593567499e+01 2.6805737528388661e+01 0 0 0
747 2 7.3829999999999991e+00 1.1366872099805333e+01 2.6805737528388661e+01 0 0 0
749 2 7.3830000000000009e+00 8.5251540748539991e+00 2.6805737528388661e+01 0 0 0
751 2 8.6134999999999984e+00 9.2355835810918343e+00 2.6805737528388661e+01 0 0 0
792 2 8.6134999999999984e+00 1.0656442593567498e+01 2.6805737528388661e+01 0 0 0
794 2 9.8440000000000012e+00 1.1366872099805333e+01 2.6805737528388661e+01 0 0 0
796 2 9.8440000000000012e+00 8.5251540748539956e+00 2.6805737528388661e+01 0 0 0
798 2 1.1074500000000002e+01 9.2355835810918343e+00 2.6805737528388661e+01 0 0 0
839 2 1.1074500000000002e+01 1.0656442593567498e+01 2.6805737528388661e+01 0 0 0
841 2 1.2304999999999998e+01 1.1366872099805333e+01 2.6805737528388661e+01 0 0 0
659 2 0.0000000000000000e+00 1.2787731112280996e+01 2.6805737528388661e+01 0 0 0
657 2 0.0000000000000000e+00 1.5629449137232333e+01 2.6805737528388661e+01 0 0 0
737 2 3.6915000000000004e+00 1.4919019630994494e+01 2.6805737528388661e+01 0 0 0
692 2 1.2305000000000001e+00 1.4919019630994494e+01 2.6805737528388661e+01 0 0 0
661 2 1.2305000000000001e+00 1.3498160618518829e+01 2.6805737528388661e+01 0 0 0
696 2 2.4610000000000003e+00 1.2787731112280996e+01 2.6805737528388661e+01 0 0 0
694 2 2.4610000000000003e+00 1.5629449137232328e+01 2.6805737528388661e+01 0 0 0
698 2 3.6915000000000004e+00 1.3498160618518829e+01 2.6805737528388661e+01 0 0 0
741 2 4.9220000000000006e+00 1.2787731112280996e+01 2.6805737528388661e+01 0 0 0
784 2 6.1524999999999990e+00 1.4919019630994494e+01 2.6805737528388661e+01 0 0 0
788 2 7.3829999999999991e+00 1.2787731112280996e+01 2.6805737528388661e+01 0 0 0
743 2 6.1524999999999990e+00 1.3498160618518829e+01 2.6805737528388661e+01 0 0 0
739 2 4.9220000000000006e+00 1.5629449137232333e+01 2.6805737528388661e+01 0 0 0
786 2 7.3829999999999991e+00 1.5629449137232333e+01 2.6805737528388661e+01 0 0 0
790 2 8.6135000000000002e+00 1.3498160618518835e+01 2.6805737528388661e+01 0 0 0
3547 1 8.5834566291442123e+00 1.0986093538191710e-01 1.8300637583745512e+01 0 0 0
619 2 0.0000000000000000e+00 1.4208590124756650e+00 3.0030999999999903e+01 0 0 0
621 2 0.0000000000000000e+00 0.0000000000000000e+00 3.0030999999999903e+01 0 0 0
628 2 1.2305000000000001e+00 3.5521475311891644e+00 3.0030999999999903e+01 0 0 0
630 2 1.2305000000000001e+00 2.1312885187134998e+00 3.0030999999999903e+01 0 0 0
632 2 2.4610000000000003e+00 1.4208590124756650e+00 3.0030999999999903e+01 0 0 0
634 2 2.4610000000000003e+00 0.0000000000000000e+00 3.0030999999999903e+01 0 0 0
649 2 3.6914999999999996e+00 3.5521475311891644e+00 3.0030999999999903e+01 0 0 0
651 2 3.6914999999999996e+00 2.1312885187134998e+00 3.0030999999999903e+01 0 0 0
947 2 0.0000000000000000e+00 2.8417180249513345e+00 3.3256262471608238e+01 0 0 0
948 2 0.0000000000000000e+00 0.0000000000000000e+00 3.3256262471608238e+01 0 0 0
949 2 1.2305000000000001e+00 7.1042950623783474e-01 3.3256262471608238e+01 0 0 0
953 2 1.2305000000000001e+00 2.1312885187134998e+00 3.3256262471608238e+01 0 0 0
954 2 2.4610000000000003e+00 2.8417180249513345e+00 3.3256262471608238e+01 0 0 0
955 2 2.4610000000000003e+00 0.0000000000000000e+00 3.3256262471608238e+01 0 0 0
956 2 3.6915000000000004e+00 7.1042950623783474e-01 3.3256262471608238e+01 0 0 0
964 2 3.6914999999999996e+00 2.1312885187134998e+00 3.3256262471608238e+01 0 0 0
653 2 4.9220000000000006e+00 1.4208590124756650e+00 3.0030999999999903e+01 0 0 0
655 2 4.9220000000000006e+00 0.0000000000000000e+00 3.0030999999999903e+01 0 0 0
678 2 6.1524999999999999e+00 3.5521475311891644e+00 3.0030999999999903e+01 0 0 0
680 2 6.1524999999999999e+00 2.1312885187134989e+00 3.0030999999999903e+01 0 0 0
682 2 7.3829999999999991e+00 1.4208590124756659e+00 3.0030999999999903e+01 0 0 0
684 2 7.3829999999999991e+00 0.0000000000000000e+00 3.0030999999999903e+01 0 0 0
965 2 4.9220000000000006e+00 2.8417180249513332e+00 3.3256262471608238e+01 0 0 0
966 2 4.9220000000000006e+00 0.0000000000000000e+00 3.3256262471608238e+01 0 0 0
967 2 6.1524999999999999e+00 7.1042950623783407e-01 3.3256262471608238e+01 0 0 0
979 2 6.1524999999999999e+00 2.1312885187134989e+00 3.3256262471608238e+01 0 0 0
980 2 7.3829999999999991e+00 2.8417180249513345e+00 3.3256262471608238e+01 0 0 0
981 2 7.3829999999999991e+00 0.0000000000000000e+00 3.3256262471608238e+01 0 0 0
715 2 8.6134999999999984e+00 3.5521475311891657e+00 3.0030999999999903e+01 0 0 0
717 2 8.6134999999999984e+00 2.1312885187135002e+00 3.0030999999999903e+01 0 0 0
719 2 9.8440000000000012e+00 1.4208590124756659e+00 3.0030999999999903e+01 0 0 0
721 2 9.8440000000000012e+00 0.0000000000000000e+00 3.0030999999999903e+01 0 0 0
760 2 1.1074500000000002e+01 3.5521475311891644e+00 3.0030999999999903e+01 0 0 0
762 2 1.1074500000000002e+01 2.1312885187135002e+00 3.0030999999999903e+01 0 0 0
982 2 8.6134999999999984e+00 7.1042950623783407e-01 3.3256262471608238e+01 0 0 0
998 2 8.6134999999999984e+00 2.1312885187135002e+00 3.3256262471608238e+01 0 0 0
999 2 9.8440000000000012e+00 2.8417180249513332e+00 3.3256262471608238e+01 0 0 0
1000 2 9.8440000000000012e+00 0.0000000000000000e+00 3.3256262471608238e+01 0 0 0
1001 2 1.1074500000000002e+01 7.1042950623783330e-01 3.3256262471608238e+01 0 0 0
1021 2 1.1074500000000002e+01 2.1312885187135002e+00 3.3256262471608238e+01 0 0 0
624 2 0.0000000000000000e+00 5.6834360499026637e+00 3.0030999999999903e+01 0 0 0
626 2 0.0000000000000000e+00 4.2625770374269996e+00 3.0030999999999903e+01 0 0 0
641 2 1.2305000000000001e+00 7.8147245686161639e+00 3.0030999999999903e+01 0 0 0
643 2 1.2305000000000001e+00 6.3938655561404980e+00 3.0030999999999903e+01 0 0 0
645 2 2.4610000000000003e+00 5.6834360499026637e+00 3.0030999999999903e+01 0 0 0
647 2 2.4610000000000003e+00 4.2625770374269996e+00 3.0030999999999903e+01 0 0 0
670 2 3.6914999999999996e+00 7.8147245686161639e+00 3.0030999999999903e+01 0 0 0
672 2 3.6914999999999996e+00 6.3938655561404980e+00 3.0030999999999903e+01 0 0 0
950 2 0.0000000000000000e+00 7.1042950623783341e+00 3.3256262471608238e+01 0 0 0
951 2 0.0000000000000000e+00 4.2625770374269996e+00 3.3256262471608238e+01 0 0 0
952 2 1.2305000000000001e+00 4.9730065436648339e+00 3.3256262471608238e+01 0 0 0
960 2 1.2305000000000001e+00 6.3938655561404980e+00 3.3256262471608238e+01 0 0 0
961 2 2.4610000000000003e+00 7.1042950623783341e+00 3.3256262471608238e+01 0 0 0
962 2 2.4610000000000003e+00 4.2625770374269996e+00 3.3256262471608238e+01 0 0 0
963 2 3.6914999999999996e+00 4.9730065436648339e+00 3.3256262471608238e+01 0 0 0
975 2 3.6914999999999996e+00 6.3938655561404980e+00 3.3256262471608238e+01 0 0 0
674 2 4.9220000000000006e+00 5.6834360499026637e+00 3.0030999999999903e+01 0 0 0
676 2 4.9220000000000006e+00 4.2625770374269978e+00 3.0030999999999903e+01 0 0 0
707 2 6.1524999999999999e+00 7.8147245686161639e+00 3.0030999999999903e+01 0 0 0
709 2 6.1524999999999999e+00 6.3938655561404980e+00 3.0030999999999903e+01 0 0 0
711 2 7.3829999999999991e+00 5.6834360499026637e+00 3.0030999999999903e+01 0 0 0
713 2 7.3829999999999991e+00 4.2625770374269996e+00 3.0030999999999903e+01 0 0 0
976 2 4.9220000000000006e+00 7.1042950623783341e+00 3.3256262471608238e+01 0 0 0
977 2 4.9220000000000006e+00 4.2625770374269978e+00 3.3256262471608238e+01 0 0 0
978 2 6.1524999999999999e+00 4.9730065436648339e+00 3.3256262471608238e+01 0 0 0
994 2 6.1524999999999999e+00 6.3938655561404980e+00 3.3256262471608238e+01 0 0 0
995 2 7.3830000000000009e+00 7.1042950623783341e+00 3.3256262471608238e+01 0 0 0
996 2 7.3829999999999991e+00 4.2625770374269996e+00 3.3256262471608238e+01 0 0 0
752 2 8.6135000000000002e+00 7.8147245686161639e+00 3.0030999999999903e+01 0 0 0
754 2 8.6135000000000002e+00 6.3938655561404980e+00 3.0030999999999903e+01 0 0 0
756 2 9.8440000000000012e+00 5.6834360499026637e+00 3.0030999999999903e+01 0 0 0
758 2 9.8440000000000012e+00 4.2625770374270004e+00 3.0030999999999903e+01 0 0 0
799 2 1.1074500000000002e+01 7.8147245686161639e+00 3.0030999999999903e+01 0 0 0
801 2 1.1074500000000002e+01 6.3938655561404980e+00 3.0030999999999903e+01 0 0 0
997 2 8.6135000000000002e+00 4.9730065436648339e+00 3.3256262471608238e+01 0 0 0
1017 2 8.6135000000000002e+00 6.3938655561404980e+00 3.3256262471608238e+01 0 0 0
1018 2 9.8440000000000012e+00 7.1042950623783341e+00 3.3256262471608238e+01 0 0 0
1019 2 9.8440000000000012e+00 4.2625770374270004e+00 3.3256262471608238e+01 0 0 0
1020 2 1.1074500000000002e+01 4.9730065436648339e+00 3.3256262471608238e+01 0 0 0
1041 2 1.1074500000000002e+01 6.3938655561404980e+00 3.3256262471608238e+01 0 0 0
637 2 0.0000000000000000e+00 9.9460130873296642e+00 3.0030999999999903e+01 0 0 0
639 2 0.0000000000000000e+00 8.5251540748539991e+00 3.0030999999999903e+01 0 0 0
662 2 1.2305000000000001e+00 1.2077301606043163e+01 3.0030999999999903e+01 0 0 0
664 2 1.2305000000000001e+00 1.0656442593567498e+01 3.0030999999999903e+01 0 0 0
666 2 2.4610000000000003e+00 9.9460130873296642e+00 3.0030999999999903e+01 0 0 0
668 2 2.4610000000000003e+00 8.5251540748539991e+00 3.0030999999999903e+01 0 0 0
699 2 3.6914999999999996e+00 1.2077301606043163e+01 3.0030999999999903e+01 0 0 0
701 2 3.6914999999999996e+00 1.0656442593567499e+01 3.0030999999999903e+01 0 0 0
957 2 0.0000000000000000e+00 1.1366872099805333e+01 3.3256262471608238e+01 0 0 0
958 2 0.0000000000000000e+00 8.5251540748539991e+00 3.3256262471608238e+01 0 0 0
959 2 1.2305000000000001e+00 9.2355835810918343e+00 3.3256262471608238e+01 0 0 0
971 2 1.2305000000000001e+00 1.0656442593567498e+01 3.3256262471608238e+01 0 0 0
972 2 2.4610000000000003e+00 1.1366872099805333e+01 3.3256262471608238e+01 0 0 0
973 2 2.4610000000000003e+00 8.5251540748539991e+00 3.3256262471608238e+01 0 0 0
974 2 3.6915000000000004e+00 9.2355835810918343e+00 3.3256262471608238e+01 0 0 0
990 2 3.6914999999999996e+00 1.0656442593567499e+01 3.3256262471608238e+01 0 0 0
703 2 4.9220000000000006e+00 9.9460130873296642e+00 3.0030999999999903e+01 0 0 0
705 2 4.9220000000000006e+00 8.5251540748539991e+00 3.0030999999999903e+01 0 0 0
744 2 6.1524999999999999e+00 1.2077301606043163e+01 3.0030999999999903e+01 0 0 0
746 2 6.1524999999999999e+00 1.0656442593567499e+01 3.0030999999999903e+01 0 0 0
748 2 7.3830000000000009e+00 9.9460130873296642e+00 3.0030999999999903e+01 0 0 0
750 2 7.3830000000000009e+00 8.5251540748539991e+00 3.0030999999999903e+01 0 0 0
991 2 4.9220000000000006e+00 1.1366872099805333e+01 3.3256262471608238e+01 0 0 0
992 2 4.9220000000000006e+00 8.5251540748539991e+00 3.3256262471608238e+01 0 0 0
993 2 6.1524999999999999e+00 9.2355835810918343e+00 3.3256262471608238e+01 0 0 0
1013 2 6.1524999999999999e+00 1.0656442593567499e+01 3.3256262471608238e+01 0 0 0
1014 2 7.3829999999999991e+00 1.1366872099805333e+01 3.3256262471608238e+01 0 0 0
1015 2 7.3830000000000009e+00 8.5251540748539991e+00 3.3256262471608238e+01 0 0 0
791 2 8.6135000000000002e+00 1.2077301606043163e+01 3.0030999999999903e+01 0 0 0
793 2 8.6134999999999984e+00 1.0656442593567498e+01 3.0030999999999903e+01 0 0 0
795 2 9.8440000000000012e+00 9.9460130873296642e+00 3.0030999999999903e+01 0 0 0
797 2 9.8440000000000012e+00 8.5251540748539956e+00 3.0030999999999903e+01 0 0 0
838 2 1.1074500000000002e+01 1.2077301606043163e+01 3.0030999999999903e+01 0 0 0
840 2 1.1074500000000002e+01 1.0656442593567498e+01 3.0030999999999903e+01 0 0 0
1016 2 8.6134999999999984e+00 9.2355835810918343e+00 3.3256262471608238e+01 0 0 0
1037 2 8.6134999999999984e+00 1.0656442593567498e+01 3.3256262471608238e+01 0 0 0
1038 2 9.8440000000000012e+00 1.1366872099805333e+01 3.3256262471608238e+01 0 0 0