LAMMPS data file via write_data, version 16 Mar 2018, timestep = 6000000

6750 atoms
2 atom types

0.0000000000000000e+00 4.9219999999999999e+01 xlo xhi
0.0000000000000000e+00 4.9019635930410494e+01 ylo yhi
3.1307960496677723e-01 5.9748920395032769e+01 zlo zhi

Masses

1 18.015
2 12.01

Atoms # atomic

3607 1 1.7006801503003430e+00 3.0242958919631495e+00 2.1848487141610446e+00 2 -2 0
6408 1 8.0044925180448045e-01 7.6664753756208270e-01 2.7083063329526293e+00 0 2 1
5497 1 4.0059344195598241e+00 3.3075814892834923e+00 3.0261348829037220e+00 0 -1 0
3804 1 5.4570646069827351e+00 1.3141678740877516e+00 1.5830686152406372e+00 2 2 0
511 1 8.0382235100539354e+00 1.3652973900423395e+00 2.8122746279213029e+00 -2 1 1
2330 1 7.9864872638400408e+00 1.6867463524552662e+00 5.5921560007351934e+00 1 -1 1
606 1 8.8944979455146154e+00 3.6266106180892499e+00 1.8996381822222206e+00 -2 0 1
1625 1 3.5406756108228201e+00 7.7905831733759294e+00 2.6539688587004986e+00 0 1 1
6702 1 1.0745091497999495e+00 7.3062773050845831e+00 1.7683955680899262e+00 1 -4 1
3160 1 4.9246589969177474e+00 5.4437894479414970e+00 1.9184754362743464e+00 3 0 1
3266 1 7.3963541819125354e+00 5.8566690784520405e+00 2.7808890741170083e+00 -1 4 0
3739 1 7.2122381417752255e+00 6.0273911903600839e+00 5.5969160052202618e+00 0 0 0
3238 1 1.1221125262593025e+01 4.0176325763328498e+00 2.9739975393095208e+00 -1 2 1
2242 1 7.8084219778747821e-01 7.7738425767549613e-01 5.5008154569930170e+00 1 -1 1
1383 1 2.6389611714511045e+00 1.1899488353185902e+01 2.9113857665018457e+00 0 -1 1
6633 1 4.2808424835876675e+00 1.0136857210973979e+01 1.7029568679512643e+00 2 1 1
176 1 8.6253822196880918e+00 1.5127671546351912e+01 1.3400822806469710e+01 0 0 0
1483 1 6.7815131879653672e+00 1.0285072904085290e+01 2.7607489134409837e+00 0 1 1
3606 1 8.4218282459453366e+00 8.1638931674006763e+00 1.8232088672383464e+00 3 1 0
1418 1 1.0807901136756630e+01 8.7303298754872518e+00 2.8292494998303792e+00 -1 3 1
1849 1 1.1825802265325208e+01 1.0934501245654932e+01 1.7390679807277012e+00 0 1 1
5177 1 1.0868889637429058e+01 8.6964398601293578e+00 5.4282236412977412e+00 0 1 0
3434 1 3.4832193196982102e+00 1.4214258986647481e+01 1.7837385884458545e+00 1 -1 0
6443 1 7.7274470506453934e+00 1.2457382440976440e+01 2.1591049591664193e+00 1 1 1
4932 1 6.1895597053714440e+00 1.4599731390012463e+01 2.6024282247102635e+00 0 -2 0
5105 1 6.0262614235348675e+00 1.4714626989569918e+01 5.2094835924757534e+00 3 3 0
1667 1 1.0224615110906861e+01 1.2981773813883073e+01 2.2605323004652056e+00 -2 0 0
5343 1 1.0860701247139918e+01 1.5331669632642958e+01 1.8325216462550182e+00 1 3 0
1691 1 1.0054798442283913e+01 1.3155278796855558e+01 5.1549612673305560e+00 -2 2 1
4774 1 5.6957969536476771e-01 7.5543484806731986e-01 1.0124206530698924e+01 0 1 1
1833 1 3.4202130219450972e+00 1.1234512190393597e+00 6.3877018700051869e+00 -3 1 0
3699 1 3.1869559999253174e+00 1.2053298779894595e+00 9.0517490603857009e+00 3 1 0
1521 1 4.2522649155209935e+00 3.3536067493941881e+00 5.5864927495885022e+00 -1 -1 1
3585 1 1.0894401435733168e-01 4.8455329860925609e+00 2.7354230039390521e+00 1 0 0
1503 1 4.0829014587990535e+00 3.6053074593019394e+00 9.9381662929513475e+00 0 -1 1
5607 1 6.6170035042102411e+00 3.5232113848645565e+00 6.6305532685559312e+00 1 -1 1
463 1 8.1473324211065989e+00 1.9402653382870712e+00 9.9309104603812521e+00 0 0 0
1500 1 1.0602502921668158e+01 1.7427993427371353e+00 6.3726930292102955e+00 2 -1 1
6556 1 1.0655689910745973e+01 2.1476646957748207e+00 9.0839211522737191e+00 2 1 1
5395 1 3.2543646636932970e+00 7.6842926373641713e+00 5.2665591664096043e+00 1 0 0
1813 1 6.2553643450520395e+00 1.4753559358860729e+01 1.2387835653018122e+01 -1 -1 0
3546 1 2.2949865253610753e+00 5.4959808135472494e+00 6.4415275659523150e+00 -1 0 0
3961 1 2.1724419143991653e+00 5.2838410085533605e+00 9.2147919879057589e+00 0 1 1
2124 1 3.2253708000704817e+00 7.6265937903677337e+00 1.0433410070406428e+01 0 -2 0
9 1 6.7366635614415973e+00 3.8665494915983381e+00 9.2972343989327353e+00 -1 0 0
5323 1 1.1404628138070384e+01 4.2920556164331529e+00 5.6694747383228048e+00 -1 0 0
5174 1 9.8117028143134846e+00 6.3633367832754990e+00 6.4422229638404271e+00 2 0 1
6566 1 9.9190584432301332e+00 6.4703950640254630e+00 9.0720308557694267e+00 -1 -1 0
3010 1 1.1685745724420014e+01 4.6330134810807664e+00 1.0020443353184532e+01 1 3 1
3156 1 1.5316372438123433e+00 9.6085656515931923e+00 6.7039399794600447e+00 0 5 1
2251 1 1.6148127665928842e+00 9.6396842160146612e+00 9.4110891050052103e+00 1 -3 1
3786 1 2.7112248256148859e+00 1.1974461659378347e+01 1.0419830389401904e+01 0 -1 0
5500 1 6.5760850322077404e+00 1.0170333253829364e+01 5.4045188153552628e+00 1 -1 0
389 1 5.6714444035308462e+00 7.9850397737883130e+00 9.3497232586994219e+00 2 0 1
503 1 5.6037456017875877e+00 7.9380050954179913e+00 6.3932671168978201e+00 1 1 0
2178 1 6.9807179242041517e+00 1.0468206293093088e+01 1.0143943208067329e+01 -1 4 0
60 1 9.2040348276084085e+00 1.0893260362684936e+01 8.8988650191589098e+00 1 0 1
3289 1 9.2589182868137279e+00 1.0790507921025441e+01 6.2597010189378572e+00 1 -2 1
3490 1 1.0737193312397439e+01 8.9430508642276862e+00 9.8723042631186466e+00 1 1 1
469 1 2.7181690792900128e+00 1.2088501852629765e+01 5.8433309554698667e+00 -2 1 0
3561 1 1.3712601943615934e+00 1.4124891873312583e+01 9.3375379704457870e+00 3 2 0
97 1 1.1849160308313653e+00 1.4226451753063257e+01 6.5884138543522095e+00 -2 0 1
5013 1 5.2909773467189458e+00 1.2603308001350202e+01 6.4789329094001182e+00 -1 1 1
33 1 5.1547828319445035e+00 1.2539585289926634e+01 9.2328716247922475e+00 0 1 0
386 1 6.3128898118739913e+00 1.4932857233619639e+01 9.7032627034037198e+00 1 -2 0
2144 1 8.6067866006922404e+00 1.5228283598021351e+01 5.6706269312214310e+00 -1 1 1
2098 1 1.0027222414907600e+01 1.3343258596382238e+01 9.6478662252760508e+00 6 3 0
1980 1 8.7246164381155484e+00 1.5093033078714113e+01 8.4248652285529335e+00 -1 1 0
3431 1 6.3903901930726037e-01 1.0322510127555664e+00 1.2765942059458698e+01 0 3 1
3859 1 3.0326733376963992e+00 1.4227059387068217e+00 1.3384780529849648e+01 0 -2 1
4682 1 4.3054878738000344e+00 3.7875255240804551e+00 1.2683098325602371e+01 -2 -1 1
4753 1 8.0915195571235223e+00 1.8925058870108735e+00 1.2682666899812535e+01 0 0 1
4923 1 6.8036649754661900e+00 3.8813762880546436e+00 1.3858142023540353e+01 2 0 1
6484 1 1.0722890171776545e+01 2.0847880629835753e+00 1.3236876059040435e+01 -1 1 1
1722 1 1.0048644749171963e+01 1.3144969768413770e+01 1.2340860053078059e+01 0 -1 1
3231 1 2.6333614720679130e+00 5.4023722104280392e+00 1.3918804339842968e+01 2 4 0
109 1 3.4103490497401783e+00 8.0991112897458937e+00 1.3017342761924084e+01 0 2 0
227 1 7.7010345470867501e+00 6.5543896033253883e+00 1.0360515851865031e+01 0 0 0
2166 1 7.5505002103288108e+00 6.1120568097457610e+00 1.2929296771005475e+01 -1 1 0
5646 1 5.8773916333634899e+00 8.1050875413979284e+00 1.3997239158888171e+01 1 1 0
6466 1 1.1623002275449791e+01 4.2563192924750100e+00 1.2769891305906945e+01 0 3 0
1336 1 1.0142347743352689e+01 6.4668869701283915e+00 1.3871073288922325e+01 1 -1 1
1859 1 1.6689405622239262e+00 1.0035216695454858e+01 1.3717446603530654e+01 -1 1 0
1626 1 2.4954805880310338e+00 1.2280364147848742e+01 1.2943705621969617e+01 -1 0 1
2266 1 6.6653361653917358e+00 1.0634980250348532e+01 1.3033266075557261e+01 -1 -1 1
1768 1 9.4333222294887555e+00 1.0829420037193923e+01 1.3475814715996336e+01 1 -1 1
4820 1 1.0897978460809938e+01 8.8483517114322616e+00 1.2584653044954926e+01 -1 -1 1
1580 1 1.1769809713359951e+00 1.4526883814297914e+01 1.3603482911457839e+01 1 0 0
3215 1 5.1894842617979782e+00 1.2540110168802334e+01 1.3545354245014527e+01 2 -2 1
4879 1 4.0455307750773450e-01 1.1636576972349943e+01 1.7839357365072450e+00 1 -2 1
5097 1 2.0724839659924812e+00 1.6115563052197970e+01 2.7481188197331412e+00 1 0 1
3510 1 2.1826831311345942e+00 1.6258013633010254e+01 5.4763356689121201e+00 2 0 1
1831 1 1.1723796200415714e+01 6.3868307935426269e+00 1.7134985328501346e+00 1 2 0
6723 1 1.2168951398390931e+01 3.1712576989547525e-01 1.0049347699225345e+01 0 -1 1
6416 1 6.1133867088614124e-03 5.0180269561450039e+00 5.3377011270175814e+00 2 1 1
1714 1 1.4374531644378816e+00 3.1153887321671281e+00 1.7182241534553139e+01 1 0 0
3234 1 3.2241222829751832e+00 1.3838807749146196e+00 1.6369255775588083e+01 -1 0 1
4687 1 1.2409212972195949e+00 3.1111258942081932e+00 1.9950260863433574e+01 0 2 1
1372 1 5.7127907731348762e+00 1.9031656883297607e+00 1.7371094027509141e+01 0 -1 1
3682 1 6.5375264121847616e+00 4.1396757433448936e+00 1.6687753495651631e+01 0 2 0
5357 1 5.5494524149657645e+00 1.8999596254050068e+00 1.9936255950550908e+01 0 2 0
1696 1 1.0474847075484018e+01 2.1450199185793464e+00 1.6107638969205482e+01 0 0 0
4935 1 8.9134601785116541e+00 4.1962171851699122e+00 1.9926504933891639e+01 -1 0 1
5027 1 2.8603630158430264e+00 5.1557456703605711e+00 1.6606836497810502e+01 1 0 1
6444 1 1.0028221877253907e+00 7.0815724855587208e+00 1.7163340420350259e+01 1 1 1
5106 1 1.2070713863576072e+00 7.4644246739584572e+00 2.0008876061502974e+01 -3 2 0
5586 1 5.2596527930009431e+00 5.9128878243690055e+00 1.7622726975521601e+01 -1 0 1
5571 1 9.0452565499217314e+00 4.4892939651898836e+00 1.7298560457107726e+01 4 0 1
3588 1 9.7833734723216708e+00 6.6529984637349271e+00 1.6345107135508997e+01 0 1 0
5404 1 1.9241248832746425e+00 9.5120864133575456e+00 1.6511156731840369e+01 4 -2 0
1331 1 4.1197330799526268e+00 1.0703060421268523e+01 1.9735216745312098e+01 0 1 1
873 2 1.1074500000000002e+01 1.4919019630994494e+01 2.6799750766429796e+01 0 0 0
6354 1 5.7185451182914102e+00 8.3556190812679940e+00 1.6577550757559742e+01 1 -1 1
3000 1 4.1239928512792625e+00 1.0554381223933037e+01 1.7218309068103611e+01 1 3 1
6659 1 8.3253560855634134e+00 8.6812358396105758e+00 1.7222120847882127e+01 0 2 1
3260 1 8.2406548857310966e+00 8.6948643143112001e+00 1.9760088109030526e+01 0 0 1
3863 1 9.1796310212016472e+00 1.0981844385054684e+01 1.6035309876436223e+01 2 0 0
3313 1 1.1769675648424210e+01 1.0792980439273514e+01 1.7178308136491012e+01 0 1 1
2218 1 1.8751940329911099e-01 1.1848639388048767e+01 1.7538715807768391e+01 0 0 0
6488 1 1.0945125201764994e+00 1.4383341011051964e+01 1.6341918867087319e+01 -1 -1 1
6750 1 3.4220430255678567e+00 1.4386177646065191e+01 1.7315855353520050e+01 3 1 1
1814 1 3.8206117938182791e+00 1.4519944703409356e+01 1.9910029395089897e+01 1 -1 1
5119 1 5.1431743245436659e+00 1.2786350057242702e+01 1.6075022196408597e+01 3 1 0
593 1 7.8593812765020878e+00 1.2805754174139858e+01 1.7415458746763914e+01 2 0 1
5353 1 8.7015629265379264e+00 1.5203070906230730e+01 1.6091712103588229e+01 0 2 0
347 1 1.1250969660494253e+01 1.5458124572941218e+01 1.6823806646384309e+01 0 1 0
1699 1 1.0964460421019021e+01 1.5314245246245482e+01 1.9654305477611686e+01 0 0 1
790 2 8.6135000000000002e+00 1.3498160618518835e+01 2.6799750766429796e+01 0 0 0
1465 1 1.6028499300869878e+00 2.9899824720888493e+00 2.4543794355420431e+01 2 3 1
434 1 5.4053641024949106e-01 5.8405691146540772e-01 2.3230723019066406e+01 4 2 1
232 1 3.6269229121002691e+00 3.5162081177175502e+00 2.1225109193619748e+01 -1 -1 0
181 1 3.9528734380155903e+00 3.4155641392435792e+00 2.3935401489353808e+01 1 2 1
61 1 6.0290853248564433e+00 1.6469329126256047e+00 2.4533320411964716e+01 4 1 1
4824 1 8.2313169268417834e+00 1.9774216506282496e+00 2.0942739041072326e+01 1 1 1
208 1 8.8004059266499333e+00 1.9639869112159025e+00 2.3554158281889478e+01 2 0 1
6489 1 9.6217555691352246e+00 4.2299894508135205e+00 2.4491716600265882e+01 1 2 0
837 2 1.1074500000000002e+01 1.3498160618518829e+01 2.6799750766429796e+01 0 0 0
4800 1 8.4994265040652839e-01 7.7053292538758491e+00 2.3612432162264788e+01 -1 1 1
1402 1 3.4941942492820233e+00 7.6932594186198573e+00 2.3765118214989396e+01 0 -2 1
546 1 3.9220932749420991e+00 8.3218135186643956e+00 2.1029856525588205e+01 -2 0 0
831 2 8.6135000000000002e+00 1.4919019630994494e+01 2.6799750766429796e+01 0 0 0
3175 1 4.6073129013124285e+00 5.7317369209180651e+00 2.0004412450969973e+01 -2 2 1
6643 1 5.1054901929581247e+00 5.7133655418498970e+00 2.4126675530417767e+01 -2 1 1
4863 1 7.3193236939422883e+00 6.2914744533761429e+00 2.0819398958986962e+01 1 0 1
230 1 7.7771535172686557e+00 6.1634615641224748e+00 2.3547835631189297e+01 0 -1 1
1354 1 1.1498783076574249e+01 4.3881826062323803e+00 2.0550279313709069e+01 -2 -3 0
6509 1 2.7744578857718722e+00 1.2446887957872775e+01 2.0879025086223972e+01 -2 0 1
833 2 9.8440000000000012e+00 1.5629449137232328e+01 2.6799750766429796e+01 0 0 0
2281 1 4.4043285690645320e+00 1.0366648573196537e+01 2.4334997680652155e+01 0 0 1
3705 1 6.8003078174112517e+00 1.0452293066895226e+01 2.3136267411215414e+01 1 -1 0
5166 1 6.5670344605831517e+00 1.0548140353378690e+01 2.0706217986053097e+01 2 1 0
3259 1 1.1021099610210982e+01 9.4244858559851661e+00 2.3530258617490780e+01 1 0 1
5443 1 8.5932875839497189e+00 8.7195344854170447e+00 2.4426790579429539e+01 0 3 0
3691 1 1.0921477143508914e+01 8.9643155069451659e+00 2.0832664896503971e+01 3 0 0
6343 1 2.3428324942707137e+00 1.2137005957888421e+01 2.4092568317365643e+01 2 1 1
3600 1 3.2451683706493140e+00 1.4855665290946545e+01 2.4168721342108658e+01 0 1 0
155 1 7.8215720739751227e+00 1.2848609965421355e+01 1.9996807792405402e+01 0 2 0
6350 1 6.0913031534822872e+00 1.5024674685320710e+01 2.3278226896970668e+01 4 3 0
1795 1 6.5037980048818147e+00 1.5037577819623298e+01 2.0640346365696466e+01 2 1 0
5044 1 7.2667933441701100e+00 1.2872478491527112e+01 2.4179876847330085e+01 2 -1 1
2005 1 1.0625546336640010e+01 1.5421365559235245e+01 2.4396288556766322e+01 0 -2 0
3499 1 9.9110649685190904e+00 1.3237262725542159e+01 2.3362776236080173e+01 3 0 1
178 1 1.0269298538038175e+01 1.3010562025010790e+01 2.0681059379306529e+01 -1 -1 1
618 2 0.0000000000000000e+00 2.8417180249513345e+00 2.6799750766429796e+01 0 0 0
620 2 0.0000000000000000e+00 0.0000000000000000e+00 2.6799750766429796e+01 0 0 0
622 2 1.2305000000000001e+00 7.1042950623783474e-01 2.6799750766429796e+01 0 0 0
629 2 1.2305000000000001e+00 2.1312885187134998e+00 2.6799750766429796e+01 0 0 0
631 2 2.4610000000000003e+00 2.8417180249513345e+00 2.6799750766429796e+01 0 0 0
633 2 2.4610000000000003e+00 0.0000000000000000e+00 2.6799750766429796e+01 0 0 0
635 2 3.6915000000000004e+00 7.1042950623783474e-01 2.6799750766429796e+01 0 0 0
650 2 3.6914999999999996e+00 2.1312885187134998e+00 2.6799750766429796e+01 0 0 0
652 2 4.9220000000000006e+00 2.8417180249513332e+00 2.6799750766429796e+01 0 0 0
654 2 4.9220000000000006e+00 0.0000000000000000e+00 2.6799750766429796e+01 0 0 0
656 2 6.1524999999999999e+00 7.1042950623783407e-01 2.6799750766429796e+01 0 0 0
679 2 6.1524999999999999e+00 2.1312885187134989e+00 2.6799750766429796e+01 0 0 0
681 2 7.3829999999999991e+00 2.8417180249513345e+00 2.6799750766429796e+01 0 0 0
683 2 7.3829999999999991e+00 0.0000000000000000e+00 2.6799750766429796e+01 0 0 0
685 2 8.6134999999999984e+00 7.1042950623783407e-01 2.6799750766429796e+01 0 0 0
716 2 8.6134999999999984e+00 2.1312885187135002e+00 2.6799750766429796e+01 0 0 0
718 2 9.8440000000000012e+00 2.8417180249513332e+00 2.6799750766429796e+01 0 0 0
720 2 9.8440000000000012e+00 0.0000000000000000e+00 2.6799750766429796e+01 0 0 0
722 2 1.1074500000000002e+01 7.1042950623783330e-01 2.6799750766429796e+01 0 0 0
761 2 1.1074500000000002e+01 2.1312885187135002e+00 2.6799750766429796e+01 0 0 0
623 2 0.0000000000000000e+00 7.1042950623783341e+00 2.6799750766429796e+01 0 0 0
625 2 0.0000000000000000e+00 4.2625770374269996e+00 2.6799750766429796e+01 0 0 0
627 2 1.2305000000000001e+00 4.9730065436648339e+00 2.6799750766429796e+01 0 0 0
642 2 1.2305000000000001e+00 6.3938655561404980e+00 2.6799750766429796e+01 0 0 0
644 2 2.4610000000000003e+00 7.1042950623783341e+00 2.6799750766429796e+01 0 0 0
646 2 2.4610000000000003e+00 4.2625770374269996e+00 2.6799750766429796e+01 0 0 0
648 2 3.6914999999999996e+00 4.9730065436648339e+00 2.6799750766429796e+01 0 0 0
671 2 3.6914999999999996e+00 6.3938655561404980e+00 2.6799750766429796e+01 0 0 0
673 2 4.9220000000000006e+00 7.1042950623783341e+00 2.6799750766429796e+01 0 0 0
675 2 4.9220000000000006e+00 4.2625770374269978e+00 2.6799750766429796e+01 0 0 0
677 2 6.1524999999999999e+00 4.9730065436648339e+00 2.6799750766429796e+01 0 0 0
708 2 6.1524999999999999e+00 6.3938655561404980e+00 2.6799750766429796e+01 0 0 0
710 2 7.3830000000000009e+00 7.1042950623783341e+00 2.6799750766429796e+01 0 0 0
712 2 7.3829999999999991e+00 4.2625770374269996e+00 2.6799750766429796e+01 0 0 0
714 2 8.6135000000000002e+00 4.9730065436648339e+00 2.6799750766429796e+01 0 0 0
753 2 8.6135000000000002e+00 6.3938655561404980e+00 2.6799750766429796e+01 0 0 0
755 2 9.8440000000000012e+00 7.1042950623783341e+00 2.6799750766429796e+01 0 0 0
757 2 9.8440000000000012e+00 4.2625770374270004e+00 2.6799750766429796e+01 0 0 0
759 2 1.1074500000000002e+01 4.9730065436648339e+00 2.6799750766429796e+01 0 0 0
800 2 1.1074500000000002e+01 6.3938655561404980e+00 2.6799750766429796e+01 0 0 0
636 2 0.0000000000000000e+00 1.1366872099805333e+01 2.6799750766429796e+01 0 0 0
638 2 0.0000000000000000e+00 8.5251540748539991e+00 2.6799750766429796e+01 0 0 0
640 2 1.2305000000000001e+00 9.2355835810918343e+00 2.6799750766429796e+01 0 0 0
663 2 1.2305000000000001e+00 1.0656442593567498e+01 2.6799750766429796e+01 0 0 0
665 2 2.4610000000000003e+00 1.1366872099805333e+01 2.6799750766429796e+01 0 0 0
667 2 2.4610000000000003e+00 8.5251540748539991e+00 2.6799750766429796e+01 0 0 0
669 2 3.6915000000000004e+00 9.2355835810918343e+00 2.6799750766429796e+01 0 0 0
700 2 3.6914999999999996e+00 1.0656442593567499e+01 2.6799750766429796e+01 0 0 0
702 2 4.9220000000000006e+00 1.1366872099805333e+01 2.6799750766429796e+01 0 0 0
704 2 4.9220000000000006e+00 8.5251540748539991e+00 2.6799750766429796e+01 0 0 0
706 2 6.1524999999999999e+00 9.2355835810918343e+00 2.6799750766429796e+01 0 0 0
745 2 6.1524999999999999e+00 1.0656442593567499e+01 2.6799750766429796e+01 0 0 0
747 2 7.3829999999999991e+00 1.1366872099805333e+01 2.6799750766429796e+01 0 0 0
749 2 7.3830000000000009e+00 8.5251540748539991e+00 2.6799750766429796e+01 0 0 0
751 2 8.6134999999999984e+00 9.2355835810918343e+00 2.6799750766429796e+01 0 0 0
792 2 8.6134999999999984e+00 1.0656442593567498e+01 2.6799750766429796e+01 0 0 0
794 2 9.8440000000000012e+00 1.1366872099805333e+01 2.6799750766429796e+01 0 0 0
796 2 9.8440000000000012e+00 8.5251540748539956e+00 2.6799750766429796e+01 0 0 0
798 2 1.1074500000000002e+01 9.2355835810918343e+00 2.6799750766429796e+01 0 0 0
839 2 1.1074500000000002e+01 1.0656442593567498e+01 2.6799750766429796e+01 0 0 0
841 2 1.2304999999999998e+01 1.1366872099805333e+01 2.6799750766429796e+01 0 0 0
696 2 2.4610000000000003e+00 1.2787731112280996e+01 2.6799750766429796e+01 0 0 0
737 2 3.6915000000000004e+00 1.4919019630994494e+01 2.6799750766429796e+01 0 0 0
661 2 1.2305000000000001e+00 1.3498160618518829e+01 2.6799750766429796e+01 0 0 0
692 2 1.2305000000000001e+00 1.4919019630994494e+01 2.6799750766429796e+01 0 0 0
694 2 2.4610000000000003e+00 1.5629449137232328e+01 2.6799750766429796e+01 0 0 0
657 2 0.0000000000000000e+00 1.5629449137232333e+01 2.6799750766429796e+01 0 0 0
698 2 3.6915000000000004e+00 1.3498160618518829e+01 2.6799750766429796e+01 0 0 0
659 2 0.0000000000000000e+00 1.2787731112280996e+01 2.6799750766429796e+01 0 0 0
788 2 7.3829999999999991e+00 1.2787731112280996e+01 2.6799750766429796e+01 0 0 0
741 2 4.9220000000000006e+00 1.2787731112280996e+01 2.6799750766429796e+01 0 0 0
743 2 6.1524999999999990e+00 1.3498160618518829e+01 2.6799750766429796e+01 0 0 0
786 2 7.3829999999999991e+00 1.5629449137232333e+01 2.6799750766429796e+01 0 0 0
739 2 4.9220000000000006e+00 1.5629449137232333e+01 2.6799750766429796e+01 0 0 0
784 2 6.1524999999999990e+00 1.4919019630994494e+01 2.6799750766429796e+01 0 0 0
835 2 9.8440000000000012e+00 1.2787731112280996e+01 2.6799750766429796e+01 0 0 0
3909 1 1.2099367839084382e+01 4.5658011210041840e+00 2.3468319179631287e+01 0 0 1
3939 1 4.3933319850896901e-01 5.9805100986679149e-01 2.0583672063818067e+01 0 2 0
1749 1 2.8165387633085465e-01 1.1998455156100450e+01 2.0015560817757802e+01 0 2 0
2117 1 1.1863322479480479e+01 1.1168065489596499e+01 1.9863345611894250e+01 -4 1 0
619 2 0.0000000000000000e+00 1.4208590124756650e+00 3.0030999999999889e+01 0 0 0
621 2 0.0000000000000000e+00 0.0000000000000000e+00 3.0030999999999889e+01 0 0 0
628 2 1.2305000000000001e+00 3.5521475311891644e+00 3.0030999999999889e+01 0 0 0
630 2 1.2305000000000001e+00 2.1312885187134998e+00 3.0030999999999889e+01 0 0 0
632 2 2.4610000000000003e+00 1.4208590124756650e+00 3.0030999999999889e+01 0 0 0
634 2 2.4610000000000003e+00 0.0000000000000000e+00 3.0030999999999889e+01 0 0 0
649 2 3.6914999999999996e+00 3.5521475311891644e+00 3.0030999999999889e+01 0 0 0
651 2 3.6914999999999996e+00 2.1312885187134998e+00 3.0030999999999889e+01 0 0 0
947 2 0.0000000000000000e+00 2.8417180249513345e+00 3.3262249233549269e+01 0 0 0
948 2 0.0000000000000000e+00 0.0000000000000000e+00 3.3262249233549269e+01 0 0 0
949 2 1.2305000000000001e+00 7.1042950623783474e-01 3.3262249233549269e+01 0 0 0
953 2 1.2305000000000001e+00 2.1312885187134998e+00 3.3262249233549269e+01 0 0 0
954 2 2.4610000000000003e+00 2.8417180249513345e+00 3.3262249233549269e+01 0 0 0
955 2 2.4610000000000003e+00 0.0000000000000000e+00 3.3262249233549269e+01 0 0 0
956 2 3.6915000000000004e+00 7.1042950623783474e-01 3.3262249233549269e+01 0 0 0
964 2 3.6914999999999996e+00 2.1312885187134998e+00 3.3262249233549269e+01 0 0 0
653 2 4.9220000000000006e+00 1.4208590124756650e+00 3.0030999999999889e+01 0 0 0
655 2 4.9220000000000006e+00 0.0000000000000000e+00 3.0030999999999889e+01 0 0 0
678 2 6.1524999999999999e+00 3.5521475311891644e+00 3.0030999999999889e+01 0 0 0
680 2 6.1524999999999999e+00 2.1312885187134989e+00 3.0030999999999889e+01 0 0 0
682 2 7.3829999999999991e+00 1.4208590124756659e+00 3.0030999999999889e+01 0 0 0
684 2 7.3829999999999991e+00 0.0000000000000000e+00 3.0030999999999889e+01 0 0 0
965 2 4.9220000000000006e+00 2.8417180249513332e+00 3.3262249233549269e+01 0 0 0
966 2 4.9220000000000006e+00 0.0000000000000000e+00 3.3262249233549269e+01 0 0 0
967 2 6.1524999999999999e+00 7.1042950623783407e-01 3.3262249233549269e+01 0 0 0
979 2 6.1524999999999999e+00 2.1312885187134989e+00 3.3262249233549269e+01 0 0 0
980 2 7.3829999999999991e+00 2.8417180249513345e+00 3.3262249233549269e+01 0 0 0
981 2 7.3829999999999991e+00 0.0000000000000000e+00 3.3262249233549269e+01 0 0 0
715 2 8.6134999999999984e+00 3.5521475311891657e+00 3.0030999999999889e+01 0 0 0
717 2 8.6134999999999984e+00 2.1312885187135002e+00 3.0030999999999889e+01 0 0 0
719 2 9.8440000000000012e+00 1.4208590124756659e+00 3.0030999999999889e+01 0 0 0
721 2 9.8440000000000012e+00 0.0000000000000000e+00 3.0030999999999889e+01 0 0 0
760 2 1.1074500000000002e+01 3.5521475311891644e+00 3.0030999999999889e+01 0 0 0
762 2 1.1074500000000002e+01 2.1312885187135002e+00 3.0030999999999889e+01 0 0 0
982 2 8.6134999999999984e+00 7.1042950623783407e-01 3.3262249233549269e+01 0 0 0
998 2 8.6134999999999984e+00 2.1312885187135002e+00 3.3262249233549269e+01 0 0 0
999 2 9.8440000000000012e+00 2.8417180249513332e+00 3.3262249233549269e+01 0 0 0
1000 2 9.8440000000000012e+00 0.0000000000000000e+00 3.3262249233549269e+01 0 0 0
1001 2 1.1074500000000002e+01 7.1042950623783330e-01 3.3262249233549269e+01 0 0 0
1021 2 1.1074500000000002e+01 2.1312885187135002e+00 3.3262249233549269e+01 0 0 0
624 2 0.0000000000000000e+00 5.6834360499026637e+00 3.0030999999999889e+01 0 0 0
626 2 0.0000000000000000e+00 4.2625770374269996e+00 3.0030999999999889e+01 0 0 0
641 2 1.2305000000000001e+00 7.8147245686161639e+00 3.0030999999999889e+01 0 0 0
643 2 1.2305000000000001e+00 6.3938655561404980e+00 3.0030999999999889e+01 0 0 0
645 2 2.4610000000000003e+00 5.6834360499026637e+00 3.0030999999999889e+01 0 0 0
647 2 2.4610000000000003e+00 4.2625770374269996e+00 3.0030999999999889e+01 0 0 0
670 2 3.6914999999999996e+00 7.8147245686161639e+00 3.0030999999999889e+01 0 0 0
672 2 3.6914999999999996e+00 6.3938655561404980e+00 3.0030999999999889e+01 0 0 0
950 2 0.0000000000000000e+00 7.1042950623783341e+00 3.3262249233549269e+01 0 0 0
951 2 0.0000000000000000e+00 4.2625770374269996e+00 3.3262249233549269e+01 0 0 0
952 2 1.2305000000000001e+00 4.9730065436648339e+00 3.3262249233549269e+01 0 0 0
960 2 1.2305000000000001e+00 6.3938655561404980e+00 3.3262249233549269e+01 0 0 0
961 2 2.4610000000000003e+00 7.1042950623783341e+00 3.3262249233549269e+01 0 0 0
962 2 2.4610000000000003e+00 4.2625770374269996e+00 3.3262249233549269e+01 0 0 0
963 2 3.6914999999999996e+00 4.9730065436648339e+00 3.3262249233549269e+01 0 0 0
975 2 3.6914999999999996e+00 6.3938655561404980e+00 3.3262249233549269e+01 0 0 0
674 2 4.9220000000000006e+00 5.6834360499026637e+00 3.0030999999999889e+01 0 0 0
676 2 4.9220000000000006e+00 4.2625770374269978e+00 3.0030999999999889e+01 0 0 0
707 2 6.1524999999999999e+00 7.8147245686161639e+00 3.0030999999999889e+01 0 0 0
709 2 6.1524999999999999e+00 6.3938655561404980e+00 3.0030999999999889e+01 0 0 0
711 2 7.3829999999999991e+00 5.6834360499026637e+00 3.0030999999999889e+01 0 0 0
713 2 7.3829999999999991e+00 4.2625770374269996e+00 3.0030999999999889e+01 0 0 0
976 2 4.9220000000000006e+00 7.1042950623783341e+00 3.3262249233549269e+01 0 0 0
977 2 4.9220000000000006e+00 4.2625770374269978e+00 3.3262249233549269e+01 0 0 0
978 2 6.1524999999999999e+00 4.9730065436648339e+00 3.3262249233549269e+01 0 0 0
994 2 6.1524999999999999e+00 6.3938655561404980e+00 3.3262249233549269e+01 0 0 0
995 2 7.3830000000000009e+00 7.1042950623783341e+00 3.3262249233549269e+01 0 0 0
996 2 7.3829999999999991e+00 4.2625770374269996e+00 3.3262249233549269e+01 0 0 0
752 2 8.6135000000000002e+00 7.8147245686161639e+00 3.0030999999999889e+01 0 0 0
754 2 8.6135000000000002e+00 6.3938655561404980e+00 3.0030999999999889e+01 0 0 0
756 2 9.8440000000000012e+00 5.6834360499026637e+00 3.0030999999999889e+01 0 0 0
758 2 9.8440000000000012e+00 4.2625770374270004e+00 3.0030999999999889e+01 0 0 0
799 2 1.1074500000000002e+01 7.8147245686161639e+00 3.0030999999999889e+01 0 0 0
801 2 1.1074500000000002e+01 6.3938655561404980e+00 3.0030999999999889e+01 0 0 0
997 2 8.6135000000000002e+00 4.9730065436648339e+00 3.3262249233549269e+01 0 0 0
1017 2 8.6135000000000002e+00 6.3938655561404980e+00 3.3262249233549269e+01 0 0 0
1018 2 9.8440000000000012e+00 7.1042950623783341e+00 3.3262249233549269e+01 0 0 0
1019 2 9.8440000000000012e+00 4.2625770374270004e+00 3.3262249233549269e+01 0 0 0
1020 2 1.1074500000000002e+01 4.9730065436648339e+00 3.3262249233549269e+01 0 0 0
1041 2 1.1074500000000002e+01 6.3938655561404980e+00 3.3262249233549269e+01 0 0 0
637 2 0.0000000000000000e+00 9.9460130873296642e+00 3.0030999999999889e+01 0 0 0
639 2 0.0000000000000000e+00 8.5251540748539991e+00 3.0030999999999889e+01 0 0 0
662 2 1.2305000000000001e+00 1.2077301606043163e+01 3.0030999999999889e+01 0 0 0
664 2 1.2305000000000001e+00 1.0656442593567498e+01 3.0030999999999889e+01 0 0 0
666 2 2.4610000000000003e+00 9.9460130873296642e+00 3.0030999999999889e+01 0 0 0
668 2 2.4610000000000003e+00 8.5251540748539991e+00 3.0030999999999889e+01 0 0 0
699 2 3.6914999999999996e+00 1.2077301606043163e+01 3.0030999999999889e+01 0 0 0
701 2 3.6914999999999996e+00 1.0656442593567499e+01 3.0030999999999889e+01 0 0 0
957 2 0.0000000000000000e+00 1.1366872099805333e+01 3.3262249233549269e+01 0 0 0
958 2 0.0000000000000000e+00 8.5251540748539991e+00 3.3262249233549269e+01 0 0 0
959 2 1.2305000000000001e+00 9.2355835810918343e+00 3.3262249233549269e+01 0 0 0
971 2 1.2305000000000001e+00 1.0656442593567498e+01 3.3262249233549269e+01 0 0 0
972 2 2.4610000000000003e+00 1.1366872099805333e+01 3.3262249233549269e+01 0 0 0
973 2 2.4610000000000003e+00 8.5251540748539991e+00 3.3262249233549269e+01 0 0 0
974 2 3.6915000000000004e+00 9.2355835810918343e+00 3.3262249233549269e+01 0 0 0
990 2 3.6914999999999996e+00 1.0656442593567499e+01 3.3262249233549269e+01 0 0 0
703 2 4.9220000000000006e+00 9.9460130873296642e+00 3.0030999999999889e+01 0 0 0
705 2 4.9220000000000006e+00 8.5251540748539991e+00 3.0030999999999889e+01 0 0 0
744 2 6.1524999999999999e+00 1.2077301606043163e+01 3.0030999999999889e+01 0 0 0
746 2 6.1524999999999999e+00 1.0656442593567499e+01 3.0030999999999889e+01 0 0 0
748 2 7.3830000000000009e+00 9.9460130873296642e+00 3.0030999999999889e+01 0 0 0
750 2 7.3830000000000009e+00 8.5251540748539991e+00 3.0030999999999889e+01 0 0 0
991 2 4.9220000000000006e+00 1.1366872099805333e+01 3.3262249233549269e+01 0 0 0
992 2 4.9220000000000006e+00 8.5251540748539991e+00 3.3262249233549269e+01 0 0 0
993 2 6.1524999999999999e+00 9.2355835810918343e+00 3.3262249233549269e+01 0 0 0
1013 2 6.1524999999999999e+00 1.0656442593567499e+01 3.3262249233549269e+01 0 0 0
1014 2 7.3829999999999991e+00 1.1366872099805333e+01 3.3262249233549269e+01 0 0 0
1015 2 7.3830000000000009e+00 8.5251540748539991e+00 3.3262249233549269e+01 0 0 0
791 2 8.6135000000000002e+00 1.2077301606043163e+01 3.0030999999999889e+01 0 0 0
793 2 8.6134999999999984e+00 1.0656442593567498e+01 3.0030999999999889e+01 0 0 0
795 2 9.8440000000000012e+00 9.9460130873296642e+00 3.0030999999999889e+01 0 0 0
797 2 9.8440000000000012e+00 8.5251540748539956e+00 3.0030999999999889e+01 0 0 0
838 2 1.1074500000000002e+01 1.2077301606043163e+01 3.0030999999999889e+01 0 0 0
840 2 1.1074500000000002e+01 1.0656442593567498e+01 3.0030999999999889e+01 0 0 0
1016 2 8.6134999999999984e+00 9.2355835810918343e+00 3.3262249233549269e+01 0 0 0
1037 2 8.6134999999999984e+00 1.0656442593567498e+01 3.3262249233549269e+01 0 0 0
1038 2 9.8440000000000012e+00 1.1366872099805333e+01 3.3262249233549269e+01 0 0 0
1039 2 9.8440000000000012e+00 8.5251540748539956e+00 3.3262249233549269e+01 0 0 0
1040 2 1.1074500000000002e+01 9.2355835810918343e+00 3.3262249233549269e+01 0 0 0
1061 2 1.1074500000000002e+01 1.0656442593567498e+01 3.3262249233549269e+01 0 0 0