LAMMPS data file via write_data, version 16 Mar 2018, timestep = 100000

6736 atoms
2 atom types

3.3259797455276185e-01 4.8887402025447543e+01 xlo xhi
3.3124403949123504e-01 4.8688391890919405e+01 ylo yhi
3.6653348063872926e-01 5.9695466519360323e+01 zlo zhi

Masses

1 18.015
2 12.01

Atoms # atomic

4549 1 3.4945920429465365e+00 3.5174834724934292e+00 3.2720467616246323e+00 1 1 0
4553 1 1.2453769706698663e+01 1.9368414861807711e+01 1.0507724348091486e+01 1 -2 1
3503 1 7.7903645113433866e+00 3.0631530107168206e+00 5.1636929626705159e+00 -1 0 0
2611 1 6.8755015772320522e+00 3.5323311394528769e+00 2.1846335364637457e+00 1 1 1
1211 1 5.5537703535292504e+00 5.6527399741976811e+00 3.2795980396279965e+00 0 1 1
2073 1 2.0839600612527747e+00 1.8118207474172653e+01 7.3391170462720856e+00 1 -1 0
2592 1 2.9007017760943965e+00 7.3113959823676371e+00 1.5036365487763943e+00 0 1 1
828 1 3.9817752485710964e+00 1.0453286731769822e+01 1.6896328231988575e+00 0 1 1
4362 1 3.4582097576420479e+00 9.0948118589227196e+00 4.3016574787808288e+00 -1 -1 1
133 1 6.0567338059768376e+00 7.6721760091230067e+00 1.3200999983470196e+00 0 2 1
265 1 7.8916744887103754e+00 8.9220462030079961e+00 2.8440431314972798e+00 0 0 0
5296 1 9.8785087362464701e+00 5.1074084400093089e-01 7.7769946241160905e+00 1 1 0
4210 1 1.2407636521798469e+00 1.3028712797733816e+01 5.8097308139735242e+00 1 1 1
5578 1 4.6505357134924502e-01 7.2170799064251687e+00 1.1643844553462317e+01 2 1 0
3457 1 1.4999667793425846e+00 1.4458015304444022e+01 2.1303226354123597e+00 0 -1 0
3394 1 2.3271468266746949e+00 5.6594706064357114e-01 3.0412169081953535e+00 1 -1 0
5861 1 2.7078213311105483e+00 1.7897894569231120e+01 7.6051914958274414e-01 0 -2 1
104 1 1.1160477830973210e+01 8.3255102728292663e+00 5.9183483912693999e+00 1 0 1
1163 1 2.2110184791475929e+00 2.0188270514222808e+01 1.1858354677449237e+01 1 -1 1
5395 1 1.0459894176895755e+01 1.2351206383737404e+01 3.0853296887011150e+00 1 2 0
1972 1 1.1841779953855168e+01 2.2983656843228200e+01 1.2244296909406309e+00 0 1 0
2622 1 8.6467650704445873e+00 1.7276737509960363e+01 3.6566842660446497e+00 2 0 1
380 1 1.4692111726207240e+00 2.1841877839942288e+01 7.4769056949681909e+00 0 -2 0
4502 1 7.6272410090236979e+00 2.4172270341067417e+01 3.6665636980258909e+00 -1 0 1
1757 1 1.0231906685593787e+01 8.9460847339793244e+00 1.4354809480432216e+00 0 -1 0
424 1 2.7252145436177648e+00 2.1416228507991050e+01 5.2159678092065951e+00 2 1 0
429 1 6.6945369485876469e+00 1.9792833939411977e+01 3.0444202622194894e+00 0 0 0
974 1 6.0713045686325913e+00 1.8695126190200320e+01 5.7972681362262897e+00 0 0 1
1918 1 5.6855754015453408e-01 1.2041962592281603e+01 1.2152525510297494e+00 0 1 0
4135 1 1.5923502294368304e+00 2.3689533872946967e+01 1.1537646330171252e+00 2 -1 1
2136 1 1.0978975704927560e+01 1.9361945936376255e+01 3.9976570501524029e+00 0 -1 0
3637 1 8.0292517950389772e+00 4.5512598500426682e-01 5.6695782540792345e+00 0 0 0
4344 1 1.1459181211998186e+00 2.2583645989488289e+01 3.4672330705867465e+00 0 -1 1
3811 1 1.0384416792343915e+01 8.5908847980039904e-01 3.9062075731102617e+00 1 -1 0
5381 1 5.4900075105774047e+00 2.1956382419923798e+01 3.6634233657101745e+00 2 -1 1
3852 1 5.4802034678774207e+00 1.2743871822412524e+01 1.7792209079237331e+00 0 1 1
193 1 4.5074109131713707e+00 2.3106190606070733e+01 1.4374234911212080e+00 2 -1 0
3716 1 2.4303836156793954e+00 2.5343217121209021e+00 5.8462612714949849e+00 -1 0 0
3696 1 4.2355953474406167e+00 1.6227190430848488e+00 7.2911235091707045e+00 1 -1 0
1720 1 6.6235814978803704e+00 3.1334587486390379e+00 7.8481790880449722e+00 1 1 0
5294 1 1.0184827267891086e+01 4.4651988781180654e+00 5.2718570979554595e+00 -2 1 0
286 1 1.4385790355962405e+00 5.1258879687779499e+00 2.1623472975381541e+00 0 0 0
1797 1 8.8410380607923127e+00 5.4649030867599677e+00 1.0204768704496091e+01 0 1 1
2176 1 9.7458403892603265e+00 2.3264275833363211e+01 5.4695068863492740e+00 1 0 0
897 1 9.7665114705322997e-01 1.0307814765278803e+01 5.1452678149137236e+00 0 -1 1
1904 1 3.3181500781084305e+00 6.5697174380939929e+00 7.6904368536828773e+00 1 -1 1
1808 1 7.0443313457630028e+00 1.1100152754224126e+01 3.8470883934249347e+00 1 -1 0
2086 1 4.9144355949477028e+00 7.3803573771416202e+00 5.4589519196766298e+00 1 -1 0
980 1 7.0870872907418514e+00 7.6716817401530699e+00 6.9235659937782357e+00 1 -1 1
5897 1 8.9523536958772247e+00 7.2918594629444433e+00 4.9085778602476271e+00 0 0 1
5124 1 1.0784279214983989e+01 4.4550796848840948e+00 7.8595486416038636e+00 0 1 1
4266 1 6.3414232347367894e-01 9.1088004996605036e+00 1.6339579059067055e+00 1 2 1
2586 1 3.6455391235044510e+00 1.3504349768239424e+01 3.8004167862172804e+00 -1 0 1
5933 1 7.6681592147544126e+00 1.0067121708518057e+01 7.7366135537554097e+00 -1 0 1
363 1 9.3566247077909690e+00 1.1678217292644083e+01 5.7416756705226462e+00 -1 1 0
3600 1 4.9099098848598048e+00 1.1187561910179435e+01 5.7199750250304318e+00 -1 1 0
1992 1 1.1566950412488907e+01 1.0776076869169414e+01 7.3329498158962556e+00 1 1 0
6112 1 5.8430796826912053e+00 1.3863720928597703e+01 6.8229401461041803e+00 1 1 0
4409 1 4.3127062581470401e+00 1.4943456431571489e+01 9.1436617465935388e+00 0 0 1
1897 1 7.4907115411453571e+00 1.9903760957380808e+01 1.0790204007923117e+01 0 0 0
5873 1 4.6702343329119103e+00 1.5813757230995517e+01 4.8998501615931556e+00 0 0 1
5101 1 1.0035788333206789e+01 1.6210226118934425e+01 5.9828339782160800e+00 0 0 1
2473 1 8.5972856935512656e+00 1.4067332807950141e+01 6.9297373230934136e+00 0 0 1
4519 1 1.0921181191881256e+01 1.5011800567363027e+01 3.5206702800870602e+00 0 1 1
4582 1 2.9718289822508948e+00 1.3947272161113065e+00 9.8095290423631720e+00 1 1 1
3459 1 3.5050948898111427e+00 1.8621128371012638e+01 5.2346484828502495e+00 0 0 1
6193 1 2.2401983926738538e+00 1.5430164265904864e+01 7.3800051460204141e+00 0 -1 0
5588 1 7.4195052173048337e+00 1.7207616135499425e+01 7.6770321258996050e+00 1 0 0
5840 1 9.9132453822731357e+00 1.9230551268478365e+01 6.6187978166593169e+00 1 0 0
5232 1 1.0152733403188735e+01 2.1879970764068037e+01 3.0630420685801134e+00 1 0 1
6017 1 5.8180125523799111e+00 1.1956056858835568e+01 1.1623528947487648e+01 0 1 1
320 1 2.4872643216249237e+00 5.4141425950878492e+00 1.1995072594554367e+01 0 0 0
4148 1 9.9737815389168123e+00 1.6946066281871460e+01 1.2332004282580300e+00 0 -1 1
1990 1 6.2621529955377744e+00 2.1362958985912933e+01 6.7293544654929578e+00 1 0 0
5109 1 8.8195282133856523e+00 2.1654922295271444e+01 7.2740848646866691e+00 0 0 0
2798 1 1.2170127411464152e+01 3.6662586238728059e+00 3.8401907250371652e+00 0 0 0
1812 1 9.0178847689869179e-01 1.9910245321235028e+01 9.4657661057014852e+00 -1 0 0
5893 1 9.9041815369193333e+00 2.1997846212504189e+01 9.7660289750534375e+00 1 -1 1
5189 1 1.3339965725151905e+00 3.6380090734991457e+00 1.0065484743370616e+01 0 0 0
6118 1 7.0169964341871847e+00 2.4110384811454747e+01 9.7598952803832848e+00 0 -2 0
118 1 8.1702087943726536e+00 1.5092161316687036e+00 9.2767910078048637e+00 -1 0 1
4473 1 5.5142676322470219e-01 1.2369533487469610e+01 1.1285253345121049e+01 -1 2 0
115 1 8.9746407655457432e+00 3.2446590876881718e+00 1.1507401441175125e+01 1 1 1
1086 1 1.1814701055977988e+01 1.0629665808455244e+00 1.0895040725719705e+01 0 0 1
3697 1 1.4210897813545771e+00 4.6537319995375794e+00 7.4629977513878618e+00 2 0 0
5281 1 6.3376773342525912e+00 1.6033697339259597e+01 2.6626382191979836e+00 -1 0 0
3508 1 6.1505728330396758e+00 5.7400287223968700e+00 8.9816310422799717e+00 2 2 0
312 1 4.0698882658438915e+00 8.4763718178450116e+00 9.7661878945699474e+00 -1 0 0
1734 1 5.3346635098192481e+00 5.1319353469130524e+00 1.1544156441471690e+01 -1 0 0
169 1 1.0206743993593772e+01 7.6044725438642251e+00 1.0534412052043230e+01 0 1 1
76 1 6.5317073570133708e+00 9.2363946000463617e+00 1.1230246270885392e+01 0 2 0
1787 1 1.4504412684683392e+00 9.2930455671876206e+00 7.8163407789858326e+00 1 -1 1
1008 1 1.6137371518574466e+00 9.7546552508312292e+00 1.1275795130491771e+01 0 0 1
377 1 1.5997848130985024e+00 1.7342102231842834e+01 3.2633150563147724e+00 1 0 0
183 1 3.7093230359363254e+00 1.0664181659503324e+01 8.2893373974211357e+00 1 0 0
3570 1 4.8458047584208117e+00 2.0299910221665121e+00 1.2374139284637085e+00 1 0 1
978 1 8.8489747155738971e+00 9.9190942635147401e+00 9.8217380378199426e+00 0 1 1
308 1 1.0856402331245775e+01 1.1803520427168113e+01 9.7109166102726494e+00 1 1 0
770 1 3.9444996458659531e+00 1.2492429071572115e+01 1.0342667065042836e+01 1 0 1
91 1 4.0388978649480460e+00 1.8726430933947899e+01 9.5799857437224318e+00 -2 -1 0
200 1 7.3483026595467882e+00 1.4040220591812339e+01 1.1337498186683961e+01 0 0 0
2126 1 6.2850071446389277e+00 1.6841267283874025e+01 1.0103349387193056e+01 0 1 0
2443 1 6.2173599877774874e+00 2.3233143354056356e+01 1.2176457630932463e+01 0 2 1
1782 1 1.1026191417929455e+01 1.6136265550435688e+01 9.8882084238347332e+00 0 0 0
1754 1 9.2440934044106982e+00 1.4223578282304709e+01 9.3882828924292792e+00 1 -1 1
1172 1 3.0579347617081449e+00 2.2910722005338240e+01 1.0228518408457033e+01 3 0 1
6293 1 8.5795384861168174e+00 1.2266280117823699e+01 1.1649694867343965e+00 1 0 1
3602 1 4.0615269463461754e+00 2.3992612643804819e+01 5.9479860388510701e+00 1 1 0
5284 1 5.6706274693136622e+00 2.1182311226323687e+01 9.3158266845359066e+00 1 1 0
1885 1 1.1600532144164458e+01 2.7621108056646961e+00 1.2214731212535488e+00 1 1 0
5158 1 9.8896261540495605e+00 1.8509614998040966e+01 9.3182550972184224e+00 0 0 1
410 1 8.1962950940261443e+00 2.1285958177267059e+01 8.2380934802117201e-01 0 -1 1
2503 1 1.2208458783502270e+01 2.0773054503716066e+00 7.4604502927173879e+00 0 0 1
2685 1 5.2409512174739010e+00 1.8265515583037796e+01 1.2796736680364649e+00 -1 0 1
6201 1 9.0917089718966828e+00 1.8487152752713427e+00 1.5165667558135121e+00 1 0 1
2720 1 2.1612121876497650e+00 1.5425508740616619e+01 1.1460945010757762e+01 -1 0 1
1790 1 1.2344441213615747e+01 2.2765588240614193e+01 8.7003709283202770e+00 0 0 0
5372 1 1.1919397675195091e+01 6.7430551571632256e+00 6.0236882550510917e-01 1 0 0
4233 1 1.2256502737172736e+01 1.0570336916276013e+01 2.7267722963698224e+00 0 0 1
775 1 1.2434065145046008e+01 1.7949108298814068e+01 2.1572512652533398e+00 0 0 1
6138 1 1.2373687536736519e+01 1.0918332568270914e+01 1.1968879500472962e+01 1 1 0
5297 1 4.4118264045505988e+00 1.3485610972357420e+00 1.2206101882121578e+01 1 1 0
2021 1 8.9821086603188487e+00 1.3618543398443512e+01 1.3761504209567422e+01 0 1 0
6175 1 2.6207564249857302e+00 2.6698514834096723e+00 1.4217304491840070e+01 1 0 0
5491 1 4.9615039822935902e-01 2.2222017852322796e+01 2.1117900337320314e+01 1 0 0
6064 1 9.3661226781174562e+00 1.1845130565555383e+01 1.6046775800810387e+01 2 0 1
426 1 6.9359085523449444e+00 3.9670306103161335e+00 1.5639469153583917e+01 0 1 0
6174 1 1.0689841574536599e+01 1.0411759540451019e+01 1.4061888640502479e+01 1 0 1
2596 1 8.4864897132457298e+00 1.2442389864588002e+00 1.9031977114375888e+01 0 0 1
6108 1 6.0441140279377343e+00 1.8951195603651043e+00 2.2466873866329607e+01 0 0 1
2164 1 2.6462713172425234e+00 5.4538699716033676e+00 1.5064547344488155e+01 1 0 1
487 1 7.4763392285554042e-01 1.3292289783897244e+01 1.5886172862927056e+01 1 -1 0
5324 1 3.8577636960950081e+00 8.0017021509538289e+00 1.4908017172127362e+01 0 1 1
3478 1 7.0178656640248480e+00 1.6707414395150320e+01 1.3247788205259802e+01 0 -2 0
156 1 1.0513328210955351e+01 7.6987583402361137e+00 1.3293020774015403e+01 1 0 0
2000 1 8.4450878361296997e+00 6.1674471465193159e+00 1.4281676892792454e+01 1 0 1
4357 1 2.0270697517777068e+00 9.8057805794148631e+00 1.4054624035764688e+01 -2 0 1
2873 1 6.1001369512514518e+00 7.1730327590238874e+00 1.3085566898840760e+01 2 1 1
1883 1 7.9150570996188190e+00 1.5762562557079125e+01 1.7510440210808213e+01 0 0 0
287 1 7.2039472701249672e+00 1.4965005942960060e+01 1.5173311683788867e+01 1 0 0
5128 1 1.2038170409657239e+01 7.0137317328394788e+00 1.7046157976890157e+01 0 1 0
2921 1 7.5692109333814841e+00 2.2409459246893618e+01 2.3780275739824638e+01 1 0 0
6096 1 3.4188578096898037e+00 1.6245417804324465e+01 1.4091252318292000e+01 1 1 1
2870 1 2.5661277217680172e+00 6.7088212424855200e+00 2.3184787381909153e+01 2 1 1
466 1 1.0902181378147262e+01 1.3196845000509628e+01 2.0429190015033598e+01 1 0 0
2762 1 7.5632026997698834e+00 1.8878734448414804e+01 1.5352117887533582e+01 0 1 1
3784 1 9.9760844081478943e+00 1.8130455787143820e+01 1.3970830750829112e+01 0 1 0
5496 1 1.1264108767062154e+01 1.3256805275338500e+01 1.7632247558872070e+01 1 0 0
3587 1 1.2452224856897663e+01 9.8186177459008270e+00 1.6454573342016101e+01 1 0 0
1857 1 3.6550795058901260e+00 2.1748147153164020e+01 1.4359145948089596e+01 0 0 0
5935 1 4.2540234498956835e+00 1.8069960178086568e+01 1.2295807388314026e+01 0 1 1
1120 1 9.2470331838527144e+00 1.5350774664603033e+01 2.3633783086316640e+01 0 -1 0
3744 1 1.1110243388791670e+01 3.2094249234846659e+00 1.3066067999683213e+01 1 0 0
4160 1 1.0384280297118654e+01 1.5719713781952583e+01 1.2601556310057070e+01 1 2 0
17 1 6.4869021741517132e+00 5.4320839492014072e-01 1.4798282149665614e+01 -1 -1 0
3745 1 3.6893298365117180e+00 2.2973206139163363e+01 1.6829479776593686e+01 0 1 0
3372 1 9.2589901979180844e+00 2.2835990322429950e+01 1.2644732315242910e+01 0 0 1
829 1 6.0296293208663965e+00 1.9986591843351292e+01 1.3240801003945606e+01 1 -1 1
2588 1 8.2078636126087012e+00 2.1779819320335204e+01 1.5024723976150922e+01 1 1 1
2069 1 5.8790988586648592e+00 1.4682514857870164e+00 1.9765359719822708e+01 2 1 0
153 1 1.3968546677627189e+00 8.6558904389371367e+00 1.7324765917414275e+01 0 0 0
1881 1 2.2918084199961699e+00 1.2540429447348382e+01 1.3681812370295198e+01 2 2 0
5336 1 2.0330568560596869e+00 2.6781934752137220e+00 2.0535883006385031e+01 1 0 0
2135 1 3.4582871052898784e-01 2.2516274899250913e+01 2.3845972349161727e+01 1 1 0
2790 1 8.5746423898521247e+00 1.6331486945506810e+00 1.6147187949318873e+01 1 1 1
1184 1 1.1400648348376640e+01 1.3464185655879893e+01 2.3188959305598136e+01 -1 -1 1
3593 1 1.1517104928891930e+00 4.9912512608722235e+00 1.7895889533538366e+01 0 0 0
1126 1 7.9665679895798611e+00 7.8311797261987772e+00 1.6771127287196261e+01 0 1 0
994 1 4.7297619438738341e+00 4.9716212113738738e+00 1.7010019501532451e+01 3 0 0
5419 1 5.5373416805031823e+00 7.3402913365627240e+00 1.7634257792376520e+01 1 1 0
132 1 7.7611729269609091e+00 5.9151367862964355e+00 1.9817370967649701e+01 1 1 0
5252 1 9.5765955276695074e+00 5.8273811535920386e+00 1.7520340628602487e+01 1 -1 0
5515 1 2.8059104813055389e+00 1.2803164106124976e+01 1.7774742981974338e+01 -1 -1 0
807 1 1.2126551512935382e+01 2.3056282008708699e+01 2.3852179436535060e+01 1 0 0
5118 1 5.0759113684743529e+00 1.2151725178509832e+01 1.4291433706254264e+01 1 0 1
1867 1 6.5294990762213532e+00 1.1058144379294971e+01 1.6683257758503757e+01 0 0 0
6205 1 6.1234081862867935e+00 1.2247096526406173e+01 1.9271761088219694e+01 0 1 0
2168 1 1.0943893056533355e+01 1.0382619768225997e+01 2.0902292862740751e+01 0 1 0
1994 1 9.5660477712224434e+00 9.7537548339714206e+00 1.7979336565408637e+01 1 1 0
4393 1 6.1159694139920280e+00 2.1580589722843605e+01 2.0104503818086734e+01 0 -1 1
904 1 2.5539018283665755e+00 1.7003158783705647e+01 1.9532834509565301e+01 1 0 0
2663 1 4.4196596754845601e+00 1.4337555824701919e+01 1.5929804558134178e+01 1 1 1
7 1 6.5204851063856362e+00 1.8958075408635583e+01 1.7766207309418267e+01 1 2 1
2739 1 5.5273776636197827e+00 1.5167734094229733e+01 1.8869461907306707e+01 0 1 1
5223 1 1.0693431273225251e+01 1.5917704985896073e+01 1.7821258156948524e+01 1 0 1
2639 1 1.1733852163547446e+01 1.7347149942410120e+01 1.5931804279655317e+01 0 0 1
5454 1 5.2796946750917142e+00 1.7507899500146088e+01 2.0741120017020720e+01 -1 0 0
5249 1 2.2314926009823455e+00 1.7177687063035293e+01 1.6598786603217892e+01 1 1 1
5108 1 3.0455848395537792e+00 2.3055782454480294e+01 1.9970927620801824e+01 0 1 1
3376 1 1.8212900177691338e+00 1.9824935464999371e+01 1.6011244196347505e+01 1 -1 0
5095 1 3.5349562175863642e+00 2.0239917186962035e+01 1.8632559051448222e+01 1 0 1
2629 1 7.5321350614228164e+00 2.2742246506967067e+01 1.7708689749577580e+01 1 -1 1
3541 1 1.0086304766085721e+01 2.1671188399562922e+01 2.0468316855760150e+01 1 0 0
3644 1 9.6834050730112526e+00 1.6583513455318993e+01 2.0410722419753885e+01 1 2 0
2157 1 1.2083887664500862e+01 3.2702901493860055e+00 1.7934512398943824e+01 0 1 1
1949 1 6.3556574843097833e+00 2.4104116924360785e+01 2.1327436708849717e+01 0 0 0
4202 1 1.1600577556051995e+01 1.9606002145856294e+01 1.9422908418272147e+01 1 0 1
3477 1 9.8415168508791995e-01 1.9519618344426430e+01 2.0417512939426597e+01 0 0 0
3505 1 8.7166507604754031e+00 2.4370283361020412e+01 1.9649056330652336e+01 1 0 0
847 1 1.1695375927619555e+01 5.7921201803793876e-01 1.8013839315688738e+01 0 0 1
315 1 1.8609327244630032e+00 6.3638281635451523e+00 2.0283042031105111e+01 1 -1 0
5487 1 1.0250608743313137e+01 6.9561418407918172e+00 2.3479179941742604e+01 2 0 0
392 1 2.7135636850596776e+00 1.2389843803119300e+00 1.6626321238729936e+01 1 1 0
221 1 4.5768433833468531e+00 1.3895891427114544e+01 2.3600036491073276e+01 0 2 0
58 1 5.2402831057101249e+00 4.8072092395544281e+00 2.0932594204916562e+01 0 0 1
2118 1 1.9554998874258274e+00 1.7585822265983850e+01 2.2861256470926865e+01 1 0 0
1823 1 1.0542980920040069e+01 3.6017866370070002e+00 1.5582507769701992e+01 0 0 0
2737 1 9.8696966340626382e+00 3.5767030160144175e+00 2.0091922933605293e+01 1 1 0
3688 1 9.1951386614188895e+00 3.4257293113345701e+00 2.2784399979776648e+01 1 0 1
2513 1 3.6475827855452856e+00 8.5151260353903560e+00 1.9838839807225956e+01 -1 0 1
6149 1 1.0595095195963518e+01 2.0245087421019768e+01 1.2457082661977724e+01 1 1 0
5363 1 2.3162621471958165e+00 2.4209863021239542e+01 1.3030705545276364e+01 1 0 0
3650 1 6.3005253052422141e+00 8.1925817424440766e+00 2.0704424225427839e+01 1 -1 0
3751 1 6.1959284140042259e+00 7.8558225359527620e+00 2.3222816200586770e+01 1 -1 0
488 1 4.9624831723652170e+00 2.0764982231304380e+01 2.3270489057915281e+01 0 0 0
51 1 7.3044558555892394e+00 1.3688405759803803e+01 2.3587028702749347e+01 1 -1 0
330 1 3.9190870503322452e+00 1.0117566513623125e+01 1.7523346987545633e+01 -1 0 0
61 1 1.0062756744688130e+01 2.1383180743529458e+01 2.3379722170556690e+01 1 0 0
6065 1 3.1661103096796221e+00 1.0366163278256138e+01 2.1456899461191266e+01 2 1 1
5113 1 7.9081159169401722e+00 1.0482106729796620e+01 2.0503117398264326e+01 0 0 1
932 1 1.0491050546205848e+01 1.0932003289345232e+01 2.3761574266799109e+01 0 1 1
3700 1 4.0936578889291013e+00 3.1717448611389387e+00 1.9079067280458968e+01 0 0 0
4227 1 4.0477675541875940e-01 1.0600365507434939e+01 2.1439310003751462e+01 1 0 1
1954 1 2.4734768051366487e+00 1.4245839027342674e+01 2.0000409146624143e+01 0 -1 0
2430 1 8.2736754568304747e+00 1.9375989531077561e+01 2.0195686626533110e+01 0 1 1
996 1 6.5776664505122246e+00 3.2816425249093957e+00 1.2821231874564191e+01 0 1 1
4476 1 4.2391847408516687e+00 1.6448586389710620e+01 2.4024341295936416e+01 0 -1 0
2500 1 4.2147001126621291e+00 1.2772900359096733e+01 2.1434251348931728e+01 1 0 1
2104 1 1.0109645349396709e+01 7.4337790870021907e+00 2.0963238374744648e+01 1 0 0
82 1 8.1364480940752841e+00 1.4195637029166715e+01 2.0622104760481442e+01 1 0 0
5157 1 3.5621068360763837e+00 2.7347608107400112e+00 2.3727613162035794e+01 1 1 0
3622 1 8.2175720593377317e+00 1.7865440421894771e+01 2.3172681122508870e+01 1 -1 0
2828 1 7.9368143276021446e+00 1.1021483619372678e+01 2.3308395379035314e+01 0 0 1
3812 1 4.0206958035439511e-01 1.9117468752013412e+01 1.3612334369721703e+01 1 -1 0
4151 1 1.2193328381959121e+01 1.6540838642309978e+01 2.1360627247896979e+01 1 0 1
5125 1 3.9666003288942847e-01 2.2088106477814065e+00 2.3829948424184813e+01 0 0 0
5809 1 1.0519626515886461e+01 1.8748517310292872e+01 2.4051119553496694e+01 0 1 1
4159 1 5.8468808104487593e+00 1.8396603657482387e+01 2.3910571880645396e+01 1 1 1
1755 1 2.4444255835695170e+00 2.0584888756818163e+01 2.3907402382168883e+01 0 -1 0
2022 1 7.6073016532745026e+00 5.6111028476537061e+00 2.3994315618976024e+01 1 -1 0
4122 1 1.2379881523956257e+01 4.8022599447604497e+00 2.3596121220996430e+01 0 0 1
3617 1 1.2374729077977202e+01 1.1138150340621578e+00 1.3790803630618878e+01 0 -1 0
5384 1 1.2388930188200783e+01 2.1085182686687801e+01 1.4491959130184078e+01 2 0 1
2906 1 1.2424765033958831e+01 6.8020737544227190e+00 2.0077488268890324e+01 0 1 1
4365 1 5.2446268243250840e+00 1.0280839798604784e+01 2.4003173478210591e+01 0 2 1
511 2 3.3259797455276185e-01 3.1345569584146000e+00 2.6761310831793093e+01 0 0 0
512 2 3.3259797455276185e-01 3.3124403949123504e-01 2.6761310831793093e+01 0 0 0
513 2 1.5464680758251532e+00 1.0320722692220383e+00 2.6761310831793093e+01 0 0 0
517 2 1.5464680758251532e+00 2.4337287286837483e+00 2.6761310831793093e+01 0 0 0
518 2 2.7603381770975446e+00 3.1345569584146000e+00 2.6761310831793093e+01 0 0 0
519 2 2.7603381770975446e+00 3.3124403949123504e-01 2.6761310831793093e+01 0 0 0
520 2 3.9742082783699351e+00 1.0320722692220383e+00 2.6761310831793093e+01 0 0 0
528 2 3.9742082783699351e+00 2.4337287286837483e+00 2.6761310831793093e+01 0 0 0
529 2 5.1880783796423273e+00 3.1345569584146000e+00 2.6761310831793093e+01 0 0 0
530 2 5.1880783796423273e+00 3.3124403949123504e-01 2.6761310831793093e+01 0 0 0
531 2 6.4019484809146077e+00 1.0320722692220383e+00 2.6761310831793093e+01 0 0 0
543 2 6.4019484809146077e+00 2.4337287286837483e+00 2.6761310831793093e+01 0 0 0
544 2 7.6158185821871083e+00 3.1345569584146000e+00 2.6761310831793093e+01 0 0 0
545 2 7.6158185821871083e+00 3.3124403949123504e-01 2.6761310831793093e+01 0 0 0
546 2 8.8296886834593487e+00 1.0320722692220383e+00 2.6761310831793093e+01 0 0 0
562 2 8.8296886834593487e+00 2.4337287286837483e+00 2.6761310831793093e+01 0 0 0
563 2 1.0043558784731893e+01 3.1345569584146000e+00 2.6761310831793093e+01 0 0 0
564 2 1.0043558784731893e+01 3.3124403949123504e-01 2.6761310831793093e+01 0 0 0
565 2 1.1257428886003908e+01 1.0320722692220383e+00 2.6761310831793093e+01 0 0 0
585 2 1.1257428886003908e+01 2.4337287286837483e+00 2.6761310831793093e+01 0 0 0
586 2 1.2471298987276453e+01 3.1345569584146000e+00 2.6761310831793093e+01 0 0 0
587 2 1.2471298987276453e+01 3.3124403949123504e-01 2.6761310831793093e+01 0 0 0
2892 1 7.5724581820038157e+00 6.4313704586752465e+00 3.5464589171748472e+01 1 0 -1
514 2 3.3259797455276185e-01 7.3395263367996408e+00 2.6761310831793093e+01 0 0 0
515 2 3.3259797455276185e-01 4.5362134178762616e+00 2.6761310831793093e+01 0 0 0
516 2 1.5464680758251532e+00 5.2370416476070627e+00 2.6761310831793093e+01 0 0 0
524 2 1.5464680758251532e+00 6.6386981070689348e+00 2.6761310831793093e+01 0 0 0
525 2 2.7603381770975446e+00 7.3395263367996408e+00 2.6761310831793093e+01 0 0 0
526 2 2.7603381770975446e+00 4.5362134178762616e+00 2.6761310831793093e+01 0 0 0
527 2 3.9742082783699351e+00 5.2370416476070627e+00 2.6761310831793093e+01 0 0 0
539 2 3.9742082783699351e+00 6.6386981070689348e+00 2.6761310831793093e+01 0 0 0
540 2 5.1880783796423273e+00 7.3395263367996408e+00 2.6761310831793093e+01 0 0 0
541 2 5.1880783796423273e+00 4.5362134178762616e+00 2.6761310831793093e+01 0 0 0
542 2 6.4019484809146077e+00 5.2370416476070627e+00 2.6761310831793093e+01 0 0 0
558 2 6.4019484809146077e+00 6.6386981070689348e+00 2.6761310831793093e+01 0 0 0
559 2 7.6158185821871083e+00 7.3395263367996408e+00 2.6761310831793093e+01 0 0 0
560 2 7.6158185821871083e+00 4.5362134178762616e+00 2.6761310831793093e+01 0 0 0
1566 2 1.2471298987276453e+01 2.1356090931416574e+01 3.3300689168206020e+01 0 0 0
3539 1 7.4171104242161046e-01 4.9048547035080032e+00 2.4405934513173733e+01 1 -1 0
561 2 8.8296886834593487e+00 5.2370416476070627e+00 2.6761310831793093e+01 0 0 0
581 2 8.8296886834593487e+00 6.6386981070689348e+00 2.6761310831793093e+01 0 0 0
582 2 1.0043558784731893e+01 7.3395263367996408e+00 2.6761310831793093e+01 0 0 0
583 2 1.0043558784731893e+01 4.5362134178762616e+00 2.6761310831793093e+01 0 0 0
584 2 1.1257428886003908e+01 5.2370416476070627e+00 2.6761310831793093e+01 0 0 0
605 2 1.1257428886003908e+01 6.6386981070689348e+00 2.6761310831793093e+01 0 0 0
606 2 1.2471298987276453e+01 7.3395263367996408e+00 2.6761310831793093e+01 0 0 0
607 2 1.2471298987276453e+01 4.5362134178762616e+00 2.6761310831793093e+01 0 0 0
521 2 3.3259797455276185e-01 1.1544495715184695e+01 2.6761310831793093e+01 0 0 0
522 2 3.3259797455276185e-01 8.7411827962612882e+00 2.6761310831793093e+01 0 0 0
523 2 1.5464680758251532e+00 9.4420110259921373e+00 2.6761310831793093e+01 0 0 0
535 2 1.5464680758251532e+00 1.0843667485453905e+01 2.6761310831793093e+01 0 0 0
536 2 2.7603381770975446e+00 1.1544495715184695e+01 2.6761310831793093e+01 0 0 0
537 2 2.7603381770975446e+00 8.7411827962612882e+00 2.6761310831793093e+01 0 0 0
538 2 3.9742082783699351e+00 9.4420110259921373e+00 2.6761310831793093e+01 0 0 0
554 2 3.9742082783699351e+00 1.0843667485453905e+01 2.6761310831793093e+01 0 0 0
1552 2 1.0043558784731893e+01 2.4159403850339913e+01 3.3300689168206020e+01 0 0 0
555 2 5.1880783796423273e+00 1.1544495715184695e+01 2.6761310831793093e+01 0 0 0
556 2 5.1880783796423273e+00 8.7411827962612882e+00 2.6761310831793093e+01 0 0 0
557 2 6.4019484809146077e+00 9.4420110259921373e+00 2.6761310831793093e+01 0 0 0
577 2 6.4019484809146077e+00 1.0843667485453905e+01 2.6761310831793093e+01 0 0 0
578 2 7.6158185821871083e+00 1.1544495715184695e+01 2.6761310831793093e+01 0 0 0
579 2 7.6158185821871083e+00 8.7411827962612882e+00 2.6761310831793093e+01 0 0 0
20 1 1.1858201344875100e+01 8.8419921565511110e+00 2.4399282326281149e+01 -1 0 0
580 2 8.8296886834593487e+00 9.4420110259921373e+00 2.6761310831793093e+01 0 0 0
601 2 8.8296886834593487e+00 1.0843667485453905e+01 2.6761310831793093e+01 0 0 0
602 2 1.0043558784731893e+01 1.1544495715184695e+01 2.6761310831793093e+01 0 0 0
603 2 1.0043558784731893e+01 8.7411827962612882e+00 2.6761310831793093e+01 0 0 0
604 2 1.1257428886003908e+01 9.4420110259921373e+00 2.6761310831793093e+01 0 0 0
625 2 1.1257428886003908e+01 1.0843667485453905e+01 2.6761310831793093e+01 0 0 0
626 2 1.2471298987276453e+01 1.1544495715184695e+01 2.6761310831793093e+01 0 0 0
627 2 1.2471298987276453e+01 8.7411827962612882e+00 2.6761310831793093e+01 0 0 0
532 2 3.3259797455276185e-01 1.5749465093569629e+01 2.6761310831793093e+01 0 0 0
533 2 3.3259797455276185e-01 1.2946152174646635e+01 2.6761310831793093e+01 0 0 0
534 2 1.5464680758251532e+00 1.3646980404377627e+01 2.6761310831793093e+01 0 0 0
550 2 1.5464680758251532e+00 1.5048636863839222e+01 2.6761310831793093e+01 0 0 0
551 2 2.7603381770975446e+00 1.5749465093569629e+01 2.6761310831793093e+01 0 0 0
552 2 2.7603381770975446e+00 1.2946152174646635e+01 2.6761310831793093e+01 0 0 0
553 2 3.9742082783699351e+00 1.3646980404377627e+01 2.6761310831793093e+01 0 0 0
573 2 3.9742082783699351e+00 1.5048636863839222e+01 2.6761310831793093e+01 0 0 0
574 2 5.1880783796423273e+00 1.5749465093569629e+01 2.6761310831793093e+01 0 0 0
575 2 5.1880783796423273e+00 1.2946152174646635e+01 2.6761310831793093e+01 0 0 0
576 2 6.4019484809146077e+00 1.3646980404377627e+01 2.6761310831793093e+01 0 0 0
597 2 6.4019484809146077e+00 1.5048636863839222e+01 2.6761310831793093e+01 0 0 0
598 2 7.6158185821871083e+00 1.5749465093569629e+01 2.6761310831793093e+01 0 0 0
599 2 7.6158185821871083e+00 1.2946152174646635e+01 2.6761310831793093e+01 0 0 0
600 2 8.8296886834593487e+00 1.3646980404377627e+01 2.6761310831793093e+01 0 0 0
621 2 8.8296886834593487e+00 1.5048636863839222e+01 2.6761310831793093e+01 0 0 0
622 2 1.0043558784731893e+01 1.5749465093569629e+01 2.6761310831793093e+01 0 0 0
623 2 1.0043558784731893e+01 1.2946152174646635e+01 2.6761310831793093e+01 0 0 0
624 2 1.1257428886003908e+01 1.3646980404377627e+01 2.6761310831793093e+01 0 0 0
642 2 1.1257428886003908e+01 1.5048636863839222e+01 2.6761310831793093e+01 0 0 0
643 2 1.2471298987276453e+01 1.5749465093569629e+01 2.6761310831793093e+01 0 0 0
644 2 1.2471298987276453e+01 1.2946152174646635e+01 2.6761310831793093e+01 0 0 0
547 2 3.3259797455276185e-01 1.9954434471954546e+01 2.6761310831793093e+01 0 0 0
548 2 3.3259797455276185e-01 1.7151121553031341e+01 2.6761310831793093e+01 0 0 0
549 2 1.5464680758251532e+00 1.7851949782762411e+01 2.6761310831793093e+01 0 0 0
569 2 1.5464680758251532e+00 1.9253606242223682e+01 2.6761310831793093e+01 0 0 0
570 2 2.7603381770975446e+00 1.9954434471954546e+01 2.6761310831793093e+01 0 0 0
571 2 2.7603381770975446e+00 1.7151121553031341e+01 2.6761310831793093e+01 0 0 0
572 2 3.9742082783699351e+00 1.7851949782762411e+01 2.6761310831793093e+01 0 0 0
593 2 3.9742082783699351e+00 1.9253606242223682e+01 2.6761310831793093e+01 0 0 0
6084 1 1.9285423919355407e+00 1.6392113378973168e+01 3.5705031344696444e+01 0 1 0
594 2 5.1880783796423273e+00 1.9954434471954546e+01 2.6761310831793093e+01 0 0 0
595 2 5.1880783796423273e+00 1.7151121553031341e+01 2.6761310831793093e+01 0 0 0
596 2 6.4019484809146077e+00 1.7851949782762411e+01 2.6761310831793093e+01 0 0 0
617 2 6.4019484809146077e+00 1.9253606242223682e+01 2.6761310831793093e+01 0 0 0
618 2 7.6158185821871083e+00 1.9954434471954546e+01 2.6761310831793093e+01 0 0 0
619 2 7.6158185821871083e+00 1.7151121553031341e+01 2.6761310831793093e+01 0 0 0
1565 2 1.2471298987276453e+01 2.4159403850339913e+01 3.3300689168206020e+01 0 0 0
620 2 8.8296886834593487e+00 1.7851949782762411e+01 2.6761310831793093e+01 0 0 0
638 2 8.8296886834593487e+00 1.9253606242223682e+01 2.6761310831793093e+01 0 0 0
639 2 1.0043558784731893e+01 1.9954434471954546e+01 2.6761310831793093e+01 0 0 0
640 2 1.0043558784731893e+01 1.7151121553031341e+01 2.6761310831793093e+01 0 0 0
641 2 1.1257428886003908e+01 1.7851949782762411e+01 2.6761310831793093e+01 0 0 0
655 2 1.1257428886003908e+01 1.9253606242223682e+01 2.6761310831793093e+01 0 0 0
657 2 1.2471298987276453e+01 1.7151121553031341e+01 2.6761310831793093e+01 0 0 0
1553 2 1.0043558784731893e+01 2.1356090931416574e+01 3.3300689168206020e+01 0 0 0
613 2 3.9742082783699351e+00 2.3458575620608656e+01 2.6761310831793093e+01 0 0 0