LAMMPS data file via write_data, version 16 Mar 2018, timestep = 8000000

5031 atoms
2 atom types

0.0000000000000000e+00 4.9219999999999999e+01 xlo xhi
0.0000000000000000e+00 4.9019635930410494e+01 ylo yhi
7.1286249697596560e-02 3.9928713750311573e+01 zlo zhi

Masses

1 18.015
2 12.01

Atoms # atomic

140 2 0.0000000000000000e+00 2.8417180249513345e+00 2.2047357925392781e+00 0 0 0
142 2 0.0000000000000000e+00 0.0000000000000000e+00 2.2047357925392781e+00 0 0 0
144 2 1.2305000000000001e+00 7.1042950623783474e-01 2.2047357925392781e+00 0 0 0
151 2 1.2305000000000001e+00 2.1312885187134998e+00 2.2047357925392781e+00 0 0 0
153 2 2.4610000000000003e+00 2.8417180249513345e+00 2.2047357925392781e+00 0 0 0
155 2 2.4610000000000003e+00 0.0000000000000000e+00 2.2047357925392781e+00 0 0 0
157 2 3.6915000000000004e+00 7.1042950623783474e-01 2.2047357925392781e+00 0 0 0
172 2 3.6914999999999996e+00 2.1312885187134998e+00 2.2047357925392781e+00 0 0 0
174 2 4.9220000000000006e+00 2.8417180249513332e+00 2.2047357925392781e+00 0 0 0
176 2 4.9220000000000006e+00 0.0000000000000000e+00 2.2047357925392781e+00 0 0 0
178 2 6.1524999999999999e+00 7.1042950623783407e-01 2.2047357925392781e+00 0 0 0
201 2 6.1524999999999999e+00 2.1312885187134989e+00 2.2047357925392781e+00 0 0 0
203 2 7.3829999999999991e+00 2.8417180249513345e+00 2.2047357925392781e+00 0 0 0
205 2 7.3829999999999991e+00 0.0000000000000000e+00 2.2047357925392781e+00 0 0 0
207 2 8.6134999999999984e+00 7.1042950623783407e-01 2.2047357925392781e+00 0 0 0
238 2 8.6134999999999984e+00 2.1312885187135002e+00 2.2047357925392781e+00 0 0 0
147 2 0.0000000000000000e+00 4.2625770374269996e+00 2.2047357925392781e+00 0 0 0
149 2 1.2305000000000001e+00 4.9730065436648339e+00 2.2047357925392781e+00 0 0 0
164 2 1.2305000000000001e+00 6.3938655561404980e+00 2.2047357925392781e+00 0 0 0
168 2 2.4610000000000003e+00 4.2625770374269996e+00 2.2047357925392781e+00 0 0 0
170 2 3.6914999999999996e+00 4.9730065436648339e+00 2.2047357925392781e+00 0 0 0
193 2 3.6914999999999996e+00 6.3938655561404980e+00 2.2047357925392781e+00 0 0 0
145 2 0.0000000000000000e+00 7.1042950623783341e+00 2.2047357925392781e+00 0 0 0
166 2 2.4610000000000003e+00 7.1042950623783341e+00 2.2047357925392781e+00 0 0 0
197 2 4.9220000000000006e+00 4.2625770374269978e+00 2.2047357925392781e+00 0 0 0
199 2 6.1524999999999999e+00 4.9730065436648339e+00 2.2047357925392781e+00 0 0 0
230 2 6.1524999999999999e+00 6.3938655561404980e+00 2.2047357925392781e+00 0 0 0
234 2 7.3829999999999991e+00 4.2625770374269996e+00 2.2047357925392781e+00 0 0 0
236 2 8.6135000000000002e+00 4.9730065436648339e+00 2.2047357925392781e+00 0 0 0
275 2 8.6135000000000002e+00 6.3938655561404980e+00 2.2047357925392781e+00 0 0 0
195 2 4.9220000000000006e+00 7.1042950623783341e+00 2.2047357925392781e+00 0 0 0
232 2 7.3830000000000009e+00 7.1042950623783341e+00 2.2047357925392781e+00 0 0 0
160 2 0.0000000000000000e+00 8.5251540748539991e+00 2.2047357925392781e+00 0 0 0
162 2 1.2305000000000001e+00 9.2355835810918343e+00 2.2047357925392781e+00 0 0 0
189 2 2.4610000000000003e+00 8.5251540748539991e+00 2.2047357925392781e+00 0 0 0
191 2 3.6915000000000004e+00 9.2355835810918343e+00 2.2047357925392781e+00 0 0 0
158 2 0.0000000000000000e+00 1.1366872099805333e+01 2.2047357925392781e+00 0 0 0
185 2 1.2305000000000001e+00 1.0656442593567498e+01 2.2047357925392781e+00 0 0 0
187 2 2.4610000000000003e+00 1.1366872099805333e+01 2.2047357925392781e+00 0 0 0
222 2 3.6914999999999996e+00 1.0656442593567499e+01 2.2047357925392781e+00 0 0 0
226 2 4.9220000000000006e+00 8.5251540748539991e+00 2.2047357925392781e+00 0 0 0
228 2 6.1524999999999999e+00 9.2355835810918343e+00 2.2047357925392781e+00 0 0 0
271 2 7.3830000000000009e+00 8.5251540748539991e+00 2.2047357925392781e+00 0 0 0
273 2 8.6134999999999984e+00 9.2355835810918343e+00 2.2047357925392781e+00 0 0 0
224 2 4.9220000000000006e+00 1.1366872099805333e+01 2.2047357925392781e+00 0 0 0
267 2 6.1524999999999999e+00 1.0656442593567499e+01 2.2047357925392781e+00 0 0 0
269 2 7.3829999999999991e+00 1.1366872099805333e+01 2.2047357925392781e+00 0 0 0
314 2 8.6134999999999984e+00 1.0656442593567498e+01 2.2047357925392781e+00 0 0 0
141 2 0.0000000000000000e+00 1.4208590124756650e+00 5.4621344800809428e+00 0 0 0
143 2 0.0000000000000000e+00 0.0000000000000000e+00 5.4621344800809428e+00 0 0 0
152 2 1.2305000000000001e+00 2.1312885187134998e+00 5.4621344800809428e+00 0 0 0
154 2 2.4610000000000003e+00 1.4208590124756650e+00 5.4621344800809428e+00 0 0 0
156 2 2.4610000000000003e+00 0.0000000000000000e+00 5.4621344800809428e+00 0 0 0
173 2 3.6914999999999996e+00 2.1312885187134998e+00 5.4621344800809428e+00 0 0 0
150 2 1.2305000000000001e+00 3.5521475311891644e+00 5.4621344800809428e+00 0 0 0
171 2 3.6914999999999996e+00 3.5521475311891644e+00 5.4621344800809428e+00 0 0 0
469 2 0.0000000000000000e+00 2.8417180249513345e+00 8.7195331676215915e+00 0 0 0
470 2 0.0000000000000000e+00 0.0000000000000000e+00 8.7195331676215915e+00 0 0 0
471 2 1.2305000000000001e+00 7.1042950623783474e-01 8.7195331676215915e+00 0 0 0
475 2 1.2305000000000001e+00 2.1312885187134998e+00 8.7195331676215915e+00 0 0 0
476 2 2.4610000000000003e+00 2.8417180249513345e+00 8.7195331676215915e+00 0 0 0
477 2 2.4610000000000003e+00 0.0000000000000000e+00 8.7195331676215915e+00 0 0 0
478 2 3.6915000000000004e+00 7.1042950623783474e-01 8.7195331676215915e+00 0 0 0
486 2 3.6914999999999996e+00 2.1312885187134998e+00 8.7195331676215915e+00 0 0 0
175 2 4.9220000000000006e+00 1.4208590124756650e+00 5.4621344800809428e+00 0 0 0
177 2 4.9220000000000006e+00 0.0000000000000000e+00 5.4621344800809428e+00 0 0 0
202 2 6.1524999999999999e+00 2.1312885187134989e+00 5.4621344800809428e+00 0 0 0
204 2 7.3829999999999991e+00 1.4208590124756659e+00 5.4621344800809428e+00 0 0 0
206 2 7.3829999999999991e+00 0.0000000000000000e+00 5.4621344800809428e+00 0 0 0
239 2 8.6134999999999984e+00 2.1312885187135002e+00 5.4621344800809428e+00 0 0 0
200 2 6.1524999999999999e+00 3.5521475311891644e+00 5.4621344800809428e+00 0 0 0
237 2 8.6134999999999984e+00 3.5521475311891657e+00 5.4621344800809428e+00 0 0 0
487 2 4.9220000000000006e+00 2.8417180249513332e+00 8.7195331676215915e+00 0 0 0
488 2 4.9220000000000006e+00 0.0000000000000000e+00 8.7195331676215915e+00 0 0 0
489 2 6.1524999999999999e+00 7.1042950623783407e-01 8.7195331676215915e+00 0 0 0
501 2 6.1524999999999999e+00 2.1312885187134989e+00 8.7195331676215915e+00 0 0 0
502 2 7.3829999999999991e+00 2.8417180249513345e+00 8.7195331676215915e+00 0 0 0
503 2 7.3829999999999991e+00 0.0000000000000000e+00 8.7195331676215915e+00 0 0 0
504 2 8.6134999999999984e+00 7.1042950623783407e-01 8.7195331676215915e+00 0 0 0
520 2 8.6134999999999984e+00 2.1312885187135002e+00 8.7195331676215915e+00 0 0 0
146 2 0.0000000000000000e+00 5.6834360499026637e+00 5.4621344800809428e+00 0 0 0
148 2 0.0000000000000000e+00 4.2625770374269996e+00 5.4621344800809428e+00 0 0 0
165 2 1.2305000000000001e+00 6.3938655561404980e+00 5.4621344800809428e+00 0 0 0
167 2 2.4610000000000003e+00 5.6834360499026637e+00 5.4621344800809428e+00 0 0 0
169 2 2.4610000000000003e+00 4.2625770374269996e+00 5.4621344800809428e+00 0 0 0
194 2 3.6914999999999996e+00 6.3938655561404980e+00 5.4621344800809428e+00 0 0 0
163 2 1.2305000000000001e+00 7.8147245686161639e+00 5.4621344800809428e+00 0 0 0
192 2 3.6914999999999996e+00 7.8147245686161639e+00 5.4621344800809428e+00 0 0 0
473 2 0.0000000000000000e+00 4.2625770374269996e+00 8.7195331676215915e+00 0 0 0
474 2 1.2305000000000001e+00 4.9730065436648339e+00 8.7195331676215915e+00 0 0 0
482 2 1.2305000000000001e+00 6.3938655561404980e+00 8.7195331676215915e+00 0 0 0
484 2 2.4610000000000003e+00 4.2625770374269996e+00 8.7195331676215915e+00 0 0 0
485 2 3.6914999999999996e+00 4.9730065436648339e+00 8.7195331676215915e+00 0 0 0
497 2 3.6914999999999996e+00 6.3938655561404980e+00 8.7195331676215915e+00 0 0 0
472 2 0.0000000000000000e+00 7.1042950623783341e+00 8.7195331676215915e+00 0 0 0
483 2 2.4610000000000003e+00 7.1042950623783341e+00 8.7195331676215915e+00 0 0 0
196 2 4.9220000000000006e+00 5.6834360499026637e+00 5.4621344800809428e+00 0 0 0
198 2 4.9220000000000006e+00 4.2625770374269978e+00 5.4621344800809428e+00 0 0 0
231 2 6.1524999999999999e+00 6.3938655561404980e+00 5.4621344800809428e+00 0 0 0
233 2 7.3829999999999991e+00 5.6834360499026637e+00 5.4621344800809428e+00 0 0 0
235 2 7.3829999999999991e+00 4.2625770374269996e+00 5.4621344800809428e+00 0 0 0
276 2 8.6135000000000002e+00 6.3938655561404980e+00 5.4621344800809428e+00 0 0 0
229 2 6.1524999999999999e+00 7.8147245686161639e+00 5.4621344800809428e+00 0 0 0
274 2 8.6135000000000002e+00 7.8147245686161639e+00 5.4621344800809428e+00 0 0 0
499 2 4.9220000000000006e+00 4.2625770374269978e+00 8.7195331676215915e+00 0 0 0
500 2 6.1524999999999999e+00 4.9730065436648339e+00 8.7195331676215915e+00 0 0 0
516 2 6.1524999999999999e+00 6.3938655561404980e+00 8.7195331676215915e+00 0 0 0
518 2 7.3829999999999991e+00 4.2625770374269996e+00 8.7195331676215915e+00 0 0 0
519 2 8.6135000000000002e+00 4.9730065436648339e+00 8.7195331676215915e+00 0 0 0
539 2 8.6135000000000002e+00 6.3938655561404980e+00 8.7195331676215915e+00 0 0 0
498 2 4.9220000000000006e+00 7.1042950623783341e+00 8.7195331676215915e+00 0 0 0
517 2 7.3830000000000009e+00 7.1042950623783341e+00 8.7195331676215915e+00 0 0 0
159 2 0.0000000000000000e+00 9.9460130873296642e+00 5.4621344800809428e+00 0 0 0
161 2 0.0000000000000000e+00 8.5251540748539991e+00 5.4621344800809428e+00 0 0 0
188 2 2.4610000000000003e+00 9.9460130873296642e+00 5.4621344800809428e+00 0 0 0
190 2 2.4610000000000003e+00 8.5251540748539991e+00 5.4621344800809428e+00 0 0 0
184 2 1.2305000000000001e+00 1.2077301606043163e+01 5.4621344800809428e+00 0 0 0
186 2 1.2305000000000001e+00 1.0656442593567498e+01 5.4621344800809428e+00 0 0 0
221 2 3.6914999999999996e+00 1.2077301606043163e+01 5.4621344800809428e+00 0 0 0
223 2 3.6914999999999996e+00 1.0656442593567499e+01 5.4621344800809428e+00 0 0 0
480 2 0.0000000000000000e+00 8.5251540748539991e+00 8.7195331676215915e+00 0 0 0
481 2 1.2305000000000001e+00 9.2355835810918343e+00 8.7195331676215915e+00 0 0 0
495 2 2.4610000000000003e+00 8.5251540748539991e+00 8.7195331676215915e+00 0 0 0
496 2 3.6915000000000004e+00 9.2355835810918343e+00 8.7195331676215915e+00 0 0 0
479 2 0.0000000000000000e+00 1.1366872099805333e+01 8.7195331676215915e+00 0 0 0
493 2 1.2305000000000001e+00 1.0656442593567498e+01 8.7195331676215915e+00 0 0 0
494 2 2.4610000000000003e+00 1.1366872099805333e+01 8.7195331676215915e+00 0 0 0
512 2 3.6914999999999996e+00 1.0656442593567499e+01 8.7195331676215915e+00 0 0 0
313 2 8.6135000000000002e+00 1.2077301606043163e+01 5.4621344800809428e+00 0 0 0
268 2 6.1524999999999999e+00 1.0656442593567499e+01 5.4621344800809428e+00 0 0 0
272 2 7.3830000000000009e+00 8.5251540748539991e+00 5.4621344800809428e+00 0 0 0
270 2 7.3830000000000009e+00 9.9460130873296642e+00 5.4621344800809428e+00 0 0 0
266 2 6.1524999999999999e+00 1.2077301606043163e+01 5.4621344800809428e+00 0 0 0
315 2 8.6134999999999984e+00 1.0656442593567498e+01 5.4621344800809428e+00 0 0 0
225 2 4.9220000000000006e+00 9.9460130873296642e+00 5.4621344800809428e+00 0 0 0
227 2 4.9220000000000006e+00 8.5251540748539991e+00 5.4621344800809428e+00 0 0 0
513 2 4.9220000000000006e+00 1.1366872099805333e+01 8.7195331676215915e+00 0 0 0
514 2 4.9220000000000006e+00 8.5251540748539991e+00 8.7195331676215915e+00 0 0 0
537 2 7.3830000000000009e+00 8.5251540748539991e+00 8.7195331676215915e+00 0 0 0
559 2 8.6134999999999984e+00 1.0656442593567498e+01 8.7195331676215915e+00 0 0 0
536 2 7.3829999999999991e+00 1.1366872099805333e+01 8.7195331676215915e+00 0 0 0
535 2 6.1524999999999999e+00 1.0656442593567499e+01 8.7195331676215915e+00 0 0 0
538 2 8.6134999999999984e+00 9.2355835810918343e+00 8.7195331676215915e+00 0 0 0
515 2 6.1524999999999999e+00 9.2355835810918343e+00 8.7195331676215915e+00 0 0 0
4966 1 3.6278012097922274e+00 1.1488254441632157e+00 1.1865797311483989e+01 -2 -1 -1
1468 1 1.0835117186017573e+00 2.3983016637062118e+00 1.1697490588639091e+01 1 -4 0
810 1 3.3984360665886912e+00 1.1255035926664503e+00 1.4483207450475547e+01 1 -1 0
2472 1 6.1380931947278927e-01 2.6309403960512490e+00 1.4703328543992747e+01 0 1 -1
1712 1 5.9679630567763713e+00 2.6128673959792379e+00 1.1592951514856896e+01 4 -1 -1
4131 1 8.8650557977120705e+00 1.6800215684005759e+00 1.1519614183670441e+01 0 1 0
1546 1 6.0180334791770491e+00 2.4931977816367286e+00 1.4401516266625421e+01 -4 3 0
3436 1 8.7480969357132690e+00 1.5126148819958234e+00 1.4307783789290545e+01 -1 -1 0
1520 1 1.3540620923634781e+00 5.2749481478291038e+00 1.1706527023291398e+01 0 0 -1
690 1 3.6358906130508739e+00 6.7756064843633785e+00 1.1409526492175171e+01 1 1 0
2603 1 1.1087314616725565e+00 5.3462030734336965e+00 1.4450254144979830e+01 4 0 0
1720 1 3.9344975270233737e+00 6.7958707469986548e+00 1.4337986837073379e+01 3 -2 0
2340 1 6.0751421427208241e+00 5.6663053320672612e+00 1.1311235308937352e+01 -4 1 -1
770 1 8.7510618763904038e+00 6.7192932064714181e+00 1.1433848787348255e+01 0 0 -1
2380 1 9.1319647483002910e+00 6.7380068157270294e+00 1.4164596821954122e+01 0 -5 -1
3416 1 6.2731076049559968e+00 5.3061083274149281e+00 1.4280149039467792e+01 1 5 0
4177 1 1.3247226105326795e+00 1.0899442339050418e+01 1.1373667179106691e+01 0 -4 -1
878 1 3.8538214417257137e+00 9.4424360589705607e+00 1.1874944833981866e+01 -2 2 0
2504 1 1.0292433461299619e+00 1.1009471999640940e+01 1.4349243644770574e+01 2 2 0
3303 1 3.5537345140908423e+00 9.6688580322479716e+00 1.4690288687178573e+01 2 -1 0
2680 1 8.6373756759748268e+00 9.4982225730999712e+00 1.1548484255140345e+01 -2 1 0
2373 1 6.2684783677666749e+00 1.0880867173298709e+01 1.1554504623477706e+01 0 2 -1
4795 1 6.2180326786189388e+00 1.1033614650569692e+01 1.4458954592936841e+01 1 0 0
1855 1 8.6755871485633644e+00 9.6763418686243732e+00 1.4499799263474983e+01 1 1 0
2404 1 2.5766231044771009e+00 8.6658755272718269e-01 1.7898785929325292e+01 1 -1 0
2476 1 4.9535094221452152e+00 2.0881372124668278e+00 1.7216319162547322e+01 -4 -2 -1
63 1 9.3422683787058567e+00 1.4558579201854138e+00 1.7204943816541320e+01 0 2 0
1687 1 6.8147520269451132e+00 6.4872230138771703e-01 1.8356097586117702e+01 1 -2 0
4254 1 2.3694106570630127e+00 6.0659865726001723e+00 1.6966660280854928e+01 1 2 1
1617 1 4.6036245112191461e+00 4.5743618041893095e+00 1.7922388126819079e+01 -1 0 0
1470 1 8.9854326143348704e+00 4.1540834276517948e+00 1.8300462211956404e+01 2 -1 1
4928 1 6.8847691463430838e+00 5.8807447026215085e+00 1.7109482007258190e+01 0 1 -1
94 1 4.6911244807154100e+00 1.0188797756923773e+01 1.7130402798019986e+01 -1 -1 0
4220 1 2.4600867516024363e+00 8.6769480144015212e+00 1.8190182235396779e+01 0 2 0
90 1 6.8320682458161182e+00 8.6685088206644778e+00 1.7967612997220044e+01 1 1 0
120 1 8.8500615973749586e+00 1.0101338604401972e+01 1.7539116165095731e+01 2 0 0
973 1 2.1984922974526594e-01 1.0567958536295984e+01 1.7299908198195308e+01 2 -2 0
2471 1 9.3037799159865417e-02 5.1192297722139779e+00 1.8471875102492234e+01 -2 1 0
658 1 2.8468663676181977e-01 2.3654394873702045e+00 1.7299796398215747e+01 -2 1 0
4938 1 2.2743166008259914e+00 3.5459006496137127e+00 2.1657037100483048e+01 2 1 0
794 1 2.2755199278819411e+00 7.7844219630570732e-01 2.0616524716728851e+01 0 -2 0
1537 1 2.3776447410470514e+00 3.3494860334508978e+00 2.4668248253386654e+01 0 3 1
3178 1 6.7626098311427434e+00 3.1541045342328218e+00 2.1850397535192979e+01 0 -2 0
4887 1 6.9811448986254341e+00 7.1761445645780308e-01 2.1031855079381369e+01 0 0 0
12 1 6.9217280899063924e+00 3.1051302516960653e+00 2.4631879918944957e+01 -2 0 0
3215 1 4.9624151926213580e+00 4.8893087177864789e+00 2.0801045728435671e+01 -2 0 -1
1493 1 4.6426963971746611e+00 7.4756923980563634e+00 2.1477069095715617e+01 3 3 0
2600 1 4.5394489984038584e+00 7.1524000835366746e+00 2.4406659611162944e+01 1 1 0
814 1 6.8982463993811916e+00 1.1385114992406583e+01 2.9068827939676055e+01 1 -3 0
4268 1 9.0670791070266503e+00 1.0174784699222329e+01 2.5484548911221424e+01 2 1 -1
2407 1 8.8114527263162081e+00 4.5980619845404656e+00 2.0914220169155303e+01 -1 -2 0
4833 1 8.9226925457229989e+00 7.2645244904288422e+00 2.1441423707807374e+01 0 1 1
1751 1 9.0921964686431433e+00 7.4932250785566286e+00 2.4285839678289516e+01 2 0 0
3405 1 2.7868061713833892e+00 1.1632124766819453e+01 2.1966022043641832e+01 2 1 0
4267 1 2.6250666440416941e+00 9.0434952766640038e+00 2.0922433697343614e+01 1 1 0
3429 1 2.4745504144769357e+00 1.1699122252128324e+01 2.4833912657738981e+01 -2 0 0
2364 1 6.8028685740998389e+00 8.8148761248659628e+00 2.0634857839038631e+01 -1 1 0
3480 1 6.7444463987341603e+00 1.1398350957450408e+01 2.1464101911379064e+01 2 -1 1
2632 1 6.6395323006555262e+00 1.1473249477455587e+01 2.4364911509296093e+01 -2 0 0
1575 1 4.5086422176245211e+00 1.8189904078262815e+00 2.5528058258216266e+01 -1 -1 0
2 1 2.2743528402354709e+00 3.6842223288138238e+00 2.9246790145892565e+01 1 5 0
4945 1 4.3360221550742777e+00 2.2591319470128641e+00 2.8389958797025070e+01 -1 4 0
3521 1 9.4008994040079177e+00 1.0220343692176831e+01 2.8195156693458813e+01 0 0 1
1583 1 9.1985925362609784e+00 1.8416013548801651e+00 2.5388376577116279e+01 -2 -1 0
1830 1 6.6613475817287773e+00 3.4871866189582388e+00 2.8781791984590672e+01 1 -1 0
4017 1 8.9662212836509294e+00 2.0654979516822389e+00 2.8299479733478289e+01 1 1 0
4091 1 2.3452983474881623e+00 5.8518158447910649e+00 2.5575798768954755e+01 3 -1 0
3184 1 1.9960161425753020e+00 6.4273669024625137e+00 2.8185059292415268e+01 -2 -1 0
4215 1 4.3603147030029730e+00 7.2935320514909137e+00 2.8873186306415882e+01 -1 0 -1
4841 1 4.6236188202898081e+00 1.0119104294843098e+01 2.8116397592366422e+01 -1 3 0
4229 1 8.8452132813506950e+00 7.5578437833919718e+00 2.8844639380111325e+01 -1 2 0
3387 1 6.5832422570459652e+00 5.9518045459519975e+00 2.8009271198758533e+01 3 3 0
3252 1 6.9182441322941477e+00 6.0222508101190391e+00 2.5261824696140931e+01 -2 1 0
1480 1 4.5134257700306843e+00 9.8570599029794241e+00 2.5426690093250155e+01 3 -2 0
1661 1 2.3491512278673690e+00 1.1517632384486358e+01 2.8945207997626838e+01 3 -1 0
928 1 1.6922036444472802e-01 1.9854562924277097e+00 2.5840154030092759e+01 2 -3 1
2411 1 2.8744962637661072e-02 7.8775054085954075e+00 2.1757165840369190e+01 2 -2 0
1744 1 1.1972438363323192e-01 2.1373753678068916e+00 2.8585141636818086e+01 1 3 0
4791 1 3.1889481400530084e-01 5.2864841162180136e+00 2.1064510068868202e+01 2 0 0
3195 1 1.0753331547959988e-02 1.0266832873401667e+01 2.8239979222020974e+01 1 3 0
3335 1 2.2189373682050473e-01 7.7718608486308369e+00 2.4780977561571401e+01 -1 2 -1
4133 1 9.4724454325131546e-02 1.0510066018080886e+01 2.5441759188979002e+01 4 0 0
2455 1 2.4115595044289009e+00 8.1485350380959520e-01 3.3031509265805042e+01 -2 -1 -1
748 1 2.3127346699688154e+00 3.4546482030479768e+00 3.1904107536562297e+01 2 1 0
5007 1 6.6533040940193242e+00 3.4555046056366403e+00 3.1564638998632521e+01 -2 1 0
4289 1 6.8310105432703567e+00 8.6358544711406049e-01 3.2450840753073209e+01 3 -4 1
4889 1 4.6987086003113703e+00 5.0425752846089145e+00 3.2442782195773731e+01 0 3 0
2673 1 4.9517478192902660e+00 7.4541077902809532e+00 3.1375789736465020e+01 -2 1 0
907 1 6.4288147977644101e+00 8.8672459298229924e+00 3.9778026102141126e+01 0 4 0
2550 1 8.9657903150106240e+00 4.8640817801183083e+00 3.2514835949340494e+01 0 3 0
637 1 9.0781681469037370e+00 7.7293738738853826e+00 3.1544968945709336e+01 0 -3 0
2499 1 9.1291665349500590e+00 5.0445589527941879e+00 3.5241779792489410e+01 2 -1 0
1649 1 2.7515726678486230e+00 8.8298305517927105e+00 3.2227375981721138e+01 -6 0 0
642 1 7.0268145159605631e+00 1.1748159382695404e+01 3.6342574540547517e+01 -1 -2 1
3366 1 6.6915679022742651e+00 9.1968711905477711e+00 3.2678413112440765e+01 1 0 -1
2320 1 6.6420487549286769e+00 1.1734189080400139e+01 3.1622246711088426e+01 0 -1 0
32 1 2.5543552024141647e+00 7.2592920205087275e-01 3.5569524568446511e+01 1 1 -1
983 1 2.1969567506130696e+00 3.6345715840066224e+00 3.6495460542698339e+01 1 -1 0
70 1 2.5989712309561881e+00 3.2817668875728629e+00 3.9113370265553698e+01 2 3 1
3299 1 6.8265044867214728e+00 9.3219388490690740e+00 3.5479922958457607e+01 -1 4 -1
4811 1 6.9250807503074485e+00 1.1452745169530938e+00 3.5236125511576304e+01 -2 1 0
3400 1 6.7487035692982920e+00 3.6826381270479893e+00 3.6075592063993795e+01 3 0 -1
1600 1 6.7760087104726070e+00 3.8723774192621860e+00 3.8873126316729795e+01 2 -2 0
4125 1 2.5337297231710467e+00 1.1742875441907632e+01 3.1579317713315685e+01 1 -1 -1
626 1 4.3000274228360071e+00 7.6177942854742078e+00 3.6086258215541150e+01 1 1 0
823 1 4.2263486102413630e+00 7.9416840136722238e+00 3.8822406317136824e+01 -2 -3 -1
987 1 4.4477515366868188e+00 5.2701273614818973e+00 3.9454415446574700e+01 -1 0 1
649 1 4.3945135470279846e+00 5.0092551392713656e+00 3.5195411434855700e+01 1 -2 -1
747 1 2.0807965173728267e+00 5.3639719178428658e-01 3.9401450649019324e+01 3 -2 0
3276 1 7.0570477109803136e+00 1.1725163841350783e+01 3.9085580998151528e+01 -2 -1 0
1815 1 2.1208276144408473e+00 9.3337328978097869e+00 3.9716976899583727e+01 -1 0 0
3368 1 8.5434440368815778e+00 7.5480567444287647e+00 3.8995565197101058e+01 0 -1 0
4059 1 8.8420198780954191e+00 7.6581086226010084e+00 3.6053770548239086e+01 0 0 0
2696 1 2.3529206159262275e+00 1.1768863789228073e+01 3.8903201772828325e+01 -1 0 1
3296 1 2.3184074368060950e+00 9.2235167269933207e+00 3.4994005541532545e+01 1 -1 -1
4883 1 2.3458343625500411e+00 1.1885887146545452e+01 3.5871764767982540e+01 0 0 -1
723 1 8.9417639812540841e+00 5.1294468077513633e+00 3.9626269835900501e+01 0 -2 0
3403 1 6.7130073217836861e+00 1.1103287311792727e+00 3.9800758414513041e+01 0 0 0
2447 1 3.0623861374801076e-01 5.0884517752473366e+00 3.5842120756154571e+01 4 2 -1
69 1 2.4011720992530089e-01 7.8567993205776068e+00 3.6356555106629230e+01 0 -3 0
3484 1 2.4811900764041359e-01 7.5776702877701618e+00 3.1945902101821531e+01 2 1 -1
719 1 1.2458070942056849e-01 5.0692999713592179e+00 3.9537591255519089e+01 4 -2 0
4235 1 3.2743952532597750e-02 5.0262490885967148e+00 3.2933696850073943e+01 -2 2 1
181 2 0.0000000000000000e+00 1.2787731112280996e+01 2.2047357925392781e+00 0 0 0
183 2 1.2305000000000001e+00 1.3498160618518829e+01 2.2047357925392781e+00 0 0 0
218 2 2.4610000000000003e+00 1.2787731112280996e+01 2.2047357925392781e+00 0 0 0
220 2 3.6915000000000004e+00 1.3498160618518829e+01 2.2047357925392781e+00 0 0 0
179 2 0.0000000000000000e+00 1.5629449137232333e+01 2.2047357925392781e+00 0 0 0
214 2 1.2305000000000001e+00 1.4919019630994494e+01 2.2047357925392781e+00 0 0 0
216 2 2.4610000000000003e+00 1.5629449137232328e+01 2.2047357925392781e+00 0 0 0
259 2 3.6915000000000004e+00 1.4919019630994494e+01 2.2047357925392781e+00 0 0 0
263 2 4.9220000000000006e+00 1.2787731112280996e+01 2.2047357925392781e+00 0 0 0
265 2 6.1524999999999990e+00 1.3498160618518829e+01 2.2047357925392781e+00 0 0 0
310 2 7.3829999999999991e+00 1.2787731112280996e+01 2.2047357925392781e+00 0 0 0
312 2 8.6135000000000002e+00 1.3498160618518835e+01 2.2047357925392781e+00 0 0 0
261 2 4.9220000000000006e+00 1.5629449137232333e+01 2.2047357925392781e+00 0 0 0
306 2 6.1524999999999990e+00 1.4919019630994494e+01 2.2047357925392781e+00 0 0 0
308 2 7.3829999999999991e+00 1.5629449137232333e+01 2.2047357925392781e+00 0 0 0
353 2 8.6135000000000002e+00 1.4919019630994494e+01 2.2047357925392781e+00 0 0 0
210 2 0.0000000000000000e+00 1.7050308149707998e+01 2.2047357925392781e+00 0 0 0
255 2 2.4610000000000003e+00 1.7050308149707998e+01 2.2047357925392781e+00 0 0 0
208 2 0.0000000000000000e+00 1.9892026174659328e+01 2.2047357925392781e+00 0 0 0
212 2 1.2305000000000001e+00 1.7760737655945832e+01 2.2047357925392781e+00 0 0 0
251 2 1.2305000000000001e+00 1.9181596668421495e+01 2.2047357925392781e+00 0 0 0
253 2 2.4610000000000003e+00 1.9892026174659328e+01 2.2047357925392781e+00 0 0 0
257 2 3.6914999999999996e+00 1.7760737655945832e+01 2.2047357925392781e+00 0 0 0
298 2 3.6914999999999996e+00 1.9181596668421495e+01 2.2047357925392781e+00 0 0 0
302 2 4.9220000000000006e+00 1.7050308149707998e+01 2.2047357925392781e+00 0 0 0
349 2 7.3830000000000009e+00 1.7050308149707998e+01 2.2047357925392781e+00 0 0 0
300 2 4.9220000000000006e+00 1.9892026174659328e+01 2.2047357925392781e+00 0 0 0
304 2 6.1524999999999999e+00 1.7760737655945832e+01 2.2047357925392781e+00 0 0 0
345 2 6.1524999999999999e+00 1.9181596668421495e+01 2.2047357925392781e+00 0 0 0
347 2 7.3829999999999991e+00 1.9892026174659328e+01 2.2047357925392781e+00 0 0 0
351 2 8.6134999999999984e+00 1.7760737655945832e+01 2.2047357925392781e+00 0 0 0
387 2 8.6135000000000002e+00 1.9181596668421495e+01 2.2047357925392781e+00 0 0 0
245 2 0.0000000000000000e+00 2.4154603212086325e+01 2.2047357925392781e+00 0 0 0
247 2 0.0000000000000000e+00 2.1312885187134999e+01 2.2047357925392781e+00 0 0 0
249 2 1.2304999999999993e+00 2.2023314693372832e+01 2.2047357925392781e+00 0 0 0
290 2 1.2304999999999993e+00 2.3444173705848499e+01 2.2047357925392781e+00 0 0 0
292 2 2.4610000000000003e+00 2.4154603212086325e+01 2.2047357925392781e+00 0 0 0
294 2 2.4610000000000003e+00 2.1312885187134995e+01 2.2047357925392781e+00 0 0 0
296 2 3.6914999999999996e+00 2.2023314693372832e+01 2.2047357925392781e+00 0 0 0
337 2 3.6915000000000004e+00 2.3444173705848499e+01 2.2047357925392781e+00 0 0 0
339 2 4.9220000000000006e+00 2.4154603212086325e+01 2.2047357925392781e+00 0 0 0
341 2 4.9220000000000006e+00 2.1312885187134995e+01 2.2047357925392781e+00 0 0 0
343 2 6.1524999999999990e+00 2.2023314693372832e+01 2.2047357925392781e+00 0 0 0
379 2 6.1524999999999999e+00 2.3444173705848499e+01 2.2047357925392781e+00 0 0 0
381 2 7.3830000000000009e+00 2.4154603212086336e+01 2.2047357925392781e+00 0 0 0
383 2 7.3829999999999991e+00 2.1312885187134999e+01 2.2047357925392781e+00 0 0 0
385 2 8.6135000000000002e+00 2.2023314693372832e+01 2.2047357925392781e+00 0 0 0
413 2 8.6134999999999984e+00 2.3444173705848499e+01 2.2047357925392781e+00 0 0 0
182 2 0.0000000000000000e+00 1.2787731112280996e+01 5.4621344800809428e+00 0 0 0
219 2 2.4610000000000003e+00 1.2787731112280996e+01 5.4621344800809428e+00 0 0 0
180 2 0.0000000000000000e+00 1.4208590124756663e+01 5.4621344800809428e+00 0 0 0
215 2 1.2305000000000001e+00 1.4919019630994494e+01 5.4621344800809428e+00 0 0 0
217 2 2.4610000000000003e+00 1.4208590124756663e+01 5.4621344800809428e+00 0 0 0
260 2 3.6915000000000004e+00 1.4919019630994494e+01 5.4621344800809428e+00 0 0 0
491 2 0.0000000000000000e+00 1.2787731112280996e+01 8.7195331676215915e+00 0 0 0
492 2 1.2305000000000001e+00 1.3498160618518829e+01 8.7195331676215915e+00 0 0 0
510 2 2.4610000000000003e+00 1.2787731112280996e+01 8.7195331676215915e+00 0 0 0
511 2 3.6915000000000004e+00 1.3498160618518829e+01 8.7195331676215915e+00 0 0 0
490 2 0.0000000000000000e+00 1.5629449137232333e+01 8.7195331676215915e+00 0 0 0
508 2 1.2305000000000001e+00 1.4919019630994494e+01 8.7195331676215915e+00 0 0 0
509 2 2.4610000000000003e+00 1.5629449137232328e+01 8.7195331676215915e+00 0 0 0
531 2 3.6915000000000004e+00 1.4919019630994494e+01 8.7195331676215915e+00 0 0 0
264 2 4.9220000000000006e+00 1.2787731112280996e+01 5.4621344800809428e+00 0 0 0
311 2 7.3829999999999991e+00 1.2787731112280996e+01 5.4621344800809428e+00 0 0 0
262 2 4.9220000000000006e+00 1.4208590124756663e+01 5.4621344800809428e+00 0 0 0
307 2 6.1524999999999990e+00 1.4919019630994494e+01 5.4621344800809428e+00 0 0 0
309 2 7.3830000000000009e+00 1.4208590124756663e+01 5.4621344800809428e+00 0 0 0
354 2 8.6135000000000002e+00 1.4919019630994494e+01 5.4621344800809428e+00 0 0 0
533 2 4.9220000000000006e+00 1.2787731112280996e+01 8.7195331676215915e+00 0 0 0
534 2 6.1524999999999990e+00 1.3498160618518829e+01 8.7195331676215915e+00 0 0 0
557 2 7.3829999999999991e+00 1.2787731112280996e+01 8.7195331676215915e+00 0 0 0
558 2 8.6135000000000002e+00 1.3498160618518835e+01 8.7195331676215915e+00 0 0 0
532 2 4.9220000000000006e+00 1.5629449137232333e+01 8.7195331676215915e+00 0 0 0
555 2 6.1524999999999990e+00 1.4919019630994494e+01 8.7195331676215915e+00 0 0 0
556 2 7.3829999999999991e+00 1.5629449137232333e+01 8.7195331676215915e+00 0 0 0
579 2 8.6135000000000002e+00 1.4919019630994494e+01 8.7195331676215915e+00 0 0 0
211 2 0.0000000000000000e+00 1.7050308149707998e+01 5.4621344800809428e+00 0 0 0
213 2 1.2305000000000001e+00 1.6339878643470165e+01 5.4621344800809428e+00 0 0 0
256 2 2.4610000000000003e+00 1.7050308149707998e+01 5.4621344800809428e+00 0 0 0
258 2 3.6915000000000004e+00 1.6339878643470165e+01 5.4621344800809428e+00 0 0 0
209 2 0.0000000000000000e+00 1.8471167162183658e+01 5.4621344800809428e+00 0 0 0
252 2 1.2305000000000001e+00 1.9181596668421495e+01 5.4621344800809428e+00 0 0 0
254 2 2.4610000000000003e+00 1.8471167162183658e+01 5.4621344800809428e+00 0 0 0
299 2 3.6914999999999996e+00 1.9181596668421495e+01 5.4621344800809428e+00 0 0 0
506 2 0.0000000000000000e+00 1.7050308149707998e+01 8.7195331676215915e+00 0 0 0
529 2 2.4610000000000003e+00 1.7050308149707998e+01 8.7195331676215915e+00 0 0 0
505 2 0.0000000000000000e+00 1.9892026174659328e+01 8.7195331676215915e+00 0 0 0
507 2 1.2305000000000001e+00 1.7760737655945832e+01 8.7195331676215915e+00 0 0 0
527 2 1.2305000000000001e+00 1.9181596668421495e+01 8.7195331676215915e+00 0 0 0
528 2 2.4610000000000003e+00 1.9892026174659328e+01 8.7195331676215915e+00 0 0 0
530 2 3.6914999999999996e+00 1.7760737655945832e+01 8.7195331676215915e+00 0 0 0
551 2 3.6914999999999996e+00 1.9181596668421495e+01 8.7195331676215915e+00 0 0 0
303 2 4.9220000000000006e+00 1.7050308149707998e+01 5.4621344800809428e+00 0 0 0
305 2 6.1524999999999999e+00 1.6339878643470165e+01 5.4621344800809428e+00 0 0 0
350 2 7.3830000000000009e+00 1.7050308149707998e+01 5.4621344800809428e+00 0 0 0
352 2 8.6134999999999984e+00 1.6339878643470165e+01 5.4621344800809428e+00 0 0 0
301 2 4.9220000000000006e+00 1.8471167162183658e+01 5.4621344800809428e+00 0 0 0