LAMMPS data file via write_data, version 16 Mar 2018, timestep = 100000

5031 atoms
2 atom types

0.0000000000000000e+00 4.9219999999999999e+01 xlo xhi
0.0000000000000000e+00 4.9019635930410494e+01 ylo yhi
9.7249590349989035e-01 3.9027504096502057e+01 zlo zhi

Masses

1 18.015
2 12.01

Atoms # atomic

140 2 0.0000000000000000e+00 2.8417180249513345e+00 3.0094673018913931e+00 0 0 0
142 2 0.0000000000000000e+00 0.0000000000000000e+00 3.0094673018913931e+00 0 0 0
144 2 1.2305000000000001e+00 7.1042950623783474e-01 3.0094673018913931e+00 0 0 0
151 2 1.2305000000000001e+00 2.1312885187134998e+00 3.0094673018913931e+00 0 0 0
153 2 2.4610000000000003e+00 2.8417180249513345e+00 3.0094673018913931e+00 0 0 0
155 2 2.4610000000000003e+00 0.0000000000000000e+00 3.0094673018913931e+00 0 0 0
157 2 3.6915000000000004e+00 7.1042950623783474e-01 3.0094673018913931e+00 0 0 0
172 2 3.6914999999999996e+00 2.1312885187134998e+00 3.0094673018913931e+00 0 0 0
174 2 4.9220000000000006e+00 2.8417180249513332e+00 3.0094673018913931e+00 0 0 0
176 2 4.9220000000000006e+00 0.0000000000000000e+00 3.0094673018913931e+00 0 0 0
178 2 6.1524999999999999e+00 7.1042950623783407e-01 3.0094673018913931e+00 0 0 0
201 2 6.1524999999999999e+00 2.1312885187134989e+00 3.0094673018913931e+00 0 0 0
203 2 7.3829999999999991e+00 2.8417180249513345e+00 3.0094673018913931e+00 0 0 0
205 2 7.3829999999999991e+00 0.0000000000000000e+00 3.0094673018913931e+00 0 0 0
207 2 8.6134999999999984e+00 7.1042950623783407e-01 3.0094673018913931e+00 0 0 0
238 2 8.6134999999999984e+00 2.1312885187135002e+00 3.0094673018913931e+00 0 0 0
147 2 0.0000000000000000e+00 4.2625770374269996e+00 3.0094673018913931e+00 0 0 0
149 2 1.2305000000000001e+00 4.9730065436648339e+00 3.0094673018913931e+00 0 0 0
164 2 1.2305000000000001e+00 6.3938655561404980e+00 3.0094673018913931e+00 0 0 0
168 2 2.4610000000000003e+00 4.2625770374269996e+00 3.0094673018913931e+00 0 0 0
170 2 3.6914999999999996e+00 4.9730065436648339e+00 3.0094673018913931e+00 0 0 0
193 2 3.6914999999999996e+00 6.3938655561404980e+00 3.0094673018913931e+00 0 0 0
145 2 0.0000000000000000e+00 7.1042950623783341e+00 3.0094673018913931e+00 0 0 0
166 2 2.4610000000000003e+00 7.1042950623783341e+00 3.0094673018913931e+00 0 0 0
197 2 4.9220000000000006e+00 4.2625770374269978e+00 3.0094673018913931e+00 0 0 0
199 2 6.1524999999999999e+00 4.9730065436648339e+00 3.0094673018913931e+00 0 0 0
230 2 6.1524999999999999e+00 6.3938655561404980e+00 3.0094673018913931e+00 0 0 0
234 2 7.3829999999999991e+00 4.2625770374269996e+00 3.0094673018913931e+00 0 0 0
236 2 8.6135000000000002e+00 4.9730065436648339e+00 3.0094673018913931e+00 0 0 0
275 2 8.6135000000000002e+00 6.3938655561404980e+00 3.0094673018913931e+00 0 0 0
195 2 4.9220000000000006e+00 7.1042950623783341e+00 3.0094673018913931e+00 0 0 0
232 2 7.3830000000000009e+00 7.1042950623783341e+00 3.0094673018913931e+00 0 0 0
160 2 0.0000000000000000e+00 8.5251540748539991e+00 3.0094673018913931e+00 0 0 0
162 2 1.2305000000000001e+00 9.2355835810918343e+00 3.0094673018913931e+00 0 0 0
189 2 2.4610000000000003e+00 8.5251540748539991e+00 3.0094673018913931e+00 0 0 0
191 2 3.6915000000000004e+00 9.2355835810918343e+00 3.0094673018913931e+00 0 0 0
158 2 0.0000000000000000e+00 1.1366872099805333e+01 3.0094673018913931e+00 0 0 0
185 2 1.2305000000000001e+00 1.0656442593567498e+01 3.0094673018913931e+00 0 0 0
187 2 2.4610000000000003e+00 1.1366872099805333e+01 3.0094673018913931e+00 0 0 0
222 2 3.6914999999999996e+00 1.0656442593567499e+01 3.0094673018913931e+00 0 0 0
226 2 4.9220000000000006e+00 8.5251540748539991e+00 3.0094673018913931e+00 0 0 0
228 2 6.1524999999999999e+00 9.2355835810918343e+00 3.0094673018913931e+00 0 0 0
271 2 7.3830000000000009e+00 8.5251540748539991e+00 3.0094673018913931e+00 0 0 0
273 2 8.6134999999999984e+00 9.2355835810918343e+00 3.0094673018913931e+00 0 0 0
224 2 4.9220000000000006e+00 1.1366872099805333e+01 3.0094673018913931e+00 0 0 0
267 2 6.1524999999999999e+00 1.0656442593567499e+01 3.0094673018913931e+00 0 0 0
269 2 7.3829999999999991e+00 1.1366872099805333e+01 3.0094673018913931e+00 0 0 0
314 2 8.6134999999999984e+00 1.0656442593567498e+01 3.0094673018913931e+00 0 0 0
141 2 0.0000000000000000e+00 1.4208590124756650e+00 6.1195609912139020e+00 0 0 0
143 2 0.0000000000000000e+00 0.0000000000000000e+00 6.1195609912139020e+00 0 0 0
152 2 1.2305000000000001e+00 2.1312885187134998e+00 6.1195609912139020e+00 0 0 0
154 2 2.4610000000000003e+00 1.4208590124756650e+00 6.1195609912139020e+00 0 0 0
156 2 2.4610000000000003e+00 0.0000000000000000e+00 6.1195609912139020e+00 0 0 0
173 2 3.6914999999999996e+00 2.1312885187134998e+00 6.1195609912139020e+00 0 0 0
150 2 1.2305000000000001e+00 3.5521475311891644e+00 6.1195609912139020e+00 0 0 0
171 2 3.6914999999999996e+00 3.5521475311891644e+00 6.1195609912139020e+00 0 0 0
469 2 0.0000000000000000e+00 2.8417180249513345e+00 9.2296546805361910e+00 0 0 0
470 2 0.0000000000000000e+00 0.0000000000000000e+00 9.2296546805361910e+00 0 0 0
471 2 1.2305000000000001e+00 7.1042950623783474e-01 9.2296546805361910e+00 0 0 0
475 2 1.2305000000000001e+00 2.1312885187134998e+00 9.2296546805361910e+00 0 0 0
476 2 2.4610000000000003e+00 2.8417180249513345e+00 9.2296546805361910e+00 0 0 0
477 2 2.4610000000000003e+00 0.0000000000000000e+00 9.2296546805361910e+00 0 0 0
478 2 3.6915000000000004e+00 7.1042950623783474e-01 9.2296546805361910e+00 0 0 0
486 2 3.6914999999999996e+00 2.1312885187134998e+00 9.2296546805361910e+00 0 0 0
175 2 4.9220000000000006e+00 1.4208590124756650e+00 6.1195609912139020e+00 0 0 0
177 2 4.9220000000000006e+00 0.0000000000000000e+00 6.1195609912139020e+00 0 0 0
202 2 6.1524999999999999e+00 2.1312885187134989e+00 6.1195609912139020e+00 0 0 0
204 2 7.3829999999999991e+00 1.4208590124756659e+00 6.1195609912139020e+00 0 0 0
206 2 7.3829999999999991e+00 0.0000000000000000e+00 6.1195609912139020e+00 0 0 0
239 2 8.6134999999999984e+00 2.1312885187135002e+00 6.1195609912139020e+00 0 0 0
200 2 6.1524999999999999e+00 3.5521475311891644e+00 6.1195609912139020e+00 0 0 0
237 2 8.6134999999999984e+00 3.5521475311891657e+00 6.1195609912139020e+00 0 0 0
487 2 4.9220000000000006e+00 2.8417180249513332e+00 9.2296546805361910e+00 0 0 0
488 2 4.9220000000000006e+00 0.0000000000000000e+00 9.2296546805361910e+00 0 0 0
489 2 6.1524999999999999e+00 7.1042950623783407e-01 9.2296546805361910e+00 0 0 0
501 2 6.1524999999999999e+00 2.1312885187134989e+00 9.2296546805361910e+00 0 0 0
502 2 7.3829999999999991e+00 2.8417180249513345e+00 9.2296546805361910e+00 0 0 0
503 2 7.3829999999999991e+00 0.0000000000000000e+00 9.2296546805361910e+00 0 0 0
504 2 8.6134999999999984e+00 7.1042950623783407e-01 9.2296546805361910e+00 0 0 0
520 2 8.6134999999999984e+00 2.1312885187135002e+00 9.2296546805361910e+00 0 0 0
146 2 0.0000000000000000e+00 5.6834360499026637e+00 6.1195609912139020e+00 0 0 0
148 2 0.0000000000000000e+00 4.2625770374269996e+00 6.1195609912139020e+00 0 0 0
165 2 1.2305000000000001e+00 6.3938655561404980e+00 6.1195609912139020e+00 0 0 0
167 2 2.4610000000000003e+00 5.6834360499026637e+00 6.1195609912139020e+00 0 0 0
169 2 2.4610000000000003e+00 4.2625770374269996e+00 6.1195609912139020e+00 0 0 0
194 2 3.6914999999999996e+00 6.3938655561404980e+00 6.1195609912139020e+00 0 0 0
163 2 1.2305000000000001e+00 7.8147245686161639e+00 6.1195609912139020e+00 0 0 0
192 2 3.6914999999999996e+00 7.8147245686161639e+00 6.1195609912139020e+00 0 0 0
473 2 0.0000000000000000e+00 4.2625770374269996e+00 9.2296546805361910e+00 0 0 0
474 2 1.2305000000000001e+00 4.9730065436648339e+00 9.2296546805361910e+00 0 0 0
482 2 1.2305000000000001e+00 6.3938655561404980e+00 9.2296546805361910e+00 0 0 0
484 2 2.4610000000000003e+00 4.2625770374269996e+00 9.2296546805361910e+00 0 0 0
485 2 3.6914999999999996e+00 4.9730065436648339e+00 9.2296546805361910e+00 0 0 0
497 2 3.6914999999999996e+00 6.3938655561404980e+00 9.2296546805361910e+00 0 0 0
472 2 0.0000000000000000e+00 7.1042950623783341e+00 9.2296546805361910e+00 0 0 0
483 2 2.4610000000000003e+00 7.1042950623783341e+00 9.2296546805361910e+00 0 0 0
196 2 4.9220000000000006e+00 5.6834360499026637e+00 6.1195609912139020e+00 0 0 0
198 2 4.9220000000000006e+00 4.2625770374269978e+00 6.1195609912139020e+00 0 0 0
231 2 6.1524999999999999e+00 6.3938655561404980e+00 6.1195609912139020e+00 0 0 0
233 2 7.3829999999999991e+00 5.6834360499026637e+00 6.1195609912139020e+00 0 0 0
235 2 7.3829999999999991e+00 4.2625770374269996e+00 6.1195609912139020e+00 0 0 0
276 2 8.6135000000000002e+00 6.3938655561404980e+00 6.1195609912139020e+00 0 0 0
229 2 6.1524999999999999e+00 7.8147245686161639e+00 6.1195609912139020e+00 0 0 0
274 2 8.6135000000000002e+00 7.8147245686161639e+00 6.1195609912139020e+00 0 0 0
499 2 4.9220000000000006e+00 4.2625770374269978e+00 9.2296546805361910e+00 0 0 0
500 2 6.1524999999999999e+00 4.9730065436648339e+00 9.2296546805361910e+00 0 0 0
516 2 6.1524999999999999e+00 6.3938655561404980e+00 9.2296546805361910e+00 0 0 0
518 2 7.3829999999999991e+00 4.2625770374269996e+00 9.2296546805361910e+00 0 0 0
519 2 8.6135000000000002e+00 4.9730065436648339e+00 9.2296546805361910e+00 0 0 0
539 2 8.6135000000000002e+00 6.3938655561404980e+00 9.2296546805361910e+00 0 0 0
498 2 4.9220000000000006e+00 7.1042950623783341e+00 9.2296546805361910e+00 0 0 0
517 2 7.3830000000000009e+00 7.1042950623783341e+00 9.2296546805361910e+00 0 0 0
159 2 0.0000000000000000e+00 9.9460130873296642e+00 6.1195609912139020e+00 0 0 0
161 2 0.0000000000000000e+00 8.5251540748539991e+00 6.1195609912139020e+00 0 0 0
188 2 2.4610000000000003e+00 9.9460130873296642e+00 6.1195609912139020e+00 0 0 0
190 2 2.4610000000000003e+00 8.5251540748539991e+00 6.1195609912139020e+00 0 0 0
184 2 1.2305000000000001e+00 1.2077301606043163e+01 6.1195609912139020e+00 0 0 0
186 2 1.2305000000000001e+00 1.0656442593567498e+01 6.1195609912139020e+00 0 0 0
221 2 3.6914999999999996e+00 1.2077301606043163e+01 6.1195609912139020e+00 0 0 0
223 2 3.6914999999999996e+00 1.0656442593567499e+01 6.1195609912139020e+00 0 0 0
480 2 0.0000000000000000e+00 8.5251540748539991e+00 9.2296546805361910e+00 0 0 0
481 2 1.2305000000000001e+00 9.2355835810918343e+00 9.2296546805361910e+00 0 0 0
495 2 2.4610000000000003e+00 8.5251540748539991e+00 9.2296546805361910e+00 0 0 0
496 2 3.6915000000000004e+00 9.2355835810918343e+00 9.2296546805361910e+00 0 0 0
479 2 0.0000000000000000e+00 1.1366872099805333e+01 9.2296546805361910e+00 0 0 0
493 2 1.2305000000000001e+00 1.0656442593567498e+01 9.2296546805361910e+00 0 0 0
494 2 2.4610000000000003e+00 1.1366872099805333e+01 9.2296546805361910e+00 0 0 0
512 2 3.6914999999999996e+00 1.0656442593567499e+01 9.2296546805361910e+00 0 0 0
536 2 7.3829999999999991e+00 1.1366872099805333e+01 9.2296546805361910e+00 0 0 0
559 2 8.6134999999999984e+00 1.0656442593567498e+01 9.2296546805361910e+00 0 0 0
225 2 4.9220000000000006e+00 9.9460130873296642e+00 6.1195609912139020e+00 0 0 0
227 2 4.9220000000000006e+00 8.5251540748539991e+00 6.1195609912139020e+00 0 0 0
270 2 7.3830000000000009e+00 9.9460130873296642e+00 6.1195609912139020e+00 0 0 0
272 2 7.3830000000000009e+00 8.5251540748539991e+00 6.1195609912139020e+00 0 0 0
266 2 6.1524999999999999e+00 1.2077301606043163e+01 6.1195609912139020e+00 0 0 0
268 2 6.1524999999999999e+00 1.0656442593567499e+01 6.1195609912139020e+00 0 0 0
313 2 8.6135000000000002e+00 1.2077301606043163e+01 6.1195609912139020e+00 0 0 0
315 2 8.6134999999999984e+00 1.0656442593567498e+01 6.1195609912139020e+00 0 0 0
514 2 4.9220000000000006e+00 8.5251540748539991e+00 9.2296546805361910e+00 0 0 0
515 2 6.1524999999999999e+00 9.2355835810918343e+00 9.2296546805361910e+00 0 0 0
537 2 7.3830000000000009e+00 8.5251540748539991e+00 9.2296546805361910e+00 0 0 0
538 2 8.6134999999999984e+00 9.2355835810918343e+00 9.2296546805361910e+00 0 0 0
513 2 4.9220000000000006e+00 1.1366872099805333e+01 9.2296546805361910e+00 0 0 0
535 2 6.1524999999999999e+00 1.0656442593567499e+01 9.2296546805361910e+00 0 0 0
2686 1 3.1928918127653696e+00 3.6235594967294702e+00 1.4491033567675839e+01 -1 1 0
1733 1 3.9645299528468740e+00 4.3733824189598307e+00 1.1921016665474744e+01 0 0 0
2331 1 1.6723284920584280e+00 2.0337483017049034e+00 1.1665594519846467e+01 0 1 0
4320 1 4.2709496094906525e+00 6.9879095069660169e-01 1.2086504062762840e+01 0 1 -1
3217 1 6.3972000372151063e+00 2.5673778562781115e+00 1.1825965618018438e+01 1 1 0
3970 1 7.5519967128126790e+00 1.0827965325941914e+01 1.6270197711330248e+01 1 0 0
37 1 7.1732912782518810e+00 3.2477099938700906e+00 1.4867715426871912e+01 0 1 -1
5015 1 3.6040045302611396e+00 8.9165147675305245e-01 1.4821258269569649e+01 0 0 0
1807 1 7.9098193691762457e+00 6.3971128257018062e-01 1.5102902563212723e+01 0 1 0
984 1 3.6742360165651653e+00 6.9255967435567323e+00 1.2131364963849997e+01 1 0 0
4986 1 4.8265350477521247e+00 7.4501850687766620e+00 1.4559076435625979e+01 1 0 0
4102 1 7.3061676952872219e+00 5.4265502233592358e+00 1.2401768008093971e+01 0 0 0
941 1 7.7331767629077266e+00 7.3053243897694049e+00 1.4886339433374385e+01 1 1 1
2599 1 6.4499460124523234e+00 8.1038510846107119e+00 1.1430788107943755e+01 0 0 0
81 1 5.3103770453805037e+00 1.0116941310507476e+01 1.4750876785908941e+01 0 1 0
3500 1 8.9152825108076641e+00 9.2132371164990889e+00 1.2170745861716016e+01 1 0 -1
3994 1 2.2550280516128205e+00 1.0591103235562185e+01 1.7297188495090634e+01 0 0 0
4270 1 8.9213064124446462e-01 7.0998123125811139e+00 1.1603759991780320e+01 0 0 0
3472 1 2.8906999456197680e+00 2.1931472410028543e+00 1.8756673714587286e+01 1 2 0
1700 1 4.7803108330792288e+00 4.4774929078558143e+00 1.8568197151041446e+01 1 1 0
2403 1 8.0247005006737009e+00 4.3131642497617634e-01 1.2008621982200344e+01 0 2 0
4812 1 9.2224540918413944e-01 2.6237740224292470e+00 1.6860280467614725e+01 1 0 0
4865 1 5.2899711689988163e+00 4.8464263861359642e+00 1.5946960433370018e+01 0 0 -1
3359 1 3.1129636370349694e+00 8.0162227309396599e+00 1.6567323703009315e+01 0 0 -1
4187 1 4.0713348738154389e+00 7.0448172459280407e+00 1.8960850813676252e+01 0 0 0
3244 1 7.4161658444094334e+00 5.2184989162469595e+00 1.9254778529730547e+01 0 1 0
3405 1 8.7218637028288768e+00 5.2993810996548154e+00 1.6575500806874828e+01 1 2 0
4016 1 4.6130501838767115e+00 1.4834360134919788e-01 1.8746895090434865e+01 1 1 0
5026 1 8.1763504284361765e+00 8.5557173715065975e+00 1.7481056032250173e+01 0 0 0
2405 1 3.0509420485477051e-01 4.4859767818521812e+00 1.4801757877377447e+01 1 2 1
1656 1 5.8226647950174968e+00 1.1095718568332245e+01 1.2137436463764558e+01 0 0 -1
1636 1 8.3758137314405019e+00 1.2152291815638559e+01 1.2048990097351108e+01 1 1 0
985 1 5.8614925655489625e-01 7.0697629421534698e+00 1.5955458604491534e+01 0 0 1
4815 1 6.5316755022716029e+00 8.0535249302757208e+00 1.9620581872102850e+01 0 1 0
4990 1 9.4004991219998377e+00 1.1921306605804933e+01 1.4626693716714081e+01 1 1 -1
3415 1 4.6986738620866095e+00 1.3534288631743672e+00 2.2279632878162420e+01 1 0 0
1725 1 1.3205112502366330e+00 3.6326030154652615e+00 2.4209181253171938e+01 1 0 0
2395 1 2.4220437685537668e+00 2.5630749950906808e+00 2.1355263784667482e+01 0 0 -1
4969 1 6.7228741957376208e+00 6.0987183972071546e-01 2.0144689587231920e+01 -1 1 0
1748 1 2.2315271692711711e+00 8.0874623913693922e-01 2.4300222439308886e+01 0 0 1
4131 1 5.3639346888662338e+00 1.1098754680703866e+01 2.5572556477370973e+01 1 1 0
4934 1 8.4192057530396447e+00 3.1000512724944969e+00 2.6254086243393164e+01 1 0 0
4829 1 8.8863546382337262e+00 8.5690370857554239e+00 2.5826770285802692e+01 1 0 -1
3477 1 7.9488769947999627e+00 3.3769282743564157e+00 2.1218506684755464e+01 1 1 0
2413 1 3.1343103911284356e+00 5.3619382065912893e+00 2.3331074237907345e+01 1 2 0
30 1 2.2338821337172128e+00 6.8541671776271889e+00 2.1030515127850194e+01 0 0 0
3287 1 5.7513045413993993e+00 3.8360586617461698e+00 2.3354661476407859e+01 0 1 0
1509 1 9.1346417417768055e+00 4.0667369996561105e+00 2.3701824328076754e+01 0 1 -1
3139 1 7.9109865825237975e+00 6.4254900452533059e+00 2.4341600416699784e+01 -1 1 0
4225 1 4.8545872865615740e+00 9.1285196384067664e+00 2.3643330115102785e+01 0 0 -1
3419 1 2.5206806631846899e+00 9.4098426698938766e+00 2.2226236493806176e+01 0 1 0
1677 1 8.5959540839241448e+00 1.0911349910652664e+01 2.2424974415790306e+01 1 1 0
1704 1 7.0979221842804892e+00 8.3971750286880340e+00 2.2077730939043843e+01 -1 0 -1
3248 1 7.6521149897685943e+00 1.0722268744887845e+01 2.6778119510487848e+01 0 1 0
3473 1 3.9099212278831827e+00 7.1734326192936564e+00 2.5400394272916255e+01 1 0 0
3155 1 3.0457527009534719e+00 2.5620829647338406e+00 2.7630502043402121e+01 0 1 0
3378 1 2.3706284430422637e+00 1.1557980315288887e+01 2.0390035234320983e+01 -1 1 -1
2556 1 5.4841556450513496e+00 3.2216655174851887e+00 2.6270881116112019e+01 0 1 -1
4103 1 1.0524216377244633e+00 4.2618145580383100e+00 2.6756396762535662e+01 1 1 0
4120 1 5.4451883896636017e+00 6.3012839989434832e-01 2.5118023912976852e+01 0 1 0
4811 1 2.0789062424404916e+00 6.8896396542562330e+00 2.7328851420855344e+01 0 1 0
811 1 8.6254470183444116e+00 4.0835401602663683e+00 2.8813854348801097e+01 0 1 -1
4156 1 7.4145629151703041e+00 6.5797407769216720e+00 2.8503458679777218e+01 1 0 0
1754 1 6.0741514338672555e+00 5.9386018636842044e+00 2.6153551341731067e+01 1 0 0
2368 1 3.1887513865878209e-01 9.3501485334017307e+00 2.4031067999256162e+01 1 0 0
2644 1 8.3218457292636376e+00 1.1478089547058303e+00 2.9100536794332555e+01 0 1 0
3404 1 8.8800098005441850e+00 4.8731513931090797e-01 2.5842590893163170e+01 0 0 0
4004 1 6.4398828876118763e+00 1.0848157503621783e+01 2.9248987372983645e+01 0 0 0
43 1 6.3746699128337729e+00 1.7721549252196775e+00 3.7906357527670146e+01 -1 1 0
3495 1 5.5474753114574931e+00 9.1108304791617911e+00 3.8365731215143839e+01 1 0 0
4192 1 4.5249235086740409e+00 5.6421178671134442e-01 3.1463698326788005e+01 0 0 -1
934 1 8.5623265133071733e+00 3.7829447196021944e+00 3.1525587482004532e+01 1 1 1
126 1 7.1370205063147960e+00 1.2040658114323801e+00 3.1892662669468940e+01 0 2 -1
3245 1 3.9994055206568699e+00 5.1668312133339160e+00 3.1045080288761181e+01 0 0 0
4317 1 6.0585241232401765e-01 5.9673416959852030e+00 3.1697161610377833e+01 1 0 0
914 1 9.0332857518001131e-01 9.8623883476272685e+00 3.0480207001043922e+01 0 1 -1
4779 1 6.5724333128523726e+00 5.5547348206839997e+00 3.2381582644436705e+01 -1 1 0
3275 1 6.3908253568211899e+00 5.1096959734033254e+00 3.5106477570101340e+01 0 0 -1
2451 1 2.9389592600378491e+00 1.0534063327450614e+01 3.8765149541248036e+01 1 0 0
858 1 4.7998284418256167e+00 9.3883235059403916e+00 3.1222465476252875e+01 0 0 -1
3344 1 1.5357217675966190e+00 1.1098229964513835e+00 3.7872668566024942e+01 0 1 -1
3202 1 1.7023405359261998e+00 1.1322400125653338e+01 3.5994584814188563e+01 0 -1 0
2462 1 3.6134579559439781e+00 2.5784928866804675e+00 3.5046191892857266e+01 0 1 -1
2578 1 7.9433691987171464e+00 8.9908348153203530e+00 3.4417029064009625e+01 0 1 0
4918 1 5.6424234391634274e+00 9.7164797122816662e+00 3.5600303015521604e+01 0 1 0
5008 1 4.2745728948344963e+00 8.6493798453602171e+00 3.3753547570800130e+01 0 1 -1
803 1 8.7520943547451164e+00 9.7374655647204360e+00 3.7409014139567986e+01 0 -1 0
1652 1 2.7549975777056495e+00 2.5870421175789531e+00 3.0460344855035270e+01 0 0 0
642 1 3.7384229492624281e+00 2.8313259824783845e+00 3.7769706100491973e+01 0 0 1
1824 1 7.2982107555417377e+00 8.0591527883619758e+00 3.1628501609233862e+01 1 0 0
1685 1 9.9518543165625450e-01 4.4871704622243502e+00 3.4129676046594206e+01 1 0 0
1548 1 4.4079880281205241e+00 3.5074419291945130e-02 3.4477697114627610e+01 0 1 0
4925 1 9.3086081818707314e+00 1.7977391626875361e+00 3.6173723632923526e+01 1 1 0
4086 1 4.2366936442148612e-01 1.6167544873532611e+00 3.1838860886291471e+01 -1 0 0
1629 1 8.0892159381212885e+00 3.8794543946194158e+00 3.8632549971800948e+01 1 1 0
4098 1 7.3054889486672341e+00 1.1752066522645585e+01 3.8778301939419357e+01 1 0 0
2511 1 3.4345064609550149e+00 5.8469635319568294e+00 3.5255264844390240e+01 0 1 -1
116 1 8.5810503593795784e-01 1.5562144042931587e+00 3.4897975574606946e+01 -1 0 0
2607 1 1.6800399567048370e+00 8.7105177592455476e+00 3.4958086596522698e+01 0 1 0
1644 1 1.7445477054801937e+00 7.9663508142156001e+00 3.7887271255453882e+01 0 1 0
1481 1 8.4108018429113773e+00 1.1844903478725653e+01 3.3585222573158610e+01 -1 0 -1
2584 1 8.6704798859221359e+00 6.4509624900329507e+00 3.6006394824994395e+01 0 0 0
4988 1 6.2893819536274940e+00 6.3430547299693147e+00 3.8332662028890205e+01 0 -1 0
2517 1 3.4926482049722170e+00 5.6955686208233018e+00 3.8014856854572962e+01 1 1 0
4185 1 6.8278469150172771e+00 2.1993744310300918e+00 3.4849114659482552e+01 0 0 -1
118 1 2.7238139810463662e+00 7.3971110230191703e+00 3.0212811016015454e+01 1 0 0
181 2 0.0000000000000000e+00 1.2787731112280996e+01 3.0094673018913931e+00 0 0 0
183 2 1.2305000000000001e+00 1.3498160618518829e+01 3.0094673018913931e+00 0 0 0
218 2 2.4610000000000003e+00 1.2787731112280996e+01 3.0094673018913931e+00 0 0 0
220 2 3.6915000000000004e+00 1.3498160618518829e+01 3.0094673018913931e+00 0 0 0
179 2 0.0000000000000000e+00 1.5629449137232333e+01 3.0094673018913931e+00 0 0 0
214 2 1.2305000000000001e+00 1.4919019630994494e+01 3.0094673018913931e+00 0 0 0
216 2 2.4610000000000003e+00 1.5629449137232328e+01 3.0094673018913931e+00 0 0 0
259 2 3.6915000000000004e+00 1.4919019630994494e+01 3.0094673018913931e+00 0 0 0
263 2 4.9220000000000006e+00 1.2787731112280996e+01 3.0094673018913931e+00 0 0 0
265 2 6.1524999999999990e+00 1.3498160618518829e+01 3.0094673018913931e+00 0 0 0
310 2 7.3829999999999991e+00 1.2787731112280996e+01 3.0094673018913931e+00 0 0 0
312 2 8.6135000000000002e+00 1.3498160618518835e+01 3.0094673018913931e+00 0 0 0
261 2 4.9220000000000006e+00 1.5629449137232333e+01 3.0094673018913931e+00 0 0 0
306 2 6.1524999999999990e+00 1.4919019630994494e+01 3.0094673018913931e+00 0 0 0
308 2 7.3829999999999991e+00 1.5629449137232333e+01 3.0094673018913931e+00 0 0 0
353 2 8.6135000000000002e+00 1.4919019630994494e+01 3.0094673018913931e+00 0 0 0
210 2 0.0000000000000000e+00 1.7050308149707998e+01 3.0094673018913931e+00 0 0 0
255 2 2.4610000000000003e+00 1.7050308149707998e+01 3.0094673018913931e+00 0 0 0
208 2 0.0000000000000000e+00 1.9892026174659328e+01 3.0094673018913931e+00 0 0 0
212 2 1.2305000000000001e+00 1.7760737655945832e+01 3.0094673018913931e+00 0 0 0
251 2 1.2305000000000001e+00 1.9181596668421495e+01 3.0094673018913931e+00 0 0 0
253 2 2.4610000000000003e+00 1.9892026174659328e+01 3.0094673018913931e+00 0 0 0
257 2 3.6914999999999996e+00 1.7760737655945832e+01 3.0094673018913931e+00 0 0 0
298 2 3.6914999999999996e+00 1.9181596668421495e+01 3.0094673018913931e+00 0 0 0
302 2 4.9220000000000006e+00 1.7050308149707998e+01 3.0094673018913931e+00 0 0 0
349 2 7.3830000000000009e+00 1.7050308149707998e+01 3.0094673018913931e+00 0 0 0
300 2 4.9220000000000006e+00 1.9892026174659328e+01 3.0094673018913931e+00 0 0 0
304 2 6.1524999999999999e+00 1.7760737655945832e+01 3.0094673018913931e+00 0 0 0
345 2 6.1524999999999999e+00 1.9181596668421495e+01 3.0094673018913931e+00 0 0 0
347 2 7.3829999999999991e+00 1.9892026174659328e+01 3.0094673018913931e+00 0 0 0
351 2 8.6134999999999984e+00 1.7760737655945832e+01 3.0094673018913931e+00 0 0 0
387 2 8.6135000000000002e+00 1.9181596668421495e+01 3.0094673018913931e+00 0 0 0
245 2 0.0000000000000000e+00 2.4154603212086325e+01 3.0094673018913931e+00 0 0 0
247 2 0.0000000000000000e+00 2.1312885187134999e+01 3.0094673018913931e+00 0 0 0
249 2 1.2304999999999993e+00 2.2023314693372832e+01 3.0094673018913931e+00 0 0 0
290 2 1.2304999999999993e+00 2.3444173705848499e+01 3.0094673018913931e+00 0 0 0
292 2 2.4610000000000003e+00 2.4154603212086325e+01 3.0094673018913931e+00 0 0 0
294 2 2.4610000000000003e+00 2.1312885187134995e+01 3.0094673018913931e+00 0 0 0
296 2 3.6914999999999996e+00 2.2023314693372832e+01 3.0094673018913931e+00 0 0 0
337 2 3.6915000000000004e+00 2.3444173705848499e+01 3.0094673018913931e+00 0 0 0
339 2 4.9220000000000006e+00 2.4154603212086325e+01 3.0094673018913931e+00 0 0 0
341 2 4.9220000000000006e+00 2.1312885187134995e+01 3.0094673018913931e+00 0 0 0
343 2 6.1524999999999990e+00 2.2023314693372832e+01 3.0094673018913931e+00 0 0 0
379 2 6.1524999999999999e+00 2.3444173705848499e+01 3.0094673018913931e+00 0 0 0
381 2 7.3830000000000009e+00 2.4154603212086336e+01 3.0094673018913931e+00 0 0 0
383 2 7.3829999999999991e+00 2.1312885187134999e+01 3.0094673018913931e+00 0 0 0
385 2 8.6135000000000002e+00 2.2023314693372832e+01 3.0094673018913931e+00 0 0 0
413 2 8.6134999999999984e+00 2.3444173705848499e+01 3.0094673018913931e+00 0 0 0
182 2 0.0000000000000000e+00 1.2787731112280996e+01 6.1195609912139020e+00 0 0 0
219 2 2.4610000000000003e+00 1.2787731112280996e+01 6.1195609912139020e+00 0 0 0
180 2 0.0000000000000000e+00 1.4208590124756663e+01 6.1195609912139020e+00 0 0 0
215 2 1.2305000000000001e+00 1.4919019630994494e+01 6.1195609912139020e+00 0 0 0
217 2 2.4610000000000003e+00 1.4208590124756663e+01 6.1195609912139020e+00 0 0 0
260 2 3.6915000000000004e+00 1.4919019630994494e+01 6.1195609912139020e+00 0 0 0
491 2 0.0000000000000000e+00 1.2787731112280996e+01 9.2296546805361910e+00 0 0 0
492 2 1.2305000000000001e+00 1.3498160618518829e+01 9.2296546805361910e+00 0 0 0
510 2 2.4610000000000003e+00 1.2787731112280996e+01 9.2296546805361910e+00 0 0 0
511 2 3.6915000000000004e+00 1.3498160618518829e+01 9.2296546805361910e+00 0 0 0
490 2 0.0000000000000000e+00 1.5629449137232333e+01 9.2296546805361910e+00 0 0 0
508 2 1.2305000000000001e+00 1.4919019630994494e+01 9.2296546805361910e+00 0 0 0
509 2 2.4610000000000003e+00 1.5629449137232328e+01 9.2296546805361910e+00 0 0 0
531 2 3.6915000000000004e+00 1.4919019630994494e+01 9.2296546805361910e+00 0 0 0
264 2 4.9220000000000006e+00 1.2787731112280996e+01 6.1195609912139020e+00 0 0 0
311 2 7.3829999999999991e+00 1.2787731112280996e+01 6.1195609912139020e+00 0 0 0
262 2 4.9220000000000006e+00 1.4208590124756663e+01 6.1195609912139020e+00 0 0 0
307 2 6.1524999999999990e+00 1.4919019630994494e+01 6.1195609912139020e+00 0 0 0
309 2 7.3830000000000009e+00 1.4208590124756663e+01 6.1195609912139020e+00 0 0 0
354 2 8.6135000000000002e+00 1.4919019630994494e+01 6.1195609912139020e+00 0 0 0
533 2 4.9220000000000006e+00 1.2787731112280996e+01 9.2296546805361910e+00 0 0 0
534 2 6.1524999999999990e+00 1.3498160618518829e+01 9.2296546805361910e+00 0 0 0
557 2 7.3829999999999991e+00 1.2787731112280996e+01 9.2296546805361910e+00 0 0 0
558 2 8.6135000000000002e+00 1.3498160618518835e+01 9.2296546805361910e+00 0 0 0
532 2 4.9220000000000006e+00 1.5629449137232333e+01 9.2296546805361910e+00 0 0 0
555 2 6.1524999999999990e+00 1.4919019630994494e+01 9.2296546805361910e+00 0 0 0
556 2 7.3829999999999991e+00 1.5629449137232333e+01 9.2296546805361910e+00 0 0 0
579 2 8.6135000000000002e+00 1.4919019630994494e+01 9.2296546805361910e+00 0 0 0
211 2 0.0000000000000000e+00 1.7050308149707998e+01 6.1195609912139020e+00 0 0 0
213 2 1.2305000000000001e+00 1.6339878643470165e+01 6.1195609912139020e+00 0 0 0
256 2 2.4610000000000003e+00 1.7050308149707998e+01 6.1195609912139020e+00 0 0 0
258 2 3.6915000000000004e+00 1.6339878643470165e+01 6.1195609912139020e+00 0 0 0
209 2 0.0000000000000000e+00 1.8471167162183658e+01 6.1195609912139020e+00 0 0 0
252 2 1.2305000000000001e+00 1.9181596668421495e+01 6.1195609912139020e+00 0 0 0
254 2 2.4610000000000003e+00 1.8471167162183658e+01 6.1195609912139020e+00 0 0 0
299 2 3.6914999999999996e+00 1.9181596668421495e+01 6.1195609912139020e+00 0 0 0
506 2 0.0000000000000000e+00 1.7050308149707998e+01 9.2296546805361910e+00 0 0 0
529 2 2.4610000000000003e+00 1.7050308149707998e+01 9.2296546805361910e+00 0 0 0
505 2 0.0000000000000000e+00 1.9892026174659328e+01 9.2296546805361910e+00 0 0 0
507 2 1.2305000000000001e+00 1.7760737655945832e+01 9.2296546805361910e+00 0 0 0
527 2 1.2305000000000001e+00 1.9181596668421495e+01 9.2296546805361910e+00 0 0 0
528 2 2.4610000000000003e+00 1.9892026174659328e+01 9.2296546805361910e+00 0 0 0
530 2 3.6914999999999996e+00 1.7760737655945832e+01 9.2296546805361910e+00 0 0 0
551 2 3.6914999999999996e+00 1.9181596668421495e+01 9.2296546805361910e+00 0 0 0
303 2 4.9220000000000006e+00 1.7050308149707998e+01 6.1195609912139020e+00 0 0 0
305 2 6.1524999999999999e+00 1.6339878643470165e+01 6.1195609912139020e+00 0 0 0
350 2 7.3830000000000009e+00 1.7050308149707998e+01 6.1195609912139020e+00 0 0 0
352 2 8.6134999999999984e+00 1.6339878643470165e+01 6.1195609912139020e+00 0 0 0
301 2 4.9220000000000006e+00 1.8471167162183658e+01 6.1195609912139020e+00 0 0 0
346 2 6.1524999999999999e+00 1.9181596668421495e+01 6.1195609912139020e+00 0 0 0
348 2 7.3829999999999991e+00 1.8471167162183658e+01 6.1195609912139020e+00 0 0 0
388 2 8.6135000000000002e+00 1.9181596668421495e+01 6.1195609912139020e+00 0 0 0
553 2 4.9220000000000006e+00 1.7050308149707998e+01 9.2296546805361910e+00 0 0 0
577 2 7.3830000000000009e+00 1.7050308149707998e+01 9.2296546805361910e+00 0 0 0
552 2 4.9220000000000006e+00 1.9892026174659328e+01 9.2296546805361910e+00 0 0 0
554 2 6.1524999999999999e+00 1.7760737655945832e+01 9.2296546805361910e+00 0 0 0
575 2 6.1524999999999999e+00 1.9181596668421495e+01 9.2296546805361910e+00 0 0 0
576 2 7.3829999999999991e+00 1.9892026174659328e+01 9.2296546805361910e+00 0 0 0
578 2 8.6134999999999984e+00 1.7760737655945832e+01 9.2296546805361910e+00 0 0 0
596 2 8.6135000000000002e+00 1.9181596668421495e+01 9.2296546805361910e+00 0 0 0
250 2 1.2305000000000001e+00 2.0602455680897162e+01 6.1195609912139020e+00 0 0 0
297 2 3.6915000000000004e+00 2.0602455680897162e+01 6.1195609912139020e+00 0 0 0
246 2 0.0000000000000000e+00 2.2733744199610655e+01 6.1195609912139020e+00 0 0 0
248 2 0.0000000000000000e+00 2.1312885187134999e+01 6.1195609912139020e+00 0 0 0
291 2 1.2304999999999993e+00 2.3444173705848499e+01 6.1195609912139020e+00 0 0 0
293 2 2.4610000000000003e+00 2.2733744199610655e+01 6.1195609912139020e+00 0 0 0
295 2 2.4610000000000003e+00 2.1312885187134995e+01 6.1195609912139020e+00 0 0 0