
# Create simulation box and atoms

read_data data.ML_graphite_m1000atm_250K
  orthogonal box = (0 0 1.04861) to (49.22 49.0196 38.9514)
  5 by 4 by 4 MPI processor grid
  reading atoms ...
  5031 atoms
  reading velocities ...
  5031 velocities
group water type 1
2271 atoms in group water
group graphite type 2
2760 atoms in group graphite

# Define potential

pair_style sw
pair_coeff * * MLC_e.sw mW C


# Fix graphite atoms in place

fix 5 graphite setforce 0.0 0.0 0.0
velocity graphite set 0.0 0.0 0.0


# Equilibration of molecular water

# Add velocity/set timestep

velocity	    water create ${TEMP} ${SEED} rot yes dist gaussian
velocity	    water create 250 ${SEED} rot yes dist gaussian
velocity	    water create 250 19752 rot yes dist gaussian
timestep	    5.0

# Define output

compute			1 water msd
compute			3 water temp
thermo	    	50
thermo_style	custom step temp press vol etotal ke pe c_1[4] c_3

# Neighbor lists

neigh_modify    delay 0 every 1 check yes

# Set fixes

fix             1 water momentum 10 linear 1 1 1 rescale
fix             2 water nve
fix             3 water temp/csvr ${TEMP} ${TEMP} 500.0 ${SEED}
fix             3 water temp/csvr 250 ${TEMP} 500.0 ${SEED}
fix             3 water temp/csvr 250 250 500.0 ${SEED}
fix             3 water temp/csvr 250 250 500.0 19752
fix             4 water press/berendsen z ${PRES} ${PRES} 1000.0 modulus 20000
fix             4 water press/berendsen z -1000 ${PRES} 1000.0 modulus 20000
fix             4 water press/berendsen z -1000 -1000 1000.0 modulus 20000

# Run 0.5 ns equilibration

dump		    1 all atom 2000 ${DIR}/eq.${NAME}-${TEMP}.dump
dump		    1 all atom 2000 run_5/eq.${NAME}-${TEMP}.dump
dump		    1 all atom 2000 run_5/eq.het_freeze_5-${TEMP}.dump
dump		    1 all atom 2000 run_5/eq.het_freeze_5-250.dump

reset_timestep  0

run	            100000
Neighbor list info ...
  update every 1 steps, delay 0 steps, check yes
  max neighbors/atom: 2000, page size: 100000
  master list distance cutoff = 6.67472
  ghost atom cutoff = 6.67472
  binsize = 3.33736, bins = 15 15 12
  1 neighbor lists, perpetual/occasional/extra = 1 0 0
  (1) pair sw, perpetual
      attributes: full, newton on
      pair build: full/bin/atomonly
      stencil: full/bin/3d
      bin: standard
Per MPI rank memory allocation (min/avg/max) = 4.069 | 4.188 | 4.476 Mbytes
Step Temp Press Volume TotEng KinEng PotEng c_1[4] c_3 
       0    112.82306   -1433.2777    91449.793   -21655.009    1691.6097   -23346.618            0          250 
      50    111.46967   -1455.5455    91441.803   -21682.201    1671.3176   -23353.519   0.52888251    247.00107 
     100    112.81057    -1259.539    91390.901   -21669.392    1691.4224   -23360.814   0.86874974    249.97232 
     150       113.62   -1257.5362    91446.622   -21626.567    1703.5586   -23330.126    1.0811496    251.76591 
     200    113.48837   -1506.2623    91419.048   -21629.028     1701.585   -23330.613    1.3245901    251.47423 
     250    111.31685    -1545.392    91366.264    -21701.19    1669.0264   -23370.217     1.523661    246.66245 
     300    111.27998   -1222.0603    91329.289   -21705.637    1668.4735    -23374.11    1.6984896    246.58074 
     350    111.45281   -1422.0396    91272.574   -21713.856    1671.0648   -23384.921     1.845538    246.96371 
     400     113.0362   -1183.1887    91252.598   -21663.858    1694.8054   -23358.663    1.9819385    250.47228 
     450    110.92932   -1193.6922    91290.961   -21693.677    1663.2159   -23356.893    2.1685146    245.80374 
     500     114.7535    -1511.042    91314.091   -21675.711    1720.5537   -23396.265    2.3290163    254.27759 
     550    109.49879    -1428.082    91319.851   -21648.372    1641.7673   -23290.139    2.4867687    242.63388 
     600    113.93863   -1552.6934    91252.639    -21590.14    1708.3359   -23298.476    2.6267718    252.47194 
     650    116.06687   -1612.4628     91180.17   -21547.674    1740.2457   -23287.919    2.8055557    257.18783 
     700    114.82977   -1552.6657    91157.225   -21600.382    1721.6972   -23322.079    2.9431193    254.44658 
     750    116.28692    -1353.306    91152.485   -21623.526    1743.5449   -23367.071    3.0826427    257.67541 
     800    111.06392   -1281.0367    91157.509   -21661.748     1665.234   -23326.982     3.208654    246.10199 
     850    112.53934   -1037.6844     91132.88   -21596.861    1687.3557   -23284.216    3.4225499    249.37131 
     900    116.27083   -936.76969    91169.614   -21536.992    1743.3038   -23280.296    3.6886183    257.63977 
     950    113.40015   -1164.7317    91132.887    -21579.78    1700.2623   -23280.042    3.9111097    251.27875 
    1000     115.0362   -1273.5796    91120.134   -21579.804    1724.7923   -23304.596    4.1481204    254.90399 
    1050    114.06675   -1271.1927    91071.249   -21550.765     1710.257   -23261.022    4.3097263    252.75584 
    1100      113.928    -1511.477    91058.216   -21554.647    1708.1766   -23262.824    4.5548636    252.44839 
    1150     113.0227   -1293.5212    91010.362   -21611.415     1694.603   -23306.018    4.8428342    250.44238 
    1200    115.72614   -1323.1709    91039.385   -21607.481    1735.1369   -23342.618    5.0562793    256.43281 
    1250    116.36177   -1014.9126    91095.751   -21613.583    1744.6672    -23358.25    5.2804678    257.84127 
    1300    113.99313   -1318.0161    91152.707   -21621.214    1709.1531   -23330.367    5.4512249    252.59271 
    1350    115.47888   -1231.8319    91166.232   -21664.124    1731.4297   -23395.553    5.6069646    255.88492 
    1400    110.15742   -1395.4874    91087.823   -21708.644    1651.6424   -23360.286    5.7566611    244.09331 
    1450    109.45493   -1495.9557    91106.262   -21769.684    1641.1097   -23410.793    5.9406853    242.53669 
    1500    110.04421   -1613.3524    91031.337   -21758.977     1649.945   -23408.922    6.0901401    243.84245 
    1550    110.86632     -1304.68    90993.428   -21757.998    1662.2713    -23420.27    6.3163408    245.66413 
    1600    110.47479   -1226.5788     91095.58   -21749.471     1656.401   -23405.872      6.55476    244.79656 
    1650    111.53934   -1180.7312    91170.098   -21742.777    1672.3622   -23415.139    6.7917485    247.15545 
    1700    111.85323   -1489.9781    91192.033   -21675.429    1677.0685   -23352.498     7.027356    247.85099 
    1750    112.51489   -968.02052    91189.496   -21642.593    1686.9892   -23329.582    7.1668251    249.31714 
    1800     113.1762   -1365.9431    91188.015   -21639.483    1696.9045   -23336.388     7.289606    250.78251 
    1850     113.1251   -1381.3024    91157.484   -21625.894    1696.1383   -23322.032    7.4520561    250.66928 
    1900    111.95382   -1294.2881    91156.427    -21653.77    1678.5767   -23332.347    7.6217646    248.07388 
    1950    114.26367   -1513.6356    91122.447   -21611.252    1713.2095   -23324.462    7.8002094    253.19219 
    2000    115.11558     -1317.06    91074.731   -21592.785    1725.9825   -23318.768    8.0047844     255.0799 
    2050    112.98933   -1297.5955    91148.947   -21687.644    1694.1026   -23381.746    8.1044216    250.36842 
    2100    114.68063   -1395.3104    91177.461   -21695.114    1719.4611   -23414.575    8.1679883    254.11611 
    2150    112.10717   -1157.2713    91165.766   -21689.155     1680.876   -23370.031    8.4284373    248.41368 
    2200    114.29313   -1224.4358     91209.54     -21670.8    1713.6512   -23384.451    8.6772019    253.25747 
    2250     114.0005   -1260.0477    91254.069   -21663.685    1709.2636   -23372.949    8.9538019    252.60904 
    2300    112.42745   -1422.5483    91201.667   -21655.794    1685.6781   -23341.473    9.2460473    249.12338 
    2350    111.32409   -1069.6816      91175.1   -21662.822    1669.1349   -23331.957    9.4528158    246.67849 
    2400    111.99936   -1251.5426    91207.835   -21712.341    1679.2596   -23391.601    9.5672194     248.1748 
    2450    113.03497   -1169.7097    91198.802   -21698.575    1694.7869   -23393.362    9.6905791    250.46955 
    2500    109.94257   -1123.2022    91202.245   -21727.709    1648.4212    -23376.13    9.7317689    243.61724 
    2550    112.43837   -1001.6351    91258.391   -21720.045    1685.8418   -23405.887    9.7840352    249.14757 
    2600    113.16194    -1364.583    91240.851    -21647.69    1696.6907    -23344.38    10.050222    250.75091 
    2650    116.25205    -1217.168    91226.895   -21638.599    1743.0221   -23381.621    10.196831    257.59815 
    2700    114.77986   -1321.7524    91242.355   -21646.683    1720.9489   -23367.632    10.427777    254.33598 
    2750    113.77618   -1328.6889      91193.7   -21662.471    1705.9002   -23368.371    10.777171    252.11197 
    2800    109.79884    -969.2688    91301.018   -21692.937    1646.2662   -23339.203    10.919001    243.29876 
    2850    111.04071   -1284.3083    91276.584    -21747.32    1664.8861   -23412.207    11.066839    246.05057 
    2900    112.02073   -1115.9957    91228.037   -21677.881      1679.58   -23357.461    11.263309    248.22215 
    2950    116.83449    -1319.352    91283.495   -21656.102     1751.755   -23407.857    11.462984    258.88876 
    3000    112.54655   -1257.2075     91304.04   -21683.745    1687.4639   -23371.208    11.654068    249.38729 
    3050     113.4675   -1175.2412     91335.54     -21660.7     1701.272   -23361.972    11.849589    251.42798 
    3100    111.21518   -1301.3975    91331.066   -21705.443    1667.5019   -23372.945     11.88539    246.43715 
    3150    113.10816   -1148.3543    91373.589   -21614.506    1695.8843   -23310.391    12.180562    250.63174 
    3200    112.14228   -1295.2048    91384.744   -21618.783    1681.4024   -23300.185    12.395471    248.49148 
    3250    113.80325   -1303.4385    91406.499   -21622.921    1706.3061   -23329.227      12.6825    252.17196 
    3300    112.86642   -1211.7564    91401.925   -21576.102    1692.2598   -23268.362    12.926248    250.09607 
    3350    112.21748   -1430.0662    91504.252   -21578.728    1682.5299   -23261.258    13.236448    248.65812 
    3400    110.93791   -1309.7255    91564.174   -21614.402    1663.3447   -23277.746    13.377138    245.82276 
    3450    112.71624   -1517.4543     91598.64   -21647.396    1690.0081   -23337.404    13.549971    249.76331 
    3500    114.14143   -1291.8097    91589.997   -21645.109    1711.3766   -23356.486    13.733211    252.92132 
    3550    110.89178   -1377.2164    91626.567   -21678.116     1662.653   -23340.769    13.939043    245.72055 
    3600    112.40718   -1293.7575    91591.265   -21676.247    1685.3742   -23361.622    14.004299    249.07846 
    3650    110.97854   -1351.2448    91571.307    -21665.66     1663.954   -23329.614    14.142371    245.91281 
    3700    112.83215   -1333.6283    91526.324    -21668.78    1691.7459   -23360.526    14.204078    250.02013 
    3750    112.82241   -1159.6185    91603.773   -21695.466       1691.6   -23387.066    14.453762    249.99856 
    3800    114.56315   -1377.8006    91593.291   -21649.957    1717.6997   -23367.657    14.592711    253.85579 
    3850    114.18796    -1318.879    91499.207   -21642.787    1712.0742   -23354.862    14.793803    253.02442 
    3900    113.49083   -1317.3351    91510.503   -21699.436    1701.6218   -23401.058    14.911769    251.47967 
    3950    112.95031   -1526.0915    91504.708   -21700.426    1693.5176   -23393.944    14.872326    250.28196 
    4000    113.27992   -1446.0056    91425.776    -21712.36    1698.4596   -23410.819    15.144355    251.01233 
    4050     112.2153    -1314.524    91426.007   -21706.616    1682.4972   -23389.113    15.450799    248.65328 
    4100    111.75451   -1339.2794    91461.277   -21712.499    1675.5884   -23388.087    15.539787    247.63224 
    4150    110.69985   -1315.3606    91462.128   -21709.898    1659.7753   -23369.673     15.68581    245.29525 
    4200    112.48157     -1347.43    91487.454   -21692.051    1686.4896   -23378.541    15.752947    249.24331 
    4250    113.36831   -1240.6621    91455.996   -21665.061    1699.7849   -23364.846    15.995899    251.20819 
    4300    110.64811   -1454.8515    91485.938   -21661.308    1658.9996   -23320.308    16.202673     245.1806 
    4350    115.16443   -1413.6037    91440.008   -21638.745    1726.7149    -23365.46    16.261318    255.18814 
    4400    113.03648   -1481.5951    91434.544   -21626.641    1694.8096   -23321.451    16.358905     250.4729 
    4450     114.3078   -1510.6501    91391.734    -21618.91    1713.8711   -23332.782    16.468968    253.28997 
    4500    113.18693   -1544.6919    91407.794   -21618.368    1697.0653   -23315.433    16.639963    250.80627 
    4550    116.22201    -1283.841    91349.103   -21609.577    1742.5718   -23352.149    16.735106     257.5316 
    4600    113.48258   -1502.4389    91363.907   -21674.472    1701.4982    -23375.97    16.788389     251.4614 
    4650    112.26125    -1712.825    91291.014   -21704.059    1683.1862   -23387.246    17.052087     248.7551 
    4700    113.40023   -1268.7116    91217.098   -21662.125    1700.2635   -23362.389    17.109978    251.27893 
    4750    111.06283   -1174.1196    91195.592   -21662.481    1665.2177   -23327.698    17.250689    246.09957 
    4800     113.2378   -1508.2573    91213.092    -21636.55    1697.8281   -23334.378    17.550437      250.919 
    4850    113.05621   -885.50705    91222.647   -21625.605    1695.1054    -23320.71    17.737431    250.51662 
    4900    112.62829   -1357.2671    91299.637   -21660.594    1688.6894   -23349.283    17.893142    249.56842 
    4950    110.51798   -1285.0359    91296.683   -21647.528    1657.0486   -23304.576    18.046483    244.89227 
    5000    112.04877   -1238.2897    91383.205   -21626.554    1680.0004   -23306.554    18.139871    248.28428 
    5050    114.85684   -1199.6548    91397.938    -21619.69    1722.1031   -23341.793    18.455631    254.50657 
    5100    114.35992   -1234.0172    91389.607   -21608.707    1714.6525   -23323.359    18.675878    253.40546 
    5150    114.33145   -1081.2815    91416.752   -21564.515    1714.2257    -23278.74    18.883154    253.34237 
    5200    114.02208   -1682.4015    91438.346   -21578.751    1709.5872   -23288.338    18.949225    252.65686 
    5250    111.32327   -1384.3589    91396.425   -21614.468    1669.1227    -23283.59    18.981956    246.67668 
    5300    110.78823   -1463.0929    91364.434   -21637.478    1661.1005   -23298.579    19.025147     245.4911 
    5350    112.68621   -1305.4772    91365.062   -21628.696    1689.5579   -23318.254    19.179048    249.69676 
    5400    113.90103   -1290.1835    91367.375   -21634.763    1707.7722   -23342.535    19.386006    252.38863 
    5450    113.19083   -1144.9389    91476.565   -21624.282    1697.1239   -23321.406    19.501809    250.81493 
    5500    114.56956    -1368.647    91507.776   -21642.179    1717.7958   -23359.975    19.806162    253.86999 
    5550    114.78021   -1111.3986    91571.226    -21652.65    1720.9541   -23373.605    20.004278    254.33676 
    5600    113.68646   -1228.1203    91589.079    -21651.64     1704.555   -23356.195    20.180432    251.91317 
    5650    111.20416   -1411.4835     91583.61   -21645.424    1667.3368   -23312.761    20.424257    246.41274 
    5700    112.97903   -1238.0549    91584.105   -21658.334    1693.9482   -23352.282    20.667896    250.34561 
    5750    114.26467   -1327.1217    91653.166   -21643.834    1713.2244   -23357.059    20.950435     253.1944 
    5800    114.06011   -1729.9792    91648.624   -21668.445    1710.1574   -23378.602    21.035323    252.74113 
    5850    112.85053   -1293.8514    91685.874   -21700.831    1692.0216   -23392.852    21.122163    250.06087 
    5900    110.36487   -1242.9224    91712.924   -21756.546    1654.7528   -23411.299     21.39827    244.55299 
    5950    109.67288   -1528.5271    91739.955   -21729.825    1644.3775   -23374.202    21.380681    243.01964 
    6000    111.26257   -993.32247    91673.498    -21710.53    1668.2125   -23378.742    21.409647    246.54217 
    6050    114.27595   -1476.0905    91685.977   -21696.709    1713.3935   -23410.103     21.74027    253.21939 
    6100    111.40514   -1425.3089     91695.83   -21693.174    1670.3501   -23363.524    21.983643    246.85808 
    6150    113.12013   -1094.7432    91721.229   -21683.948    1696.0638   -23380.012    22.224584    250.65826 
    6200    111.79899   -1221.3001    91658.973   -21723.724    1676.2554    -23399.98     22.44485    247.73081 
    6250    113.13366   -1454.9149    91644.869   -21699.828    1696.2667   -23396.095    22.632293    250.68824 
    6300    112.49114   -1364.8359     91567.66   -21697.674     1686.633   -23384.307    22.732295    249.26451 
    6350    112.27273   -1288.6186    91501.809   -21730.739    1683.3583   -23414.097    22.858914    248.78054 
    6400     114.7233   -1555.6676     91427.53   -21714.433    1720.1009   -23434.534    23.153823    254.21067 
    6450    111.36714   -1322.0166    91468.736    -21716.66    1669.7804    -23386.44     23.28377    246.77389 
    6500    111.80708   -1518.0355    91455.345   -21721.426    1676.3766   -23397.803    23.278005    247.74873 
    6550    113.21745   -1185.7737    91448.369   -21726.546    1697.5229   -23424.069    23.194946     250.8739 
    6600    111.99246   -1584.8403    91481.952   -21687.264    1679.1561    -23366.42     23.45666     248.1595 
    6650    114.82494    -1185.026    91523.222   -21661.792    1721.6249   -23383.417    23.636556    254.43589 
    6700    113.45344   -1601.4932    91454.954   -21661.413    1701.0612   -23362.474    23.801428    251.39682 
    6750    112.67551   -1329.4956    91446.401   -21630.115    1689.3973   -23319.512      23.9573    249.67304 
    6800    111.30931   -1103.0773    91484.403   -21636.761    1668.9133   -23305.674    24.269435    246.64574 
    6850    113.56515   -1340.1511    91570.838   -21622.819    1702.7362   -23325.556      24.2583    251.64436 
    6900    114.29135   -1501.3343    91549.892   -21627.118    1713.6244   -23340.743    24.442767    253.25351 
    6950    111.99921   -1260.2978    91567.553   -21654.289    1679.2572   -23333.546    24.792095    248.17445 
    7000    114.95408    -1431.697    91598.524   -21670.645    1723.5611   -23394.206    25.111034    254.72203 
    7050    110.35257    -1585.704    91620.103   -21681.032    1654.5684     -23335.6     25.36997    244.52573 
    7100    114.96117     -1386.87    91529.241   -21673.219    1723.6674   -23396.887    25.796361    254.73775 
    7150    111.58356   -1430.8498    91472.433   -21703.025    1673.0252    -23376.05    26.118605    247.25343 
    7200     111.8107   -1564.1144    91503.239   -21715.319    1676.4308    -23391.75    26.338601    247.75674 
    7250      113.666   -1482.8962    91497.068   -21697.129    1704.2482   -23401.377    26.439146    251.86782 
    7300    112.31543   -1474.8698    91484.625   -21690.761    1683.9986    -23374.76    26.608775    248.87517 
    7350    110.18484   -1698.0343    91414.318   -21685.387    1652.0536   -23337.441     26.68004    244.15408 
    7400    113.10506   -1623.2865    91389.963   -21652.448    1695.8379   -23348.286    26.728011    250.62488 
    7450    113.10151   -1869.6924    91342.711   -21666.583    1695.7846   -23362.368    26.829772      250.617 
    7500    112.56213   -1755.7357    91269.178   -21673.398    1687.6974   -23361.096    26.932776    249.42181 
    7550    110.02463    -1487.367    91222.639   -21677.292    1649.6514   -23326.943    27.047543    243.79906 
    7600    111.61956   -1231.2502    91195.722    -21619.97     1673.565   -23293.535    27.506559    247.33321 
    7650    111.31549   -1445.8231    91182.874   -21652.722     1669.006   -23321.728    27.771927    246.65944 
    7700    111.18382   -1772.8616    91071.033    -21650.68    1667.0318   -23317.712     28.14394    246.36767 
    7750    112.37827   -1472.3975    91026.893   -21660.534    1684.9407   -23345.475    28.313231     249.0144 
    7800    112.55873    -1276.885    90974.436    -21614.27    1687.6465   -23301.916    28.516647    249.41428 
    7850    114.34124   -1162.1095    91057.889   -21611.586    1714.3725   -23325.959    28.887116    253.36408 
    7900     116.1409   -1168.1991    91186.841   -21607.237    1741.3556   -23348.593    29.104445    257.35186 
    7950    112.76957   -1164.8411    91212.838   -21635.414    1690.8077   -23326.222    29.347275    249.88147 
    8000    111.95616    -1070.541    91281.278   -21655.664    1678.6118   -23334.276    29.529037    248.07907 
    8050    112.86793   -1085.6865    91341.756   -21649.516    1692.2825   -23341.798    29.738331    250.09943 
    8100    112.16435   -1019.2558    91392.341   -21714.313    1681.7333   -23396.046    29.884242    248.54039 
    8150    110.53414   -1226.4603    91460.963   -21703.462    1657.2908   -23360.753    29.910936    244.92807 
    8200    113.88476   -1186.3715    91524.384    -21668.04    1707.5283   -23375.569    29.917571    252.35258 
    8250    116.36629   -1332.5351    91546.172   -21659.691     1744.735   -23404.426    29.973144    257.85129 
    8300    114.30014   -1589.1358    91491.888   -21660.062    1713.7563   -23373.818    30.114649    253.27301 
    8350     113.5508   -1216.4066    91477.952   -21645.594    1702.5211   -23348.115    30.207717    251.61257 
    8400    111.14072   -1573.1869    91445.158   -21695.839    1666.3856   -23362.225    30.422848    246.27218 
    8450    109.87984   -1285.6748    91368.894     -21720.2    1647.4806   -23367.681    30.558256    243.47824 
    8500     111.0929   -1627.4378    91383.216   -21718.969    1665.6685   -23384.637    30.498016     246.1662 
    8550    110.75993   -1536.1663    91346.497   -21685.785    1660.6762   -23346.462    30.696299     245.4284 
    8600    113.68973   -1283.4366    91288.876   -21689.224    1704.6041   -23393.829    30.828756    251.92042 
    8650    111.07196   -942.82576    91288.564   -21703.824    1665.3546   -23369.179    30.947773    246.11981 
    8700    114.99864   -1279.9543     91273.39   -21620.517    1724.2292   -23344.747     31.01773    254.82077 
    8750    113.40289   -1402.7643    91299.587   -21676.644    1700.3034   -23376.948    31.156392    251.28482 
    8800    113.65955   -1208.5241    91239.634   -21691.564    1704.1515   -23395.715    31.505227    251.85354 
    8850    110.20933   -1059.4921    91210.932   -21690.794    1652.4208   -23343.214    31.767517    244.20835 
    8900    109.95514   -1442.5963    91203.971   -21725.059    1648.6096   -23373.669    32.009732    243.64509 
    8950    111.74552    -1307.707    91120.338   -21708.674    1675.4537   -23384.128    32.034816    247.61233 
    9000    110.71292   -1400.4223    91125.015   -21719.476    1659.9713   -23379.447     32.20314    245.32422 
    9050    109.85459   -1609.4001    91120.261   -21738.734     1647.102   -23385.836    32.409236    243.42229 
    9100    109.94544   -1294.1963     91075.13   -21763.069    1648.4641   -23411.533    32.429626    243.62359 
    9150    112.15887   -1335.0826    91130.372   -21725.066    1681.6512   -23406.717    32.579234    248.52824 
    9200    114.08761   -1488.6565    91160.161   -21692.124    1710.5697   -23402.694    32.962544    252.80207 
    9250    113.10646   -1427.2957    91159.815   -21651.286    1695.8588   -23347.144    33.157738    250.62797 
    9300    111.27947   -1286.5269    91177.607   -21691.668    1668.4659   -23360.134    33.356761    246.57962 
    9350    111.31716   -1130.1519    91194.932   -21697.009    1669.0309    -23366.04    33.533099    246.66312 
    9400    114.33928   -1472.7007    91251.678   -21662.923     1714.343   -23377.266    33.669877    253.35972 
    9450    114.01358   -1619.7272    91289.405   -21657.948    1709.4597   -23367.408    33.875428    252.63802 
    9500    112.83557   -1314.6311    91299.249    -21665.12    1691.7973   -23356.917    34.123338    250.02772 
    9550    112.26221    -1241.624    91248.856   -21650.355    1683.2005   -23333.556     34.33465    248.75722 
    9600    113.43977   -1545.0777    91175.711   -21629.072    1700.8563   -23329.928    34.382114    251.36653 
    9650     112.5894   -1064.1023    91161.265   -21650.642    1688.1064   -23338.749    34.582145    249.48225 
    9700    111.47571    -1296.699    91106.783   -21694.842    1671.4083    -23366.25    34.681844    247.01447 
    9750    110.35556   -1511.1224    91096.341    -21686.76    1654.6133   -23341.373    34.868039    244.53237 
    9800     113.1313   -1148.2281    90998.616   -21669.844    1696.2312   -23366.075    35.176116      250.683 
    9850     112.9983   -1010.0269    91076.377   -21691.506    1694.2372   -23385.743    35.352613    250.38831 
    9900    110.44048   -1153.7555    91064.179   -21675.481    1655.8865   -23331.367    35.628082    244.72053 
    9950    111.29814   -1141.6654    91067.754   -21646.948    1668.7459   -23315.694    35.768434    246.62099 
   10000    112.03745   -1075.9757    91111.669   -21645.087    1679.8307   -23324.918     35.85407     248.2592 
   10050    113.54335    -1156.636    91113.585    -21637.33    1702.4093   -23339.739    36.202232    251.59606 
   10100    114.18845   -1408.5273    91133.484   -21657.988    1712.0816    -23370.07    36.218056     253.0255 
   10150    108.39597   -1338.3493    91105.286    -21705.33    1625.2322   -23330.562    36.336212    240.19019 
   10200    113.43358     -1401.99    91105.336   -21685.389    1700.7635   -23386.153    36.337861    251.35283 
   10250    113.01171   -1513.2636    91043.676    -21705.68    1694.4382   -23400.118    36.526298    250.41802 
   10300    109.98226   -1339.9711    91002.347   -21708.964    1649.0162    -23357.98    36.469274    243.70518 
   10350    111.54348   -1468.3788    90975.261   -21720.643    1672.4243   -23393.067    36.496769    247.16462 
   10400    113.18383   -1353.9136    90887.613   -21720.364    1697.0189   -23417.383    36.570097    250.79942 
   10450    112.81845   -1370.3508    90975.349   -21662.343    1691.5405   -23353.883    36.799081    249.98978 
   10500    111.02767   -1454.1561    90992.104   -21688.393    1664.6905   -23353.084    36.847543    246.02166 
   10550    112.06181    -1888.728    90928.046   -21698.158    1680.1958   -23378.354    36.897363    248.31317 
   10600    111.04819   -1308.7171    90829.089   -21704.804    1664.9982   -23369.802     37.03334    246.06714 
   10650     110.8474   -1226.8677    90790.347   -21672.522    1661.9877    -23334.51    37.416438    245.62221 
   10700    111.78451   -1251.2692    90835.033   -21649.808    1676.0381   -23325.846    37.611027    247.69871 
   10750    113.88184   -1219.8464    90798.417   -21659.228    1707.4845   -23366.713    37.466108    252.34611 
   10800    111.95247   -1333.8194    90822.641   -21660.827    1678.5565   -23339.384     37.48155    248.07089 
   10850    113.72178   -1082.6478     90818.18   -21617.438    1705.0847   -23322.522    37.503422    251.99144 
   10900    112.73192   -1200.7411    90808.557   -21653.301    1690.2431   -23343.544    37.618138    249.79803 
   10950    114.02027   -1310.1842    90737.412   -21616.313      1709.56   -23325.873    37.742761    252.65284 
   11000    113.37244   -1241.8592    90684.633    -21640.72    1699.8467   -23340.567    38.043409    251.21734 
   11050    115.56062   -1131.9397    90681.815   -21674.431    1732.6553   -23407.087    38.090796    256.06605 
   11100    110.97327   -1361.2449    90633.871   -21686.231    1663.8748   -23350.106    38.134334    245.90111 
   11150    108.79696   -1293.7021    90647.172   -21701.385    1631.2445    -23332.63    38.113464    241.07873 
   11200    113.51815   -1436.0655    90561.392   -21666.693    1702.0315   -23368.725    38.450029    251.54022 
   11250    111.84048   -1263.8717    90578.148   -21694.169    1676.8774   -23371.047    38.518498    247.82274 
   11300    113.69381   -1175.6565    90573.081   -21704.233    1704.6653   -23408.898    38.671917    251.92946 
   11350    113.67106    -1341.752    90570.414   -21673.603    1704.3242   -23377.927    38.804819    251.87905 
   11400    112.98104   -1262.0375    90501.721   -21672.416    1693.9784   -23366.394    38.802478    250.35007 
   11450    112.30222   -867.40047    90468.766   -21668.464    1683.8005   -23352.265    38.944404     248.8459 
   11500    114.06351   -1324.0329    90431.857    -21698.92    1710.2084   -23409.129    38.936446    252.74867 
   11550    114.22397   -1038.2398    90464.258   -21709.177    1712.6142   -23421.791    38.994016    253.10422 
   11600    109.75196   -937.15494    90580.945   -21792.657    1645.5633   -23438.221    39.233323    243.19488 
   11650    111.23563   -1070.3812    90614.602   -21798.199    1667.8086   -23466.008    39.423648    246.48247 
   11700    110.18088   -1068.2142    90733.321    -21796.85    1651.9942   -23448.845    39.824919    244.14529 
   11750    109.92672   -1262.2349    90830.296   -21768.155    1648.1835   -23416.338    40.443135    243.58211 
   11800    112.43474   -1156.9088    90856.317    -21748.71    1685.7874   -23434.498    40.797149    249.13953 
   11850    113.52315   -1314.1206    90861.399   -21728.408    1702.1064   -23430.514    41.080521    251.55129 
   11900    111.92305   -1418.6502    90858.135   -21733.311    1678.1154   -23411.426    41.481624     248.0057 
   11950     112.8008   -1358.8854    90828.889   -21738.722    1691.2759   -23429.998    41.664447    249.95067 
   12000    113.54256   -1453.0148    90783.339   -21702.832    1702.3975   -23405.229    41.940711    251.59431 
   12050    112.75529   -1048.8242    90738.039    -21692.14    1690.5936   -23382.734    42.089138    249.84983 
   12100    112.30626   -1419.2526    90675.669   -21720.029     1683.861    -23403.89    42.302691    248.85484 
   12150     112.3523   -1320.8167    90656.364   -21693.897    1684.5514   -23378.449    42.546999    248.95687 
   12200    112.36625   -1184.7852    90736.327   -21675.626    1684.7605   -23360.386    42.595462    248.98777 
   12250    110.61734   -1464.6656    90725.991   -21682.331    1658.5382   -23340.869    42.838829    245.11243 
   12300    110.55788   -1646.0675    90689.553   -21678.791    1657.6468   -23336.437    43.050067    244.98069 
   12350    114.48154   -1489.7825    90668.251   -21674.872    1716.4761   -23391.348    43.120756    253.67496 
   12400      112.959   -995.92176    90735.585   -21664.787    1693.6479   -23358.435    43.242263    250.30121 
   12450    114.29578   -1189.0448    90733.492   -21678.961    1713.6909   -23392.652    43.441876    253.26334 
   12500    114.87915   -1069.8644    90750.738   -21650.165    1722.4377   -23372.603    43.684656    254.55601 
   12550    112.42797   -1416.5432    90779.797   -21674.616     1685.686   -23360.302    43.708511    249.12454 
   12600     114.1134   -1064.6931    90768.742   -21644.249    1710.9564   -23355.205    43.772661    252.85921 
   12650    111.78714   -980.37263    90832.929   -21701.182    1676.0777   -23377.259    43.902407    247.70455 
   12700    111.55481   -1198.5068    90863.561   -21733.114    1672.5942   -23405.708    44.098679    247.18973 
   12750    115.06279   -911.79524    90911.386   -21695.796     1725.191   -23420.987    44.449891    254.96292 
   12800    111.34223   -1225.5408    90902.016   -21716.378    1669.4068   -23385.785    44.743551    246.71868 
   12850    112.02612   -1381.9139    90872.611    -21679.66    1679.6608   -23359.321    44.809605    248.23409 
   12900    114.35659   -1257.0115    90838.923    -21628.15    1714.6026   -23342.753    44.911971    253.39808 
   12950    114.34752   -1237.2521    90885.801   -21650.117    1714.4666   -23364.584    44.866062    253.37798 
   13000    116.62187   -1319.0344    90962.232   -21667.999    1748.5671   -23416.566    44.965882    258.41763 
   13050    115.73557   -1239.6278    90980.292   -21660.102    1735.2783    -23395.38    45.384462     256.4537 
   13100    116.42689   -1156.6407    91097.246   -21659.388    1745.6437   -23405.032    45.524091    257.98559 
   13150    112.63051   -1320.8993    91138.845   -21685.775    1688.7227   -23374.498    45.885313    249.57333 
   13200    113.52409   -1206.0142    91110.062   -21743.226    1702.1206   -23445.347    46.175136    251.55339 
   13250    112.24204   -1089.6539    91129.184   -21749.032    1682.8981    -23431.93    46.405575    248.71253 
   13300    113.62203   -1210.5702    91219.797   -21725.379    1703.5891   -23428.968    46.329081    251.77041 
   13350    112.01256   -1424.5101    91247.298   -21731.349    1679.4574   -23410.806    46.540607    248.20404 
   13400    115.43516   -1321.4949    91277.824   -21700.585    1730.7741   -23431.359    46.693545    255.78804 
   13450    113.95175   -1156.7084    91302.656   -21670.418    1708.5327    -23378.95    46.805827    252.50102 
   13500    112.22329   -1516.2228    91285.683   -21690.798     1682.617   -23373.415    46.835244    248.67099 
   13550    114.54759   -1271.3334     91264.18    -21713.72    1717.4664   -23431.186    46.897632    253.82132 
   13600    113.74429   -911.03115    91279.512   -21705.676    1705.4221   -23411.098    47.199382     252.0413 
   13650    113.79754   -1146.6394    91351.742   -21731.547    1706.2206   -23437.768    47.333046    252.15931 
   13700     114.6699   -1159.1687    91401.178   -21697.644    1719.3002   -23416.945    47.421997    254.09233 
   13750    111.13079   -1084.0452    91394.549   -21726.798    1666.2366   -23393.034    47.638687    246.25016 
   13800    113.73215   -1393.9448    91366.507   -21704.884    1705.2401   -23410.124    47.906974    252.01441 
   13850    113.56802   -1296.2533    91344.959    -21736.63    1702.7793   -23439.409    48.039374    251.65073 
   13900    111.37004   -1649.3737    91358.407   -21772.362    1669.8239   -23442.186    48.276127    246.78031 
   13950    112.44872    -1319.023     91308.98   -21758.266     1685.997   -23444.263    48.246161    249.17051 
   14000    110.27931   -1151.2784    91294.076   -21757.286    1653.4701   -23410.756    48.298281    244.36341 
   14050    112.70805   -1148.5045    91341.287   -21713.761    1689.8852   -23403.646    48.529775    249.74514 
   14100    113.67798   -1362.3949    91373.258   -21734.415    1704.4278   -23438.843    48.748861    251.89437 
   14150    111.60227   -1017.7464    91393.574   -21781.581    1673.3058   -23454.886    48.862723    247.29489 
   14200    113.13201   -1467.0419    91340.711   -21728.809     1696.242   -23425.051    49.111873     250.6846 
   14250    112.37124   -1380.1939    91308.788   -21744.995    1684.8353    -23429.83    49.397986    248.99882 
   14300     111.0681   -1023.9087    91283.772     -21753.8    1665.2967   -23419.096    49.423836    246.11125 
   14350    111.53042   -1265.4046    91235.669   -21764.214    1672.2286   -23436.442    49.755383     247.1357 
   14400    107.35421   -1354.4719    91242.385   -21773.463    1609.6126   -23383.076    49.886427    237.88179 
   14450    111.94551   -1181.4615    91266.157   -21751.334    1678.4521   -23429.786     50.12623    248.05547 
   14500    109.33302   -877.03705    91325.733   -21744.938    1639.2819    -23384.22     50.28236    242.26657 
   14550    111.46276   -1012.3207    91417.567   -21679.865    1671.2141   -23351.079    50.543806    246.98577 
   14600    113.00502    -1156.861    91448.776   -21723.838    1694.3378   -23418.176    50.750683    250.40318 
   14650    111.63931   -1475.1887    91426.811    -21725.13    1673.8612   -23398.991    50.779408    247.37698 
   14700    113.47585   -1601.0916    91310.316   -21737.321    1701.3973   -23438.718    50.907609    251.44649 
   14750    111.06933   -1318.7293    91218.366   -21773.848    1665.3151   -23439.163    50.856664    246.11397 
   14800    112.08448   -1684.1023    91179.283    -21726.24    1680.5358   -23406.776    51.274432     248.3634 
   14850    116.37462   -1432.8346    91070.007   -21700.411    1744.8598   -23445.271    51.397078    257.86974 
   14900    113.85388   -1423.2773    91028.501   -21699.608    1707.0653   -23406.673    51.700154    252.28416 
   14950    114.09263   -1414.8882     91042.45   -21715.537     1710.645   -23426.182    51.746619    252.81319 
   15000    113.02724   -1397.5388     91038.01   -21711.773     1694.671   -23406.444    51.832586    250.45242 
   15050    113.01587   -1497.0166    91017.932   -21717.063    1694.5005   -23411.563    52.047102    250.42723 
   15100    112.95212   -1540.9817    91035.395   -21680.642    1693.5447   -23374.187     52.11534    250.28597 
   15150    113.52924     -1610.37    91030.563   -21723.292    1702.1977   -23425.489    52.166704    251.56479 
   15200     113.0988   -1217.7053    91020.397   -21723.762     1695.744   -23419.506     52.37896      250.611 
   15250    111.33959   -1140.0703    90951.375   -21762.339    1669.3673   -23431.706    52.444721    246.71283 
   15300    112.70368    -1444.609    90935.128   -21737.559    1689.8197   -23427.379    52.624032    249.73546 
   15350    111.86202   -1568.1385    90880.135   -21779.434    1677.2003   -23456.634    52.670356    247.87046 
   15400    112.26072   -1315.9839    90839.923   -21742.318    1683.1782   -23425.497    52.600311    248.75392 
   15450    111.53553   -1258.5543    90789.849   -21736.276    1672.3051   -23408.581    52.648852      247.147 
   15500    113.26771   -1372.5449    90824.708   -21717.162    1698.2765   -23415.438    52.608357    250.98528 
   15550     113.4079     -964.918    90864.436   -21739.862    1700.3784    -23440.24    52.600827    251.29592 
   15600     111.7333   -1262.0348    90852.284   -21713.245    1675.2704   -23388.515    52.688877    247.58525 
   15650    112.18741   -940.15991    90850.224   -21715.597    1682.0791   -23397.676     52.76837     248.5915 
   15700    113.01278   -1053.9484     90916.06   -21730.874    1694.4542   -23425.328    52.745485    250.42038 
   15750    113.88207   -1065.7461    90969.824   -21735.052    1707.4879    -23442.54    53.148799    252.34661 
   15800    112.30509   -1335.4774    90964.174   -21782.697    1683.8436    -23466.54    53.364499    248.85225 
   15850    109.93211   -1154.2154    90873.918   -21784.235    1648.2643   -23432.499    53.490553    243.59406 
   15900    110.63967   -1090.6965    90892.422   -21781.677     1658.873    -23440.55    53.647391    245.16191 
   15950    112.43723   -1137.6196    90948.638   -21725.022    1685.8247   -23410.846    54.017541    249.14504 
   16000    110.31885   -1174.3809    90930.603   -21761.715    1654.0629   -23415.778    54.252914    244.45102 
   16050    113.93376   -1192.7069    90913.139   -21767.949    1708.2629   -23476.212    54.460196    252.46114 
   16100    115.65503   -1333.5143     90891.25   -21740.915    1734.0708   -23474.986    54.691169    256.27524 
   16150    112.07168    -1122.329    90942.511   -21731.982    1680.3439   -23412.326    54.962582    248.33505 
   16200    112.00418   -1260.1259    90965.427   -21796.614    1679.3319   -23475.946    55.091498    248.18548 
   16250    112.09252   -1327.5405    91034.768   -21773.815    1680.6563   -23454.471    55.448285    248.38122 
   16300    113.47815   -1022.0059    91114.765   -21752.345    1701.4317   -23453.777    55.461993    251.45158 
   16350    111.95461   -1398.3778    91149.688   -21708.853    1678.5886   -23387.441    55.377321    248.07564 
   16400    113.57616   -990.59586    91209.712   -21703.026    1702.9013   -23405.927    55.344001    251.66877 
   16450    110.54549   -1410.3333    91214.961   -21735.881    1657.4611   -23393.342    55.697207    244.95323 
   16500    110.76147   -1044.5493    91296.649   -21759.549    1660.6993   -23420.248    55.782725    245.43181 
   16550    113.67516   -1426.0705    91325.436   -21704.777    1704.3856   -23409.163    55.958751    251.88813 
   16600    114.61329   -1385.8939     91357.37   -21721.211    1718.4515   -23439.663    56.001161     253.9669 
   16650    113.76173   -1219.9731    91409.158   -21678.676    1705.6836    -23384.36    55.970126    252.07995 
   16700    112.76378    -1594.305    91391.685   -21660.268    1690.7209   -23350.989     56.19965    249.86864 
   16750    111.84644   -1781.9958    91305.216   -21659.137    1676.9668   -23336.104    56.315885    247.83596 
   16800    114.80084    -1093.317    91361.062   -21622.604    1721.2634   -23343.867    56.542248    254.38247 
   16850    113.90543   -1315.4121    91411.639   -21654.961    1707.8381   -23362.799    56.695857    252.39837 
   16900    113.61822   -1458.2623    91402.419   -21665.429    1703.5319   -23368.961     56.79898    251.76197 
   16950     117.1607   -1342.4001    91370.687   -21669.971     1756.646   -23426.617    57.040915    259.61159 
   17000    112.33677     -1091.88    91455.965   -21642.564    1684.3185   -23326.882    57.607046    248.92245 
   17050    110.12009    -1302.384    91468.117   -21605.143    1651.0828   -23256.226    57.561355     244.0106 
   17100    112.94294   -1340.7383    91407.055    -21664.24    1693.4072   -23357.647     57.81045    250.26564 
   17150    112.13406   -1613.9839    91282.438   -21674.001    1681.2792    -23355.28    57.856393    248.47327 
   17200    112.96361   -1332.2851    91205.541   -21684.575    1693.7169   -23378.292     58.15399    250.31143 
   17250    110.90199   -1319.7601    91184.751   -21716.561    1662.8062   -23379.367     58.59063    245.74318 
   17300    115.62056   -1474.7567    91151.485   -21695.378    1733.5539   -23428.932    58.916685    256.19886 
   17350    108.98732   -1197.1795    91169.829   -21712.541    1634.0986   -23346.639    59.215586    241.50053 
   17400    113.18775   -1454.1706    91161.079   -21722.013    1697.0777    -23419.09    59.225166     250.8081 
   17450     109.0418   -1197.8193    91161.132   -21709.486    1634.9155   -23344.401    59.260427    241.62126 
   17500    113.65387   -1271.0111    91143.094   -21707.918    1704.0664   -23411.985    59.288235    251.84095 
   17550    110.65722   -1599.3959    91112.767   -21737.601    1659.1362   -23396.738    59.359746     245.2008 
   17600     112.6971   -1499.2151    91051.959   -21711.715     1689.721   -23401.436    59.257283    249.72088 
   17650    113.68973   -1195.2635    91060.235   -21713.252    1704.6041   -23417.856    59.134707    251.92041 
   17700    112.05054    -1226.236    91105.252    -21751.92    1680.0269   -23431.947    59.121807    248.28819 
   17750    113.33247   -1284.3731    91155.704   -21735.644    1699.2475   -23434.891     59.18548    251.12877 
   17800    113.11983   -1455.5647    91234.368   -21713.211    1696.0593    -23409.27    59.304482     250.6576 
   17850     112.4713   -1273.8505     91273.73   -21754.141    1686.3356   -23440.477    59.404636    249.22055 
   17900    110.38789   -1553.5883    91325.504   -21734.529    1655.0981   -23389.627     59.77015    244.60401 
   17950    111.37644   -1137.6249    91277.249   -21723.654    1669.9199   -23393.573     59.98566     246.7945 
   18000    111.12701   -1342.8446    91246.503   -21710.686    1666.1801   -23376.866    60.383637     246.2418 
   18050    111.57878   -1301.5147    91283.288   -21723.493    1672.9536   -23396.447    60.457994    247.24285 
   18100    111.63921   -1276.8282    91293.739   -21684.678    1673.8597   -23358.538    60.413082    247.37675 
   18150    114.46692   -1382.8232    91279.221   -21660.654    1716.2568   -23376.911    60.395147    253.64255 
   18200    115.54768   -1451.3663    91235.652    -21661.73    1732.4612   -23394.191    60.666051    256.03736 
   18250    112.36752   -1572.3974    91211.193   -21670.498    1684.7796   -23355.277    60.848515    248.99058 
   18300    113.48556   -1416.3511    91194.315   -21674.332    1701.5429   -23375.875    60.904033      251.468 
   18350    113.11986   -1246.3146    91140.877   -21657.479    1696.0597   -23353.539    60.941746    250.65766 
   18400    111.88666   -1227.1871     91162.07   -21673.988    1677.5697   -23351.558    61.040897    247.92505 
   18450    111.83469   -1480.6175    91140.951   -21679.581    1676.7905   -23356.371    61.263382     247.8099 
   18500    109.38396   -1331.4038    91114.114   -21694.133    1640.0456   -23334.178    61.322429    242.37944 
   18550    114.78546   -1366.2384    91069.931    -21633.76    1721.0329   -23354.793    61.487897     254.3484 
   18600     111.7941   -1113.3334    91047.355   -21638.948    1676.1819    -23315.13     61.36705    247.71996 
   18650    114.89948   -1602.3598     91077.79   -21603.318    1722.7424   -23326.061    61.531848    254.60105 
   18700    117.66754   -1310.0458    91062.043   -21584.256    1764.2453   -23348.502    61.739108    260.73468 
   18750    113.15821   -1203.8334    91067.323   -21598.872    1696.6347   -23295.506    61.868932    250.74263 
   18800    114.77477   -1426.7564    91087.507   -21586.834    1720.8726   -23307.707    61.811037    254.32472 
   18850    115.81631    -1574.072    91079.984   -21579.156    1736.4889   -23315.645    62.045098    256.63261 
   18900    113.10263   -1114.1959    91078.371   -21601.318    1695.8014   -23297.119    62.086836    250.61949 
   18950    114.74626   -1278.5755    91185.911   -21641.886    1720.4451   -23362.331    62.096007    254.26153 
   19000    114.07074   -1158.7815    91288.423   -21630.169    1710.3167   -23340.485    62.172452    252.76468 
   19050    115.80693   -1379.8366    91293.273   -21632.879    1736.3483   -23369.227    62.437484    256.61183 
   19100    114.57495   -1104.4791    91275.947   -21662.691    1717.8766   -23380.567    62.718449    253.88194 
   19150    112.43975   -1339.4951    91323.263    -21674.16    1685.8625   -23360.023    63.039744    249.15063 
   19200    114.35586   -1269.6628    91385.072   -21670.153    1714.5917   -23384.745    63.219715    253.39647 
   19250    115.20082   -1138.5112    91491.478   -21663.695    1727.2605   -23390.955    63.381324    255.26877 
   19300    110.57506   -1188.8235        91555   -21680.289    1657.9043   -23338.193    63.426453    245.01874 
   19350    114.45755   -1421.7475    91593.377    -21656.51    1716.1163   -23372.627    63.503809    253.62179 
   19400     113.5332   -1260.0499    91586.606    -21644.53    1702.2572   -23346.787    63.614235    251.57357 
   19450    115.05719   -1438.1804    91494.624   -21655.274     1725.107   -23380.381    63.861439    254.95051 
   19500    113.83594   -1400.8733    91491.901   -21670.285    1706.7963   -23377.081    64.149643     252.2444 
   19550    111.53848   -1096.9497    91476.587   -21702.344    1672.3494   -23374.693    64.338279    247.15356 
   19600    114.17512   -1362.3231    91405.119   -21722.465    1711.8817   -23434.347     64.50714    252.99596 
   19650    112.86737   -1287.3201    91420.044   -21757.484     1692.274   -23449.758    64.378929    250.09818 
   19700    109.76705   -1416.2608    91387.031    -21734.12    1645.7895   -23379.909    64.383927    243.22831 
   19750    110.51351   -1135.1199     91338.32   -21714.808    1656.9815   -23371.789      64.3823    244.88236 
   19800    113.58154   -1357.1611    91349.819    -21699.88    1702.9819   -23402.861    64.666173    251.68068 
   19850    110.95082   -1321.8551     91369.74   -21694.141    1663.5383   -23357.679    64.790552    245.85138 
   19900    113.22253   -1364.8857    91438.209   -21700.217    1697.5991   -23397.816    64.796388    250.88516 
   19950    113.83112   -1055.1005     91436.47   -21705.774     1706.724   -23412.499    64.976067    252.23372 
   20000    108.31254   -1200.9014    91539.262   -21729.549    1623.9812    -23353.53    65.058853    240.00531 
   20050    111.65785   -1195.2519     91558.18   -21712.759    1674.1391   -23386.898    65.207617    247.41804 
   20100    111.68349   -1176.0759    91559.942   -21705.611    1674.5236   -23380.135    65.163795    247.47488 
   20150    113.13525   -1246.8942    91546.444   -21693.728    1696.2904   -23390.019    65.354408    250.69175 
   20200    111.44205   -1157.7345    91588.604    -21689.37    1670.9036   -23360.274     65.32176    246.93988 
   20250    114.90035   -1160.7142    91613.578   -21694.918    1722.7554   -23417.673    65.412837    254.60297 
   20300    109.33042   -1482.9663    91639.462   -21675.203    1639.2429   -23314.446    65.544041     242.2608 
   20350    110.99801   -1492.2247    91568.758   -21705.649    1664.2458   -23369.894    65.580178    245.95594 
   20400    113.48513   -1515.5771    91516.528   -21692.991    1701.5364   -23394.527    65.558523    251.46705 
   20450    113.27808   -1445.8993    91469.045   -21688.622     1698.432   -23387.054    65.689767    251.00826 
   20500    114.48873   -1410.9185    91399.086   -21684.661    1716.5838   -23401.245    65.971787    253.69088 
   20550    115.53526   -1639.7642    91376.023   -21689.724     1732.275   -23421.999    66.227907    256.00985 
   20600    113.24063   -1546.6479    91286.297   -21701.092    1697.8705   -23398.963    66.382065    250.92527 
   20650    109.59211   -1791.6953    91257.606   -21731.374    1643.1665    -23374.54    66.528605    242.84066 
   20700    112.86402   -1058.6688    91206.057   -21733.029    1692.2238   -23425.253    66.675475    250.09076 
   20750    114.27426   -1209.5966    91233.887   -21705.974    1713.3682   -23419.342    67.025227    253.21566 
   20800    108.52109   -1324.8213    91263.587   -21755.717    1627.1081   -23382.825    67.335025    240.46743 
   20850    110.71954   -1563.6551      91288.7   -21742.915    1660.0707   -23402.986    67.417233     245.3389 
   20900     113.3402   -1134.0587    91290.004   -21700.334    1699.3634   -23399.697    67.391216    251.14591 
   20950    111.44809   -1404.3767    91291.012   -21652.995    1670.9941   -23323.989    67.788357    246.95326 
   21000     114.2297   -1253.2016    91323.164    -21674.25    1712.7002   -23386.951    68.135724    253.11692 
   21050    111.85762   -1316.3241     91347.86   -21680.001    1677.1343   -23357.135    68.367043    247.86071 
   21100    111.19603   -1297.6436    91331.771   -21665.724    1667.2149   -23332.939    68.381487    246.39473 
   21150    113.03547    -1193.101    91394.274    -21664.15    1694.7944   -23358.944    68.435456    250.47066 
   21200    111.83879   -1356.1117    91469.141   -21636.781     1676.852   -23313.633    68.571428    247.81898 
   21250    111.99643   -1347.1704    91468.416    -21620.47    1679.2157   -23299.686    68.393626     248.1683 
   21300    115.16233   -1164.8988    91465.618   -21615.052    1726.6835   -23341.736    68.383137     255.1835 
   21350    112.35129   -1573.1334    91465.114   -21630.387    1684.5362   -23314.923    68.752591    248.95462 
   21400    117.32937    -1387.529    91472.256   -21653.928    1759.1749   -23413.103    68.954695    259.98533 
   21450     114.6413    -1329.268    91525.129   -21653.133    1718.8714   -23372.005    69.235332    254.02896 
   21500    112.62338   -1171.8181    91626.427   -21641.813    1688.6159   -23330.429     69.26816    249.55754 
   21550    115.83818   -1457.2894    91644.486   -21683.174    1736.8168   -23419.991    69.259029    256.68108 
   21600    110.03114   -1282.8523    91620.154   -21736.982    1649.7491   -23386.731    69.513228     243.8135 
   21650    113.31735   -1434.0621    91563.217   -21770.036    1699.0208   -23469.057    69.584631    251.09528 
   21700    111.78548    -1411.814     91579.32    -21763.59    1676.0527   -23439.642    69.952964    247.70086 
   21750    112.18701   -1421.2726     91598.08   -21692.949    1682.0732   -23375.022    70.299587    248.59061 
   21800     116.1076   -1403.5034    91595.216   -21703.783    1740.8563   -23444.639    70.529292    257.27807 
   21850     109.6399   -1252.6665    91554.717   -21730.394    1643.8831   -23374.277    70.781567    242.94657 
   21900    112.16482   -1248.1398     91561.51   -21703.939    1681.7404   -23385.679    71.082085    248.54143 
   21950    115.09742   -1172.0275    91576.602   -21686.271    1725.7102   -23411.982    71.170302    255.03965 
   22000    110.66623   -1375.0016    91657.578   -21704.083    1659.2713   -23363.354    71.519979    245.22076 
   22050     113.5069   -1373.1602    91630.616   -21713.267    1701.8628    -23415.13     71.65289    251.51529 
   22100    111.84591   -1494.7974     91591.37   -21694.114    1676.9588   -23371.073    72.100812    247.83478 
   22150    111.36828   -1414.4755    91540.494   -21733.913    1669.7974   -23403.711    72.505915     246.7764 
   22200    114.57112   -1286.8234    91528.595   -21666.104    1717.8191   -23383.923    72.437976    253.87344 
   22250    111.00059   -1186.3093    91535.474    -21694.13    1664.2845   -23358.414    72.675934    245.96165 
   22300    113.39995   -1009.2316    91606.457   -21707.134    1700.2593   -23407.393    72.808099    251.27831 
   22350    112.47359   -1196.0844    91661.783   -21703.698    1686.3699   -23390.068    73.027235    249.22562 
   22400    111.16793   -1060.1755    91666.174   -21768.935    1666.7935   -23435.729    73.425383    246.33245 
   22450     115.9005   -1351.4844     91716.01    -21716.76    1737.7512   -23454.511    73.971909    256.81917 
   22500    112.02704   -1490.8637    91706.957   -21723.171    1679.6746   -23402.846    73.737896    248.23614 
   22550    112.34887   -1402.7559    91719.968   -21673.449    1684.4999   -23357.949    73.864268    248.94925 
   22600    114.48833   -1341.1682    91597.959   -21634.812    1716.5779    -23351.39    74.082572       253.69 
   22650    115.40554   -1329.7622    91549.063   -21652.718    1730.3301   -23383.048    74.561332    255.72241 
   22700    114.21727   -1126.8122    91516.113   -21641.934    1712.5138   -23354.448    74.702336    253.08938 
   22750    114.75603    -1070.606    91566.438    -21632.29    1720.5916   -23352.882    74.695743    254.28318 
   22800    112.39512   -1679.4489    91434.646   -21637.814    1685.1934   -23323.007    74.758889    249.05174 
   22850    114.41668   -1092.1639    91351.449   -21634.156    1715.5036    -23349.66    74.909432    253.53123 
   22900     116.0984   -1109.6436    91403.201   -21647.935    1740.7185   -23388.653    74.911864     257.2577 
   22950     114.5017   -899.05836     91469.31   -21650.848    1716.7783   -23367.626    74.900383    253.71962 
   23000    116.06921   -1535.4451    91476.664   -21643.562    1740.2808   -23383.843    74.772024    257.19302 
   23050     112.4135   -1431.7989    91351.431   -21637.773     1685.469   -23323.242    75.201924    249.09248 
   23100    114.58995   -1357.3092     91279.88   -21625.744    1718.1015   -23343.845    75.742532    253.91518 
   23150    112.07523   -1420.1067    91239.102   -21636.439    1680.3971   -23316.836    75.804322    248.34291 
   23200    111.93341   -1515.6743    91192.944   -21654.508    1678.2708   -23332.778    76.041412    248.02866 
   23250    115.94667   -1261.6747    91173.098   -21605.004    1738.4435   -23343.448    76.332863    256.92148 
   23300    115.61309   -1236.9487    91198.548   -21567.948    1733.4419    -23301.39    76.477467     256.1823 
   23350    112.24297    -1018.438    91181.655   -21615.094    1682.9122   -23298.006     76.39466     248.7146 
   23400    115.33737    -1467.777    91140.909   -21619.179    1729.3079   -23348.487    76.546409    255.57135 
   23450    114.11374   -1521.1388    91076.977   -21597.266    1710.9614   -23308.227    76.515415    252.85996 
   23500    115.20942   -1166.9675    91089.613   -21613.174    1727.3895   -23340.564    76.539486    255.28783 
   23550    113.12431    -1204.464    91107.322   -21623.378    1696.1265   -23319.505    76.876486    250.66753 
   23600    113.54975   -1247.9927    91112.505   -21630.171    1702.5053   -23332.676    76.834358    251.61024 
   23650    115.18538   -1509.8868     91132.49   -21617.746    1727.0291   -23344.775    76.888542    255.23457 
   23700    114.10078   -1238.5669    91117.863   -21582.827    1710.7672   -23293.594    76.956541    252.83125 
   23750    115.57372   -1238.2777    91141.541   -21581.785    1732.8517   -23314.637    77.116277    256.09508 
   23800    113.51437   -1256.1073    91232.478   -21583.861    1701.9748   -23285.836    77.067489    251.53185 
   23850    110.76477   -1368.8336    91229.661   -21654.295    1660.7487   -23315.043    77.349205    245.43911 
   23900    111.80078   -945.11378    91290.787   -21673.173    1676.2822   -23349.456    77.555973    247.73477 
   23950    111.77402   -1166.4691    91336.072   -21652.411    1675.8809   -23328.292    77.866213    247.67547 
   24000    112.19034   -1356.6694    91369.358   -21652.871     1682.123   -23334.994    78.124353    248.59798 
   24050    113.97699   -1295.6707    91302.796   -21627.801    1708.9111   -23336.713    78.295025    252.55694 
   24100    113.77841   -1214.1405    91295.447   -21597.593    1705.9337   -23303.527    78.344379    252.11691 
   24150    116.20874   -1310.1587    91234.339   -21604.701    1742.3728   -23347.074    78.792071    257.50219 
   24200    112.08361   -1127.7723    91247.296   -21632.959    1680.5228   -23313.482    79.168692    248.36148 
   24250    112.18146    -1081.831    91283.258   -21666.234    1681.9899   -23348.224    79.370094     248.5783 
   24300    109.82764   -1248.9875    91336.015    -21673.47    1646.6979   -23320.168    79.766771    243.36257 
   24350     114.4918   -1381.2815    91310.156   -21616.791    1716.6298    -23333.42    80.142028    253.69768 
   24400    112.40817   -1304.8903    91331.569    -21655.09    1685.3891    -23340.48    80.460307    249.08066 
   24450    114.04195   -1252.6259    91319.387   -21635.916    1709.8851   -23345.801    80.704783    252.70088 
   24500    110.80913   -1490.0038    91263.409   -21624.772    1661.4138   -23286.185        80.95     245.5374 
   24550    114.30094   -1003.6855    91275.555   -21645.436    1713.7683   -23359.204      80.9569    253.27478 
   24600    113.00029     -1287.19    91240.856   -21651.003    1694.2669    -23345.27    81.035193    250.39271 
   24650    115.72339   -1480.2149    91285.837   -21658.227    1735.0957   -23393.323    81.301486    256.42672 
   24700    112.53891   -1365.6474     91228.11   -21711.885    1687.3493   -23399.234    81.423221    249.37037 
   24750    109.96719   -1561.6617     91185.84   -21757.354    1648.7903   -23406.144    81.648211     243.6718 
   24800    113.19171   -1391.7104    91108.389   -21717.906    1697.1371   -23415.044    81.868302    250.81688 
   24850    110.60308   -1490.9081    91054.038   -21679.395    1658.3245    -23337.72     82.16607    245.08084 
   24900    113.14672    -1094.944    91041.862   -21668.745    1696.4625   -23365.208    82.036639    250.71718 
   24950    110.34151   -1178.5275    91028.583   -21685.356    1654.4027   -23339.759    82.038593    244.50124 
   25000    111.13568    -1268.989    91059.291   -21693.752      1666.31   -23360.062     82.14326    246.26101 
   25050    110.63701   -1288.7505    90989.329   -21645.043    1658.8332   -23303.876    82.534095    245.15602 
   25100    111.15416   -1195.0173    90957.781   -21616.659     1666.587   -23283.246    82.498601    246.30194 
   25150    112.35898    -1316.577    90928.318   -21656.473    1684.6515   -23341.125    82.892368    248.97167 
   25200    113.31873    -1276.138    90983.044   -21646.136    1699.0415   -23345.178    83.226681    251.09834 
   25250    109.73305   -1210.2551    90996.914   -21675.973    1645.2797   -23321.253    83.336742    243.15297 
   25300    113.00753    -1010.053    91041.543   -21688.448    1694.3755   -23382.823    83.703965    250.40875 
   25350    110.77739   -1538.5799    91104.342   -21681.992     1660.938    -23342.93    83.756467    245.46708 
   25400    112.96673   -1244.1885     91067.05   -21636.729    1693.7637   -23330.492    84.280367    250.31834 
   25450    114.68402    -1240.889    91092.862   -21647.586     1719.512   -23367.098    84.427827    254.12362 
   25500    111.88842   -1431.6227    91068.805   -21638.089    1677.5962   -23315.685    84.617874    247.92897 
   25550     113.3069   -1034.6209    91077.277   -21630.017    1698.8641   -23328.881    84.616383    251.07211 
   25600    110.36017   -1271.5713    91022.901   -21638.159    1654.6824   -23292.841    84.592416    244.54257 
   25650    110.94154   -1531.1016    90949.094   -21626.766    1663.3991   -23290.165    84.883275    245.83081 
   25700    113.14196   -1355.9463    90960.384   -21587.849    1696.3912    -23284.24     85.11434    250.70664 
   25750    113.74124   -1388.7044    90977.436   -21608.351    1705.3763   -23313.727    85.163849    252.03455 
   25800    114.15218   -1570.6322    90960.595   -21600.125    1711.5377   -23311.662    85.638188    252.94513 
   25850    116.36261   -1368.2278    90959.299   -21590.923    1744.6799   -23335.603    85.879138    257.84315 
   25900    113.09268   -1455.9625    90897.852   -21589.609    1695.6522   -23285.261    85.743984    250.59743 
   25950    114.58635   -1254.2895    90961.568   -21574.656    1718.0475   -23292.703    86.108942     253.9072 
   26000    117.23645   -1450.4112    90987.842   -21552.693    1757.7818   -23310.475    85.997241    259.77945 
   26050    118.00405   -1273.7615    90971.051   -21528.712    1769.2907   -23298.003    86.101431    261.48033 
   26100    115.53625   -1207.6068     90986.31   -21521.716    1732.2898   -23254.006    86.511264    256.01204 
   26150    116.44352   -1536.7704    91030.396   -21567.479    1745.8929   -23313.372    86.463481    258.02242 
   26200    114.95994   -1370.8512    91041.184   -21584.949     1723.649   -23308.598    86.795666    254.73502 
   26250    113.35606   -1211.7497    91010.254   -21620.859    1699.6013    -23320.46    86.887195    251.18106 
   26300    112.39094   -1312.2059    91041.352   -21638.672    1685.1307   -23323.803    86.965928    249.04248 
   26350     113.0942   -1274.3073    91033.357     -21611.7     1695.675   -23307.375    87.009287     250.6008 
   26400    112.99761   -1773.7341    90992.695    -21625.69    1694.2267   -23319.917    87.295317    250.38676 
   26450    114.70314   -1578.5285    90984.178   -21598.814    1719.7986   -23318.612    87.587112    254.16599 
   26500    114.32675   -1255.1416    90969.645   -21605.902    1714.1553   -23320.057    88.184428    253.33197 
   26550    115.95374   -1264.1809    90993.082   -21593.911    1738.5494   -23332.461    88.436178    256.93714 
   26600    115.12951   -1362.5104    90978.948   -21655.115    1726.1914   -23381.306    88.652732    255.11077 
   26650    115.79231    -1278.128    91013.155   -21607.157     1736.129   -23343.286    88.890131    256.57943 
   26700    113.56293   -1154.3054    91062.843   -21615.641    1702.7029   -23318.344    89.374173    251.63945 
   26750    113.30497   -1162.8869    91060.924   -21644.597    1698.8351   -23343.432    89.525118    251.06784 
   26800    112.36686   -1227.3985    90981.338   -21720.025    1684.7697   -23404.794    89.390646    248.98913 
   26850    109.30304   -928.34012    90981.851   -21742.259    1638.8323   -23381.091    89.452352    242.20013 
   26900    114.03551    -1261.323    90965.686   -21698.175    1709.7884   -23407.964    89.518237     252.6866 
   26950    112.97799   -1243.4462    91016.979   -21701.826    1693.9326   -23395.758    89.694754     250.3433 
   27000    112.77422   -1370.3144    90941.928   -21676.914    1690.8774   -23367.792    89.418746    249.89177 
   27050    112.69044   -1065.4208    90979.432    -21668.31    1689.6212   -23357.931    89.381963    249.70613 
   27100    115.60458   -1322.1255    91009.406   -21683.984    1733.3144   -23417.298    89.724628    256.16346 
   27150    112.69915   -1157.6309    91100.438   -21699.231    1689.7519   -23388.983    89.719124    249.72544 
   27200    115.22068   -1580.9529    91207.725   -21650.892    1727.5584   -23378.451     89.60936    255.31279 
   27250    114.20191   -1467.0997      91173.7    -21648.48    1712.2834   -23360.763    89.917048    253.05532 
   27300    111.32531   -1480.6008    91154.314   -21645.291    1669.1532   -23314.444    89.841687    246.68119 
   27350    114.14361   -1305.7279    91146.674   -21633.372    1711.4093   -23344.782    89.884366    252.92615 
   27400    116.50835   -1375.8064    91143.235   -21610.756     1746.865   -23357.621    89.616674    258.16608 
   27450    118.58973   -1548.2371    91127.419   -21575.116    1778.0721   -23353.188    89.792335    262.77812 
   27500    114.10884   -1568.6048    91055.955   -21569.159     1710.888   -23280.047    90.079547     252.8491 
   27550    112.66038   -1716.2976    90982.182   -21595.828    1689.1705   -23284.999    90.003348    249.63952 
   27600    111.23058   -1719.1546    90873.115   -21635.283    1667.7328   -23303.016     90.25076    246.47128 
   27650    112.66045   -1568.8071    90748.462   -21623.894    1689.1716   -23313.066     90.70876    249.63968 
   27700    111.57935   -1296.8798      90751.7   -21645.606    1672.9621   -23318.568    90.693392    247.24411 
   27750    112.51221   -1136.3413    90796.661   -21622.046    1686.9489   -23308.995    90.835894    249.31119 
   27800    112.62551   -1288.9669    90779.069   -21626.387    1688.6477   -23315.035    91.269408    249.56224 
   27850    113.62341   -1318.1068    90799.961   -21589.444    1703.6097   -23293.054    91.727153    251.77346 
   27900    114.00495   -1189.6333    90802.903   -21591.937    1709.3303   -23301.267    91.948192    252.61889 
   27950    113.00541   -1213.4003    90768.713   -21600.396    1694.3437    -23294.74    92.161102    250.40405 
   28000    112.12211   -1374.8877    90785.938   -21654.356    1681.1001   -23335.456     92.02521     248.4468 
   28050    111.26321   -1304.6382    90750.409   -21655.776    1668.2222   -23323.998    92.219427     246.5436 
   28100    111.47292    -1100.305    90695.954   -21669.018    1671.3665   -23340.385    92.353628    247.00829 
   28150    113.21616   -1140.8058    90734.309    -21632.59    1697.5036   -23330.093     92.52886    250.87105 
   28200    114.22618   -1067.8074    90731.846   -21638.101    1712.6474   -23350.748    92.486687    253.10912 
   28250    113.83096   -1521.7814    90756.984     -21633.6    1706.7216   -23340.322    92.832658    252.23336 
   28300    114.81058   -1277.0281     90806.73   -21612.667    1721.4094   -23334.077    92.721267    254.40405 
   28350    116.36226   -1062.2197    90843.739   -21651.825    1744.6746     -23396.5    92.786137    257.84237 
   28400    111.07139   -1484.7159    90836.487   -21688.829    1665.3461   -23354.175    92.780591    246.11854 
   28450    111.42625   -1070.5959    90855.969   -21668.252    1670.6666   -23338.918    92.900542    246.90485 
   28500     111.2811   -1502.2336    90876.595   -21696.924    1668.4903   -23365.414    93.053812    246.58323 
   28550     110.8692   -1239.9012    90864.736   -21691.015    1662.3145   -23353.329    93.437158    245.67052 
   28600    111.72144   -1277.8904    90914.557   -21675.521    1675.0926   -23350.613    93.935847    247.55896 
   28650    113.51183    -1441.362    90915.606   -21689.777    1701.9367   -23391.713     93.92053    251.52621 
   28700    117.66869   -1238.2255    91007.974   -21655.223    1764.2625   -23419.485     94.10699    260.73722 
   28750    110.48946   -1127.2539    91021.842   -21668.522    1656.6209   -23325.143    94.481118    244.82907 
   28800    109.26878   -1159.2909    91123.716   -21709.931    1638.3187    -23348.25     94.44095    242.12422 
   28850    114.42493   -1233.3329    91176.838   -21671.369    1715.6273   -23386.996    94.427147    253.54952 
   28900    109.54395   -1383.8221    91225.765   -21743.607    1642.4445   -23386.052    94.426662    242.73396 
   28950     111.0315   -1591.9993    91249.879    -21756.63     1664.748   -23421.378    95.091327    246.03016 
   29000    107.54557   -1168.0656    91292.205   -21799.397    1612.4818   -23411.879    94.991456    238.30583 
   29050    109.45653   -1374.2918    91260.214   -21793.243    1641.1337   -23434.376    94.949912    242.54025 
   29100    110.02442   -1162.4967    91229.248   -21786.851    1649.6484   -23436.499     94.99889    243.79862 
   29150    108.39905   -1521.6253    91240.803   -21775.476    1625.2784   -23400.754    95.280509    240.19702 
   29200    110.68617   -1461.4497    91164.541   -21757.352    1659.5702   -23416.922    95.489639    245.26494 
   29250    109.64917   -1307.6095    91185.887    -21766.11     1644.022   -23410.132    95.473697     242.9671 
   29300    111.59318   -1226.0637    91145.408   -21744.831    1673.1695       -23418    95.685053    247.27475 
   29350    110.64055   -1457.0854    91100.924   -21686.391    1658.8863   -23345.278    96.048966    245.16386 
   29400    111.84795    -1296.079     91154.53   -21707.609    1676.9894   -23384.599    96.145769    247.83928 
   29450    110.64073   -1510.1359     91193.85   -21688.707    1658.8889   -23347.596    96.405065    245.16425 
   29500    114.45836   -1350.7745    91215.879   -21689.951    1716.1285    -23406.08    96.706528    253.62359 
   29550     112.2543   -1439.6207    91246.139   -21689.545    1683.0819   -23372.627     96.90298    248.73969 
   29600      113.999   -1013.7193    91259.995   -21653.077    1709.2411   -23362.318    97.520544    252.60571 
   29650     114.9862   -1523.6575    91311.291   -21649.045    1724.0426   -23373.088    97.575076     254.7932 
   29700    113.31383   -1552.3283    91180.415   -21706.519     1698.968   -23405.487    97.551937    251.08748 
   29750    116.44318   -1324.6905    91148.579   -21675.739    1745.8878   -23421.627    97.555195    258.02167 
   29800    113.13042   -1379.9631     91241.66   -21651.907     1696.218   -23348.125    98.156918    250.68106 
   29850    112.71896   -1215.7731    91218.759   -21635.079    1690.0488   -23325.128    98.448846    249.76932 
   29900    116.20289   -1090.5421     91224.12   -21601.398    1742.2851   -23343.683    98.478506    257.48922 
   29950    114.94957   -1671.3845    91207.525   -21579.027    1723.4935    -23302.52    98.488259    254.71205 
   30000    115.66213   -1609.2335    91149.891    -21656.99    1734.1772   -23391.168    98.590494    256.29098 
   30050    113.22116   -1372.5917     91124.32   -21680.502    1697.5786    -23378.08    98.606338    250.88213 
   30100     115.3163   -1457.6667     91066.64    -21613.81    1728.9921   -23342.802    98.825612    255.52467 
   30150    111.83317   -1505.5018    91064.372   -21672.951    1676.7677   -23349.719    98.903544    247.80653 
   30200    111.68658   -1507.9962    90998.036   -21669.474      1674.57   -23344.044    99.013691    247.48173 
   30250    114.02645   -1193.1554    90976.438     -21651.6    1709.6527   -23361.252     99.15061    252.66654 
   30300    113.06084    -1282.202    91021.963   -21679.713    1695.1749   -23374.888    99.354149    250.52689 
   30350    116.78541    -1339.853    91061.891   -21684.887    1751.0191   -23435.906    99.370042    258.78001 
   30400    111.64799   -1325.2546    91130.628    -21679.54    1673.9913   -23353.532    99.051331     247.3962 
   30450    115.11738   -1242.9946    91102.196   -21671.338    1726.0095   -23397.348    99.383366    255.08388 
   30500    111.91683   -1262.6815    91128.748   -21704.716    1678.0222   -23382.738    99.639161    247.99192 
   30550    112.64843   -1507.2041    91168.867   -21750.584    1688.9914   -23439.575    99.972993    249.61305 
   30600    112.07003   -1186.5659    91207.302   -21754.922    1680.3191   -23435.241     100.4649    248.33138 
   30650    114.91176   -1542.6285    91306.689   -21688.152    1722.9265   -23411.079    100.86353    254.62825 
   30700    113.97687   -1357.1073    91327.013   -21707.004    1708.9093   -23415.913    100.99443    252.55668 
   30750    113.04879   -1407.1419    91358.368   -21725.124    1694.9942   -23420.118    101.07984    250.50018 
   30800    111.34032   -1579.5905    91423.421   -21702.903    1669.3782   -23372.282    101.37186    246.71445 
   30850    111.19207   -1352.5253    91398.359   -21662.347    1667.1554   -23329.502    101.32865    246.38595 
   30900    116.61754   -1281.5198    91453.771   -21651.876    1748.5022   -23400.378    101.98912    258.40804 
   30950     111.9152   -1420.7479    91498.072   -21686.932    1677.9977   -23364.929    101.69789    247.98831 
   31000    112.59213   -1173.8037    91573.131   -21714.534    1688.1472   -23402.681    101.62423    249.48828 
   31050    109.95483   -1389.5215    91520.432   -21677.345     1648.605    -23325.95    101.74162    243.64441 
   31100    110.57989   -1424.7524    91485.062   -21713.004    1657.9768   -23370.981    101.68331    245.02945 
   31150    112.27765    -1558.645    91402.787   -21731.082    1683.4321   -23414.514    101.38387    248.79144 
   31200    111.95924   -1415.3257    91292.806   -21759.623    1678.6579   -23438.281    101.37733    248.08588 
   31250    112.61365   -1104.3999    91225.831    -21729.14      1688.47    -23417.61    101.69076    249.53598 
   31300    111.12303   -1450.1041    91188.189   -21734.031    1666.1203   -23400.152    101.79093    246.23297 
   31350    111.91234   -1153.2098    91162.645   -21744.867    1677.9548   -23422.821    102.12914    247.98196 
   31400    111.75095   -1161.6606    91207.039   -21730.366    1675.5351   -23405.901    102.43505    247.62436 
   31450    111.83671   -1391.2927    91242.236   -21697.975    1676.8208   -23374.796    102.53651    247.81437 
   31500    114.29566   -1003.6177    91337.998   -21677.599    1713.6891   -23391.288     102.6133    253.26308 
   31550    114.24857   -1253.6996    91365.254   -21657.062     1712.983   -23370.045    102.62925    253.15872 
   31600    115.34013   -1568.2203    91390.924   -21663.868    1729.3494   -23393.217    102.77238    255.57748 
   31650    111.98727   -1639.0711    91318.293   -21669.123    1679.0783   -23348.202    102.91936      248.148 
   31700    116.28263   -1313.0102     91256.94   -21664.588    1743.4807   -23408.069    102.98787    257.66592 
   31750    112.75835   -1293.8164    91346.582   -21704.832    1690.6394   -23395.472    103.44113     249.8566 
   31800     110.5887   -1132.1582    91521.787   -21759.406    1658.1089   -23417.515    103.78591    245.04897 
   31850     113.6105   -1301.6074    91568.034   -21736.278    1703.4162   -23439.695    103.72764    251.74486 
   31900     111.2274   -1388.9612    91541.796   -21772.317    1667.6852   -23440.003    104.22204    246.46424 
   31950    110.33342   -1323.6755    91626.657   -21768.824    1654.2813   -23423.105     104.6056     244.4833 
   32000    110.57508   -763.78765    91665.512   -21750.448    1657.9047   -23408.353    104.66948    245.01879 
   32050    111.09545   -1285.7407    91682.705   -21764.127    1665.7068   -23429.833    104.54394    246.17186 
   32100    115.91159    -1231.566    91693.576   -21710.997    1737.9175   -23448.915    104.57798    256.84375 
   32150    111.39581    -1387.466    91691.624   -21734.366    1670.2102   -23404.577    104.52663     246.8374 
   32200    114.95336   -1449.4966    91720.146   -21702.514    1723.5503   -23426.064    105.03279    254.72045 
   32250    112.23939   -1402.7341    91745.615    -21674.14    1682.8585   -23356.999    104.92185    248.70667 
   32300    113.00093   -1412.3226     91701.84   -21676.263    1694.2765    -23370.54    105.27312    250.39412 
   32350    113.22504   -1371.6237    91705.113    -21684.73    1697.6367   -23382.366    105.63479    250.89072 
   32400    114.06467    -1530.208     91645.82   -21671.923    1710.2257   -23382.148    105.88458    252.75122 
   32450    113.01831   -1287.5931    91579.215   -21736.756    1694.5372   -23431.293    105.92168    250.43265 
   32500    109.77441    -1386.177    91506.182   -21787.109    1645.8998   -23433.009    105.74909    243.24461 
   32550    111.20775   -1296.5759    91442.369   -21758.986    1667.3906   -23426.376    106.14565     246.4207 
   32600    110.85366   -1563.3117    91409.152   -21752.966    1662.0815   -23415.048    106.40877    245.63608 
   32650    111.93766   -1389.1479     91254.07   -21742.712    1678.3344   -23421.046    106.79436    248.03807 
   32700    110.77662   -1222.6173    91255.199   -21773.112    1660.9265   -23434.038    106.62926    245.46538 
   32750    110.69461   -1123.3332    91325.333    -21731.63    1659.6969   -23391.327    106.66012    245.28366 
   32800    114.25056   -1108.6977    91392.481   -21686.355    1713.0128   -23399.368    106.32516    253.16313 
   32850    114.03132   -1091.0633    91456.598   -21670.671    1709.7258   -23380.397    106.24987    252.67734 
   32900     116.2751   -842.43491    91531.642   -21654.386    1743.3678   -23397.754    106.52337    257.64924 
   32950    112.22432   -1203.1751    91579.857   -21660.933    1682.6325   -23343.565     106.6563    248.67327 
   33000    113.27034   -1551.8466    91609.193     -21689.3     1698.316   -23387.616    106.79661    250.99111 
   33050    115.86998   -1286.6513    91577.607   -21634.883    1737.2936   -23372.177    106.87099    256.75155 
   33100    115.70746   -1400.2346    91600.589   -21637.581    1734.8568   -23372.438    107.17234    256.39142 
   33150    115.72812    -1253.481    91606.208   -21655.613    1735.1666   -23390.779    107.43352    256.43719 
   33200    114.72397   -1472.8557    91635.384   -21682.316    1720.1109   -23402.426    107.34235    254.21214 
   33250    115.68464   -1435.6651     91662.34   -21684.799    1734.5147   -23419.313     107.8157    256.34085 
   33300    115.57069   -1535.4522    91687.947   -21656.693    1732.8062   -23389.499     107.7677    256.08836 
   33350    114.27017   -1684.1259    91664.222   -21665.716    1713.3069   -23379.023    107.60351    253.20659 
   33400    114.62517    -1283.603    91713.662   -21693.457    1718.6296   -23412.087    107.38583    253.99322 
   33450     114.0026   -1271.2784    91707.945   -21711.507    1709.2951   -23420.803    107.76161     252.6137 
   33500    113.33263   -1181.2309    91722.148   -21686.595    1699.2499   -23385.845    108.18283    251.12912 
   33550    113.49799   -1501.5995    91698.111   -21718.594    1701.7292   -23420.323    108.19796    251.49554 
   33600    111.61055   -1392.2581    91589.979   -21775.006      1673.43   -23448.436    108.54399    247.31325 
   33650    114.56562   -1380.7644    91505.771   -21753.388    1717.7367   -23471.125    108.71292    253.86127 
   33700    117.39307   -1103.2473    91463.517   -21700.484      1760.13   -23460.614    109.16573    260.12649 
   33750    114.54862     -1150.04    91512.611   -21717.011    1717.4818   -23434.493    109.16889    253.82359 
   33800    111.97748   -1168.1322    91552.603   -21752.088    1678.9316    -23431.02    109.13858    248.12632 
   33850    114.05725    -1525.403     91551.72   -21768.822    1710.1145   -23478.936    109.71606    252.73479 
   33900    114.14301   -1430.4683    91547.495   -21753.751    1711.4004   -23465.151    109.69002    252.92483 
   33950    113.60662   -1615.5923    91500.885   -21713.927     1703.358   -23417.285    109.71233    251.73626 
[...]
   92000    115.62584   -1312.3185    91550.151   -21737.578    1733.6331   -23471.211    279.57636    256.21056 
   92050    112.03114   -1473.0729    91461.669   -21794.515    1679.7361   -23474.251    279.02896    248.24522 
   92100    112.29383   -1448.3579    91420.948   -21822.974    1683.6747   -23506.649    279.52372     248.8273 
   92150    114.14124   -1503.3217    91342.569   -21768.585    1711.3738   -23479.959     279.2943     252.9209 
   92200    117.14258   -1618.0994    91316.675   -21725.643    1756.3743   -23482.017    279.52843    259.57144 
   92250    115.78085   -1365.6595    91302.153    -21696.08    1735.9572   -23432.037    279.54767    256.55404 
   92300    114.40768   -1331.9726    91324.368   -21739.758    1715.3686   -23455.127    279.83267    253.51128 
   92350    112.42818   -1309.5478    91281.682   -21754.481    1685.6891    -23440.17    279.88655      249.125 
   92400    115.66791   -1338.6968    91232.846   -21733.474    1734.2638   -23467.738    280.09876    256.30377 
   92450    114.94813    -1525.694    91145.757   -21761.587    1723.4718   -23485.059    280.39136    254.70885 
   92500    111.95542   -1198.2443    91084.585   -21779.121    1678.6007   -23457.722    280.11321    248.07742 
   92550     113.8058   -1279.2028    91133.049   -21767.825    1706.3443    -23474.17    280.93418    252.17761 
   92600    114.59595    -1053.914    91183.601   -21716.283    1718.1915   -23434.475    281.41597    253.92847 
   92650    109.80191   -1401.5028    91209.643   -21742.983    1646.3122   -23389.295     281.3556    243.30556 
   92700    112.31653   -1485.5361     91225.24   -21741.716     1684.015   -23425.731     281.5581    248.87759 
   92750    113.24023    -1437.758    91237.166   -21749.369    1697.8644   -23447.234    282.06146    250.92438 
   92800    113.82693   -1305.3199    91267.407   -21744.425    1706.6611   -23451.086    282.67377    252.22443 
   92850    114.25412   -1437.9316    91288.184   -21739.213    1713.0663    -23452.28    282.28703    253.17103 
   92900    111.24633   -1175.3208    91275.363   -21741.236    1667.9691   -23409.205    282.02964    246.50619 
   92950    113.59461   -1587.6253    91338.661   -21757.968    1703.1779   -23461.146    282.42994    251.70965 
   93000    112.73297   -1233.1333    91357.071   -21734.689    1690.2589   -23424.948    282.45759    249.80036 
   93050    113.30249   -1380.7419    91414.106    -21729.62    1698.7981   -23428.418    282.80505    251.06236 
   93100    112.62337   -1627.2236    91411.388    -21743.57    1688.6157   -23432.185    282.97195    249.55752 
   93150    112.47666    -1319.576    91371.659   -21763.191     1686.416   -23449.607    283.18288    249.23243 
   93200    111.35011   -1173.9295    91394.594   -21799.951     1669.525   -23469.476    283.06674    246.73615 
   93250    108.04772   -1338.5941    91411.665   -21822.736    1620.0108   -23442.747    283.63527    239.41852 
   93300    111.17231    -1301.092    91417.276   -21821.313    1666.8592   -23488.172    283.81051    246.34217 
   93350    108.34999   -1322.5393    91457.904   -21791.722    1624.5429   -23416.265    283.94434    240.08831 
   93400    114.76017    -1586.361     91484.25   -21804.104    1720.6536   -23524.758     284.1807    254.29235 
   93450    115.58434   -1280.1821    91538.722   -21746.401    1733.0108   -23479.412    284.06606     256.1186 
   93500    113.12067   -1486.9501    91552.202   -21740.892    1696.0719   -23436.964     284.2695    250.65945 
   93550    114.41088   -1116.1334    91548.965   -21742.214    1715.4166    -23457.63    284.34772    253.51839 
   93600    114.70764   -1163.8245    91596.156   -21723.285     1719.866   -23443.151    284.92943    254.17595 
   93650    113.42966   -1228.1281    91698.378   -21732.998    1700.7048   -23433.703    284.87955    251.34414 
   93700    116.45356   -1273.5686    91798.321   -21763.364    1746.0435   -23509.408    285.07484    258.04468 
   93750    111.46511   -1598.3379    91781.294   -21824.553    1671.2492   -23495.803    285.71994    246.99096 
   93800    111.82164   -1540.7691    91701.324    -21802.36    1676.5949   -23478.955    284.96358    247.78099 
   93850     112.0912   -1426.7568    91709.322   -21838.291    1680.6366   -23518.928    285.33506    248.37831 
   93900    109.13956   -1405.9354    91646.864   -21849.378    1636.3812   -23485.759     285.7756    241.83788 
   93950    113.27497   -1347.5778    91637.063   -21855.448    1698.3854   -23553.834    286.23664    251.00137 
   94000    109.51106   -1276.3158    91603.036   -21827.988    1641.9513   -23469.939    286.69183    242.66108 
   94050    111.65289   -1364.5706    91561.264   -21835.402    1674.0648   -23509.467     287.1286    247.40707 
   94100    113.05372   -1523.5021    91507.846   -21778.918     1695.068   -23473.986    286.77083     250.5111 
   94150    111.52078   -1262.6587     91470.16   -21780.965     1672.084   -23453.049    286.51253    247.11433 
   94200    116.06195   -1583.2545    91453.886   -21724.905     1740.172   -23465.077    286.60148    257.17693 
   94250    111.70749   -1211.5606    91412.011   -21806.837    1674.8834    -23481.72    286.59604    247.52805 
   94300    111.26209   -1414.4752     91325.41   -21846.992    1668.2053   -23515.198    286.62602    246.54111 
   94350    108.96092   -1119.3184    91327.677    -21870.43    1633.7028   -23504.133    287.19524    241.44203 
   94400    110.11028   -1183.3556    91370.133   -21884.297    1650.9356   -23535.232      287.575    243.98885 
   94450    109.47065    -1051.502    91387.943   -21856.067    1641.3454   -23497.412    287.55107    242.57153 
   94500    110.67799   -1143.4162    91398.704   -21844.918    1659.4476   -23504.365    287.65922    245.24682 
   94550    111.52344   -981.45474    91396.644   -21827.319    1672.1239   -23499.443    287.53871    247.12023 
   94600     111.3334   -1217.6107     91434.74   -21790.696    1669.2745   -23459.971    287.40974    246.69912 
   94650    111.36592   -1315.9693     91388.34    -21798.37    1669.7621   -23468.132    287.21342    246.77118 
   94700    115.83367   -1031.1477    91441.754   -21752.882    1736.7491   -23489.631    286.90045    256.67108 
   94750    115.54036   -1068.9697    91561.447   -21726.987    1732.3515   -23459.339    287.18225    256.02115 
   94800    113.90795   -1249.0192     91658.68   -21713.986     1707.876   -23421.862    287.09642    252.40396 
   94850    112.48454   -1428.0898    91625.236   -21739.915    1686.5341   -23426.449     286.9032    249.24989 
   94900    111.62976   -1242.9053    91639.224   -21740.776     1673.718   -23414.494    287.27976    247.35581 
   94950    113.66784   -1404.6527    91562.707   -21736.881    1704.2759   -23441.157    288.09049    251.87191 
   95000    111.29772   -1417.7344    91548.619   -21795.466    1668.7395   -23464.205    288.01904    246.62005 
   95050    114.11926   -1253.2959    91477.446    -21764.63    1711.0442   -23475.674    287.53155    252.87219 
   95100    113.96627   -1297.6685     91509.51   -21739.854    1708.7504   -23448.605    287.58588     252.5332 
   95150    114.66807    -1299.484    91544.856   -21753.125    1719.2728   -23472.397     288.2316    254.08828 
   95200     114.4992   -1175.4423     91538.21     -21730.7    1716.7408   -23447.441    287.72002    253.71408 
   95250    116.21379   -1263.0654    91597.888    -21720.29    1742.4484   -23462.739    287.87686    257.51337 
   95300     115.9777   -1127.2245    91590.604   -21732.222    1738.9087   -23471.131    287.87239    256.99024 
   95350    114.25506   -1029.0469    91584.793   -21755.373    1713.0804   -23468.453    287.56964    253.17311 
   95400    115.87063   -1204.3792    91631.381    -21718.64    1737.3033   -23455.943    287.56967    256.75298 
   95450    112.52088   -1214.2981    91605.386   -21709.219    1687.0789   -23396.297    287.44479     249.3304 
   95500    115.37103   -1183.6118     91662.41   -21728.068    1729.8126   -23457.881    287.60345    255.64593 
   95550    113.07092   -1094.9712    91668.245   -21729.576     1695.326   -23424.902    287.74934    250.54922 
   95600    111.19292   -1117.1578    91715.557   -21761.023    1667.1682   -23428.191    288.10764    246.38783 
   95650    110.52424   -960.54393    91638.485   -21794.498    1657.1424   -23451.641     288.7901    244.90614 
   95700    112.90271   -1299.2814    91626.412   -21783.347    1692.8039   -23476.151    288.93648    250.17649 
   95750    111.45586   -1158.9345    91596.346   -21813.298    1671.1106   -23484.409    289.55908    246.97048 
   95800    110.67958   -1443.1914    91543.645   -21808.231    1659.4714   -23467.702    289.85602    245.25034 
   95850     111.9329   -1480.3636    91468.391   -21806.453    1678.2631   -23484.716    289.76551    248.02753 
   95900    114.82418    -1586.198    91346.956   -21800.805    1721.6133   -23522.418    289.86834    254.43419 
   95950    112.43183   -1281.9571    91291.556   -21792.377    1685.7437    -23478.12    289.97862    249.13308 
   96000    112.80536     -1422.35    91255.338    -21794.67    1691.3443   -23486.014    290.06273    249.96078 
   96050    114.54514    -1111.575    91311.111   -21836.178    1717.4296   -23553.608    290.79173    253.81588 
   96100     109.7204   -1247.0797    91364.979   -21855.814      1645.09   -23500.904    290.82646    243.12493 
   96150    112.28611   -1434.5052    91381.655   -21862.406    1683.5589   -23545.965    290.90716    248.81019 
   96200    109.40435   -1536.6683    91381.862   -21804.322    1640.3513   -23444.673    290.84371    242.42461 
   96250    114.64456   -1561.8621    91330.126   -21746.211    1718.9203   -23465.132    291.09071    254.03618 
   96300    112.64696    -1675.052    91271.841   -21752.979    1688.9693   -23441.949    291.02598    249.60977 
   96350    112.85682   -1200.4994    91253.202    -21745.54    1692.1159   -23437.656    290.70082    250.07481 
   96400    114.91787   -1257.6301    91319.373   -21726.046    1723.0182   -23449.064    290.99209    254.64181 
   96450    111.89067   -1393.6988    91305.494   -21758.627    1677.6299   -23436.256    291.33708    247.93395 
   96500    111.21401      -874.88    91327.158   -21794.736    1667.4844    -23462.22    291.05096    246.43456 
   96550    111.29298   -1399.9684    91383.579   -21822.554    1668.6684   -23491.222    291.05676    246.60955 
   96600    111.00469   -1018.8081     91417.24   -21849.577     1664.346   -23513.923    290.75919    245.97075 
   96650    110.63743   -1316.3989    91537.864   -21820.111    1658.8395    -23478.95    291.21795    245.15695 
   96700    110.87887   -1124.6611    91639.937    -21794.22    1662.4595   -23456.679    291.19106    245.69194 
   96750    112.94335   -1345.9877    91675.553   -21784.653    1693.4133   -23478.066    291.46551    250.26654 
   96800    112.99037    -1066.707    91790.203   -21813.804    1694.1182   -23507.923    291.13569    250.37072 
   96850    110.85364   -970.33804     91892.01   -21790.277    1662.0813   -23452.359    291.69577    245.63604 
   96900    114.04813   -1530.9654    91891.614   -21785.793    1709.9778    -23495.77    291.48884    252.71459 
   96950    109.35838   -1185.4043    91855.898   -21810.485    1639.6621   -23450.147    291.92972    242.32276 
   97000    111.78465   -1257.1604    91911.638   -21797.668    1676.0403   -23473.709    292.08464    247.69903 
   97050    112.20696   -1350.4567    91957.198   -21807.154    1682.3723   -23489.526     292.3704    248.63481 
   97100    109.50471   -1553.8607    91909.423   -21854.291    1641.8561   -23496.147    292.50795    242.64701 
   97150    108.79896   -1506.8981    91827.016    -21888.75    1631.2744   -23520.024    292.77954    241.08315 
   97200    109.58912   -1279.5638    91845.592   -21870.161    1643.1217   -23513.283    292.35105    242.83405 
   97250    110.09381   -1059.6385    91863.185   -21831.198    1650.6887   -23481.887    292.49663    243.95236 
   97300    111.09332   -1114.7157    91899.077   -21828.225    1665.6749     -23493.9    292.56298    246.16714 
   97350    110.02044   -1329.0726    91887.994   -21819.229    1649.5886   -23468.818    292.66436    243.78978 
   97400     110.2324   -1402.9094    91857.133   -21837.326    1652.7668   -23490.093    292.45314    244.25947 
   97450    112.34213   -1134.9263    91910.068   -21823.983    1684.3989   -23508.382    292.77492    248.93433 
   97500    111.14574   -1428.1731    91973.068   -21774.986    1666.4608   -23441.446    293.44522    246.28328 
   97550    112.92424   -1320.3879     91985.48   -21787.814    1693.1267   -23480.941    293.05163     250.2242 
   97600    112.74407   -1030.6734    92036.314   -21767.917    1690.4254   -23458.342     293.9032    249.82497 
   97650    109.81828   -1162.0456    92089.019     -21793.3    1646.5575   -23439.858    293.85946    243.34182 
   97700    110.01301   -1223.0383    92047.945   -21794.686    1649.4772   -23444.164    293.48501    243.77331 
   97750    107.88976   -1640.8635    91923.304   -21823.802    1617.6424   -23441.444    293.55182    239.06851 
   97800    111.57483   -1607.8193    91845.449    -21826.16    1672.8943   -23499.055    293.75133    247.23409 
   97850    111.77346   -1387.6595    91720.485   -21804.395    1675.8725   -23480.267    293.62533    247.67423 
   97900    113.36857   -1256.9722    91693.798   -21775.255    1699.7887   -23475.044    293.77861    251.20876 
   97950    113.38192    -1397.986    91633.514   -21715.118     1699.989   -23415.107    293.92256    251.23835 
   98000    111.51389   -1407.4178    91587.782   -21726.406    1671.9806   -23398.387    293.43231    247.09905 
   98050    113.43358   -1167.8138    91618.445   -21738.261    1700.7634   -23439.024    293.51291    251.35281 
   98100    115.78661   -1507.8167    91617.372   -21693.235    1736.0435   -23429.278    293.60023     256.5668 
   98150    111.80867   -1237.5328    91644.736   -21697.735    1676.4004   -23374.136    293.53627    247.75225 
   98200    115.03166    -1208.561    91601.812   -21686.947    1724.7243   -23411.671    293.79675    254.89394 
   98250    113.40391   -1547.2985    91628.602   -21688.628    1700.3186   -23388.947    293.96952    251.28707 
   98300    112.20524   -1469.3434    91566.507   -21711.297    1682.3465   -23393.644    294.38863    248.63101 
   98350    113.01985   -1557.1282    91466.361     -21690.4    1694.5602   -23384.961    294.52688    250.43605 
   98400    113.27737   -1230.7507    91385.491   -21668.318    1698.4214   -23366.739     294.9569    251.00669 
   98450    114.70983   -1150.9983    91472.587   -21659.878    1719.8989   -23379.777    295.12298     254.1808 
   98500    112.65309   -1302.1889    91471.546   -21672.704    1689.0612   -23361.765    295.75095    249.62337 
   98550    115.70385   -1009.4353    91497.598   -21664.084    1734.8027   -23398.886    295.41073    256.38342 
   98600    114.33893   -1467.7473    91514.689   -21698.943    1714.3378   -23413.281    295.80293    253.35894 
   98650    114.86869     -1473.82    91443.765   -21696.116    1722.2807   -23418.397     296.5246    254.53282 
   98700    115.02409   -1450.4702    91368.787   -21701.786    1724.6108   -23426.397    296.90799    254.87717 
   98750    112.76648    -1511.555    91252.361   -21752.636    1690.7613   -23443.398    296.78257    249.87462 
   98800    115.63528   -1386.6289    91238.928   -21747.859    1733.7746   -23481.634    297.01585    256.23147 
   98850     116.8342   -1150.6916        91291   -21718.381    1751.7506   -23470.132    297.75697    258.88812 
   98900    110.46942   -1213.7424    91387.549   -21750.673    1656.3205   -23406.993    297.80717    244.78467 
   98950    115.41552   -1029.1003    91474.501    -21742.81    1730.4797   -23473.289    298.19198    255.74453 
   99000    115.11549   -852.38593     91523.32   -21737.607    1725.9812   -23463.588    298.32092    255.07971 
   99050    114.65437   -1034.1135      91600.7   -21737.722    1719.0673    -23456.79    298.81615    254.05791 
   99100    115.47842   -1271.4537    91595.889   -21771.823    1731.4227   -23503.246    299.31303    255.88389 
   99150    114.48815   -1353.1644    91598.377   -21749.737    1716.5752   -23466.312    299.75182     253.6896 
   99200    111.99443   -1206.2775    91627.473   -21778.769    1679.1856   -23457.955    299.82497    248.16387 
   99250    113.92263   -1229.2516    91684.173   -21764.121     1708.096   -23472.217    300.79754    252.43648 
   99300    112.80831   -1418.0176    91726.637   -21775.745    1691.3885   -23467.134    300.73835    249.96731 
   99350    112.79567   -1257.0357    91799.849   -21752.401     1691.199     -23443.6    300.48277     249.9393 
   99400    112.80737   -1070.2205    91803.642   -21736.155    1691.3744   -23427.529    300.21142    249.96522 
   99450    114.29055   -1094.2016    91809.318    -21739.08    1713.6124   -23452.693    300.68883    253.25174 
   99500    111.92609   -1182.3956    91891.678   -21748.955     1678.161   -23427.116     301.2816    248.01243 
   99550    115.95706   -1247.8245    91938.065   -21781.439    1738.5993   -23520.039    301.49029     256.9445 
   99600    114.21908    -1256.981     91916.42   -21774.864    1712.5409   -23487.405    301.41005    253.09338 
   99650    111.69305   -1118.8443     91878.04   -21813.367    1674.6669   -23488.034    301.70178    247.49605 
   99700    110.25873   -1445.2384    91865.784   -21840.273    1653.1614   -23493.435    301.82411     244.3178 
   99750    113.99782   -1213.3081    91721.334   -21814.413    1709.2234   -23523.637    301.99922     252.6031 
   99800    109.72274   -1151.0405    91689.921   -21826.127    1645.1251   -23471.252    302.21034    243.13012 
   99850    113.46932   -1305.4328    91733.588   -21843.725    1701.2994   -23545.025    302.68132    251.43202 
   99900    112.30229   -1150.5502    91776.595   -21883.651    1683.8016   -23567.453    303.03097    248.84605 
   99950    110.52222   -1109.0808    91805.341   -21835.164    1657.1122   -23492.276    303.02217    244.90167 
  100000    113.81783   -1197.8583    91817.087   -21782.628    1706.5248   -23489.153    302.43561    252.20427 
Loop time of 41.8911 on 80 procs for 100000 steps with 5031 atoms

Performance: 1031.245 ns/day, 0.023 hours/ns, 2387.142 timesteps/s
100.0% CPU use with 80 MPI tasks x no OpenMP threads

MPI task timing breakdown:
Section |  min time  |  avg time  |  max time  |%varavg| %total
---------------------------------------------------------------
Pair    | 5.8868     | 17.43      | 24.582     | 169.5 | 41.61
Neigh   | 0.48474    | 1.2543     | 3.3783     |  94.2 |  2.99
Comm    | 10.503     | 16.781     | 27.903     | 164.0 | 40.06
Output  | 0.12129    | 0.1234     | 0.16715    |   1.4 |  0.29
Modify  | 3.8335     | 5.563      | 7.0784     |  39.1 | 13.28
Other   |            | 0.7386     |            |       |  1.76

Nlocal:    62.8875 ave 144 max 30 min
Histogram: 54 6 0 0 0 0 0 0 5 15
Nghost:    669.625 ave 833 max 385 min
Histogram: 20 0 0 0 0 0 0 37 3 20
Neighs:    0 ave 0 max 0 min
Histogram: 80 0 0 0 0 0 0 0 0 0
FullNghs:  5756 ave 18148 max 1069 min
Histogram: 60 0 0 0 0 0 0 0 0 20

Total # of neighbors = 460480
Ave neighs/atom = 91.5285
Neighbor list builds = 5940
Dangerous builds = 0

write_data		${DIR}/data.eq-${NAME}-${TEMP}
write_data		run_5/data.eq-${NAME}-${TEMP}
write_data		run_5/data.eq-het_freeze_5-${TEMP}
write_data		run_5/data.eq-het_freeze_5-250
undump          1

reset_timestep  0

unfix           2
unfix           3
unfix           4


################################################
#######         Run Simulation         #########
################################################

log				${DIR}/log.run_${NAME}
log				run_5/log.run_${NAME}
log				run_5/log.run_het_freeze_5
