
# read in water data
read_data data.ML_1atm_240K group water extra/atom/types 1
Reading data file ...
  orthogonal box = (0.0000000 0.0000000 1.9288521) to (49.220000 49.019636 58.133148)
  2 by 2 by 3 MPI processor grid
  reading atoms ...
  4500 atoms
  reading velocities ...
  4500 velocities
  read_data CPU = 0.010 seconds

# remove area for graphite
region substrate block 0 ${XDIM} 0 ${YDIM} ${Z_LO} ${Z_HI}
region substrate block 0 49.22 0 ${YDIM} ${Z_LO} ${Z_HI}
region substrate block 0 49.22 0 49.019635930410494 ${Z_LO} ${Z_HI}
region substrate block 0 49.22 0 49.019635930410494 25 ${Z_HI}
region substrate block 0 49.22 0 49.019635930410494 25 35.062
delete_atoms region substrate
Deleted 811 atoms, new total = 3689

# Insert substrate
read_data data.graphite add append shift 0.0 0.0 ${Z_LO} group graphite offset 1 0 0 0 0
read_data data.graphite add append shift 0.0 0.0 25 group graphite offset 1 0 0 0 0
Reading data file ...
  orthogonal box = (0.0000000 0.0000000 1.9288521) to (49.220000 49.019636 58.133148)
  2 by 2 by 3 MPI processor grid
  reading atoms ...
  2760 atoms
  reading velocities ...
  2760 velocities
  read_data CPU = 0.005 seconds


# Define potential
# CHECK ON THIS %%%%%%%%%%%%
#
pair_style sw
pair_coeff * * MLC_e.sw mW C


# Delete water and ice atoms that are overlapping
#
delete_atoms overlap 2.5 water graphite
System init for delete_atoms ...
Neighbor list info ...
  update every 1 steps, delay 10 steps, check yes
  max neighbors/atom: 2000, page size: 100000
  master list distance cutoff = 6.6747184
  ghost atom cutoff = 6.6747184
  binsize = 3.3373592, bins = 15 15 17
  2 neighbor lists, perpetual/occasional/extra = 1 1 0
  (1) command delete_atoms, occasional, copy from (2)
      attributes: full, newton on
      pair build: copy
      stencil: none
      bin: none
  (2) pair sw, perpetual
      attributes: full, newton on
      pair build: full/bin/atomonly
      stencil: full/bin/3d
      bin: standard
Deleted 121 atoms, new total = 6328

# set timestep
#
timestep 10.0

# Define output
#

compute 1 all msd
compute 2 water temp
compute        peratom water stress/atom NULL
compute        p water reduce sum c_peratom[1] c_peratom[2] c_peratom[3]
variable       water_press equal -(c_p[1]+c_p[2]+c_p[3])/(3*(vol-24277.055086535))

thermo 50
thermo_style custom step c_2 v_water_press vol etotal ke pe c_1[4]

# Neighbor lists
#
neigh_modify delay 0 every 1 check yes


# Fix graphite atoms in place
#
fix 1 graphite setforce 0.0 0.0 0.0
velocity graphite set 0.0 0.0 0.0


### Set fixes ###
#

# Run 0.25 ns equilibration of water in NPH ensemble
#
fix 2 water momentum 10 linear 1 1 1 rescale
fix 3 water nph z ${PRES} ${PRES} ${PCOUPL}
fix 3 water nph z 1 ${PRES} ${PCOUPL}
fix 3 water nph z 1 1 ${PCOUPL}
fix 3 water nph z 1 1 10000.0
fix 4 water temp/csvr ${TEMP} ${TEMP} ${TCOUPL} 837492
fix 4 water temp/csvr 240 ${TEMP} ${TCOUPL} 837492
fix 4 water temp/csvr 240 240 ${TCOUPL} 837492
fix 4 water temp/csvr 240 240 5000.0 837492

dump 	1 all atom 2000 nph.${NAME}.dump
dump 	1 all atom 2000 nph.ML_graphite_1atm_240K.dump
run 	25000
Neighbor list info ...
  update every 1 steps, delay 0 steps, check yes
  max neighbors/atom: 2000, page size: 100000
  master list distance cutoff = 6.6747184
  ghost atom cutoff = 6.6747184
  binsize = 3.3373592, bins = 15 15 17
  1 neighbor lists, perpetual/occasional/extra = 1 0 0
  (1) pair sw, perpetual
      attributes: full, newton on
      pair build: full/bin/atomonly
      stencil: full/bin/3d
      bin: standard
Per MPI rank memory allocation (min/avg/max) = 5.321 | 5.324 | 5.329 Mbytes
Step c_2 v_water_press Volume TotEng KinEng PotEng c_1[4] 
       0    239.82766   -919.25641    135606.72    -33079.93    2549.9794    -35629.91            0 
      50    256.73319   -1816.3081    135328.81   -33080.404    2729.7283   -35810.133   0.59582674 
     100    255.74551   -1987.5657    134370.05   -33141.181    2719.2268   -35860.408    1.1070923 
     150    256.83293   -983.77481    133189.32   -33172.379    2730.7888   -35903.168    1.5784269 
     200    258.70733   -633.57966    132362.81   -33199.193    2750.7185   -35949.911     2.081514 
     250    261.38056   -694.49428    131660.56   -33233.636    2779.1417   -36012.778    2.5186212 
     300    260.25133   -484.52871    131045.69   -33249.322    2767.1351   -36016.457    2.9321934 
     350    260.59768   -440.49591    130604.76   -33237.196    2770.8177   -36008.013     3.311182 
     400     263.2382   -541.48352    130235.37   -33298.605    2798.8932   -36097.498    3.6627542 
     450    258.73244   -380.46823    129893.52   -33334.127    2750.9854   -36085.113      4.11078 
     500    256.44391   -202.98389     129587.3   -33366.123    2726.6525   -36092.775    4.6157435 
     550    259.75887    298.95456    129317.96   -33396.992     2761.899   -36158.891     4.999171 
     600    261.26185   -74.656871    129141.27   -33425.022    2777.8795   -36202.901    5.3953163 
     650    255.56503   -315.12343    128977.49   -33456.756    2717.3078   -36174.064    5.7478764 
     700    258.43978   -284.67714    128854.12   -33458.436    2747.8737    -36206.31    6.2187071 
     750    258.91064   -158.29011    128768.06   -33495.595    2752.8802   -36248.476     6.498597 
     800    254.47262    -391.0616    128688.27   -33511.502    2705.6927   -36217.195     6.833402 
     850    251.51657   -338.38555    128587.74   -33535.507    2674.2624   -36209.769    7.2279664 
     900    249.35634    104.93625    128429.82   -33566.186    2651.2937    -36217.48    7.5673066 
     950    252.03292   -169.46882     128276.9   -33590.905    2679.7525   -36270.658    7.8197307 
    1000    253.29575    94.334063    128135.28   -33584.873    2693.1796   -36278.052    8.1406084 
    1050    244.11638    67.289934    128038.36    -33611.47    2595.5795    -36207.05    8.6400564 
    1100     249.9056    51.490168    128009.59     -33609.2    2657.1336   -36266.334    8.9399488 
    1150    252.81932   -36.717332    128012.25   -33627.614    2688.1139   -36315.728    9.2489267 
    1200     253.0734   -92.062599    128011.66   -33658.675    2690.8155   -36349.491    9.4885603 
    1250    248.80935   -413.41464    127986.26   -33667.565    2645.4778   -36313.043    9.7708031 
    1300    249.85709    -304.5942    127888.21   -33695.605    2656.6179   -36352.223     9.994697 
    1350    246.84246   -377.12388    127748.19   -33689.591    2624.5647   -36314.156    10.378446 
    1400    245.40418   -164.91799    127572.07   -33687.774    2609.2721   -36297.047    10.775482 
    1450     251.8924    -143.1824    127412.18   -33688.527    2678.2584   -36366.786    11.214318 
    1500    243.74352   -157.57731    127292.16   -33731.876     2591.615   -36323.491    11.480419 
    1550    248.35897   -47.014694    127191.74   -33718.244     2640.689   -36358.933    11.713726 
    1600    250.90815    280.10205    127141.06   -33732.617    2667.7933    -36400.41      11.9372 
    1650     244.1395    164.62279     127119.6   -33743.881    2595.8253   -36339.706    12.123251 
    1700    239.91289    66.988172    127107.89   -33759.129    2550.8857   -36310.015    12.309244 
    1750    248.35198     33.81882    127144.75   -33737.384    2640.6147   -36377.998     12.55924 
    1800    240.95921   -245.70508    127178.92   -33767.456    2562.0107   -36329.467     12.90635 
    1850    252.81021   -40.563038    127109.41   -33760.584     2688.017   -36448.601     13.25183 
    1900     241.1964   -376.08633    127001.74   -33763.887    2564.5326    -36328.42    13.688069 
    1950    240.27195    -159.5848    126844.44   -33767.991    2554.7034   -36322.695    14.011616 
    2000    245.65557   -293.35579    126682.14    -33743.27     2611.945   -36355.215    14.366029 
    2050    244.41967    235.43818    126574.25   -33757.676    2598.8042   -36356.481    14.792932 
    2100    247.28971    567.74859    126509.79   -33768.321    2629.3201   -36397.641    15.101232 
    2150     249.5449   -268.15566    126520.55   -33748.786    2653.2985   -36402.084    15.425632 
    2200    243.85183    100.25854    126548.12   -33742.082    2592.7667   -36334.848    15.821994 
    2250    246.05895   -180.19888    126641.34   -33753.025    2616.2339   -36369.259    16.062555 
    2300    244.00436   -69.872374    126759.94   -33758.786    2594.3885   -36353.174    16.396082 
    2350    242.89203   -252.78234    126853.74   -33759.961    2582.5615   -36342.522    16.792608 
    2400    236.79528   -83.739322    126886.93   -33773.829    2517.7376   -36291.567    17.044151 
    2450    242.47593   -82.673557    126920.06    -33819.48    2578.1373   -36397.618    17.410563 
    2500    238.33516    291.95527    126954.77   -33842.899    2534.1104   -36377.009    17.690465 
    2550    248.23147   -589.71208    126983.19   -33809.576    2639.3334    -36448.91    17.845129 
    2600    234.97313   -26.902693    126966.67   -33825.434    2498.3634   -36323.798    18.124932 
    2650    243.65441   -135.89334    126917.59   -33842.387    2590.6676   -36433.055    18.351368 
    2700    238.47272     177.4419    126864.68   -33842.586     2535.573   -36378.159    18.865796 
    2750    240.00822   -303.68456    126820.99   -33829.682    2551.8993   -36381.581    19.171244 
    2800    243.70327   -239.75888    126757.18   -33854.047    2591.1871   -36445.234    19.408911 
    2850    243.15136    53.531082    126695.19   -33855.846    2585.3188   -36441.164    19.620083 
    2900     243.3621   -327.46267    126701.53   -33862.827    2587.5595   -36450.387    20.092257 
    2950    242.01672    457.87264    126678.72   -33868.128    2573.2548   -36441.382    20.379237 
    3000    244.11534  -0.40832845    126665.23    -33888.27    2595.5684   -36483.838    20.610365 
    3050    243.15882   -13.899542    126631.67   -33888.666    2585.3982   -36474.064    20.989111 
    3100    244.48112   -153.12951    126577.98    -33862.19    2599.4576   -36461.648    21.175118 
    3150    242.82598    145.02986    126518.22   -33849.073    2581.8593   -36430.933    21.454747 
    3200    240.55454    549.98937       126493   -33846.499     2557.708   -36404.207    21.574538 
    3250    244.04572   -103.59165    126545.75   -33841.521    2594.8282   -36436.349    21.877421 
    3300    241.49518   -200.34555    126594.86   -33849.481    2567.7094   -36417.191    22.141288 
    3350    238.21648    118.17723    126620.83   -33877.573    2532.8485   -36410.421    22.334334 
    3400    243.59055    206.29569    126613.83   -33897.937    2589.9886   -36487.926    22.613509 
    3450     234.5363    192.98536    126565.14   -33925.926    2493.7188   -36419.645    23.015667 
    3500      241.726     335.2207    126516.74   -33938.285    2570.1636   -36508.449     23.28768 
    3550    237.11589    301.64176    126559.26    -33936.05    2521.1464   -36457.196    23.416647 
    3600    242.90947    223.14292    126687.14   -33937.519     2582.747   -36520.266    23.647941 
    3650    247.30025   -451.46934    126825.28   -33930.058    2629.4322    -36559.49    23.623401 
    3700    238.19973    41.782705    126915.86   -33912.842    2532.6704   -36445.512    23.552597 
    3750    239.73415    112.46106    126994.97    -33864.94    2548.9852   -36413.925    23.786965 
    3800    236.74372     42.13042     127091.2   -33873.192    2517.1893   -36390.381    24.065563 
    3850    238.86667   -86.148967    127176.01   -33848.199    2539.7617   -36387.961    24.103406 
    3900    243.40318   -350.36422     127225.7   -33848.423    2587.9963   -36436.419     24.39694 
    3950     243.4948   -292.16209    127231.87   -33851.467    2588.9705   -36440.437     24.43641 
    4000    242.01756   -636.87193    127156.63   -33879.877    2573.2637   -36453.141    24.863941 
    4050    240.60351   -63.299899    127008.84   -33888.028    2558.2287   -36446.257    25.223899 
    4100    236.76996   -107.83128    126856.65   -33884.381    2517.4683   -36401.849    25.740963 
    4150     236.8628    65.658427    126719.58    -33909.48    2518.4554   -36427.936    26.214761 
    4200    240.29914    511.95884    126632.76   -33901.493    2554.9925   -36456.485    26.498729 
    4250    239.46987   -130.62187    126653.93   -33892.591    2546.1752   -36438.767    26.714606 
    4300    244.05286    425.84088    126740.76   -33893.748    2594.9041   -36488.652    26.910969 
    4350    236.59604   -347.88292    126922.31   -33898.027    2515.6191   -36413.646    27.217828 
    4400    242.01389   -433.61461    127037.07   -33885.215    2573.2246    -36458.44    27.393634 
    4450    241.43869    83.584733    127057.46   -33887.819    2567.1088   -36454.928    27.686746 
    4500     240.9001   -315.48124    127042.85    -33888.02    2561.3822   -36449.402    27.853394 
    4550    239.23301    230.36813    126970.01   -33880.981    2543.6568   -36424.638    28.280523 
    4600    240.97842     83.57325    126918.93   -33875.443     2562.215   -36437.658     28.49907 
    4650    237.46209       222.78     126905.2   -33861.354    2524.8274   -36386.181    28.724165 
    4700    235.50219    97.803958    126899.93   -33869.533    2503.9887   -36373.522    28.880417 
    4750     239.1222    146.28313    126911.76   -33874.885    2542.4786   -36417.364     29.08587 
    4800     242.4847    -65.97333    126925.24   -33858.621    2578.2306   -36436.851    29.308673 
    4850    247.81122   -254.60066    126944.37   -33849.675     2634.865    -36484.54    29.294585 
    4900    242.21547   -342.76588    126947.51   -33855.189     2575.368   -36430.557    29.654028 
    4950    240.29308    359.84439    126907.85   -33858.747    2554.9281   -36413.675    29.964828 
    5000    243.14853    434.21238    126946.06   -33871.531    2585.2888   -36456.819    30.220658 
    5050    239.81875    163.02763    127109.99   -33889.317    2549.8847   -36439.202    30.463766 
    5100    239.74338   -134.78297    127307.76   -33881.304    2549.0834   -36430.388    30.941255 
    5150    235.45507   -127.12713    127463.46   -33891.198    2503.4877   -36394.686    31.205091 
    5200    244.51774   -452.12185     127564.5   -33875.028    2599.8469   -36474.875    31.495438 
    5250    239.76183    -313.7555    127544.97   -33859.727    2549.2795   -36409.006    31.728248 
    5300    241.03701    -261.3783    127429.26   -33833.491    2562.8379   -36396.329    32.038094 
    5350    242.86662   -130.58602     127255.9   -33831.391    2582.2914   -36413.682     32.58055 
    5400    240.97786   -99.108933    127074.73    -33838.95     2562.209   -36401.159    33.095186 
    5450    238.51741   -230.19338     126906.7   -33835.043    2536.0482   -36371.091    33.458044 
    5500    240.96363     309.7741    126783.56   -33832.199    2562.0577   -36394.256    33.840119 
    5550    247.70114   -318.51807    126690.34   -33844.295    2633.6946   -36477.989    34.149593 
    5600     238.8388     168.8841    126559.35   -33826.956    2539.4654   -36366.421    34.378942 
    5650     241.6899    210.90511    126477.46   -33826.651    2569.7799    -36396.43    34.608955 
    5700    244.55098   -102.88544    126482.09   -33808.701    2600.2003   -36408.901     34.99809 
    5750    240.58367    137.83932     126505.1   -33812.718    2558.0178   -36370.736    35.440166 
    5800    246.83307    185.91107    126506.08   -33826.126    2624.4648   -36450.591    35.701062 
    5850    238.67659    14.252497    126500.73   -33833.276    2537.7407   -36371.017    35.914767 
    5900    242.35627    159.10021    126493.46   -33812.531    2576.8651   -36389.396      36.0779 
    5950    243.58362     146.0205    126531.61   -33805.172    2589.9149   -36395.087    36.382008 
    6000    240.55577   -173.65411    126570.66    -33820.64    2557.7211   -36378.362    36.658785 
    6050    242.38224   -83.792779    126631.98   -33851.382    2577.1412   -36428.523    36.820534 
    6100    243.99367    181.42682    126702.81   -33849.038    2594.2748   -36443.313    36.973223 
    6150    244.93545   -163.18288    126747.69   -33831.492    2604.2883   -36435.781    37.249838 
    6200    244.46547    224.80514    126745.51   -33821.813    2599.2912   -36421.104     37.54103 
    6250    240.69771   -273.08686    126809.84   -33801.484    2559.2303   -36360.715    37.894106 
    6300     239.4603   -464.58438    126854.37   -33815.927    2546.0735   -36362.001    38.170679 
    6350    238.98475    271.54127    126857.86   -33824.618    2541.0172   -36365.635    38.527132 
    6400    242.69289    226.96046    126853.41   -33789.896    2580.4441    -36370.34    38.768723 
    6450    242.36792    40.500009    126854.19   -33796.912    2576.9889   -36373.901    39.089516 
    6500    243.54759   -15.567527    126862.66    -33783.04    2589.5318   -36372.571    39.320652 
    6550    248.01952   -61.210075    126897.42   -33790.323    2637.0799   -36427.403    39.734746 
    6600    244.30156    123.43626    126960.36   -33829.642    2597.5484    -36427.19    40.030569 
    6650    241.84907   -490.27939    126987.55   -33857.128    2571.4722   -36428.601    40.235534 
    6700    247.19338   -128.12295    126927.66   -33860.372    2628.2958   -36488.668    40.622353 
    6750    241.32622   -31.875736    126843.91   -33878.775     2565.913   -36444.688    40.922392 
    6800     245.8288    114.28828    126761.95   -33874.776    2613.7869   -36488.562      41.1746 
    6850    244.55789    357.75433    126704.88   -33893.564    2600.2739   -36493.838    41.381884 
    6900    237.66454   -241.30998    126721.97   -33899.248      2526.98   -36426.228    41.497713 
    6950     238.6356    17.724713    126753.66   -33885.743    2537.3048   -36423.047    41.577354 
    7000    241.29237    80.845222    126770.63   -33881.641     2565.553   -36447.194    42.145933 
    7050    240.68127   -355.01213    126770.41   -33870.043    2559.0556   -36429.098    42.538807 
    7100     240.8535    61.963881    126701.65   -33848.089    2560.8867   -36408.976    42.711105 
    7150    245.06982    372.90664    126675.46   -33841.014     2605.717   -36446.731    43.039094 
    7200    244.67761   -119.78542    126725.23   -33828.669    2601.5468   -36430.216    43.288389 
    7250    243.49952    245.77569    126734.64   -33783.087    2589.0207   -36372.108    43.517823 
    7300     242.3803   -138.43635    126754.37   -33790.636    2577.1205   -36367.757    43.786161 
    7350    247.45178   -110.70591    126810.63     -33803.3    2631.0433   -36434.344    44.094118 
    7400    244.76044    285.27219    126892.39   -33807.163    2602.4275    -36409.59    44.195353 
    7450    245.47764    246.60663    127052.57   -33799.866    2610.0532   -36409.919    44.426716 
    7500    242.40955   -82.253389    127227.94   -33811.822    2577.4315   -36389.254    44.804549 
    7550    239.17431   -232.23982    127307.47   -33840.939    2543.0327   -36383.972    45.069275 
    7600    239.19549   -389.02649    127316.81   -33843.663    2543.2579   -36386.921    45.415008 
    7650    238.49138   -367.65011    127245.16   -33822.128    2535.7714   -36357.899    45.863921 
    7700     238.5692    -162.3968    127127.47    -33822.07    2536.5988   -36358.669    45.984816 
    7750    240.27058   -163.50887    126988.42   -33836.163    2554.6888   -36390.851     46.40501 
    7800    244.49692     256.6599    126884.43   -33867.612    2599.6256   -36467.237    46.822789 
    7850    244.47348    224.18265    126834.33    -33850.73    2599.3763   -36450.107    47.133615 
    7900    242.06884    20.427352    126858.65   -33826.734    2573.8089   -36400.543     47.33113 
    7950    245.77179    130.61495    126991.61    -33837.78    2613.1807   -36450.961    47.672957 
    8000    244.46541    85.508144    127129.03   -33838.127    2599.2906   -36437.418    47.835916 
    8050    241.44235    598.94849    127245.74   -33844.588    2567.1477   -36411.735    47.946477 
    8100    235.53096   -235.51747    127388.16    -33867.76    2504.2945   -36372.055    48.246011 
    8150    239.96598   -498.22878    127433.39   -33891.339    2551.4501   -36442.789    48.704683 
    8200    240.31462    5.5828604    127374.46   -33866.007    2555.1571   -36421.164    49.022067 
    8250    239.90876   -119.09592    127318.08   -33868.031    2550.8418   -36418.873     49.07764 
    8300    234.18056    555.97563    127281.39   -33857.249    2489.9364   -36347.185    49.493164 
    8350    241.51454    49.104218    127277.17   -33892.503    2567.9153   -36460.418     49.62288 
    8400    240.32669   -99.271635    127249.42   -33902.003    2555.2854   -36457.288    50.052863 
    8450    239.26712    380.25975    127227.91   -33895.651    2544.0195   -36439.671    50.313674 
    8500    241.00338    437.11118    127312.54   -33872.945    2562.4803   -36435.425    50.568081 
    8550    238.78868   -229.15122    127447.89   -33850.006    2538.9325   -36388.938    50.683593 
    8600    240.31073   -121.10473    127509.33   -33842.887    2555.1157   -36398.003    50.860123 
    8650    238.36605    268.96101    127506.37   -33824.812    2534.4388    -36359.25    51.191751 
    8700    242.21832   -109.85272    127475.02   -33804.392    2575.3982    -36379.79    51.682372 
    8750    242.77286    19.771196    127454.02   -33797.395    2581.2944   -36378.689    52.158529 
    8800    243.09855   -41.106146     127499.6   -33785.332    2584.7573   -36370.089    52.470379 
    8850    245.60252    162.47777    127595.93   -33775.951    2611.3809   -36387.332     52.67584 
    8900    246.44295    30.658096    127774.68   -33780.287    2620.3169   -36400.604    52.932332 
    8950    242.65418   -462.33715    127922.65   -33770.495    2580.0325   -36350.528    53.210067 
    9000     249.5281   -155.18892    127927.63   -33774.423    2653.1199   -36427.543    53.449702 
    9050    244.15993    88.977114    127864.39   -33776.744    2596.0426   -36372.787    53.851211 
    9100    247.74716   -160.28114    127848.59   -33786.891    2634.1839   -36421.075    54.143478 
    9150    244.14999   -88.562999    127828.93   -33790.792    2595.9368   -36386.729    54.294791 
    9200    244.66577   -14.327667    127754.68   -33771.529    2601.4208    -36372.95    54.356962 
    9250    247.66801    185.17028    127665.36   -33773.735    2633.3424   -36407.077    54.541723 
    9300    243.39582   -161.83764    127585.74   -33807.136    2587.9181   -36395.054    54.781339 
    9350    249.05507   -98.593015    127480.93   -33815.841    2648.0903   -36463.931    54.715461 
    9400    245.51581    156.84142    127400.21   -33821.404     2610.459   -36431.863    54.851332 
    9450    250.25094    1.2240344    127372.16   -33828.615    2660.8055    -36489.42    55.039847 
    9500    240.19287   -216.38953    127337.04   -33819.355    2553.8626   -36373.218    55.335343 
    9550    241.96287    46.810458    127290.02    -33828.02    2572.6822   -36400.702    55.542575 
    9600    241.25917   -266.46993    127284.28   -33815.721       2565.2   -36380.921    56.036355 
    9650    247.73459   -100.25397    127271.59   -33801.168    2634.0502   -36435.218    56.317772 
    9700    243.72312    43.741354    127275.45   -33807.299    2591.3982   -36398.697    56.476322 
    9750    240.45389   -270.33527    127270.79   -33841.596    2556.6379   -36398.234    56.786991 
    9800    243.04008    288.42683    127225.58   -33839.012    2584.1356   -36423.148    56.938216 
    9850    241.27669     198.3293    127243.22   -33835.349    2565.3864   -36400.735    57.198544 
    9900    238.26717   -446.09318    127295.62   -33816.773    2533.3875    -36350.16    57.737718 
    9950    241.91833   -225.20643    127318.23    -33816.33    2572.2086   -36388.538    58.180718 
   10000    242.34543   -333.39761    127282.43   -33832.131    2576.7498   -36408.881    58.569693 
   10050    243.92138    39.562548    127157.43   -33820.532    2593.5061   -36414.038    58.952032 
   10100    241.03532    -150.5296    127013.71   -33831.102    2562.8199   -36393.922    59.370023 
   10150    236.39749    170.69954    126842.66   -33821.173     2513.508   -36334.681    59.530122 
   10200     240.4657    72.783851    126692.22   -33834.735    2556.7635   -36391.499    59.643147 
   10250    239.83605    204.82621    126617.53   -33805.687    2550.0687   -36355.755    59.895127 
   10300    241.49035   -260.98064    126631.42   -33786.228     2567.658   -36353.886    60.015556 
   10350    243.01952     149.7121    126691.79   -33797.088    2583.9171   -36381.005    60.466475 
   10400    244.31752   -105.07266    126749.18   -33812.848    2597.7182   -36410.566    60.939009 
   10450    243.17044   -210.27528    126783.13     -33788.1    2585.5217   -36373.622    60.926611 
   10500     240.6894    46.584054    126776.87    -33790.32    2559.1419   -36349.462    61.276637 
   10550    245.93111    29.089906     126748.6   -33791.405    2614.8747    -36406.28     61.37307 
   10600    243.73795    25.241047    126751.89   -33790.292    2591.5558   -36381.848    61.384128 
   10650    245.15116    664.39016    126874.95   -33813.386    2606.5818   -36419.968    61.699223 
   10700    241.27534   -128.07188    127068.46   -33833.265     2565.372   -36398.637    62.037439 
   10750    237.47568   -319.92903    127189.14   -33830.088    2524.9719    -36355.06    62.307236 
   10800    242.64924   -229.49668    127198.09   -33828.345      2579.98   -36408.325    62.386641 
   10850    240.28514   -290.82532    127112.01   -33830.952    2554.8436   -36385.795     62.48136 
   10900    242.58302    210.69382    126975.52   -33832.111    2579.2759   -36411.386    62.528568 
   10950    244.58797    211.89596    126859.61   -33849.459    2600.5937   -36450.053    62.871834 
   11000    237.87035    -19.77807    126766.54   -33862.502    2529.1682   -36391.671    63.315938 
   11050    238.09264    59.087237    126716.57   -33853.932    2531.5318   -36385.464    63.668596 
   11100    237.18847    221.17021    126684.49    -33887.58    2521.9181   -36409.498     63.93666 
   11150    240.02645     179.5957    126684.46   -33881.106    2552.0931   -36433.199    64.210855 
   11200    240.00888    61.176236    126723.55   -33874.062    2551.9063   -36425.968    64.643044 
   11250    240.34581    85.828518    126850.89   -33874.326    2555.4887   -36429.814    64.991263 
   11300    238.72872   -147.43564    127012.23   -33892.642    2538.2949   -36430.937    65.290854 
   11350    239.64759   -196.37677    127162.56   -33883.887    2548.0648   -36431.952    65.581952 
   11400    242.30572   -334.98578     127212.3   -33899.322    2576.3275   -36475.649    65.941311 
   11450    241.18676   -400.05394    127199.32   -33884.165    2564.4301   -36448.595    66.070062 
   11500    241.42426   -618.62263    127148.91   -33845.084    2566.9553   -36412.039    66.222872 
   11550    243.25146    163.11362    127022.38   -33846.212    2586.3831   -36432.595    66.626108 
   11600    237.29342     274.2077    126900.68   -33867.261     2523.034   -36390.295    67.028986 
   11650      238.158     31.97092    126841.37   -33901.681    2532.2267   -36433.908    67.516797 
   11700    244.41207    243.01054    126791.04   -33894.044    2598.7235   -36492.767    67.517336 
   11750     242.2056   -366.53115    126783.53   -33918.355    2575.2631   -36493.618    67.764295 
   11800    240.85198    162.18884    126741.66   -33939.961    2560.8705   -36500.832    68.099523 
   11850    236.73918   -6.9072108    126682.57   -33935.393     2517.141   -36452.534    68.231273 
   11900    237.21226    42.532824    126625.95   -33931.565    2522.1711   -36453.736    68.626945 
   11950    243.19792    567.65366    126639.55   -33925.966    2585.8139   -36511.779     68.71239 
   12000     236.5443    235.15964    126756.32   -33932.529    2515.0689   -36447.598    68.848796 
   12050    237.20832    35.977549    126955.13   -33953.048    2522.1292   -36475.178    69.168803 
   12100    239.32739    71.566149    127191.37   -33932.991    2544.6603   -36477.651     69.52014 
   12150    241.41735   -10.055522    127439.22    -33928.75    2566.8819   -36495.632     69.74469 
   12200    240.09414    18.091926    127627.82   -33904.916    2552.8128   -36457.729    70.043234 
   12250    239.29471   -318.23975    127748.06   -33917.242    2544.3128   -36461.555    70.081179 
   12300     237.1869   -499.73717    127815.21    -33877.95    2521.9015   -36399.851    70.093071 
   12350    240.87776   -778.51829    127776.03   -33903.915    2561.1447   -36465.059     70.25285 
   12400    244.70238    -379.0629     127645.7   -33878.175    2601.8101   -36479.985    70.727187 
   12450    248.04862   -253.37512    127454.29   -33883.779    2637.3892   -36521.169    70.953525 
   12500    242.40283    459.42161    127299.21   -33895.658    2577.3601   -36473.018    71.357386 
   12550     242.7677   -110.63685    127255.63    -33880.31    2581.2396   -36461.549    71.392045 
   12600    237.92337    78.273432       127218   -33901.079     2529.732   -36430.811    71.483205 
   12650    244.79577   -239.74351    127189.45   -33892.962    2602.8031   -36495.765    71.597825 
   12700    238.94101   -139.52284    127169.19   -33900.958    2540.5521    -36441.51    71.870961 
   12750    244.00753   -541.33282    127132.67   -33894.162    2594.4222   -36488.584    72.196357 
   12800    245.14905    96.704829    127066.85   -33910.969    2606.5594   -36517.528     72.33262 
   12850    240.15368    87.959689    127078.58   -33922.577    2553.4459   -36476.022    72.425277 
   12900    234.61251   -164.25017    127143.79   -33926.205    2494.5292   -36420.734    72.758981 
   12950    238.29367   -136.39904    127197.37   -33919.258    2533.6692   -36452.928    72.970687 
   13000     241.3333   -163.97519    127172.83   -33898.297    2565.9882   -36464.285    73.331427 
   13050    245.68411   -634.64323    127093.02   -33877.708    2612.2485   -36489.957    73.844693 
   13100    246.01954    46.922856    126980.14    -33871.55     2615.815   -36487.365    73.699719 
   13150    239.43745    555.73755    126914.59   -33892.928    2545.8305   -36438.759    74.045082 
   13200    238.41883   -3.1965381    126908.95   -33878.358         2535   -36413.358    74.581972 
   13250    239.38459    93.552176    126922.58   -33881.668    2545.2685   -36426.936    75.036132 
   13300    242.35617    174.98037    126987.83    -33883.92     2576.864   -36460.784    75.702387 
   13350    241.95645    31.429935    127049.26    -33869.23     2572.614   -36441.844    75.915381 
   13400    239.54754   -13.542561     127095.7   -33881.812     2547.001   -36428.813    76.224504 
   13450    242.40454   -16.276465    127158.41   -33864.901    2577.3782   -36442.279    76.736814 
   13500    239.78464   -316.32913    127165.29   -33882.641    2549.5221   -36432.163    77.023576 
   13550    238.64331   -142.72079     127114.6   -33863.363    2537.3868    -36400.75    77.023583 
   13600    237.19885   -167.97671    126991.34   -33875.973    2522.0285   -36398.001    77.439127 
   13650    244.64897   -49.032715    126835.06   -33903.044    2601.2423   -36504.287    77.654301 
   13700    244.41638   -116.79382    126737.99   -33904.627    2598.7693   -36503.397    78.114962 
   13750    246.00513    165.91726    126658.46   -33883.046    2615.6617   -36498.708    78.666649 
   13800    245.82489    233.71199    126678.93   -33868.964    2613.7452    -36482.71     78.88805 
   13850    241.07399     47.00941    126775.84   -33871.525    2563.2311   -36434.756     79.22131 
   13900      248.193    58.463321    126911.86   -33882.181    2638.9243   -36521.105    79.611489 
   13950    243.58559    14.707647    127047.95   -33873.845    2589.9358   -36463.781    79.788847 
   14000    245.64566    77.785292    127153.36   -33893.593    2611.8396   -36505.433    79.969951 
   14050    240.83221   -376.83751    127260.05   -33900.869    2560.6604   -36461.529     80.18472 
   14100     248.4592   -311.39871    127342.46   -33884.539    2641.7547   -36526.294    80.405324 
   14150    241.15698   -428.30639    127410.53   -33901.681    2564.1135   -36465.795    80.658447 
   14200    245.49581   -412.01956    127424.14   -33924.291    2610.2464   -36534.537    80.864451 
   14250    243.08657    7.3450359    127433.89    -33955.45      2584.63    -36540.08    81.091551 
   14300    242.91641    127.46891    127396.13   -33944.704    2582.8207   -36527.525    81.295802 
   14350     238.5135   -7.9422606    127340.84   -33965.618    2536.0066   -36501.624     81.60634 
   14400    239.03342   -85.468691    127295.94   -33960.203    2541.5346   -36501.737    81.601691 
   14450    244.64788    316.10616    127268.88   -33954.977    2601.2306   -36556.208    81.911838 
   14500    245.20454     393.7163    127307.84   -33938.667    2607.1494   -36545.817    81.952911 
   14550    245.21112    97.524341    127383.13   -33965.933    2607.2194   -36573.152    82.281226 
   14600    244.94001   -2.5660426    127473.38   -33962.059    2604.3368   -36566.396    82.061075 
   14650    237.60797    100.46579    127541.05   -33960.171    2526.3785   -36486.549    82.216001 
   14700    240.59055   -161.98896    127598.18   -33943.909     2558.091       -36502    82.623732 
   14750    245.50097    -9.163991    127596.62   -33950.432    2610.3012   -36560.733    83.003284 
   14800    243.90865    -139.2489    127542.76   -33942.454    2593.3708   -36535.825    83.131839 
   14850     246.0529   -105.84024    127484.98   -33956.694    2616.1697   -36572.864    83.190317 
   14900    243.46679    125.01333    127410.47   -33953.502    2588.6727   -36542.175    83.630423 
   14950    243.25012    15.287028    127359.69   -33980.908     2586.369   -36567.277    83.788075 
   15000    243.60614   -35.838008    127324.77   -34006.861    2590.1543   -36597.015    84.085518 
   15050    242.51384    322.19861    127379.75   -34012.912    2578.5403   -36591.453    84.359922 
   15100    235.14303   -192.91608    127506.95    -34029.51    2500.1699    -36529.68    84.828938 
   15150    234.75207   -112.18293    127605.63   -34039.326     2496.013   -36535.339    85.303922 
   15200    236.20665    55.417501    127687.29   -34073.159    2511.4789   -36584.638    85.504558 
   15250    236.63117   -161.82013    127800.49   -34058.255    2515.9926   -36574.248    85.629823 
   15300    238.40704   -409.58474    127927.46    -34053.01    2534.8747   -36587.885    85.772979 
   15350    238.60373    146.59195    128021.11   -34056.653     2536.966   -36593.619    86.057467 
   15400    235.03589       249.35    128157.25   -34076.679    2499.0307    -36575.71    86.183898 
   15450    233.10705   -213.19018    128307.97   -34136.275    2478.5223   -36614.797    86.236199 
   15500    236.78072    -296.0083    128390.71   -34152.814    2517.5828   -36670.397    86.209704 
   15550     235.9088   -249.73464    128435.87   -34136.945    2508.3119   -36645.257    86.725999 
   15600    237.87031   -276.85153    128451.56    -34119.92    2529.1678   -36649.088    86.855551 
   15650    242.67111   -98.653952    128414.77    -34082.63    2580.2126   -36662.843    86.872267 
   15700    242.07135   -192.57639    128335.15   -34060.407    2573.8356   -36634.243    87.136882 
   15750    242.57044     93.31009    128236.96   -34053.174    2579.1421   -36632.316    87.648615 
   15800    239.63174     103.4053    128140.53   -34057.565    2547.8963   -36605.461    87.851911 
   15850    239.97895    11.082997    128075.84    -34068.75     2551.588   -36620.338      88.0297 
   15900    235.07472   -84.599015    128001.06    -34059.62    2499.4436   -36559.064     88.45524 
   15950    236.67883    55.818257    127888.19   -34051.674    2516.4994   -36568.173    88.787888 
   16000    236.83726   -3.0694128    127764.05   -34050.214    2518.1838   -36568.398    89.183325 
   16050    236.64871    470.76155    127682.03   -34047.808    2516.1791   -36563.987    89.216395 
   16100    235.45688   -1.2539199    127691.39   -34050.424    2503.5069   -36553.931    89.379122 
   16150    236.85437    70.543581    127690.47   -34032.823    2518.3658   -36551.188    89.395723 
   16200    238.26601    99.116756    127702.48   -33986.232    2533.3751   -36519.607    89.587597 
   16250    238.27811   -61.086345    127716.18   -33992.897    2533.5037     -36526.4    89.651551 
   16300    237.40634   -209.19013    127698.24   -33978.774    2524.2346   -36503.009    89.885179 
   16350     237.3717   -5.4477833    127673.73   -33979.062    2523.8663   -36502.928    89.935988 
   16400     239.3498    339.25874    127706.85   -33994.962    2544.8986   -36539.861     89.94685 
   16450    237.20168    -56.44566    127788.75   -33975.198    2522.0586   -36497.257     90.34734 
   16500    240.14254   -500.96801    127808.77    -33994.66    2553.3274   -36547.988    90.619047 
   16550    238.04683   -275.54814    127711.05   -34021.053    2531.0447   -36552.097    90.895992 
   16600    235.38619    38.047716    127550.17   -34018.915    2502.7553    -36521.67    91.044352 
   16650    239.13531   -260.40274    127445.35   -34027.108     2542.618   -36569.726    91.516294 
   16700    232.53677      298.118    127373.41   -34002.225    2472.4587   -36474.684    91.773415 
   16750     239.5921    17.703074    127308.06   -33992.705    2547.4748    -36540.18    92.036338 
   16800    239.54709    346.71031    127296.72    -33968.49    2546.9963   -36515.486    92.291065 
   16850     242.2782    399.13203    127362.97   -33963.521     2576.035   -36539.556    92.631572 
   16900    238.07357   -474.22595    127505.19   -33976.049     2531.329   -36507.378    92.914789 
   16950    239.42824   -47.955135    127619.42   -33970.704    2545.7326   -36516.436    93.189647 
   17000    242.82255    -134.0051    127664.44   -33981.783    2581.8227   -36563.605    93.129365 
   17050    240.67454    207.56432    127673.24   -33962.775    2558.9839   -36521.759    93.243163 
   17100    237.58719   -9.2798826    127675.38   -33955.105    2526.1575   -36481.263    93.585621 
   17150    238.16711   -23.355775    127719.09   -33963.836    2532.3236    -36496.16     93.93227 
   17200    236.85819    -49.15603    127785.27   -33962.201    2518.4064   -36480.607      94.4174 
   17250    238.12873    -171.3291    127859.08   -33970.775    2531.9155   -36502.691    94.646583 
   17300    238.95884   -113.73496    127901.66   -33980.414    2540.7417   -36521.156    94.844807 
   17350    238.79604   -302.50651    127881.57   -34002.558    2539.0107   -36541.569    95.173548 
   17400    236.85497   -128.27475     127763.5   -34008.135    2518.3722   -36526.507    95.498826 
   17450    234.03204    280.02628    127575.43   -34009.689    2488.3573   -36498.046    95.470995 
   17500    231.01678   -143.19872     127416.8   -34035.212    2456.2973   -36491.509    95.560095 
   17550    233.27748   -415.72628    127249.03   -34041.758    2480.3343   -36522.093    95.812202 
   17600    241.53008    602.24375    127085.91   -34031.841    2568.0806   -36599.922    95.693768 
   17650    236.68121    472.29884     127039.2   -34017.915    2516.5247   -36534.439     96.46197 
   17700    234.11258    9.2027676    127080.32   -34017.976    2489.2136   -36507.189    97.103795 
   17750     238.0722    237.76102    127138.94   -34046.561    2531.3144   -36577.875    97.425031 
   17800    237.40682   -308.33273    127194.37   -34041.093    2524.2397   -36565.332      97.7957 
   17850    234.00522   -352.16851    127191.46   -34063.939    2488.0721   -36552.011    98.002107 
   17900    231.09332   -205.88255    127136.56     -34043.6    2457.1111   -36500.711     98.17529 
   17950    235.41648    256.01579    127047.85   -34058.371    2503.0774   -36561.448    98.517011 
   18000    234.06198    40.314484    126950.01   -34064.116    2488.6756   -36552.792    98.889215 
   18050    233.04632     103.7502    126857.61    -34077.63    2477.8765   -36555.507    99.288478 
   18100     236.0637    211.28394     126842.9   -34077.694    2509.9589   -36587.653    99.769767 
   18150    236.48653    105.13561    126886.69   -34080.336    2514.4548    -36594.79    100.14345 
   18200    234.31879    15.070994    126937.87   -34089.401    2491.4061   -36580.807    100.19573 
   18250    233.86037    53.159989     126969.6   -34117.905     2486.532   -36604.437    100.28074 
   18300    235.51605   -493.06665    126936.26   -34110.404     2504.136    -36614.54    100.09386 
   18350    235.41295   -152.30928    126852.68   -34094.946    2503.0399   -36597.986    100.38266 
   18400    236.38393    66.345612     126744.3   -34104.298    2513.3638   -36617.662    101.05663 
   18450    235.82611    513.87802    126684.33   -34107.857    2507.4328    -36615.29    101.01366 
   18500    235.71528   -8.4515063    126720.59   -34084.691    2506.2543   -36590.945    100.98671 
   18550    238.33153    199.53953    126762.49   -34074.264    2534.0717   -36608.336    101.20407 
   18600    237.19611   -46.112844    126780.91   -34062.589    2521.9993   -36584.588    101.44081 
   18650    242.55902    391.99795    126797.02   -34052.053    2579.0208   -36631.074    101.78013 
   18700    240.17992    386.33236    126851.49   -34032.844    2553.7248   -36586.568    102.17835 
   18750    239.83402   -73.012531    126918.05   -34001.005    2550.0471   -36551.052    102.43368 
   18800    231.62525   -240.74016    127015.39   -33992.335    2462.7669   -36455.102    102.66297 
   18850    239.86017   -204.36347    127111.02   -33988.407    2550.3251   -36538.732    102.77185 
   18900    235.21292   -31.431998       127130   -34013.781     2500.913   -36514.694    102.91158 
   18950    240.25204    -22.75988    127133.72   -34039.148    2554.4917   -36593.639    103.52216 
   19000    238.06501    40.778733    127120.69    -34022.13     2531.238   -36553.368    103.80288 
   19050    236.50401   -63.026557    127123.02   -34033.277    2514.6406   -36547.917    104.13293 
   19100    236.93968    -55.58916     127170.5   -34030.615    2519.2729   -36549.888     104.0467 
   19150    242.18944   -66.732103     127232.3   -34022.487    2575.0912   -36597.578    104.31515 
   19200    237.31924   -13.564811    127284.81   -33994.175    2523.3085   -36517.484    104.45127 
   19250    239.19255   -276.86343    127340.13   -34019.485    2543.2266   -36562.711      104.409 
   19300    238.03505   -358.79929    127360.95   -33998.783    2530.9194   -36529.703     104.6917 
   19350    236.99014   -316.21389     127344.4   -33996.064    2519.8094   -36515.873    104.85578 
   19400    233.73846    -175.1418    127311.89   -33987.374    2485.2357    -36472.61    104.84815 
   19450    236.62389   -65.597057    127266.51   -33991.045    2515.9152    -36506.96    105.12661 
   19500    238.61259   -109.97146    127186.34   -34005.973    2537.0602   -36543.033    105.22145 
   19550    235.20728    -150.9334     127081.3    -34022.75     2500.853   -36523.603    105.42401 
   19600    240.62204    240.60807    127019.97   -34025.496    2558.4258   -36583.922    105.43364 
   19650    239.69864   -62.814866    127072.06   -34009.766    2548.6077   -36558.374    105.55285 
   19700    239.21269     55.54923    127206.71   -34028.189    2543.4408    -36571.63    105.48514 
   19750    240.64799   -92.708528    127383.89   -34012.942    2558.7017   -36571.644    105.91508 
   19800    236.32322   -73.106732    127529.07   -34025.431    2512.7183   -36538.149    106.23539 
   19850    236.58406   -162.02898    127634.05   -34011.358    2515.4917    -36526.85     106.7529 
   19900    235.48482   -573.13232    127701.35   -33996.719     2503.804   -36500.523    107.03047 
   19950    231.90589   -294.42117    127647.23    -33988.25    2465.7509   -36454.001    107.20255 
   20000    236.17044    383.36443    127535.38   -34006.015    2511.0938   -36517.109    107.55051 
   20050    236.96391    135.41843    127450.09   -34022.223    2519.5305   -36541.754    107.73415 
   20100    235.53289    81.233113    127397.55   -34029.937    2504.3151   -36534.252    107.80954 
   20150    237.59314   -18.402936    127387.38   -34040.868    2526.2209   -36567.089    108.08411 
   20200    232.87273     535.5927    127440.65   -34026.107    2476.0308   -36502.138    108.47469 
   20250    235.40742    -96.87784    127601.02   -34028.169    2502.9811    -36531.15    108.86632 
   20300     233.3771   -73.225623    127739.83   -34024.511    2481.3936   -36505.905    108.97629 
   20350    238.63311    -28.61517    127748.35   -33999.541    2537.2784    -36536.82    109.33657 
   20400    236.65753   -217.60418    127622.32   -34000.991    2516.2729   -36517.264    109.46156 
   20450    235.83384     407.0437    127447.69   -34009.442    2507.5149   -36516.956    109.74442 
   20500    238.51309   -44.311845    127330.45    -34015.02    2536.0022   -36551.022    110.06076 
   20550    234.77516    521.36046    127293.04    -34003.48    2496.2585   -36499.739    110.08821 
   20600    239.20573    136.42099    127360.19   -33994.493    2543.3668    -36537.86    110.42948 
   20650    236.33077    74.168922    127440.26   -34006.123    2512.7986   -36518.921    110.64399 
   20700    236.13076   -199.81965    127519.81   -33997.514     2510.672   -36508.186    111.11005 
   20750    232.81751   -436.58157    127596.71   -33960.004    2475.4437   -36435.447    111.55559 
   20800    238.35031    -419.5151    127642.88   -33987.012    2534.2715   -36521.284       111.77 
   20850    242.05568   -384.45231    127609.29   -33966.862     2573.669   -36540.531    111.96814 
   20900    238.38542   -320.10273    127516.28   -33955.271    2534.6447   -36489.916    112.20301 
   20950    237.01156   -163.72615     127424.3   -33979.358    2520.0371   -36499.395     112.6368 
   21000    241.27772    86.982607    127406.46   -33982.181    2565.3973   -36547.579    113.25203 
   21050    241.26014   -144.77489    127488.22   -33996.856    2565.2104   -36562.066    113.50689 
   21100    238.70287   -372.16347    127587.21   -33987.868      2538.02   -36525.888    113.99254 
   21150    237.30518   -484.36847    127610.73   -33988.653     2523.159   -36511.812    114.06939 
   21200    236.10505   -281.67205    127539.57   -33970.921    2510.3986   -36481.319     114.0008 
   21250    237.44101    46.635881    127458.23   -33977.524    2524.6032   -36502.127    114.25068 
   21300     236.4969   -123.39566    127433.54   -33970.342     2514.565   -36484.907    114.58709 
   21350    236.93486    75.930092    127466.62   -33969.767    2519.2216   -36488.989    114.71944 
   21400    239.98299   -44.757467    127565.78   -33967.016     2551.631   -36518.647    114.96687 
   21450    232.45415   -462.97157    127662.86   -33940.821    2471.5803   -36412.401    115.15949 
   21500    238.77527   -260.20564    127646.07   -33934.488    2538.7899   -36473.278    115.61888 
   21550    237.32125   -220.05804    127553.49   -33920.244      2523.33   -36443.574    115.56354 
   21600    241.00627   -241.28748    127449.62   -33917.926     2562.511   -36480.437    115.57354 
   21650    240.24942    -199.8233    127333.04   -33896.414    2554.4638   -36450.878    115.87825 
   21700    240.11733   -44.572769    127197.88   -33881.512    2553.0594   -36434.572    116.16705 
   21750    240.99732    103.85895    127078.16   -33886.931     2562.416   -36449.347    116.55433 
   21800    239.99283   -4.9888136    127010.54   -33868.838    2551.7357   -36420.573    116.62204 
   21850    239.84549    81.580137    126947.97   -33867.897     2550.169   -36418.066    116.72949 
   21900    246.88256   -66.465309    126890.96   -33878.619    2624.9911    -36503.61    117.20245 
   21950    240.15925    158.23146    126863.82   -33892.839    2553.5051   -36446.344    117.64132 
   22000    238.92522    7.6831524    126847.72   -33877.702    2540.3842   -36418.086    117.96787 
   22050    239.60575     6.719966    126790.94     -33873.3      2547.62    -36420.92    118.30062 
   22100    240.07811    51.182231    126756.33   -33864.112    2552.6423   -36416.754     118.4385 
   22150    241.79603   -178.59594    126770.64   -33860.317    2570.9082   -36431.225    118.47888 
   22200    245.78809    -72.65864    126767.96   -33841.565     2613.354   -36454.919    118.68767 
   22250    244.38247     123.7858    126719.92   -33853.588    2598.4087   -36451.996    118.99731 
   22300    242.96573   -213.11441    126703.53   -33808.646    2583.3452   -36391.991    119.07809 
   22350    240.28466   -91.584994    126702.99   -33817.202    2554.8385    -36372.04    119.54473 
   22400    243.57375     8.776045    126617.28   -33818.361      2589.81   -36408.171    119.73305 
   22450    241.28426    77.543117    126424.29   -33816.574    2565.4668    -36382.04    120.04059 
   22500    243.28669    595.98725    126218.38   -33810.905    2586.7578   -36397.663    120.18811 
   22550    246.00286    276.59649    126121.91   -33832.757    2615.6376   -36448.394    120.59394 
   22600    243.11629    412.90023    126147.19   -33831.485     2584.946   -36416.431    121.18546 
   22650    245.84917    111.58375     126285.6   -33832.666    2614.0034    -36446.67    121.39783 
   22700    242.17918    16.618325    126489.81   -33845.848    2574.9821    -36420.83    121.69874 
   22750    239.23219   -575.81617    126623.11   -33873.639    2543.6481   -36417.287    122.07187 
   22800    243.75262   -69.892568    126636.17   -33873.447    2591.7118   -36465.159    122.61848 
   22850    241.68855    154.40024    126551.38   -33878.549    2569.7655   -36448.314    122.74455 
   22900    243.61715    294.15105    126477.95   -33888.229    2590.2714   -36478.501     123.2349 
   22950     235.8598    377.97084    126481.33   -33897.861     2507.791   -36405.652     123.5261 
   23000    239.39556   -253.61884    126572.77   -33889.934    2545.3852   -36435.319    123.80872 
   23050    237.06551   -126.90602    126699.79   -33875.903    2520.6108   -36396.514    124.25716 
   23100    241.12854   -292.18984    126781.95   -33858.872    2563.8111   -36422.683    124.78302 
   23150    239.31609    331.10231    126806.85   -33868.172    2544.5401   -36412.712    125.10722 
   23200    241.61558    151.29174    126885.62    -33878.22    2568.9896    -36447.21    125.32136 
   23250    239.91039    266.96255    126998.14   -33879.735    2550.8591   -36430.595    125.51311 
   23300    236.77894   -211.94113    127126.63   -33891.762    2517.5638   -36409.326    125.97576 
   23350    240.89827    76.220722    127231.33   -33903.655    2561.3627   -36465.018    126.47555 
   23400    240.53123   -74.371403    127319.43   -33888.113    2557.4602   -36445.573    126.68222 
   23450    240.11225   -565.52905    127354.21   -33907.364    2553.0054   -36460.369    126.97562 
   23500    240.16475   -242.45119     127292.5    -33913.03    2553.5636   -36466.594    127.64269 
   23550    235.13902   -7.8148032    127184.86   -33914.167    2500.1272   -36414.295    127.92639 
   23600    238.38806   -101.39112    127103.81   -33908.378    2534.6728    -36443.05    128.08589 
   23650    241.62019   -109.22035    127036.36   -33881.398    2569.0386   -36450.436    128.57834 
   23700    247.18259    288.05361    126980.34   -33868.145    2628.1811   -36496.327    129.09783 
   23750    236.87995    159.11695    127017.62   -33858.029    2518.6378   -36376.667    129.62996 
   23800    240.85914     94.69945    127088.72   -33852.565    2560.9467   -36413.511    129.81066 
   23850    238.03058    112.77846    127170.61   -33860.347    2530.8719   -36391.218     130.0411 
   23900    237.21335     199.9815    127216.62   -33850.163    2522.1826   -36372.346    130.70768 
   23950    244.25253    170.08038    127266.17   -33881.117    2597.0271   -36478.144    130.99394 
   24000     241.5472   -299.90655       127304   -33879.763    2568.2625   -36448.026     131.5279 
   24050    241.53995    52.975659    127276.51   -33866.882    2568.1854   -36435.068    131.96255 
   24100    241.44647   -224.01447    127290.31   -33846.179    2567.1915    -36413.37    132.40122 
   24150    241.44876    195.63035    127268.15   -33854.225    2567.2158   -36421.441    132.67026 
   24200    239.54331   -352.56134    127229.86    -33868.68    2546.9561   -36415.636    133.16996 
   24250    243.21022   -27.552076    127172.47   -33870.425    2585.9447    -36456.37    133.60132 
   24300    242.76066   -128.49748    127123.19   -33877.189    2581.1647   -36458.354    133.71574 
   24350    242.54251   -160.64248    127070.14   -33871.375    2578.8452    -36450.22    133.99218 
   24400    234.29461    -34.13182    127012.14   -33877.337    2491.1491   -36368.486    133.72882 
   24450    239.58347   -228.21013    126993.38   -33892.048    2547.3831   -36439.431    134.22505 
   24500    241.05106    121.60759    126950.51   -33894.441    2562.9874   -36457.428    134.60945 
   24550    235.86743    19.987914    126893.01   -33897.792    2507.8721   -36405.664    134.86911 
   24600    243.81236    36.458603    126786.91   -33882.397     2592.347   -36474.744    135.46183 
   24650    243.34915   -88.761322    126665.47   -33867.448    2587.4219    -36454.87    135.77303 
   24700    244.21774    9.7711994    126614.27   -33850.264    2596.6572   -36446.921    136.14521 
   24750    243.84374    288.74199    126628.31   -33821.853    2592.6807   -36414.533    136.53828 
   24800    247.01151    65.113791    126735.23   -33814.229    2626.3621   -36440.591    136.75334 
   24850    243.47493    387.51371    126909.21    -33785.16    2588.7592   -36373.919    136.84264 
   24900    242.44425   -529.00074    127121.51   -33799.577    2577.8005   -36377.378    137.23358 
   24950    244.00657    -48.21891    127295.18   -33819.477    2594.4119   -36413.889    137.56825 
   25000    241.91681   -264.14373    127405.67   -33833.183    2572.1924   -36405.375    137.98021 
Loop time of 118.377 on 12 procs for 25000 steps with 6328 atoms

Performance: 182.468 ns/day, 0.132 hours/ns, 211.190 timesteps/s
94.8% CPU use with 12 MPI tasks x no OpenMP threads

MPI task timing breakdown:
Section |  min time  |  avg time  |  max time  |%varavg| %total
---------------------------------------------------------------
Pair    | 17.59      | 34.909     | 68.263     | 390.2 | 29.49
Neigh   | 2.471      | 4.5915     | 8.8179     | 131.9 |  3.88
Comm    | 26.575     | 64.007     | 83.4       | 321.8 | 54.07
Output  | 0.196      | 0.20724    | 0.227      |   1.6 |  0.18
Modify  | 13.116     | 13.336     | 13.59      |   4.4 | 11.27
Other   |            | 1.326      |            |       |  1.12

Nlocal:        527.333 ave         907 max         340 min
Histogram: 8 0 0 0 0 0 0 0 0 4
Nghost:        1672.00 ave        1876 max        1561 min
Histogram: 7 1 0 0 0 0 0 0 1 3
Neighs:        0.00000 ave           0 max           0 min
Histogram: 12 0 0 0 0 0 0 0 0 0
FullNghs:      43324.2 ave      104399 max       13644 min
Histogram: 8 0 0 0 0 0 0 0 0 4

Total # of neighbors = 519890
Ave neighs/atom = 82.157080
Neighbor list builds = 2955
Dangerous builds = 0

unfix           3
unfix           4
undump          1


# Run 0.25 ns equilibration of water in NVE ensemble
#
fix            3 water nve
dump		1 all atom 2000 nve.${NAME}.dump
dump		1 all atom 2000 nve.ML_graphite_1atm_240K.dump
run	        25000
Per MPI rank memory allocation (min/avg/max) = 5.038 | 5.169 | 5.429 Mbytes
Step c_2 v_water_press Volume TotEng KinEng PotEng c_1[4] 
   25000    241.91681   -264.14373    127405.67   -33833.183    2572.1924   -36405.375    137.98021 
   25050    241.16532    -239.3978    127405.67   -33832.313    2564.2021   -36396.515    138.38185 
   25100    245.53008    -65.10024    127405.67   -33833.245    2610.6107   -36443.856    138.72127 
   25150    244.77992   -300.44769    127405.67   -33833.402    2602.6346   -36436.037    138.82617 
   25200    247.28692   -540.30343    127405.67   -33835.251    2629.2904   -36464.541    139.38614 
   25250    243.06208   -532.36349    127405.67    -33833.55    2584.3696    -36417.92    139.86302 
   25300    239.66859   -1035.3794    127405.67    -33833.27    2548.2881   -36381.558    139.88489 
   25350     241.0694   -495.02348    127405.67   -33834.161    2563.1823   -36397.343    140.10409 
   25400    239.24547    33.681391    127405.67   -33832.612    2543.7893   -36376.401    140.05908 
   25450    240.73195   -309.71738    127405.67   -33833.301    2559.5944   -36392.895     140.5671 
   25500    242.48078    81.746363    127405.67   -33833.114    2578.1889   -36411.303    141.05769 
   25550    237.20578   -58.175348    127405.67   -33832.627    2522.1022   -36354.729    141.45284 
   25600    243.69002   -280.54333    127405.67   -33832.723    2591.0461   -36423.769    141.67468 
   25650    238.08467   -58.568251    127405.67   -33831.347     2531.447   -36362.794    142.10473 
   25700    244.20739   -213.72209    127405.67   -33833.804    2596.5471   -36430.351    142.16951 
   25750    244.59475   -173.43942    127405.67   -33833.565    2600.6658   -36434.231    142.36755 
   25800    244.66186    222.80231    127405.67   -33834.018    2601.3793   -36435.397    142.63672 
   25850    243.54647   -226.07994    127405.67   -33833.832    2589.5199   -36423.351    142.85824 
   25900    240.21324   -690.04408    127405.67    -33833.06    2554.0791   -36387.139    143.16247 
   25950    243.47148   -643.31658    127405.67   -33833.962    2588.7226   -36422.685    143.24919 
   26000    239.01504    90.161297    127405.67     -33832.3    2541.3392   -36373.639    143.64997 
   26050    241.77075   -172.19993    127405.67   -33832.056    2570.6395   -36402.696    144.01779 
   26100    242.32925    22.638287    127405.67   -33833.802    2576.5777    -36410.38    144.51682 
   26150    245.58483   -320.06384    127405.67   -33834.049    2611.1928   -36445.242    144.87303 
   26200    240.39152    348.47385    127405.67   -33832.221    2555.9748   -36388.196    145.21513 
   26250    237.97658   -640.91466    127405.67   -33832.039    2530.2978   -36362.337    145.35826 
   26300    239.64012   -180.69373    127405.67    -33832.09    2547.9855   -36380.076    145.78887 
   26350    242.31149    232.17071    127405.67   -33833.349    2576.3889   -36409.738    146.31926 
   26400     242.0319     261.0799    127405.67   -33833.314    2573.4161    -36406.73    146.86667 
   26450    246.06544    261.94739    127405.67   -33832.861    2616.3029   -36449.164    147.45183 
   26500    239.41575    203.23707    127405.67   -33833.114    2545.5998   -36378.714    147.87854 
   26550    240.75235   -163.22931    127405.67   -33832.442    2559.8113   -36392.253    147.85795 
   26600    242.91606   -292.42384    127405.67   -33834.806     2582.817   -36417.623     148.3969 
   26650    240.66638   -467.96922    127405.67   -33832.446    2558.8972   -36391.343    148.44823 
   26700     243.3143    138.20476    127405.67   -33833.581    2587.0513   -36420.633    148.82916 
   26750    239.49898   -110.51995    127405.67   -33832.866    2546.4847   -36379.351     149.0157 
   26800    238.52666    -498.2984    127405.67   -33833.076    2536.1465   -36369.223    149.20922 
   26850    240.67073   -50.706946    127405.67   -33833.145    2558.9434   -36392.088    149.23163 
   26900    246.38153    39.760009    127405.67   -33833.484    2619.6638   -36453.148     149.3426 
   26950    238.98728   -273.85967    127405.67   -33832.597    2541.0441   -36373.641    149.45879 
   27000    236.92281    -137.1429    127405.67   -33831.519    2519.0935   -36350.613    149.57789 
   27050    239.24267    77.927486    127405.67   -33832.001    2543.7595    -36375.76    149.82246 
   27100    243.25133    26.379191    127405.67   -33832.105    2586.3817   -36418.487    150.04314 
   27150    241.36146   -89.031395    127405.67   -33833.648    2566.2877   -36399.936    150.40747 
   27200    237.59337   -127.90819    127405.67   -33833.188    2526.2232   -36359.411    150.43846 
   27250    241.70223    213.25064    127405.67   -33832.638    2569.9109   -36402.549    150.80265 
   27300    239.99714    316.75935    127405.67   -33832.385    2551.7814   -36384.166    151.15037 
   27350    247.32406      318.216    127405.67   -33833.544    2629.6853   -36463.229    151.52422 
   27400    244.68491   -133.57476    127405.67   -33833.527    2601.6244   -36435.152    151.74191 
   27450    242.76511    51.373312    127405.67     -33833.1     2581.212   -36414.312    151.91964 
   27500    244.05107   -277.85018    127405.67   -33833.678    2594.8851   -36428.563    151.97009 
   27550    243.01664    28.972349    127405.67   -33832.713    2583.8864   -36416.599    151.78136 
   27600    241.36089   -212.97414    127405.67   -33833.139    2566.2816   -36399.421    151.85183 
   27650    244.68259     102.1451    127405.67   -33834.014    2601.5997   -36435.614    151.48294 
   27700    251.86822   -181.95418    127405.67   -33834.748    2678.0013    -36512.75     151.8592 
   27750    244.13045    33.472323    127405.67   -33833.129    2595.7291   -36428.858    152.45167 
   27800    243.74741    9.6296637    127405.67   -33834.677    2591.6563   -36426.333    152.60268 
   27850    240.64445    449.14909    127405.67    -33832.13     2558.664   -36390.794    152.79439 
   27900    236.90039   -51.947019    127405.67   -33832.161    2518.8552   -36351.016    152.94373 
   27950    244.36733    332.65624    127405.67   -33832.886    2598.2478   -36431.133    153.02755 
   28000    244.84494   -79.014735    127405.67   -33833.417     2603.326   -36436.743    153.26413 
   28050    244.13414    116.02856    127405.67    -33833.36    2595.7683   -36429.129    153.54839 
   28100    243.61844   -30.778896    127405.67   -33832.631    2590.2851   -36422.916    153.95154 
   28150    246.02783   -418.47712    127405.67   -33833.438     2615.903   -36449.341    154.43965 
   28200     240.0545     231.9112    127405.67    -33832.15    2552.3914   -36384.542    154.72009 
   28250    240.01137   -82.085414    127405.67   -33831.899    2551.9327   -36383.831    154.67818 
   28300    242.29793    92.190329    127405.67    -33832.43    2576.2447   -36408.675    155.17288 
   28350    237.49577   -117.53065    127405.67   -33832.488    2525.1855   -36357.674    155.67354 
   28400    241.35098   -393.90943    127405.67    -33832.58    2566.1762   -36398.757    155.43321 
   28450    241.50089   -94.709522    127405.67   -33833.465    2567.7702   -36401.235    155.74789 
   28500     239.9561   -579.48956    127405.67    -33832.67    2551.3451   -36384.015    156.25986 
   28550    244.85988   -491.94999    127405.67    -33833.19    2603.4848   -36436.674     156.9397 
   28600    240.43112    78.115945    127405.67   -33833.101    2556.3957   -36389.497    157.49178 
   28650    245.61546     -510.916    127405.67   -33834.274    2611.5185   -36445.792    157.60596 
   28700    245.88087    141.12137    127405.67   -33833.367    2614.3405   -36447.708    157.93866 
   28750    244.14746    5.7291547    127405.67   -33833.317    2595.9099   -36429.227    158.50939 
   28800    245.34789    178.34599    127405.67   -33833.185    2608.6736   -36441.859    158.63832 
   28850     242.3263   -112.82773    127405.67   -33832.879    2576.5463   -36409.426    158.88306 
   28900     241.0426    222.39633    127405.67   -33830.978    2562.8973   -36393.875     158.8357 
   28950    249.65259    102.81336    127405.67   -33834.521    2654.4436   -36488.964     158.9923 
   29000    244.69065   -87.738296    127405.67   -33833.877    2601.6854   -36435.562    158.88056 
   29050    239.48896   -89.949092    127405.67   -33832.706    2546.3783   -36379.084    158.84827 
   29100    238.60642   -103.89249    127405.67   -33832.045    2536.9946    -36369.04    158.97942 
   29150    240.45397   -36.153521    127405.67   -33832.774    2556.6388   -36389.413    159.55471 
   29200    241.64012   -353.87451    127405.67   -33833.015    2569.2506   -36402.265    159.83853 
   29250    238.48894    258.03984    127405.67   -33831.556    2535.7454   -36367.301     160.0063 
   29300    243.18537   -170.19918    127405.67   -33833.129    2585.6805   -36418.809     160.5274 
   29350    241.13085    157.99861    127405.67   -33832.747    2563.8357   -36396.582    160.78376 
   29400    243.53618     372.8135    127405.67   -33832.683    2589.4105   -36422.094    161.26177 
   29450    238.96347    87.258599    127405.67   -33832.086    2540.7909   -36372.877    161.32143 
   29500    245.67704   -191.10953    127405.67   -33834.029    2612.1733   -36446.203    161.59446 
   29550    239.00265    37.305447    127405.67   -33832.312    2541.2074    -36373.52    161.68444 
   29600    242.88232   -304.78605    127405.67   -33832.973    2582.4582   -36415.431    162.08325 
   29650    241.76242    93.268193    127405.67   -33832.513    2570.5509   -36403.063    162.34102 
   29700    243.01649   -184.13478    127405.67    -33832.56    2583.8848   -36416.445    162.92764 
   29750    247.56217    225.01397    127405.67   -33834.179     2632.217   -36466.396    162.83305 
   29800    244.61891   -98.378797    127405.67   -33834.124    2600.9226   -36435.047    163.16527 
   29850    242.89824     136.1879    127405.67   -33833.049    2582.6275   -36415.677    163.62537 
   29900    241.42445    510.73883    127405.67   -33833.396    2566.9574   -36400.354    164.27181 
   29950    242.76967   -175.97364    127405.67   -33833.167    2581.2605   -36414.428    164.61075 
   30000    244.46318   -286.09218    127405.67   -33832.352    2599.2668   -36431.619    165.04701 
   30050    242.76859    180.05266    127405.67   -33833.367    2581.2491   -36414.616     164.9543 
   30100    240.50696    236.14008    127405.67   -33831.577    2557.2022   -36388.779    164.92166 
   30150    245.48261   -236.43632    127405.67   -33833.079     2610.106   -36443.185     165.7998 
   30200    241.91448   -88.623361    127405.67   -33832.806    2572.1676   -36404.973    165.92865 
   30250     238.4603   -99.222743    127405.67   -33832.471    2535.4409   -36367.912    166.09441 
   30300    245.62394   -36.488858    127405.67   -33833.412    2611.6087    -36445.02    166.80946 
   30350    244.73044    223.54544    127405.67   -33833.539    2602.1085   -36435.647    167.07338 
   30400    247.78585   -62.386206    127405.67   -33833.751    2634.5953   -36468.346    167.10539 
   30450    238.66546    145.59828    127405.67   -33831.817    2537.6223   -36369.439    167.34974 
   30500    243.17617   -15.049977    127405.67   -33833.167    2585.5827    -36418.75    167.83578 
   30550     242.7914    -56.20055    127405.67   -33833.834    2581.4915   -36415.326    168.01106 
   30600    240.20432    93.251372    127405.67   -33832.906    2553.9843   -36386.891    168.16456 
   30650    244.84543   -22.327857    127405.67   -33834.565    2603.3312   -36437.896    168.48291 
   30700    243.08625   -236.08438    127405.67   -33832.918    2584.6266   -36417.545    168.62999 
   30750    239.81706   -307.86984    127405.67   -33831.712    2549.8668   -36381.578    168.61804 
   30800    242.72804   -366.54105    127405.67   -33832.483    2580.8178     -36413.3    168.91974 
   30850    240.38727     -334.709    127405.67   -33832.323    2555.9296   -36388.253    169.18442 
   30900    244.27062    -202.1207    127405.67     -33833.9    2597.2194   -36431.119    169.42859 
   30950    241.35166   -461.42027    127405.67   -33833.297    2566.1835   -36399.481    169.63272 
   31000    244.45425   -326.52733    127405.67   -33833.036    2599.1719   -36432.208    169.84546 
   31050    246.00569    24.841216    127405.67   -33832.962    2615.6677    -36448.63    170.40798 
   31100    243.47283   -345.95356    127405.67   -33832.873    2588.7369    -36421.61    170.63256 
   31150    244.12258   -172.09796    127405.67   -33834.173    2595.6454   -36429.818    170.85026 
   31200    244.58847    110.13886    127405.67   -33833.124    2600.5991   -36433.723    171.04771 
   31250    242.27707   -255.53606    127405.67   -33832.337    2576.0229    -36408.36    171.43535 
   31300    247.07231   -210.23939    127405.67   -33833.346    2627.0086   -36460.355    171.74377 
   31350    245.98894    -28.72245    127405.67   -33834.175    2615.4895   -36449.664    172.20897 
   31400    247.08132   -248.48828    127405.67   -33834.493    2627.1044   -36461.597    172.39259 
   31450    241.12541    -625.4219    127405.67   -33833.028    2563.7778   -36396.806    172.45851 
   31500    246.48337    148.93879    127405.67   -33832.311    2620.7467   -36453.058     172.6361 
   31550    250.09943    478.69994    127405.67   -33833.881    2659.1945   -36493.076    173.08622 
   31600    244.69416   -115.31537    127405.67   -33833.856    2601.7228   -36435.579     173.7426 
   31650     245.2394    -176.9891    127405.67   -33833.269    2607.5201   -36440.789    173.73942 
   31700    241.27597   -46.903068    127405.67   -33832.226    2565.3787   -36397.605     173.9995 
   31750    248.57465   -100.20511    127405.67   -33833.915    2642.9822   -36476.897    174.46549 
   31800    240.45675   -304.10462    127405.67   -33832.844    2556.6683   -36389.512    174.46105 
   31850    242.56891    -263.2085    127405.67    -33832.76    2579.1259   -36411.885    174.69764 
   31900    244.52611   -45.160936    127405.67   -33834.087     2599.936   -36434.023    175.19658 
   31950     241.1107    74.962672    127405.67   -33832.909    2563.6214   -36396.531    175.44853 
   32000    239.13073    25.718865    127405.67   -33833.399    2542.5693   -36375.968    175.65875 
   32050    237.41198    133.95253    127405.67   -33831.705    2524.2946       -36356    176.14002 
   32100    242.88506   -304.78537    127405.67   -33833.311    2582.4874   -36415.799    176.65911 
   32150    243.79235   -135.26842    127405.67   -33832.901    2592.1342   -36425.035    176.71331 
   32200    239.45895   0.83285457    127405.67    -33831.54    2546.0592   -36377.599    177.06689 
   32250    241.80892    63.840559    127405.67       -33832    2571.0453   -36403.046    177.28796 
   32300    243.73491    236.97408    127405.67   -33832.486    2591.5235   -36424.009    177.19863 
   32350    242.10466    157.40087    127405.67   -33832.391    2574.1898    -36406.58    177.12016 
   32400    244.80326   -360.36214    127405.67    -33832.91    2602.8828   -36435.792    177.28311 
   32450    245.48484    106.54858    127405.67   -33833.972    2610.1297   -36444.102    177.61375 
   32500    241.37036    345.76874    127405.67   -33832.471    2566.3823   -36398.853    178.16665 
   32550    240.73047   -251.52641    127405.67   -33832.732    2559.5787    -36392.31    178.61166 
   32600      244.142   -188.20869    127405.67   -33832.736    2595.8519   -36428.588    178.76601 
   32650     242.9936   -460.97453    127405.67   -33833.286    2583.6415   -36416.928    178.92776 
   32700      244.657   -69.102052    127405.67   -33833.458    2601.3277   -36434.786    179.26477 
   32750    239.22239   -207.79213    127405.67   -33831.927    2543.5439   -36375.471    179.40478 
   32800     242.6278   -340.15375    127405.67   -33832.847    2579.7521     -36412.6    179.76555 
   32850    244.74668   -359.71242    127405.67   -33834.158    2602.2811   -36436.439    180.25904 
   32900    240.90833   -163.35238    127405.67    -33832.53    2561.4697       -36394    180.79038 
   32950    242.13463   -237.80401    127405.67   -33833.417    2574.5084   -36407.926    180.94697 
   33000     241.3947   -280.12343    127405.67   -33833.459    2566.6411     -36400.1    181.18885 
   33050    241.44144   -202.66448    127405.67   -33831.612    2567.1381   -36398.751    181.57427 
   33100    241.62403    268.53801    127405.67   -33833.208    2569.0794   -36402.288    181.57284 
   33150    241.38151    -426.6967    127405.67    -33832.22    2566.5009   -36398.721    182.20438 
   33200    241.55254   -80.969061    127405.67    -33832.75    2568.3194    -36401.07    182.57124 
   33250    242.30001   -35.120941    127405.67   -33832.993    2576.2668    -36409.26    182.75569 
   33300    243.42343    125.14582    127405.67   -33833.602    2588.2116   -36421.814    183.04735 
   33350    247.89655    359.31974    127405.67   -33835.318    2635.7723    -36471.09    183.37613 
   33400    243.51506    362.95135    127405.67   -33833.035    2589.1859   -36422.221    183.86619 
   33450    238.94999    87.807189    127405.67   -33831.586    2540.6476   -36372.234    184.36465 
   33500    241.19928   -102.32305    127405.67   -33832.725    2564.5633   -36397.289    184.23744 
   33550    249.22839    246.98657    127405.67    -33833.27    2649.9332   -36483.203    184.51416 
   33600    244.35199    295.82979    127405.67   -33833.947    2598.0846   -36432.032    184.76729 
   33650    239.50093   -180.35844    127405.67   -33833.043    2546.5055   -36379.549    185.13056 
   33700    239.58671   -240.15923    127405.67   -33832.704    2547.4176   -36380.122    185.40101 
   33750    241.78607   -186.22367    127405.67   -33832.999    2570.8023   -36403.801    185.36283 
   33800    236.46144   -610.84027    127405.67   -33832.696    2514.1879   -36346.884    186.00454 
   33850    241.68305   -312.14207    127405.67   -33833.081     2569.707   -36402.788    186.23868 
   33900    241.08497   -357.60787    127405.67   -33833.803    2563.3479   -36397.151    186.11062 
   33950    240.74515   -281.04087    127405.67   -33833.068    2559.7347   -36392.803    186.64908 
   34000     239.8614   -35.203315    127405.67   -33832.814    2550.3382   -36383.153    186.73862 
   34050    237.97922    217.74079    127405.67   -33831.561    2530.3258   -36361.887    187.12935 
   34100    242.25663    46.610703    127405.67   -33833.613    2575.8056   -36409.419    187.66705 
   34150    240.12564   -206.08463    127405.67   -33831.339    2553.1478   -36384.487    187.65245 
   34200    247.77276   -33.037129    127405.67    -33834.36    2634.4562   -36468.816    187.60402 
   34250    242.22239   -392.00014    127405.67   -33833.456    2575.4415   -36408.898    187.91696 
   34300    237.82263   -189.20624    127405.67   -33831.558    2528.6609   -36360.219    188.17155 
   34350    242.08878    213.33392    127405.67   -33833.071    2574.0209   -36407.092    188.35698 
   34400     240.7735   -324.83746    127405.67   -33832.968    2560.0362   -36393.004    188.84785 
   34450     235.4945     32.22304    127405.67   -33831.924    2503.9069    -36335.83    188.79545 
   34500    242.85485   -216.18228    127405.67   -33833.134    2582.1662   -36415.301    188.99108 
   34550    241.33585   -44.923358    127405.67   -33833.205    2566.0153   -36399.221    189.52836 
   34600    239.28288   -177.60814    127405.67   -33832.311    2544.1871   -36376.498    189.09708 
   34650    239.73676    33.195634    127405.67   -33832.453    2549.0129   -36381.466    189.34474 
   34700    243.50073   -106.53364    127405.67   -33834.244    2589.0335   -36423.278    189.19453 
   34750    244.03853   -234.08313    127405.67   -33833.363    2594.7518   -36428.115    189.12868 
   34800    238.25869   -92.057618    127405.67   -33831.634    2533.2973   -36364.931    188.97954 
   34850    240.70397   -134.47985    127405.67   -33832.338    2559.2968   -36391.635    189.32055 
   34900      242.136   -306.45953    127405.67   -33833.018    2574.5229   -36407.541    189.52276 
   34950    242.13243   -76.440184    127405.67   -33833.998    2574.4851   -36408.483    189.41571 
   35000     243.3299   -687.53804    127405.67   -33833.236    2587.2172   -36420.453     189.8799 
   35050    237.97184   -251.61388    127405.67   -33831.842    2530.2474    -36362.09    190.00465 
   35100    241.29121    128.27732    127405.67   -33832.645    2565.5407   -36398.186    190.51384 
   35150    243.78506    76.922996    127405.67   -33833.556    2592.0567   -36425.613    190.44142 
   35200    242.75833   -63.352065    127405.67   -33832.119      2581.14   -36413.259    191.15521 
   35250    242.76674   -203.97512    127405.67   -33831.948    2581.2294   -36413.177    191.63362 
   35300    244.54159   -675.05066    127405.67   -33833.773    2600.1006   -36433.873     191.7608 
   35350    245.23622   -384.89643    127405.67   -33833.782    2607.4862   -36441.269    191.67992 
   35400    244.89072   -262.59508    127405.67   -33832.869    2603.8127   -36436.682    192.19319 
   35450    241.89601   -282.18217    127405.67   -33831.833    2571.9712   -36403.804    193.03867 
   35500    242.39901    169.99715    127405.67   -33832.297    2577.3194   -36409.617     193.6665 
   35550    240.15963    167.89127    127405.67   -33832.469    2553.5092   -36385.978    193.97432 
   35600    246.14772    173.95432    127405.67   -33832.929    2617.1778   -36450.107    194.33242 
   35650     249.5145    381.75464    127405.67   -33834.401    2652.9753   -36487.377    194.36275 
   35700    245.69134    26.304567    127405.67   -33833.381    2612.3253   -36445.707    194.72512 
   35750    244.29544    312.85281    127405.67    -33833.34    2597.4833   -36430.823    195.22198 
   35800    243.46342   -326.21177    127405.67   -33833.773    2588.6369    -36422.41    195.46921 
   35850    242.13289    216.39434    127405.67   -33832.619      2574.49   -36407.109    195.22427 
   35900    245.38702    348.23063    127405.67   -33833.522    2609.0896   -36442.612    195.28946 
   35950    244.53607    55.745684    127405.67   -33834.214    2600.0418   -36434.256    195.50797 
   36000    240.97808   -184.72065    127405.67   -33831.967    2562.2113   -36394.178    195.75098 
   36050    244.14529     35.34661    127405.67    -33833.23    2595.8869   -36429.117    195.72759 
   36100    242.34938    6.1236336    127405.67   -33832.738    2576.7917   -36409.529    195.93407 
   36150    245.23328    91.229469    127405.67   -33833.093     2607.455   -36440.548     196.4077 
   36200    245.84449    124.92052    127405.67   -33833.054    2613.9537   -36447.007    196.75764 
   36250     239.9253    148.61182    127405.67   -33832.412    2551.0176   -36383.429    196.99137 
   36300    240.78106    371.15271    127405.67   -33833.397    2560.1165   -36393.513    197.25738 
   36350    245.74867   -63.399135    127405.67   -33832.779    2612.9349   -36445.714    197.32542 
   36400    239.06827   -83.583591    127405.67   -33831.032    2541.9053   -36372.937     197.8267 
   36450     245.5664    6.3698541    127405.67    -33833.24    2610.9969   -36444.237     198.3309 
   36500    244.03146    196.00389    127405.67   -33833.178    2594.6765   -36427.855    198.58331 
   36550     246.9985    225.94893    127405.67   -33832.469    2626.2238   -36458.692    199.15368 
   36600    242.34343   -100.65847    127405.67   -33831.216    2576.7285   -36407.945    199.74133 
   36650    245.31582    90.186091    127405.67   -33831.743    2608.3325   -36440.076    199.74153 
   36700    242.13633   -207.77259    127405.67   -33832.631    2574.5265   -36407.158    199.95462 
   36750     245.7711   -4.4568537    127405.67   -33834.251    2613.1733   -36447.424    200.11795 
   36800    243.65326   -334.07583    127405.67   -33832.451    2590.6553   -36423.107    200.61437 
   36850     245.5065    -484.7403    127405.67   -33832.452      2610.36   -36442.812    200.63396 
   36900    244.17981    227.74343    127405.67   -33831.737    2596.2539   -36427.991    200.92131 
[...]
  140850    233.37579   -143.15852    127311.14    -33924.53    2481.3796    -36405.91    691.30572 
  140900    243.78533    193.37147    127195.49   -33920.639    2592.0596   -36512.699    691.75956 
  140950      239.674    281.12142    127082.85   -33917.817    2548.3456   -36466.162    691.73683 
  141000    237.62854    35.098794    127037.19   -33926.664    2526.5972   -36453.262    691.62766 
  141050    238.14174   -41.935278    127052.52   -33949.832    2532.0539   -36481.886    691.37107 
  141100    240.63542   -185.35488    127108.23   -33930.166     2558.568   -36488.734    692.86122 
  141150    243.53995    90.393434    127149.25   -33917.084    2589.4506   -36506.535    693.87226 
  141200    243.49844   -299.27581     127200.2   -33920.196    2589.0092   -36509.205    694.58587 
  141250    239.19281   -399.27851    127204.43   -33911.051    2543.2294    -36454.28    694.46963 
  141300    241.69817   -18.361936    127164.31   -33907.142    2569.8677    -36477.01       694.03 
  141350    238.69252    228.01793    127162.55    -33928.12      2537.91    -36466.03    694.13153 
  141400    239.62345   -44.426467       127175   -33937.657    2547.8082   -36485.465    694.31104 
  141450    242.33647    182.17516    127192.68   -33911.744    2576.6545   -36488.399    694.22916 
  141500     240.1158   -23.338321    127234.26   -33935.452    2553.0431   -36488.495    694.75137 
  141550    241.68855     107.4706    127345.64   -33924.612    2569.7654   -36494.378    695.29965 
  141600    238.94474   -54.554559    127474.05   -33932.554    2540.5917   -36473.146    695.18458 
  141650    240.61522   -112.94604    127566.29   -33916.854    2558.3532   -36475.207    694.90393 
  141700    237.18535   -143.43758    127637.15   -33933.104    2521.8849   -36454.989    694.96146 
  141750    238.91757   -506.24674    127696.68   -33913.545    2540.3029   -36453.848    695.21263 
  141800    238.21526   -356.80172    127681.18   -33913.382    2532.8356   -36446.218    696.29769 
  141850    237.68801   -38.310439    127592.71   -33924.761    2527.2295    -36451.99    695.94207 
  141900    237.82911   -153.39282     127445.5   -33909.527    2528.7298   -36438.257    696.60081 
  141950    242.66525    71.562813    127267.86   -33911.532    2580.1503   -36491.682    696.69493 
  142000    240.74611    240.90325    127172.06   -33936.187    2559.7449   -36495.932    697.04996 
  142050    239.25672    561.09881    127202.88   -33946.599    2543.9089   -36490.508    697.36068 
  142100    242.78304   -284.99784    127377.12   -33935.544    2581.4027   -36516.947    698.34697 
  142150    236.39208   -313.19493    127569.17   -33952.346    2513.4505   -36465.797    698.86918 
  142200    239.91802   -288.37841    127727.69   -33947.197    2550.9402   -36498.137     699.0651 
  142250     239.2392   -496.93777    127881.52   -33940.627    2543.7226   -36484.349    700.35704 
  142300    235.93116   -289.97442    127978.58    -33932.89    2508.5497    -36441.44    700.59176 
  142350    241.22266   -610.79487    127993.51    -33909.76    2564.8118   -36474.572    700.50991 
  142400    235.82037   -414.88613    127927.43   -33922.554    2507.3717   -36429.926    699.87565 
  142450     245.5055   -299.42971    127792.57   -33922.723    2610.3494   -36533.072    699.03424 
  142500     239.8884    -263.7349    127649.67   -33944.793    2550.6252   -36495.419    698.81805 
  142550    239.86617    135.52475    127493.28   -33960.587     2550.389   -36510.976    698.63606 
  142600    237.54063    35.166121     127377.5   -33960.872    2525.6625   -36486.535    699.18053 
  142650    242.71006    67.342704     127267.4   -33943.648    2580.6267   -36524.275    698.78505 
  142700     236.2075    274.94142    127225.07   -33940.337    2511.4879   -36451.825    698.29764 
  142750    242.98827   -24.312028    127292.39   -33931.482    2583.5847   -36515.067    698.44616 
  142800    235.82206    39.911878     127367.3   -33930.936    2507.3897   -36438.326    698.86902 
  142850    243.83225   -229.95454    127397.38   -33910.767    2592.5584   -36503.325    698.83082 
  142900    238.68973    97.410149    127410.36   -33905.182    2537.8803   -36443.063     698.9276 
  142950    237.14187   -269.63004    127447.89   -33887.331    2521.4226   -36408.754    699.49096 
  143000    240.63684   -87.413082    127532.55   -33856.945    2558.5831   -36415.528    700.24672 
  143050    238.83129   -115.36538       127600   -33844.578    2539.3855   -36383.963    700.27145 
  143100    244.80784   -320.03142    127669.03   -33858.222    2602.9315   -36461.153    700.20203 
  143150     241.4994   -521.54067    127724.51    -33865.77    2567.7543   -36433.524    699.97913 
  143200    238.94611   -490.87299    127691.49   -33882.852    2540.6063   -36423.458    700.61264 
  143250    245.06076   -452.44868    127550.41   -33892.498    2605.6207   -36498.118    701.14048 
  143300    243.42128    -227.1134    127337.42   -33881.643    2588.1888   -36469.832     700.3215 
  143350    248.55259    203.42962    127122.19   -33890.363    2642.7477   -36533.111    699.47784 
  143400    240.17827    511.37996    126978.01   -33877.325    2553.7073   -36431.032    698.76484 
  143450    240.12726    15.479549    126967.25   -33882.771     2553.165   -36435.936    698.80267 
  143500    248.03226   -151.19577    127022.07   -33883.278    2637.2153   -36520.494    698.56724 
  143550    242.65705   -673.93702     127100.9   -33870.186    2580.0631   -36450.249    698.55943 
  143600    242.54046   -93.129858     127101.3   -33861.907    2578.8235   -36440.731    698.92789 
  143650    241.06083    32.047151    127086.19   -33840.747    2563.0912   -36403.838    699.18848 
  143700    243.44968   -198.68914    127132.29    -33821.02    2588.4908   -36409.511    699.39861 
  143750    241.04279    -189.9859    127205.43   -33844.372    2562.8994   -36407.272    699.08096 
  143800    242.88398   -225.55036    127271.43   -33861.933    2582.4759   -36444.409    699.73896 
  143850    240.33049    167.17988     127284.8   -33855.774    2555.3258     -36411.1     699.7719 
  143900    242.84912   -42.289019    127262.78   -33868.172    2582.1053   -36450.277    700.35334 
  143950     248.0756     167.8193    127206.62   -33854.919     2637.676   -36492.595    699.78198 
  144000    242.33304    9.9077906    127165.68   -33876.183     2576.618   -36452.801    700.00546 
  144050    243.37847   -107.28384    127162.65   -33926.006    2587.7336   -36513.739    700.28773 
  144100    241.92953   -82.622605       127133   -33936.815    2572.3277   -36509.143    700.37076 
  144150    240.26053   -215.63499    127019.49   -33953.029     2554.582   -36507.611    700.48635 
  144200    238.95617   -308.47634    126872.93   -33940.538    2540.7133   -36481.251    700.09669 
  144250    235.73635   -33.893292    126728.03   -33909.925    2506.4784   -36416.404    700.24663 
  144300     242.5972    176.72028    126595.33    -33912.08    2579.4267   -36491.507    700.59543 
  144350    240.81659     323.8913    126551.56   -33921.733    2560.4943   -36482.227    700.12129 
  144400    240.50561    274.28034    126572.58   -33929.958    2557.1878   -36487.146    700.40984 
  144450    243.29268    132.75503    126672.73    -33927.26    2586.8214   -36514.081    700.49756 
  144500    241.32385    345.01127    126855.73   -33935.945    2565.8878   -36501.833    700.88702 
  144550    240.60037   -25.266975    127042.12   -33936.856    2558.1953   -36495.051    701.86051 
  144600    237.76013   -223.46637    127169.91    -33923.08    2527.9963   -36451.077    703.30954 
  144650    242.81801   -70.617707    127198.27   -33936.234    2581.7745   -36518.009    703.98589 
  144700    239.33263   -517.77936    127189.82   -33928.733    2544.7161   -36473.449    704.90495 
  144750    242.86479   -255.35359    127170.79   -33956.268    2582.2719    -36538.54    704.87807 
  144800    241.17007   -550.46664    127186.01   -33983.453    2564.2527   -36547.705    706.32609 
  144850    242.41354   -113.40012    127161.74   -33987.415     2577.474   -36564.889    705.57089 
  144900    238.78398   -519.96304    127067.47   -33999.546    2538.8824   -36538.428    704.55826 
  144950    240.80017   -284.73002    126876.17   -33978.761    2560.3197   -36539.081    704.50305 
  145000    235.84461   -206.33528     126677.4   -34017.157    2507.6294   -36524.786    704.77073 
  145050    240.31881    123.25757    126505.85   -34022.279    2555.2016    -36577.48    704.02944 
  145100    237.90973   -60.042366    126360.41   -34003.144    2529.5869   -36532.731     703.5277 
  145150     239.4266    86.155657    126247.31   -34000.663    2545.7152   -36546.378    703.12305 
  145200    238.48668    576.67422    126243.45   -33987.909    2535.7214    -36523.63    702.61625 
  145250     237.4026    5.3129773    126379.58   -34006.936    2524.1949    -36531.13     702.8664 
  145300    243.92788   -165.15475    126544.08   -34015.126    2593.5752   -36608.702    703.73529 
  145350    235.95442   -47.742142    126649.96    -34024.02    2508.7971   -36532.817    703.92036 
  145400    241.39265    135.70144    126678.39   -33998.672    2566.6193   -36565.291     704.7744 
  145450    236.79606    93.262083    126712.96   -33995.216    2517.7458   -36512.961    704.39995 
  145500    237.85463   -216.62407     126757.2   -33991.965    2529.0012   -36520.967    704.75115 
  145550    237.56798    146.48499    126803.57   -33968.547    2525.9533     -36494.5    705.18033 
  145600    237.83647    26.641545    126880.49    -33978.16     2528.808   -36506.968    705.69958 
  145650    235.14416    250.32405    127051.29   -33964.067    2500.1819   -36464.249    705.92618 
  145700    238.57342   -87.935724    127253.89   -33960.523    2536.6437   -36497.166    706.46274 
  145750    241.29435    -310.9111    127393.92   -33960.894    2565.5741   -36526.468       706.75 
  145800     239.7432   -347.77235    127471.99   -33937.312    2549.0815   -36486.394    707.01259 
  145850    234.97837   -239.72236    127502.51   -33940.557    2498.4191   -36438.976    707.17451 
  145900    238.81799   -27.341636    127433.72   -33948.185    2539.2441   -36487.429    707.26523 
  145950    236.77013   -360.04872    127325.17   -33935.188    2517.4701   -36452.658    707.45016 
  146000    241.18024    253.95545    127182.98   -33931.895    2564.3608   -36496.256    707.33469 
  146050    240.92092    88.596128    127037.48   -33921.217    2561.6036   -36482.821    708.07056 
  146100    242.77257    -16.43186    126894.05   -33931.299    2581.2914    -36512.59    707.95957 
  146150     237.5848    214.25688    126817.08   -33963.049    2526.1321   -36489.181    708.02474 
  146200    234.66741    59.557943     126823.9   -33956.583    2495.1128   -36451.696    707.66284 
  146250    239.81866   -236.14704    126877.42   -33954.151    2549.8837   -36504.035    708.01118 
  146300    241.86779   -210.54323    126943.51    -33937.08    2571.6712   -36508.751    708.46386 
  146350    237.58757    -49.07174    126968.81   -33945.172    2526.1616   -36471.334     708.9431 
  146400    242.16409    395.13919    127016.51   -33948.532    2574.8217   -36523.353     709.5024 
  146450    239.70049   -128.75212    127153.26   -33950.728    2548.6273   -36499.355     709.9476 
  146500    237.09263    335.25178    127335.49   -33937.047    2520.8991   -36457.946    710.69961 
  146550    241.12621   -184.71753    127524.03   -33931.437    2563.7863   -36495.223    710.44524 
  146600    240.95261    -75.80091    127710.77   -33953.414    2561.9405   -36515.355    711.34527 
  146650    235.19706   -154.13211    127870.18   -33983.961    2500.7444   -36484.706    711.15277 
  146700    234.27767    -230.2626    127976.56    -33988.44    2490.9689   -36479.409    711.80974 
  146750    243.38223   -245.52009    128027.45   -33995.213    2587.7736   -36582.987     711.7342 
  146800    237.52508   -101.79969    128054.26   -34019.315    2525.4972   -36544.812    711.78976 
  146850    240.65011   -327.33113    128076.72   -34021.961    2558.7242   -36580.685    712.30706 
  146900    237.43801   -107.12536    128068.37   -34006.015    2524.5713   -36530.586    712.66952 
  146950    238.16762   -535.57329    128001.65   -34000.405     2532.329   -36532.734    712.52091 
  147000    240.13382    -430.2508    127811.81    -33984.12    2553.2347   -36537.354    712.16602 
  147050    247.33516   -102.36175    127594.33   -33982.119    2629.8033   -36611.922     711.8903 
  147100    240.53592   -130.37813    127423.67   -33976.285    2557.5101   -36533.795    712.29809 
  147150     242.0525    2.3268981     127241.7    -34000.05    2573.6352   -36573.685    712.22782 
  147200    238.95153    696.25481    127109.63   -33987.513     2540.664   -36528.177    712.16264 
  147250    240.79794    44.579555    127082.96   -33990.211     2560.296   -36550.507    712.66093 
  147300    241.61403    440.72906    127075.42   -33967.603    2568.9731   -36536.576     712.7273 
  147350    244.92638     340.9783    127079.55   -33965.874    2604.1919   -36570.066    712.88744 
  147400    239.64753    105.21078    127133.38   -33959.236    2548.0642   -36507.301    712.93556 
  147450    242.84633   -514.91089    127168.93   -33930.219    2582.0756   -36512.295    713.18481 
  147500     242.8043    -207.1813    127145.23   -33939.364    2581.6287   -36520.993    712.90656 
  147550    241.48705   -223.06209    127113.56   -33936.093     2567.623   -36503.716    713.39502 
  147600     241.4111   -279.25358    127064.52   -33939.446    2566.8154   -36506.262    713.68163 
  147650    240.66046   -152.28446    126996.14   -33909.863    2558.8342   -36468.697    713.69755 
  147700    237.05195   -224.20175    126967.33   -33919.096    2520.4666   -36439.563    714.01202 
  147750    236.11147     88.92972    126904.31   -33916.729    2510.4669   -36427.196    713.99981 
  147800      240.056    137.68272    126825.65   -33932.268    2552.4073   -36484.675    713.94468 
  147850    241.04845    383.08542    126766.87   -33937.313    2562.9595   -36500.273    714.15498 
  147900    237.80666   -132.82529    126722.09   -33913.141    2528.4911   -36441.632    714.00792 
  147950    240.00108    76.858892    126709.88   -33926.693    2551.8233   -36478.516    714.55221 
  148000    239.33116    152.63618    126713.78   -33894.519    2544.7004   -36439.219    715.44326 
  148050    240.19643    338.25104    126753.07   -33909.629    2553.9004   -36463.529    716.20078 
  148100    240.00041     -394.517    126818.39   -33910.986    2551.8162   -36462.802    717.27814 
  148150    242.39891   -247.20786    126852.08   -33927.308    2577.3183   -36504.626    717.43215 
  148200    238.81602   -135.30251    126831.68   -33906.335    2539.2231   -36445.558    717.65775 
  148250    241.45786    99.075062    126815.01   -33873.207    2567.3126    -36440.52    718.12542 
  148300    242.19587   -220.82381    126902.18   -33860.254    2575.1596   -36435.413    718.83376 
  148350    242.35828    116.22046    127027.58   -33841.493    2576.8864   -36418.379    720.42696 
  148400    241.21431   -126.05567    127142.59   -33837.787    2564.7231    -36402.51     720.4442 
  148450    243.22894   -62.110999    127293.91   -33873.577    2586.1437   -36459.721    720.40268 
  148500    242.53594   -247.41067     127452.8   -33895.209    2578.7754   -36473.985    721.42368 
  148550    238.36619   -759.92767    127582.49   -33895.306    2534.4403   -36429.746    721.20999 
  148600    244.24544   -81.679605       127677   -33894.434    2596.9517   -36491.386     722.1798 
  148650    245.62704   -134.22577    127719.25   -33877.222    2611.6417   -36488.864    721.95396 
  148700    242.47442   -549.71457    127703.96   -33864.445    2578.1213   -36442.566    722.61645 
  148750    245.57963   -35.859863    127576.57   -33852.016    2611.1376   -36463.153    722.19057 
  148800    248.41324    273.10271    127410.41   -33865.276    2641.2661   -36506.542    721.68604 
  148850    243.49504    123.06083    127277.78   -33888.809     2588.973   -36477.782    721.81538 
  148900    241.35676    230.83791    127238.25    -33889.76    2566.2377   -36455.998    721.52341 
  148950    244.50559    121.40042    127304.54   -33884.116    2599.7178   -36483.834    722.32664 
  149000    245.74233   -121.73302    127461.37   -33885.732    2612.8675     -36498.6    722.49119 
  149050    238.54222   -384.51097    127634.53   -33907.376     2536.312   -36443.688    722.85642 
  149100    240.50493   -6.7175233    127727.59   -33908.538    2557.1806   -36465.719    723.68114 
  149150    240.68936    -762.7063     127783.4   -33928.782    2559.1415   -36487.924    724.34837 
  149200    236.94018   -613.95941     127758.1   -33951.097    2519.2782   -36470.375    724.78199 
  149250    238.13676   -421.62125    127622.41   -33967.582    2532.0008   -36499.583    725.27561 
  149300    240.88091    71.466886    127475.65   -33973.007    2561.1782   -36534.185    725.13695 
  149350    233.80649     170.3256    127357.78   -33995.215    2485.9591   -36481.174     724.9365 
  149400    236.25538    -220.9367    127278.41     -34033.5     2511.997   -36545.497    724.99193 
  149450    230.82899   -248.17302    127206.72   -34022.979    2454.3007   -36477.279    725.06777 
  149500     233.0037   -292.44766    127148.02   -34018.776    2477.4233   -36496.199    725.70342 
  149550    236.30888   -49.663597    127090.89   -34028.674    2512.5658   -36541.239    724.62612 
  149600    235.73765    234.25761    127049.62   -34045.395    2506.4922   -36551.888    725.11534 
  149650    237.12408   -228.54881    127040.24   -34010.869    2521.2335   -36532.102    725.17463 
  149700    234.16115   -17.759165    126986.91   -33997.628      2489.73   -36487.358    725.52683 
  149750    238.14826    107.15176    126924.69   -33989.902    2532.1231   -36522.025    725.34359 
  149800    235.70867    63.387851    126871.16   -33998.356    2506.1841   -36504.541     725.7753 
  149850    232.88699   -74.425346    126869.54   -34021.148    2476.1824    -36497.33    725.72082 
  149900    237.78357   -328.77402    126907.91   -34007.836    2528.2455   -36536.081    726.40709 
  149950    238.78558    -348.8936    126898.14   -33998.425    2538.8995   -36537.324    726.30891 
  150000    236.61032    178.50909    126847.59   -33996.262    2515.7709   -36512.033    726.97148 
Loop time of 432.282 on 12 procs for 100000 steps with 6328 atoms

Performance: 199.870 ns/day, 0.120 hours/ns, 231.331 timesteps/s
96.1% CPU use with 12 MPI tasks x no OpenMP threads

MPI task timing breakdown:
Section |  min time  |  avg time  |  max time  |%varavg| %total
---------------------------------------------------------------
Pair    | 71.251     | 139.87     | 275.5      | 778.6 | 32.36
Neigh   | 9.9502     | 18.279     | 34.769     | 260.0 |  4.23
Comm    | 84.721     | 236.09     | 312.96     | 668.7 | 54.61
Output  | 0.74205    | 0.75441    | 0.81077    |   2.1 |  0.17
Modify  | 32.927     | 33.299     | 33.766     |   4.0 |  7.70
Other   |            | 3.986      |            |       |  0.92

Nlocal:        527.333 ave         900 max         343 min
Histogram: 8 0 0 0 0 0 0 0 0 4
Nghost:        1681.58 ave        1885 max        1575 min
Histogram: 8 0 0 0 0 0 0 0 1 3
Neighs:        0.00000 ave           0 max           0 min
Histogram: 12 0 0 0 0 0 0 0 0 0
FullNghs:      43397.8 ave      103992 max       13803 min
Histogram: 8 0 0 0 0 0 0 0 0 4

Total # of neighbors = 520774
Ave neighs/atom = 82.296776
Neighbor list builds = 11772
Dangerous builds = 0


# Create data file for import to other simulations
#
write_data data.${NAME}
write_data data.ML_graphite_1atm_240K
System init for write_data ...


Total wall time: 0:10:52
