LAMMPS data file via write_data, version 29 Oct 2020, timestep = 8000000

6736 atoms
2 atom types

0.1838404979703725 49.03615950201146 xlo xhi
0.18309212271960718 48.83654380765587 ylo yhi
0.18476727769222379 59.87723272230729 zlo zhi

Masses

1 18.015
2 12.01

Atoms # atomic

2633 1 2.215329148870691 3.832791370109956 1.4310812858866233 -1 -2 1
3456 1 4.150479503772174 1.7423156366132129 1.3770505879492585 -1 -1 0
2572 1 6.9121496334013255 2.342538002413426 0.8515877863313578 5 -2 1
1212 1 11.425828499775276 1.1845075187886465 1.1281351466862994 4 -1 0
1204 1 12.163838435103672 3.4616062358112374 1.9826133932645786 0 1 0
370 1 8.891043791666723 0.735191776929232 2.1325344348733584 -1 0 1
4222 1 16.28290045462262 2.50738447640642 2.1075322611832856 1 -1 1
1878 1 18.952857838853312 3.288453267006213 1.28494027503855 3 3 1
1944 1 21.023084672649592 1.809733216040553 1.8888448379935512 -2 2 0
5490 1 23.55006694354217 2.2585451387506397 1.4936787199972459 0 -1 0
3769 1 2.905110464060467 6.156247635001613 2.1497896595049255 2 2 0
9 1 1.0051497486566592 7.5209761565536075 0.7775021101177623 3 -1 1
2487 1 7.4495786964052 4.716462136264857 1.7190918287743806 2 0 0
2007 1 5.525861199450905 6.724667285081519 0.9616425777319939 0 1 0
5427 1 10.258672255622567 5.110719775880939 0.8285001865952405 2 2 0
6127 1 10.795467415344481 7.656409589725545 1.8503675032419251 -4 2 1
1077 1 14.584393911066943 4.328066687203206 1.1446725073480946 3 -4 1
961 1 15.188669566068752 6.5838941180559525 2.0449303166937947 1 0 1
2436 1 19.604491844584526 5.907019256108963 2.0491012114561986 -1 1 0
3754 1 17.492561566364607 7.521668389507186 1.1400188799877449 3 3 0
2863 1 23.747440639863534 5.010620031261589 2.0599088380139285 2 -1 0
2452 1 21.8096448604009 6.705773034253998 1.0955674831352702 0 0 0
126 1 1.7797392199523463 9.839050389047387 1.6490398219743057 0 0 0
2629 1 4.349924896645402 10.686430555981502 0.949359370230269 1 -2 1
1060 1 6.413719542871261 9.025577099146185 1.5334108799001267 2 1 1
2085 1 8.737855575455477 9.392112389638095 0.969394238414965 -1 0 0
973 1 9.316478895058163 11.92500027565486 1.9533222020399654 6 3 1
754 1 13.441674245456229 8.259883661244071 1.1711319565184035 -2 -4 1
2900 1 14.048042819565302 10.552307856223697 2.1120267559147274 3 3 1
1167 1 16.30702488657327 11.665084136209916 1.215442715955826 -5 2 1
2671 1 18.132013015791667 9.889843998574872 2.1180639598968405 2 0 1
461 1 20.4650681790741 10.559715158246265 0.9527176320075172 -2 0 0
803 1 22.300592057869224 8.963911333896748 2.112317453183116 4 1 1
1175 1 2.972811225643227 14.531651743291167 0.9772736906171053 1 -1 1
4427 1 14.252348809651682 8.594672666861452 19.821797128796636 -3 4 1
2182 1 4.731359483132007 12.999571442976494 2.11838257836642 0 0 0
2509 1 7.3149013999620225 13.659771094768207 1.2033702874706755 1 -1 1
2577 1 8.049026991900362 15.972089068715308 2.3886634968438893 5 -1 1
3853 1 11.98700114229454 12.199584214494273 1.5008400726896411 5 -3 0
5921 1 12.419842562368647 14.732519795790846 2.451621166684098 -1 -2 0
442 1 14.740238693303997 15.596128035672018 1.549810260910408 -4 0 0
3688 1 16.69429984329913 13.925371917870706 2.431363626645591 0 -5 1
491 1 19.45998811882583 14.335744460224797 1.4575167140972554 -2 0 1
497 1 21.34181679969118 12.640701990744626 2.199522025588866 -3 0 0
4515 1 23.734895609046127 13.472363525600773 1.1863397380176384 -4 3 0
225 1 12.690280515042929 1.672021087621024 19.729863172560627 0 3 0
321 1 3.5254400610329677 17.13602322923111 1.7271969193659134 1 3 0
4230 1 1.3252193004678439 18.783524184175402 1.1216410269046069 1 0 1
4565 1 6.040087104147468 17.947534525278286 1.5112235872797124 1 0 1
172 1 6.40911528707064 20.491923576070427 2.411221393240446 0 0 1
2785 1 10.596265073721908 16.50711794292226 1.7160768142314506 -1 -4 1
945 1 10.796529265864212 19.14100652015003 2.223597860215038 2 -3 1
5500 1 15.562650533269975 17.942018090930382 2.148225644194696 -2 0 0
166 1 13.336367902067304 19.644221273453 1.3409389832300265 3 -2 0
1191 1 18.054535478235874 18.693062561587446 1.3305038776760882 0 2 1
3835 1 19.893733455413113 16.841798293089052 2.3064852068681665 2 0 0
4264 1 22.497109790120856 17.742192832856933 1.2302410199955034 1 -1 1
255 1 22.670850638746458 19.967252230143416 2.5052849874853256 6 0 0
2866 1 2.197778795049476 21.210252345078953 2.1452940793823183 2 0 1
3583 1 4.966565385303376 23.906524771509314 13.225281440820009 4 -2 0
1964 1 4.820110130560206 22.082399026251245 1.4095021376033365 1 -2 1
488 1 16.820166092832636 11.837415847713157 19.632391432372426 -3 0 0
1785 1 8.871521659903186 20.68442657635375 1.2832329965419746 1 -2 0
1025 1 9.437159452335322 23.024118234636084 2.563545630925568 0 -2 1
367 1 11.917938957160828 23.703038883740902 1.6426091142862929 2 4 0
5564 1 14.01335100556625 22.12674615468326 2.4150093048581485 -1 -1 0
3620 1 16.47211869481157 22.94109504749193 1.3607657947968268 -2 0 0
2660 1 18.511494571955676 21.086865970749894 2.369871380052216 1 2 1
1097 1 21.14205607489832 21.964758561686455 1.5443741786512468 5 -2 1
2039 1 5.1382133710365165 24.50559913597401 2.60488522882022 -1 0 0
2795 1 2.2209425355002845 3.6530128162254267 5.365114099959213 -1 2 1
2446 1 4.388934538545284 2.1165805603997656 4.247256319619597 3 -2 1
5172 1 6.806875718131586 2.6698254373530728 5.414413907694291 -1 1 1
3562 1 11.22188067574919 1.5631973865486934 5.804011200893705 -3 1 0
924 1 8.696201031656392 0.9069717750873362 4.718210748393115 1 0 1
156 1 11.884658369116732 3.743668956859598 4.575725963173053 1 3 0
6192 1 16.437515861553948 2.6045216035012952 4.759288738548584 1 -2 1
2656 1 18.876553907110843 3.0736316895288756 5.714956052533335 4 -2 0
5514 1 18.557029368488383 3.3036841932667502 8.354025045223205 2 0 0
5117 1 20.72079136482743 1.6376586441105716 4.523012318098761 4 -1 0
171 1 23.223324274740033 2.3924166081204072 5.701198563138528 0 1 1
4194 1 2.857543672378714 6.241585224566155 5.029515076453178 2 -2 1
1812 1 0.7471067228109416 7.875991604873531 5.658266272094134 -1 0 0
4493 1 7.44955336081762 4.847526042333948 4.4601847218790835 -1 3 0
5495 1 5.556663585651182 6.756720420995678 5.272245499515068 -1 2 0
413 1 9.994357219408645 5.353230758068973 5.661635242529504 1 3 0
371 1 10.682320348669068 7.632533980254125 4.800972065467655 3 -1 0
2042 1 14.417346830316406 3.973833562119562 5.674833378819086 2 1 0
1826 1 14.974488028658218 6.728389937511903 4.5798103860709585 1 2 0
420 1 19.456742142104577 5.58446941826804 4.831003738070588 0 1 0
943 1 17.937913331908373 7.445663202460316 5.521209745295643 -2 1 0
5326 1 23.959906526084875 4.980667263246065 4.6136028531800175 2 3 0
1927 1 21.922750244308848 6.302411533043828 5.717180893889874 2 2 0
6117 1 1.9670964217428357 10.075466323825154 4.174920816763395 0 1 1
4370 1 4.4559959489646275 10.69141189805697 5.272784537389713 0 2 1
128 1 6.269061947135015 9.219157986563184 4.41513529132444 3 5 1
1079 1 8.70003284951284 9.457964741372779 5.460478576494997 2 -1 1
3459 1 9.145664958470222 11.814199185112132 4.67115460828232 1 0 1
2618 1 13.127254120671482 8.47595124006352 5.539816179709408 0 1 1
1738 1 13.643909204738492 10.912444191780983 4.540159586205206 -2 0 1
2861 1 16.056265830676928 11.234877912979641 5.458959030131482 2 -1 1
1779 1 18.239866269281812 9.910885904520354 4.837668734505553 -2 0 1
6166 1 20.39711646238832 10.309929697750682 5.781762920228716 2 2 1
96 1 22.392502637210793 8.788644322201398 4.789014353129271 0 1 1
1787 1 2.9128625265945063 14.890211472629165 5.780366044115416 -1 0 1
6028 1 21.44227416032398 24.319449032857428 2.2845689412975365 -5 2 1
3447 1 4.709685695014347 13.145797665479003 4.972733242705781 1 -2 1
5097 1 6.952651865870897 13.736346423834524 5.722504406993782 0 1 0
2161 1 8.048535552055188 16.265476656372723 4.898175359971104 -1 4 0
3485 1 11.509716886869299 12.286365243428307 5.8813657588000625 1 -1 1
6178 1 12.391124783634199 14.86490984175463 4.884202267647739 -3 -1 1
4539 1 14.754514938962428 15.628885834329655 5.664458374809084 -4 -2 1
1822 1 16.657281905128432 13.680784731652004 5.028269250865067 0 -1 0
4329 1 19.134049924337223 14.288335588027351 5.643209325371914 -2 -2 1
6174 1 21.135716902361782 12.569672571888262 5.0108873017328905 2 4 1
5223 1 23.342020987515845 13.432576304863998 5.849328495888642 -1 2 1
2641 1 9.23326875582778 0.3470550238216734 15.917321978443672 -1 -1 1
6133 1 3.5771225043619364 17.49509021079785 4.883828249550534 -1 1 1
57 1 1.3483280403737323 18.62843143745173 5.983713710380926 -2 -1 1
2010 1 6.041194014022833 17.917419619353087 5.975650093070985 -1 0 1
2726 1 6.396652147835502 20.503062863044114 5.161828748291645 1 3 1
127 1 10.52465356933327 16.63106556656402 5.877131717023924 -2 0 0
1145 1 10.983114854998055 19.23367646993308 4.7888737073939724 -1 2 1
2743 1 9.072359418464037 20.833403821749258 5.805216046438111 -1 -2 1
5857 1 15.48258238279505 18.074540168205434 4.672343406346723 0 -2 1
3422 1 13.439709266193741 19.579192436475275 5.749844694887207 -1 1 1
1813 1 19.541395319358895 16.992383344149662 4.859437856690347 -2 -1 0
1736 1 17.691863112141597 18.869157134279916 5.923194218818843 1 -1 1
5480 1 21.838853652085266 17.782234729552624 5.7248308450540675 -2 -1 0
261 1 22.85239608067179 20.290880843139252 5.2310803472119245 0 -1 0
5279 1 2.120917689601221 20.95060849045166 4.931248538231102 1 3 0
3528 1 16.667141815915986 0.19481540004889825 19.26246844640833 0 0 0
824 1 4.360742989637834 21.830211944923434 6.039139958334408 -3 0 1
5941 1 15.816969300963176 0.4505241036920927 8.794193303455849 -2 -4 1
4325 1 9.640573714712044 23.25671055819455 5.232996464582291 -1 -2 1
392 1 12.17005569354895 23.878182226706723 6.171502817248204 -1 2 0
1154 1 14.05710832831236 22.12320692797227 5.0065622765262825 0 0 1
1737 1 16.327374664271524 22.36190726820193 6.006678348679684 -1 1 0
3721 1 18.43009804091466 21.26839015722064 4.901270377480352 4 3 0
6187 1 20.785789027215127 21.816626463484592 6.250520577705017 3 2 1
3693 1 14.894427281005136 24.388599631308267 9.723072145995946 2 2 0
4559 1 2.2240731953772963 3.3748346749094567 8.095867274781943 -1 2 1
2827 1 1.245123776837349 1.1781959135578748 8.760563237716479 0 1 1
6298 1 4.054473261855444 3.766404120490947 11.775256765171207 -2 2 0
6249 1 0.9327981230052756 0.9525726490950062 11.588241539308775 2 1 1
5358 1 6.896331683607681 2.713773254479623 7.832781054335189 -1 -2 1
3691 1 4.684582619045356 4.0643569475359245 9.120068689455138 -4 -1 0
1962 1 8.363804764954864 3.057496430519209 11.219148723394445 5 -1 1
282 1 11.454742475884098 1.5472962959537677 8.506811725523717 -2 1 0
1233 1 9.557274328258762 3.467632995122321 9.008370546048244 1 -5 1
3845 1 11.084720441854794 2.505889978686515 12.07788034681264 -1 -2 0
987 1 13.726867915528395 2.1340134876521963 9.491017515213898 0 -2 1
5351 1 16.5521161869313 0.41213659107270517 16.50402485775721 -1 2 0
6241 1 18.18002040176651 0.846090486191926 9.05118100529209 0 -1 1
4571 1 23.05817901215402 2.3588014740119263 8.411926975322256 -4 -1 1
3794 1 21.14275295639281 4.128491451757918 9.08878092345673 -3 3 0
2029 1 21.916109228980172 4.115429855576669 11.5873495232507 -1 2 0
3660 1 0.6657512960711924 7.391162362605418 8.166388753505458 0 0 0
5459 1 3.1943959819062107 8.028040984430588 8.850017810022907 0 3 0
4219 1 5.683755241692679 6.591943198228056 8.054257352800882 -1 -2 1
1173 1 8.13186392059151 7.406303162592731 9.293704927668943 6 6 1
2144 1 10.077389885857604 5.996098784936126 8.340527637558779 -3 2 0
1076 1 12.539053773879745 6.069454201523718 9.300018817677243 3 2 1
2084 1 14.467652545691678 4.355731816323389 8.201998102110542 1 2 0
2692 1 13.214411180380772 8.382321073354564 8.342376854559944 0 1 1
4243 1 17.43540665162563 7.401920861852556 7.999665439757504 -1 0 1
1187 1 16.676699191642474 5.345942713866093 9.285116361186 2 -1 1
4446 1 17.43813135950627 5.057937146426363 11.96960401510208 1 2 1
3557 1 19.84365228530577 7.974441021207808 9.482210948162251 -1 2 0
199 1 20.041358888075194 8.364937002779325 12.096815166665927 1 0 0
4563 1 12.291865188323074 12.503075466866749 19.45747973566923 0 2 1
4608 1 21.7682912865035 6.610995701504679 8.275662730095164 -2 -2 0
2930 1 21.08724771385689 20.98536241692741 16.405921299830243 2 2 1
1830 1 3.0704120958605983 8.460970786499713 11.512188199595657 2 -1 1
5352 1 4.010597764233719 10.55865927588098 8.148549809217037 -1 -1 0
1718 1 6.406206408598469 11.255508041228193 8.894167000534901 -1 1 0
3839 1 6.3422385540900414 10.826986486858353 11.67464497834247 -3 -1 0
2115 1 8.47875186847776 9.385983595778054 8.121238176340741 -2 2 0
4505 1 11.18105617042611 10.207165088481254 9.17765686458318 2 2 0
1136 1 16.187946537132063 11.222869937425894 8.337209803861345 1 1 1
1023 1 15.469354149175667 8.891864026584425 9.252791171372245 0 0 1
6201 1 16.016648253446938 9.189196006167844 11.96750689114609 1 2 1
5815 1 20.656287933506967 10.493651945237945 8.51313418669712 1 -3 1
1218 1 18.720994271329037 12.108498510103125 9.437062834561315 0 -3 1
4128 1 23.070635312042178 10.946114604597213 9.268265975885376 4 -1 0
2564 1 23.248650161362587 11.466398588165063 12.293951141339152 -3 2 0
3804 1 2.088808587338203 12.24508596404239 9.128317300224781 3 -3 0
6161 1 3.1347279197325655 14.586971070128115 8.352061165212874 0 1 1
813 1 1.4086436369012467 16.264820499505714 9.56494592984762 2 -1 1
2636 1 0.8534282866326813 16.32660832432019 12.413248849853952 1 -2 1
5873 1 7.402865951048029 13.525084089490791 8.439722149166789 2 2 1
4106 1 5.567455566441288 15.466139896934731 9.294101966266727 -3 2 1
3840 1 11.691944924126828 12.726131215015348 8.741094389882402 6 1 0
2843 1 9.656962445461877 14.223867031641825 9.549589892299036 -2 5 1
1938 1 9.714375475131344 14.317887229777249 12.096517680111097 0 0 0
971 1 14.53890930712469 15.58831703993397 8.365863282658882 3 0 1
6280 1 14.573474438617502 13.075843218596479 9.444408309511203 -2 4 0
206 1 14.573709612566061 13.627441061960118 12.220442352339084 2 -1 0
4118 1 19.368092829038932 14.52886722912601 8.533368994881279 4 -4 1
5383 1 17.16481101904339 15.972063330505728 9.338091551224345 0 -1 1
2738 1 17.437333379474527 16.43277196233043 11.911616063468557 1 -1 0
944 1 23.54580314778567 13.463325603626867 8.522821636432944 -2 2 1
2096 1 21.58975702773341 15.310867637197218 9.35005609285765 3 3 0
3534 1 1.4168176771183851 18.73535269173821 8.604845319738306 1 2 1
871 1 3.671278344435176 19.317004760717936 9.431571301952133 3 3 1
1199 1 5.885055030635789 17.82460157186967 8.675953378381443 -2 2 0
4460 1 8.702895002123954 18.63004160422598 9.408985136663937 1 2 1
1148 1 8.399894831707394 18.218928693456743 12.005384368948558 0 -2 1
2198 1 10.422486844067905 16.645708425523004 8.648314078834883 3 2 0
4610 1 12.873372586178354 17.61389607924783 9.35221361247419 2 -3 1
5364 1 13.234995283063467 20.00689644892738 8.263544315361663 0 0 0
205 1 15.671640207184835 20.417893457700057 9.432258703666053 0 -2 1
6022 1 12.81033962806517 17.462099783402024 12.111381009788996 0 2 1
1994 1 17.680623817422813 18.55350586910811 8.716306372876648 0 1 0
6075 1 20.184989192476284 19.38729427452591 9.86708271134425 -3 -1 1
4391 1 22.303559989297373 17.848314505724368 8.770008695885434 -1 2 1
2920 1 21.155883250855695 23.71838252108282 15.580394021618364 -2 0 1
4404 1 2.503783687857504 23.297266156843133 9.620695439616567 2 2 1
2108 1 4.370834740739289 21.928536956394634 8.496774620259785 -3 0 0
3732 1 6.907505587796964 22.446619930431545 9.355568230905314 -3 -3 0
2926 1 9.051520346741407 21.06363232096071 8.460855775069632 1 -1 1
5341 1 11.233215875376839 21.582070903081775 9.453037326077325 1 4 0
5322 1 12.07743835955035 23.986040850206226 8.956435435281298 1 0 0
3806 1 16.59778655547571 22.729875289747728 8.824866135517935 1 0 0
12 1 18.252196952332792 21.06023621671111 15.69227071539861 3 0 0
2821 1 18.916092066578493 23.531548497469824 9.792341028062399 1 -2 0
1716 1 20.761237086324044 21.646272490902334 8.932529789215524 -2 1 1
885 1 23.257052380695963 22.27258926302869 9.480911791772641 0 -1 1
3656 1 3.1586763782833938 1.3858604473316938 12.505461679966087 0 0 0
3441 1 3.3597681753886808 1.7088449589315537 15.261115436394109 0 -1 1
209 1 0.6369421448371941 13.772320350752306 4.908437488171688 0 2 0
4173 1 9.43820856445819 4.506615456264865 14.252280191062843 4 -1 0
4355 1 14.350596068176372 1.955056126892621 12.22027960617044 0 0 1
3435 1 12.859542617314613 4.111810053916228 13.327960151565708 -1 -2 0
2672 1 18.675395394280912 1.4101217197985287 11.704081433378366 -4 -1 1
4202 1 16.79674262552828 2.882767434505798 13.047438423228432 3 3 1
3827 1 17.065786344185316 2.9733670088027813 15.899769814591263 0 0 0
5453 1 21.325960891780483 1.636584374632193 12.816343485627566 2 1 0
458 1 21.41069749630655 1.7005944636314507 15.399860188863602 0 1 0
349 1 2.310403699284046 5.736335392482884 12.518620888952942 1 0 0
3621 1 2.225151906733836 5.8685911756641955 15.011537721141421 -1 4 0
4441 1 7.447378788267155 7.143653748606004 11.829226727829703 -1 -1 1
132 1 6.576695794324181 4.70808430817 12.307876874697481 0 -1 0
2048 1 6.730575770706842 4.541300909205089 15.137755689222073 6 1 0
6283 1 8.972039544286767 7.432441349145426 13.779903906346982 -1 3 1
5291 1 11.279780164373268 8.358542845133588 13.371103667071813 -5 0 0
1772 1 12.868801471224629 6.533691723929264 11.975696691395301 3 4 0
5391 1 15.543415627214857 6.6920167681056135 12.873504594129315 4 -1 0
4489 1 15.612126432573643 6.901545189551026 15.78029448782639 -1 4 1
3442 1 19.699276721666482 5.724784612359347 12.664474066425408 5 1 0
274 1 19.75159776501227 5.750416127620714 15.579244189207028 0 3 1
1011 1 0.3314899224866673 22.76713300193536 16.541517357141622 -2 -3 1
817 1 24.125111820811373 4.846532873889418 13.209152691641956 4 -1 1
3799 1 1.2699544778943639 9.98227214277299 12.671491547722617 1 3 0
6090 1 1.3886445680483082 10.137691477758587 15.496189159794113 1 -1 1
289 1 5.337503950938446 8.726625377377973 15.465861440650812 1 -1 0
5875 1 8.14102571200048 11.420411984070881 13.945411375296322 0 0 1
5222 1 5.3406883584084115 8.633747966735738 12.792505459766481 1 0 0
6080 1 8.011791612223606 9.097552526920811 15.650390498123212 3 0 1
10 1 11.753564552537986 10.461629722890915 11.718880146247605 -2 -3 0
1188 1 10.513415103426283 12.00051216337237 13.204265320678244 1 0 1
5996 1 14.305196414244598 11.164753127174944 13.00990909322205 2 -1 1
3602 1 14.350808541144911 10.95138791654573 15.905182872633125 1 -3 0
2914 1 18.853960673519005 12.040121656316092 12.14030448100227 -1 0 0
984 1 18.23622784583923 9.816051068507472 13.331212113051087 0 2 1
2864 1 18.294633057246063 10.099882295406196 16.016313906932414 0 -1 0
77 1 22.571846955158943 9.152097585077133 13.117045840763081 -2 2 0
1915 1 22.67675786255713 9.092536873785988 15.609568108698738 -1 4 0
6134 1 1.8181758867097475 12.309084509365473 11.75337261890657 1 0 1
5886 1 5.407010077410282 15.479033123596539 12.037535447579726 3 3 1
825 1 4.106186422120845 12.986144462495751 15.367405691807198 0 0 0
256 1 4.782372107291824 12.791934616583225 12.582713831477127 -1 -2 0
3379 1 7.6993438492127 15.87993006988214 12.64375002993175 0 1 1
3869 1 6.561312054366209 12.934205214669133 15.6014393449971 -1 -1 0
1768 1 7.739652423463219 15.580866624050461 15.298806873568578 -2 -3 0
5181 1 12.451382479668963 15.144698233544867 15.808124512791565 3 -3 0
2064 1 11.642683109869745 12.578163252768325 15.771847651241027 2 0 0
5234 1 12.23325144783798 15.132689417249864 12.982794007356972 -3 0 0
257 1 16.973486047623943 13.99225048505475 15.816381037713802 -3 -1 0
5962 1 17.037243514457487 13.893901247192538 12.988047873469046 0 -1 1
3458 1 24.023300215860598 15.502870561438959 13.077147713076137 -2 -2 1
1226 1 21.232553446599297 15.366192491479614 12.084698611366255 0 2 1
5233 1 11.278570662968281 5.654359502969461 19.864388758102162 0 3 0
211 1 21.370335209836362 13.111422627951946 13.147451219310625 3 2 0
5095 1 21.717443663800456 13.012792122646616 15.766803582301725 2 0 1
1013 1 3.2773437910268783 17.02415068796668 13.310530912225824 1 4 1
346 1 3.215485054610429 17.322620717579706 16.0781877677625 2 1 0
1142 1 3.5433544406435686 19.33957532188823 11.958999346752991 -2 -1 1
5528 1 6.194098206333237 19.88291103008871 12.99882610389417 2 -3 0
181 1 6.27419327342997 20.0890057667984 15.476773908651252 2 0 1
242 1 10.767195984491755 18.849110233420344 12.97623563602679 0 -2 0
6163 1 10.503172753398818 18.711176940783123 15.724493394048558 1 2 1
738 1 15.692327263926668 20.324820404943363 12.149856838963803 -1 1 0
4167 1 15.41024266891665 17.93873570057249 12.993092396288512 2 0 1
5455 1 15.310192089534139 18.16010741380753 15.678644832962451 3 -1 0
930 1 20.291385017473463 19.444458148837075 12.528673734144835 2 -2 1
245 1 19.623689183819693 17.028770928211646 13.331088806203008 -1 -3 0
2708 1 19.600296421584044 17.056430070415757 16.040944045280796 -1 1 1
777 1 22.87731017406555 19.90016465335778 13.341114636140118 -2 1 1
3432 1 23.145237850640473 19.170435567349983 16.158022072107286 -1 0 0
1222 1 0.22363490817996043 7.420442756520708 19.075090978331936 -1 -1 1
2030 1 2.1405322286266375 21.14525998227699 15.834314289709296 1 2 0
3636 1 2.4989287966470255 23.435920004716323 12.226782382566192 -1 -1 0
5244 1 2.1569284911847335 21.051055667820616 13.14582390671201 2 0 1
83 1 6.89644603625359 22.18626229739205 11.961532186745005 0 -1 0
4616 1 8.368081794506157 3.0219899254998333 19.39489428537964 2 -1 1
768 1 16.19616831080641 22.55547014203542 19.28827240877981 1 1 1
5198 1 11.234242210023172 21.337406385160754 12.15514676101327 2 -3 1
5302 1 9.480755155200399 22.971381781429816 13.14512018122207 4 5 1
5298 1 9.440323404028096 22.724033894054866 15.625002637988459 -1 1 0
2028 1 20.790462259069727 21.721604823640426 19.207604205513064 -2 0 0
1894 1 13.627742609549408 21.619094602301814 15.77200395708802 2 4 0
6158 1 13.87740807768204 22.06418563032462 12.990792046144708 0 -1 1
1922 1 17.977440148172104 20.99896872339557 13.188445655145037 -2 1 1
1943 1 18.77026278858751 23.517012983876516 12.433817301832246 0 -2 1
5329 1 23.449244357263286 22.394093433531285 12.252699718645072 -2 2 0
6197 1 21.47850731730003 24.114745898077327 12.897311309226259 0 -2 1
1900 1 1.3913001479226843 3.567390678262474 16.090437867457076 2 0 0
2928 1 1.6442344109093667 2.8887528463833703 18.892677322309446 -3 2 1
4575 1 5.830003998050039 2.327197575046932 15.695586536425932 3 0 1
481 1 5.8675244264266375 2.147636132607902 18.368549072816734 -2 3 0
5570 1 9.601113035822573 2.878667639849918 16.646035102099127 1 -3 0
807 1 1.5039263594307788 18.67998393581435 19.81285718936202 3 0 0
5939 1 12.153552277601358 2.070387292356482 17.191429257668922 0 2 1
149 1 23.885301600570507 4.839396015107445 15.994658496749514 -2 -2 0
1012 1 12.766929167681973 4.320467909380412 15.851705400662151 6 1 1
2072 1 16.126271409957823 22.395231072895292 16.570620086778302 -3 -1 1
2117 1 19.642350793832083 3.307444472096893 19.509660610653174 -2 1 0
5137 1 19.6467774564709 3.3688870370208353 16.814968694617292 0 0 1
5168 1 23.793938437037443 2.081979482905143 19.277862742860048 0 -1 1
11 1 23.761747313833627 2.4282939255008245 16.616156324092067 -1 2 0
1965 1 8.695783246268794 20.203248627511087 16.841303928431664 3 1 0
1771 1 6.349408124437671 17.514521784964764 19.36902045804675 0 0 0
3603 1 6.756131599935573 8.664986990423358 18.89822854070116 -1 4 0
2783 1 4.850550188686552 6.4253149745553815 18.789989740291286 1 1 1
1848 1 4.577905587755231 6.133092751847402 16.063779376565336 2 3 0
5294 1 11.592302809966627 7.850672035524665 16.208701091592676 2 -2 0
5375 1 8.011629134919534 5.930997634216945 17.238056077722568 0 4 0
3785 1 10.940994907763711 5.836180368939955 17.465518624381232 -2 1 0
2682 1 15.582465803805249 4.4272851634810895 19.90629964567256 2 3 1
116 1 15.412933438647519 4.353575402674002 17.115032604859724 2 1 0
1966 1 5.283603965955598 12.389626374384173 19.69217111936337 0 2 0
2440 1 18.308902290352655 7.385127419550225 19.30446528644997 0 1 0
5333 1 17.894783775663257 7.604740126266653 16.793363762339215 0 2 0
146 1 22.28680729572748 6.0567726691299235 19.398241440189985 2 3 0
4327 1 22.024452131557187 6.739816226889939 16.59511514000849 2 -3 1
428 1 3.1781352393481956 10.85258299784895 19.13038359416054 -3 -3 0
4378 1 3.6596856152005963 10.630517522757236 16.41375061019251 5 4 1
42 1 2.681482901918099 14.56137587709594 19.52502782843907 2 0 0
2599 1 7.15860969464825 11.484469742546768 17.819196579855372 3 1 1
379 1 3.9828398415189428 3.873281792181388 19.645067936189736 0 4 0
1932 1 10.046158544242443 9.958641011526828 17.09517154411758 0 2 0
5091 1 14.029868386451604 8.586196455918495 17.20159135378686 -2 -2 0
2465 1 16.49620430768853 11.774642615792889 16.76322206806716 2 -1 1
2583 1 9.065074975237568 20.271179059805633 19.52725578529407 1 -2 1
1865 1 0.7072903309000614 14.070336071196373 1.7029951653702644 3 0 0
5846 1 21.03064965323974 10.303652098920272 19.36836723542514 3 1 1
5932 1 20.78197385716497 10.726174166464274 16.74763216583207 -1 -4 1
3851 1 4.958038455561656 24.31826628151273 15.959179673281437 2 2 0
5520 1 2.519902638421053 15.034825704181157 16.71266182139996 1 2 0
2013 1 7.714026631328847 14.761076724770547 18.341388809369207 2 -3 0
4260 1 10.156936579179447 12.829571820039991 17.7980859512376 2 6 1
5237 1 14.946565147544133 15.779665034987026 19.356674965319414 1 -1 0
821 1 15.000539743615208 15.755004465201639 16.467628160456805 -1 -1 1
5467 1 19.702587452907522 14.841220861317991 19.917435031629264 0 1 0
5443 1 19.54773906562001 14.674021810858068 17.13591517263645 2 2 0
5936 1 23.881311392506703 13.439199066241287 19.406168797197733 0 2 1
2066 1 24.057586296153783 13.605636947363985 16.731945778229605 0 0 0
3380 1 24.483428490476477 7.155204661208694 9.261718327656792 0 0 1
6050 1 23.747698262153516 16.014814457531656 4.824256748326872 0 3 1
2793 1 1.3776603714949165 18.94858623321649 17.078700479864846 2 -3 1
4525 1 21.52357089173303 24.018708430523603 5.011840756574525 -1 0 1
3866 1 5.948393242648829 17.544688237865618 16.573490263217124 1 0 0
5211 1 10.942894807188754 16.920084944434006 19.42995703113748 1 0 0
3426 1 10.065852013705046 16.379064906686075 16.548577710102098 3 2 0
4502 1 12.908612094479308 19.525169555727313 16.85126398763099 -1 3 1
3828 1 13.248070325549167 19.563044259833536 19.421820048305122 3 2 0
1858 1 17.836148786890636 18.697223670638056 16.70087371659173 1 2 0
2132 1 18.042317483303577 18.640576914037432 19.339523911456663 2 1 0
4490 1 22.011278448104093 17.05194529076779 17.373134227163934 -4 -1 1
3654 1 7.675509156319984 24.43579046470039 16.69237287333443 4 0 0
4300 1 4.582627455657925 21.79330579805792 16.967686375717008 -3 1 1
2125 1 4.468421591846292 21.628417401884985 19.81145776031674 -3 2 0
6281 1 11.872088202125914 23.526083804693126 19.631610170865244 0 1 1
2842 1 12.013521304699307 23.4699035967971 16.794767560929568 -1 2 1
4358 1 24.346284871034513 16.285375299564546 2.316909190322139 -4 2 1
173 1 5.249861838001447 24.219114662150375 5.193048443281945 0 -2 1
3683 1 0.6511352460432545 7.6577807642593685 16.339824203792165 2 3 1
3742 1 24.038753303584894 7.194531065874225 12.05084085216731 -2 -3 0
157 1 0.37318278988429426 23.028494034988586 1.4144196160603277 -2 -1 0
2058 1 9.849323653276421 9.706425934459963 19.84204057825764 1 2 0
901 1 23.959070332350237 15.9553315404537 15.654655298153319 2 -3 0
4156 1 7.696021232695887 0.5188864411023947 11.908263279730965 1 -4 1
4487 1 5.887327104554795 0.37192826026906123 8.979509004878276 2 -4 1
5182 1 6.895219449414252 0.27609672379569195 14.538389470986106 0 -2 1
4310 1 10.928149101401138 0.4959712930204329 13.862314580724375 -5 1 1
3445 1 2.757101613400699 8.131295916597114 19.64734033864538 1 0 1
1232 1 0.31523604804952754 22.72939017797931 5.8733150783097585 -3 -1 1
2778 1 0.18432910120559143 14.063503090028837 15.925221874426585 0 0 0
6262 1 14.343519546586055 24.42197531853308 12.316552094408447 1 3 1
1036 1 15.73762614283475 0.31572949965189423 1.113822209902576 -2 1 1
5940 1 7.458449589464248 24.413436058511362 19.44829193383465 -4 -1 1
416 1 19.25606969194289 12.27007974706768 20.0781163585833 6 2 0
198 1 18.80952355237021 23.312059036744557 20.077403378267036 -6 -1 1
4615 1 0.6100564646989745 0.7259075786557968 23.286891335816005 -2 3 1
3535 1 4.392373449096687 3.3970709947145723 22.23967990187343 0 0 0
3478 1 7.455482947181763 4.99134315956862 38.98768812877992 1 -4 -1
2782 1 11.652279212530225 3.9872087989480702 39.33479407515366 0 3 -1
1757 1 7.0017774938235755 5.207703723799186 20.323631828775042 0 0 0
2589 1 6.638556806067615 1.979286457683994 23.26591811392399 1 0 1
331 1 10.641961021042853 3.3231104800141567 20.8057749533679 -1 -3 0
2155 1 10.324440496302541 3.2097530813039192 23.388644299577606 4 -1 0
4184 1 15.390885828801718 2.0670690332121695 20.702068732251416 -2 -1 1
6076 1 15.237214662900367 2.0257445974762893 23.55849239160787 1 1 1
5811 1 19.187385747206108 0.773101291063183 23.23401033151642 1 1 1
1722 1 19.030695868000915 1.1665831535034599 20.538390242398666 1 3 0
4136 1 21.412085189973958 1.3973569687967982 24.336852678696914 0 2 1
1798 1 8.54841726958529 24.028550487504273 35.75164246837539 1 0 -1
1888 1 1.8976424122231266 7.881255677232434 22.521390752204173 1 2 1
229 1 13.696037192855032 17.189795498721534 20.942735884950455 0 2 0
2648 1 6.064685718270522 5.412677035986214 22.977566523081833 -2 -2 1
2071 1 4.273924504516867 7.180750351548047 24.0073554120555 -1 -1 0
178 1 1.425981367560553 12.494049113029329 20.362648288098352 -1 -3 1
3524 1 9.147439547243518 7.349471592044292 21.15469095693902 2 3 1
864 1 9.2902521516714 7.158804804162494 23.811758083042143 -4 4 1
2535 1 2.624238654959577 23.255971561061195 20.729844293661223 3 2 1
3457 1 13.37834452505647 5.897673053167019 23.409931206419426 -1 0 0
100 1 13.730710641904892 6.164366534282327 20.843154595917383 2 1 1
43 1 14.266509060905554 24.27425357853702 20.331627828610564 2 -4 0
2853 1 17.729450654946213 5.129028738513671 23.420743271386247 -1 3 1