LAMMPS data file via write_data, version 16 Mar 2018, timestep = 8000000

4990 atoms
2 atom types

0.0000000000000000e+00 4.9219999999999999e+01 xlo xhi
0.0000000000000000e+00 4.9019635930410494e+01 ylo yhi
1.1916753069699162e+00 3.8808324693038259e+01 zlo zhi

Masses

1 18.015
2 12.01

Atoms # atomic

422 1 2.5843031258104117e+00 7.5467166271894592e-01 2.7997242445909025e+00 3 -1 1
3481 1 4.4572183342456064e+00 2.6997936846327577e+00 3.3378971622273066e+00 2 3 0
4380 1 6.9370689621909651e+00 1.9407172616434341e+00 2.5096316415903108e+00 1 -2 1
2907 1 8.6426350504279092e+00 3.7741343851199831e+00 3.6630237317710974e+00 3 2 1
4573 1 1.1199501301191837e+01 3.2559509726700839e+00 3.1243690670178905e+00 -2 -1 0
3756 1 1.1580385846536400e+01 5.9331896945472518e-01 3.3566394729693396e+00 1 1 0
1343 1 3.7648274884306607e+00 5.3428909954501558e+00 2.3169554038329254e+00 4 -3 0
1862 1 1.2895722241040695e+00 5.4659349619435620e+00 3.6919915062106110e+00 1 3 0
1780 1 5.8474501710919402e-01 8.0486014941188149e+00 2.7494383044909396e+00 -2 -3 0
2713 1 5.5118541194426935e+00 7.1206955828033314e+00 3.4415594813184089e+00 1 -2 0
372 1 7.9663304063699085e+00 6.1534501524022760e+00 2.6426311585975881e+00 0 2 1
107 1 2.4921476102889080e+00 1.0101538772736468e+01 3.2092692835905918e+00 4 -1 0
2230 1 5.0322226432712842e+00 9.4935992702342578e+00 2.2074275094367275e+00 -1 3 0
4551 1 6.9195134350544905e+00 1.1301485757080631e+01 3.6132557947674857e+00 4 3 1
1846 1 9.6823862384739670e+00 8.0076697089917346e+00 3.7265153333924674e+00 -3 5 1
4233 1 9.3258604566396404e+00 1.0425977361878077e+01 2.5684014376132089e+00 0 3 1
3762 1 2.7372014559412077e+00 5.8200588290109090e-01 7.3648261866232065e+00 -2 -4 0
3735 1 2.3590144041502699e+00 2.1745455002520944e-01 1.0096171177933178e+01 5 1 1
3508 1 9.2349886594953805e+00 1.0346636675563074e+01 1.0032742384052812e+01 2 3 1
4640 1 4.4730274441362212e+00 2.4417203078265985e+00 5.9875915188126374e+00 -1 2 0
3369 1 6.8808253233920080e+00 2.2028553934312964e+00 7.1836889120937810e+00 -1 3 0
1224 1 6.8458953578664126e+00 1.9939113342397834e+00 9.9115448680989129e+00 2 7 1
4276 1 1.1717045996095687e+01 3.8338711813711501e-01 5.9489765404776325e+00 2 -1 0
2973 1 8.9374462189942463e+00 3.9047457203192910e+00 6.4775764676291674e+00 -2 1 1
4600 1 1.1174779010746981e+01 2.8395080266354373e+00 7.4686257387815740e+00 1 -4 0
2962 1 1.1266366542935268e+01 2.9920358719800899e+00 1.0158417517299059e+01 1 0 1
2572 1 3.5368003192990498e+00 4.5797314720532256e+00 9.8197753431336761e+00 -4 3 0
45 1 1.2355686700795059e+00 5.6536086568942583e+00 6.2856870534721825e+00 2 3 0
1013 1 3.5305162735363811e+00 4.7541303772409576e+00 6.9931172792028402e+00 1 -2 0
2657 1 5.4751179046154865e+00 6.8716201614339774e+00 6.3465990741095881e+00 0 0 -1
3061 1 8.0370362181703303e+00 6.2094607366421908e+00 7.3465911535675454e+00 4 3 1
4689 1 8.0745063106315289e+00 5.8578250699950933e+00 1.0025687990181408e+01 0 -2 0
3418 1 5.6427626069033909e-01 8.1489282289487424e+00 9.8760132360422279e+00 3 0 0
4615 1 4.6770640385087009e-01 8.3054595805264277e+00 7.0812610337954842e+00 -1 -3 1
3829 1 2.2658758553204335e+00 1.0268692166973423e+01 5.8987982369326559e+00 -3 -1 1
1264 1 4.6594078508004815e+00 9.2140875844069576e+00 7.3224224497729331e+00 3 3 0
2566 1 6.6260432902500686e+00 1.1225707762949209e+01 6.3211511431656584e+00 -2 -3 1
1200 1 4.9656030671129798e+00 9.0646906315817368e+00 1.0110835952036718e+01 -1 -1 0
2550 1 9.0537210694773034e+00 1.0454137310782897e+01 7.3635003233989798e+00 2 -3 0
4363 1 9.9082840399903205e+00 8.1190793410202726e+00 6.3945891826268708e+00 4 0 0
2197 1 1.2263699923344893e+01 7.2782613443855713e+00 2.9633474911187636e+00 -1 -3 1
10 1 1.1086213443236749e+01 1.2199509304703309e+01 6.4556475240847462e+00 -1 4 0
3068 1 1.1164308252570173e+01 1.2058263338066867e+01 3.7290732389281018e+00 3 -1 0
4621 1 1.7145149038579850e+00 2.7250350310206097e+00 1.3638499548269133e+01 -3 1 0
3455 1 2.3845208334396322e+00 1.3692295877382776e-01 1.4629155415797189e+01 5 0 0
1843 1 1.2135004097408826e+01 9.5263954609204493e+00 1.3766091258378008e+01 -4 3 0
1310 1 6.8413145720906314e+00 1.3443149368355034e+00 1.4520911505715063e+01 -1 1 1
308 2 1.2304999999999998e+01 1.1366872099805333e+01 1.6848472463704468e+01 0 0 0
284 2 9.8440000000000012e+00 1.1366872099805333e+01 1.6848472463704468e+01 0 0 0
30 1 9.4506001556071908e+00 1.0983587928565728e+00 1.3505346177451880e+01 -1 -2 0
1004 1 1.1132648432757724e+01 2.7048682264330757e+00 1.4746365943312382e+01 -2 0 0
4314 1 3.6485143664555464e+00 4.6307647870605981e+00 1.4269818830158799e+01 0 -2 0
888 1 3.0483828611954977e+00 7.1994175466014845e+00 1.3494009503123609e+01 4 -5 1
4642 1 2.9064191619773854e+00 7.1749714907086801e+00 1.0769140183236098e+01 0 -3 0
4586 1 6.3185608829236477e+00 3.9554755565246800e+00 1.3886208868825783e+01 2 -5 1
1311 1 5.0202147578229717e-01 8.2724639403900291e+00 1.4252856184926397e+01 4 5 1
2989 1 8.2451615174593673e+00 6.0906348384022788e+00 1.4728010842341309e+01 5 -1 0
3357 1 1.0808077926699379e+01 5.3831259439166859e+00 1.4062178912937343e+01 2 1 1
414 1 1.9515664522214196e+00 2.9269973710453168e+00 1.0976874206315356e+01 -4 0 0
3435 1 7.5049766174289712e+00 8.4054182723090474e+00 1.0950827146665830e+01 4 -4 0
160 1 4.2164604763293889e+00 1.1714824537355165e+01 1.3860702812679580e+01 2 -3 1
286 2 1.1074500000000002e+01 9.2355835810918343e+00 1.6848472463704468e+01 0 0 0
285 2 9.8440000000000012e+00 8.5251540748539956e+00 1.6848472463704468e+01 0 0 0
307 2 1.1074500000000002e+01 1.0656442593567498e+01 1.6848472463704468e+01 0 0 0
262 2 8.6134999999999984e+00 9.2355835810918343e+00 1.6848472463704468e+01 0 0 0
4552 1 7.5869221168307233e+00 8.4293626767150620e+00 1.3671632758297413e+01 0 -2 1
3451 1 5.0297146826917141e+00 9.1424275212637589e+00 1.4258830253308778e+01 -2 4 0
2906 1 9.3575557686620385e+00 1.1914862861583959e+00 1.0738153162637829e+01 -2 -5 1
1829 1 9.6612392664677103e+00 9.9665251498578460e+00 1.4493773754268966e+01 1 -3 0
2107 1 1.1957018893854212e+01 9.5664065102492728e+00 1.1000067531338120e+01 2 2 0
193 2 0.0000000000000000e+00 2.8417180249513345e+00 1.6848472463704468e+01 0 0 0
194 2 0.0000000000000000e+00 0.0000000000000000e+00 1.6848472463704468e+01 0 0 0
195 2 1.2305000000000001e+00 7.1042950623783474e-01 1.6848472463704468e+01 0 0 0
199 2 1.2305000000000001e+00 2.1312885187134998e+00 1.6848472463704468e+01 0 0 0
200 2 2.4610000000000003e+00 2.8417180249513345e+00 1.6848472463704468e+01 0 0 0
201 2 2.4610000000000003e+00 0.0000000000000000e+00 1.6848472463704468e+01 0 0 0
202 2 3.6915000000000004e+00 7.1042950623783474e-01 1.6848472463704468e+01 0 0 0
210 2 3.6914999999999996e+00 2.1312885187134998e+00 1.6848472463704468e+01 0 0 0
211 2 4.9220000000000006e+00 2.8417180249513332e+00 1.6848472463704468e+01 0 0 0
212 2 4.9220000000000006e+00 0.0000000000000000e+00 1.6848472463704468e+01 0 0 0
213 2 6.1524999999999999e+00 7.1042950623783407e-01 1.6848472463704468e+01 0 0 0
225 2 6.1524999999999999e+00 2.1312885187134989e+00 1.6848472463704468e+01 0 0 0
226 2 7.3829999999999991e+00 2.8417180249513345e+00 1.6848472463704468e+01 0 0 0
227 2 7.3829999999999991e+00 0.0000000000000000e+00 1.6848472463704468e+01 0 0 0
228 2 8.6134999999999984e+00 7.1042950623783407e-01 1.6848472463704468e+01 0 0 0
244 2 8.6134999999999984e+00 2.1312885187135002e+00 1.6848472463704468e+01 0 0 0
245 2 9.8440000000000012e+00 2.8417180249513332e+00 1.6848472463704468e+01 0 0 0
246 2 9.8440000000000012e+00 0.0000000000000000e+00 1.6848472463704468e+01 0 0 0
247 2 1.1074500000000002e+01 7.1042950623783330e-01 1.6848472463704468e+01 0 0 0
267 2 1.1074500000000002e+01 2.1312885187135002e+00 1.6848472463704468e+01 0 0 0
197 2 0.0000000000000000e+00 4.2625770374269996e+00 1.6848472463704468e+01 0 0 0
198 2 1.2305000000000001e+00 4.9730065436648339e+00 1.6848472463704468e+01 0 0 0
206 2 1.2305000000000001e+00 6.3938655561404980e+00 1.6848472463704468e+01 0 0 0
208 2 2.4610000000000003e+00 4.2625770374269996e+00 1.6848472463704468e+01 0 0 0
209 2 3.6914999999999996e+00 4.9730065436648339e+00 1.6848472463704468e+01 0 0 0
221 2 3.6914999999999996e+00 6.3938655561404980e+00 1.6848472463704468e+01 0 0 0
196 2 0.0000000000000000e+00 7.1042950623783341e+00 1.6848472463704468e+01 0 0 0
207 2 2.4610000000000003e+00 7.1042950623783341e+00 1.6848472463704468e+01 0 0 0
223 2 4.9220000000000006e+00 4.2625770374269978e+00 1.6848472463704468e+01 0 0 0
224 2 6.1524999999999999e+00 4.9730065436648339e+00 1.6848472463704468e+01 0 0 0
240 2 6.1524999999999999e+00 6.3938655561404980e+00 1.6848472463704468e+01 0 0 0
242 2 7.3829999999999991e+00 4.2625770374269996e+00 1.6848472463704468e+01 0 0 0
222 2 4.9220000000000006e+00 7.1042950623783341e+00 1.6848472463704468e+01 0 0 0
241 2 7.3830000000000009e+00 7.1042950623783341e+00 1.6848472463704468e+01 0 0 0
243 2 8.6135000000000002e+00 4.9730065436648339e+00 1.6848472463704468e+01 0 0 0
263 2 8.6135000000000002e+00 6.3938655561404980e+00 1.6848472463704468e+01 0 0 0
265 2 9.8440000000000012e+00 4.2625770374270004e+00 1.6848472463704468e+01 0 0 0
266 2 1.1074500000000002e+01 4.9730065436648339e+00 1.6848472463704468e+01 0 0 0
287 2 1.1074500000000002e+01 6.3938655561404980e+00 1.6848472463704468e+01 0 0 0
264 2 9.8440000000000012e+00 7.1042950623783341e+00 1.6848472463704468e+01 0 0 0
236 2 3.6914999999999996e+00 1.0656442593567499e+01 1.6848472463704468e+01 0 0 0
204 2 0.0000000000000000e+00 8.5251540748539991e+00 1.6848472463704468e+01 0 0 0
205 2 1.2305000000000001e+00 9.2355835810918343e+00 1.6848472463704468e+01 0 0 0
219 2 2.4610000000000003e+00 8.5251540748539991e+00 1.6848472463704468e+01 0 0 0
220 2 3.6915000000000004e+00 9.2355835810918343e+00 1.6848472463704468e+01 0 0 0
203 2 0.0000000000000000e+00 1.1366872099805333e+01 1.6848472463704468e+01 0 0 0
217 2 1.2305000000000001e+00 1.0656442593567498e+01 1.6848472463704468e+01 0 0 0
218 2 2.4610000000000003e+00 1.1366872099805333e+01 1.6848472463704468e+01 0 0 0
238 2 4.9220000000000006e+00 8.5251540748539991e+00 1.6848472463704468e+01 0 0 0
260 2 7.3829999999999991e+00 1.1366872099805333e+01 1.6848472463704468e+01 0 0 0
259 2 6.1524999999999999e+00 1.0656442593567499e+01 1.6848472463704468e+01 0 0 0
261 2 7.3830000000000009e+00 8.5251540748539991e+00 1.6848472463704468e+01 0 0 0
237 2 4.9220000000000006e+00 1.1366872099805333e+01 1.6848472463704468e+01 0 0 0
239 2 6.1524999999999999e+00 9.2355835810918343e+00 1.6848472463704468e+01 0 0 0
283 2 8.6134999999999984e+00 1.0656442593567498e+01 1.6848472463704468e+01 0 0 0
1822 1 6.0144950392363956e+00 4.0851129344364479e+00 1.1010316730383829e+01 3 1 1
1347 1 1.0432911556458611e+01 5.4493433771669384e+00 1.1254810160511679e+01 0 3 0
98 1 4.1581789596801810e+00 1.1288781451683450e+01 1.1208043660914605e+01 4 -3 1
549 2 0.0000000000000000e+00 1.4208590124756650e+00 2.0029400347155693e+01 0 0 0
550 2 0.0000000000000000e+00 0.0000000000000000e+00 2.0029400347155693e+01 0 0 0
554 2 1.2305000000000001e+00 2.1312885187134998e+00 2.0029400347155693e+01 0 0 0
555 2 2.4610000000000003e+00 1.4208590124756650e+00 2.0029400347155693e+01 0 0 0
556 2 2.4610000000000003e+00 0.0000000000000000e+00 2.0029400347155693e+01 0 0 0
564 2 3.6914999999999996e+00 2.1312885187134998e+00 2.0029400347155693e+01 0 0 0
710 2 0.0000000000000000e+00 2.8417180249513345e+00 2.3210328230616394e+01 0 0 0
711 2 0.0000000000000000e+00 0.0000000000000000e+00 2.3210328230616394e+01 0 0 0
712 2 1.2305000000000001e+00 7.1042950623783474e-01 2.3210328230616394e+01 0 0 0
716 2 1.2305000000000001e+00 2.1312885187134998e+00 2.3210328230616394e+01 0 0 0
717 2 2.4610000000000003e+00 2.8417180249513345e+00 2.3210328230616394e+01 0 0 0
718 2 2.4610000000000003e+00 0.0000000000000000e+00 2.3210328230616394e+01 0 0 0
719 2 3.6915000000000004e+00 7.1042950623783474e-01 2.3210328230616394e+01 0 0 0
727 2 3.6914999999999996e+00 2.1312885187134998e+00 2.3210328230616394e+01 0 0 0
553 2 1.2305000000000001e+00 3.5521475311891644e+00 2.0029400347155693e+01 0 0 0
563 2 3.6914999999999996e+00 3.5521475311891644e+00 2.0029400347155693e+01 0 0 0
565 2 4.9220000000000006e+00 1.4208590124756650e+00 2.0029400347155693e+01 0 0 0
566 2 4.9220000000000006e+00 0.0000000000000000e+00 2.0029400347155693e+01 0 0 0
578 2 6.1524999999999999e+00 2.1312885187134989e+00 2.0029400347155693e+01 0 0 0
579 2 7.3829999999999991e+00 1.4208590124756659e+00 2.0029400347155693e+01 0 0 0
580 2 7.3829999999999991e+00 0.0000000000000000e+00 2.0029400347155693e+01 0 0 0
728 2 4.9220000000000006e+00 2.8417180249513332e+00 2.3210328230616394e+01 0 0 0
729 2 4.9220000000000006e+00 0.0000000000000000e+00 2.3210328230616394e+01 0 0 0
730 2 6.1524999999999999e+00 7.1042950623783407e-01 2.3210328230616394e+01 0 0 0
742 2 6.1524999999999999e+00 2.1312885187134989e+00 2.3210328230616394e+01 0 0 0
743 2 7.3829999999999991e+00 2.8417180249513345e+00 2.3210328230616394e+01 0 0 0
744 2 7.3829999999999991e+00 0.0000000000000000e+00 2.3210328230616394e+01 0 0 0
577 2 6.1524999999999999e+00 3.5521475311891644e+00 2.0029400347155693e+01 0 0 0
596 2 8.6134999999999984e+00 2.1312885187135002e+00 2.0029400347155693e+01 0 0 0
597 2 9.8440000000000012e+00 1.4208590124756659e+00 2.0029400347155693e+01 0 0 0
598 2 9.8440000000000012e+00 0.0000000000000000e+00 2.0029400347155693e+01 0 0 0
618 2 1.1074500000000002e+01 2.1312885187135002e+00 2.0029400347155693e+01 0 0 0
745 2 8.6134999999999984e+00 7.1042950623783407e-01 2.3210328230616394e+01 0 0 0
761 2 8.6134999999999984e+00 2.1312885187135002e+00 2.3210328230616394e+01 0 0 0
762 2 9.8440000000000012e+00 2.8417180249513332e+00 2.3210328230616394e+01 0 0 0
763 2 9.8440000000000012e+00 0.0000000000000000e+00 2.3210328230616394e+01 0 0 0
764 2 1.1074500000000002e+01 7.1042950623783330e-01 2.3210328230616394e+01 0 0 0
784 2 1.1074500000000002e+01 2.1312885187135002e+00 2.3210328230616394e+01 0 0 0
595 2 8.6134999999999984e+00 3.5521475311891657e+00 2.0029400347155693e+01 0 0 0
617 2 1.1074500000000002e+01 3.5521475311891644e+00 2.0029400347155693e+01 0 0 0
551 2 0.0000000000000000e+00 5.6834360499026637e+00 2.0029400347155693e+01 0 0 0
552 2 0.0000000000000000e+00 4.2625770374269996e+00 2.0029400347155693e+01 0 0 0
560 2 1.2305000000000001e+00 6.3938655561404980e+00 2.0029400347155693e+01 0 0 0
561 2 2.4610000000000003e+00 5.6834360499026637e+00 2.0029400347155693e+01 0 0 0
562 2 2.4610000000000003e+00 4.2625770374269996e+00 2.0029400347155693e+01 0 0 0
574 2 3.6914999999999996e+00 6.3938655561404980e+00 2.0029400347155693e+01 0 0 0
714 2 0.0000000000000000e+00 4.2625770374269996e+00 2.3210328230616394e+01 0 0 0
715 2 1.2305000000000001e+00 4.9730065436648339e+00 2.3210328230616394e+01 0 0 0
723 2 1.2305000000000001e+00 6.3938655561404980e+00 2.3210328230616394e+01 0 0 0
725 2 2.4610000000000003e+00 4.2625770374269996e+00 2.3210328230616394e+01 0 0 0
726 2 3.6914999999999996e+00 4.9730065436648339e+00 2.3210328230616394e+01 0 0 0
738 2 3.6914999999999996e+00 6.3938655561404980e+00 2.3210328230616394e+01 0 0 0
559 2 1.2305000000000001e+00 7.8147245686161639e+00 2.0029400347155693e+01 0 0 0
573 2 3.6914999999999996e+00 7.8147245686161639e+00 2.0029400347155693e+01 0 0 0
713 2 0.0000000000000000e+00 7.1042950623783341e+00 2.3210328230616394e+01 0 0 0
724 2 2.4610000000000003e+00 7.1042950623783341e+00 2.3210328230616394e+01 0 0 0
575 2 4.9220000000000006e+00 5.6834360499026637e+00 2.0029400347155693e+01 0 0 0
576 2 4.9220000000000006e+00 4.2625770374269978e+00 2.0029400347155693e+01 0 0 0
592 2 6.1524999999999999e+00 6.3938655561404980e+00 2.0029400347155693e+01 0 0 0
593 2 7.3829999999999991e+00 5.6834360499026637e+00 2.0029400347155693e+01 0 0 0
594 2 7.3829999999999991e+00 4.2625770374269996e+00 2.0029400347155693e+01 0 0 0
740 2 4.9220000000000006e+00 4.2625770374269978e+00 2.3210328230616394e+01 0 0 0
741 2 6.1524999999999999e+00 4.9730065436648339e+00 2.3210328230616394e+01 0 0 0
757 2 6.1524999999999999e+00 6.3938655561404980e+00 2.3210328230616394e+01 0 0 0
759 2 7.3829999999999991e+00 4.2625770374269996e+00 2.3210328230616394e+01 0 0 0
591 2 6.1524999999999999e+00 7.8147245686161639e+00 2.0029400347155693e+01 0 0 0
739 2 4.9220000000000006e+00 7.1042950623783341e+00 2.3210328230616394e+01 0 0 0
758 2 7.3830000000000009e+00 7.1042950623783341e+00 2.3210328230616394e+01 0 0 0
614 2 8.6135000000000002e+00 6.3938655561404980e+00 2.0029400347155693e+01 0 0 0
615 2 9.8440000000000012e+00 5.6834360499026637e+00 2.0029400347155693e+01 0 0 0
616 2 9.8440000000000012e+00 4.2625770374270004e+00 2.0029400347155693e+01 0 0 0
637 2 1.1074500000000002e+01 6.3938655561404980e+00 2.0029400347155693e+01 0 0 0
760 2 8.6135000000000002e+00 4.9730065436648339e+00 2.3210328230616394e+01 0 0 0
780 2 8.6135000000000002e+00 6.3938655561404980e+00 2.3210328230616394e+01 0 0 0
782 2 9.8440000000000012e+00 4.2625770374270004e+00 2.3210328230616394e+01 0 0 0
783 2 1.1074500000000002e+01 4.9730065436648339e+00 2.3210328230616394e+01 0 0 0
804 2 1.1074500000000002e+01 6.3938655561404980e+00 2.3210328230616394e+01 0 0 0
613 2 8.6135000000000002e+00 7.8147245686161639e+00 2.0029400347155693e+01 0 0 0
636 2 1.1074500000000002e+01 7.8147245686161639e+00 2.0029400347155693e+01 0 0 0
781 2 9.8440000000000012e+00 7.1042950623783341e+00 2.3210328230616394e+01 0 0 0
557 2 0.0000000000000000e+00 9.9460130873296642e+00 2.0029400347155693e+01 0 0 0
558 2 0.0000000000000000e+00 8.5251540748539991e+00 2.0029400347155693e+01 0 0 0
571 2 2.4610000000000003e+00 9.9460130873296642e+00 2.0029400347155693e+01 0 0 0
572 2 2.4610000000000003e+00 8.5251540748539991e+00 2.0029400347155693e+01 0 0 0
721 2 0.0000000000000000e+00 8.5251540748539991e+00 2.3210328230616394e+01 0 0 0
722 2 1.2305000000000001e+00 9.2355835810918343e+00 2.3210328230616394e+01 0 0 0
736 2 2.4610000000000003e+00 8.5251540748539991e+00 2.3210328230616394e+01 0 0 0
737 2 3.6915000000000004e+00 9.2355835810918343e+00 2.3210328230616394e+01 0 0 0
569 2 1.2305000000000001e+00 1.2077301606043163e+01 2.0029400347155693e+01 0 0 0
570 2 1.2305000000000001e+00 1.0656442593567498e+01 2.0029400347155693e+01 0 0 0
587 2 3.6914999999999996e+00 1.2077301606043163e+01 2.0029400347155693e+01 0 0 0
588 2 3.6914999999999996e+00 1.0656442593567499e+01 2.0029400347155693e+01 0 0 0
720 2 0.0000000000000000e+00 1.1366872099805333e+01 2.3210328230616394e+01 0 0 0
734 2 1.2305000000000001e+00 1.0656442593567498e+01 2.3210328230616394e+01 0 0 0
735 2 2.4610000000000003e+00 1.1366872099805333e+01 2.3210328230616394e+01 0 0 0
753 2 3.6914999999999996e+00 1.0656442593567499e+01 2.3210328230616394e+01 0 0 0
589 2 4.9220000000000006e+00 9.9460130873296642e+00 2.0029400347155693e+01 0 0 0
590 2 4.9220000000000006e+00 8.5251540748539991e+00 2.0029400347155693e+01 0 0 0
611 2 7.3830000000000009e+00 9.9460130873296642e+00 2.0029400347155693e+01 0 0 0
612 2 7.3830000000000009e+00 8.5251540748539991e+00 2.0029400347155693e+01 0 0 0
755 2 4.9220000000000006e+00 8.5251540748539991e+00 2.3210328230616394e+01 0 0 0
756 2 6.1524999999999999e+00 9.2355835810918343e+00 2.3210328230616394e+01 0 0 0
778 2 7.3830000000000009e+00 8.5251540748539991e+00 2.3210328230616394e+01 0 0 0
609 2 6.1524999999999999e+00 1.2077301606043163e+01 2.0029400347155693e+01 0 0 0
610 2 6.1524999999999999e+00 1.0656442593567499e+01 2.0029400347155693e+01 0 0 0
754 2 4.9220000000000006e+00 1.1366872099805333e+01 2.3210328230616394e+01 0 0 0
776 2 6.1524999999999999e+00 1.0656442593567499e+01 2.3210328230616394e+01 0 0 0
777 2 7.3829999999999991e+00 1.1366872099805333e+01 2.3210328230616394e+01 0 0 0
634 2 9.8440000000000012e+00 9.9460130873296642e+00 2.0029400347155693e+01 0 0 0
635 2 9.8440000000000012e+00 8.5251540748539956e+00 2.0029400347155693e+01 0 0 0
779 2 8.6134999999999984e+00 9.2355835810918343e+00 2.3210328230616394e+01 0 0 0
802 2 9.8440000000000012e+00 8.5251540748539956e+00 2.3210328230616394e+01 0 0 0
803 2 1.1074500000000002e+01 9.2355835810918343e+00 2.3210328230616394e+01 0 0 0
632 2 8.6135000000000002e+00 1.2077301606043163e+01 2.0029400347155693e+01 0 0 0
633 2 8.6134999999999984e+00 1.0656442593567498e+01 2.0029400347155693e+01 0 0 0
655 2 1.1074500000000002e+01 1.2077301606043163e+01 2.0029400347155693e+01 0 0 0
656 2 1.1074500000000002e+01 1.0656442593567498e+01 2.0029400347155693e+01 0 0 0
800 2 8.6134999999999984e+00 1.0656442593567498e+01 2.3210328230616394e+01 0 0 0
801 2 9.8440000000000012e+00 1.1366872099805333e+01 2.3210328230616394e+01 0 0 0
824 2 1.1074500000000002e+01 1.0656442593567498e+01 2.3210328230616394e+01 0 0 0
825 2 1.2304999999999998e+01 1.1366872099805333e+01 2.3210328230616394e+01 0 0 0
3742 1 2.2147616977083886e+00 9.9877143004375313e-01 2.5526591600879623e+01 0 0 0
2633 1 9.8223786189386644e+00 7.8977450831845788e+00 2.6359392923936436e+01 5 1 -1
4672 1 4.0260233552461546e+00 2.6794044732792512e+00 2.6242697219216016e+01 -1 -2 0
1825 1 6.3355085100691806e+00 1.7817632770038387e+00 2.5514630998577516e+01 3 6 -1
4288 1 2.2694992178535203e+00 9.9394200339528709e+00 2.9322760709947886e+01 3 4 -1
3709 1 1.1265611887892213e+01 1.2081748759051258e+01 2.6108704066555394e+01 2 -2 -1
4216 1 1.0905047966880241e+01 3.4566900563768725e+00 2.5863761984849042e+01 1 -1 -1
475 1 1.1222640377296173e+01 9.1040603274473109e-01 2.6254603858448206e+01 2 0 0
2990 1 8.0729499569744156e+00 3.7607649340676397e+00 2.6205216756746218e+01 1 2 0
4274 1 6.6793149055924603e+00 1.0894152053169558e+01 2.9280523867392986e+01 -1 0 -1
176 1 7.0956561756213554e-01 5.6594842101278733e+00 2.6662352275900872e+01 -2 1 -1
1838 1 3.1697603504891032e+00 5.4286736261804558e+00 2.5963770415809702e+01 5 -4 -1
1706 1 6.4672712690728238e+00 1.1299362371264554e+01 2.6576505311021602e+01 -1 0 -1
1791 1 4.9670274784040691e+00 6.9964347883844438e+00 2.6964319306587448e+01 2 0 -1
4261 1 4.9426209380832636e-01 8.3909141974539274e+00 2.5735404052299319e+01 0 0 0
4555 1 7.4433789858076915e+00 6.5363394115334490e+00 2.5561917031073900e+01 0 -2 0
2559 1 1.0611122136157654e+00 5.4588936580549401e+00 2.9225097699679647e+01 5 -4 0
1378 1 8.9383366117744085e+00 1.0552764788895374e+01 2.5717688358577863e+01 -3 -6 0
2183 1 2.2425564866955909e+00 1.0251059317115947e+01 2.6561416414342411e+01 -3 2 0
3504 1 4.7067884478292532e+00 9.5944956974783651e+00 2.5593700049538285e+01 1 1 -1
1709 1 1.1193380114168772e+01 7.1208124579972876e-01 2.9216982025442292e+01 -3 -4 -1
4382 1 3.9598411678167995e+00 2.4431268930660024e+00 2.9054797867873482e+01 -2 -5 -1
1034 1 1.1228045139890549e+01 1.2098887681061068e+01 2.9025587358728654e+01 -1 1 0
1785 1 9.6782766705186756e+00 7.9097075501428611e+00 2.9091628968926479e+01 4 -2 -1
4273 1 1.2277199380786360e+01 7.3843738685407523e+00 2.5490590820723764e+01 0 4 0
2899 1 8.4911092871983271e+00 3.6096841026108231e+00 2.8936921508900735e+01 5 -2 -1
3417 1 2.0887283858824843e+00 7.2278768572754726e-01 3.3005869879975613e+01 4 -5 0
2227 1 2.2633040487576164e+00 4.6611422911666794e-01 3.0235925820631422e+01 -3 1 0
4699 1 1.2523135013903754e+00 3.2597228230145068e+00 3.3789344656095977e+01 0 0 0
2574 1 6.6612898282784760e+00 1.7078608192810687e+00 3.2798369112617891e+01 3 -1 0
4534 1 6.5685751855313663e+00 2.0575372628421418e+00 2.9883197535433577e+01 1 0 -1
3051 1 4.0885490515037812e+00 1.2181337804194680e+01 3.6773399235611635e+01 2 0 0
4361 1 1.1070891099673485e+01 2.8843327686454341e+00 3.2756690066786788e+01 -2 2 -1
1876 1 9.2076877967977673e+00 1.0083331155904367e+00 3.3915912047558692e+01 -4 2 -1
4561 1 1.0777762660572709e+01 3.3165223936682380e+00 2.9983735833718150e+01 4 2 -1
74 1 3.3246644377750099e+00 4.9284173409028798e+00 3.3076212073486317e+01 -3 4 -1
1763 1 2.7915141374901666e+00 7.5167322713058349e+00 3.3689948325315754e+01 4 -3 -1
4264 1 3.3826862132873297e+00 4.8268410743861461e+00 3.0296013546319855e+01 1 -2 0
961 1 4.6675932754479303e+00 9.5575322279457087e+00 3.7035249446198335e+01 2 -5 -1
1236 1 5.8365069651820773e+00 4.0738278389392626e+00 3.3721017431053397e+01 -3 3 0
1017 1 8.0052937240259894e+00 6.0748497945718078e+00 2.9987556788838813e+01 5 -1 0
2903 1 7.8037133815058928e+00 5.8366618233716538e+00 3.2740807525428288e+01 0 3 0
4354 1 1.0122816290198337e+01 5.2592332873028882e+00 3.3733596410050254e+01 3 0 -1
4355 1 9.0286057830008684e+00 1.0408869407399282e+01 3.7321718595581402e+01 -2 -1 -1
355 1 3.9451899390357417e+00 1.2072715140953086e+01 3.3942448326175850e+01 -3 5 0
1818 1 7.1064428311754133e+00 8.7637427041320350e+00 3.6132414736796022e+01 3 -4 0
1863 1 3.5882008862829046e-01 8.1361603766125885e+00 3.2765994153114335e+01 -2 -1 0
2588 1 7.3719448837605519e+00 8.5545278950361681e+00 3.3355583722140651e+01 2 1 0
1866 1 4.7534283128435231e+00 9.2545405017002746e+00 3.0485762480551017e+01 0 -2 -1
2552 1 4.9088028263437353e+00 9.3160894810513319e+00 3.3041153759882675e+01 -1 3 0
4220 1 1.1746395137450518e+01 9.4845989354706361e+00 3.3824491957058186e+01 3 0 0
2136 1 9.3347237659159372e+00 1.0275969111928774e+01 3.0225672146759418e+01 0 -1 -1
3045 1 9.2396500249856892e+00 1.0467144928089938e+01 3.3019997383334896e+01 0 2 0
904 1 2.3522001799410441e-01 8.0969067706458659e+00 2.9915403601698088e+01 3 3 -1
1306 1 1.5507119208367230e+00 3.2565743065204242e+00 3.6664815446270211e+01 1 -2 0
4221 1 6.2835567873264004e+00 1.6974401912102568e+00 3.7296803206558948e+01 3 -1 0
457 1 2.3220611782172731e+00 7.5010042565655388e-01 3.7645556734912418e+01 -1 6 0
1316 1 9.2392402915683309e+00 1.4515719208986779e+00 3.6622282072340582e+01 1 -1 0
3386 1 1.1147514230364818e+01 3.3429692836585412e+00 3.7734129059008566e+01 1 -1 0
3379 1 2.9353783321475109e+00 7.6011375201295373e+00 3.6430413302681231e+01 -1 2 0
1323 1 3.5657625148345922e+00 5.0831426307023655e+00 3.7239980737629097e+01 -3 5 -1
4193 1 7.7371635821187841e+00 6.1584369596534323e+00 3.7613733872066177e+01 -1 -2 0
2191 1 6.0445135698462682e+00 4.1345289732009425e+00 3.6608187904784813e+01 4 0 0
380 1 1.1788457172342856e+01 9.6124914565437383e+00 3.6520104286827163e+01 -2 -4 0
3013 1 1.0226977963724922e+01 5.5182464822672594e+00 3.6598346546853321e+01 0 -2 0
989 1 3.2408050649419212e-01 7.8238873503242639e+00 3.7493991458577739e+01 5 1 -1
4358 1 1.2085840619424653e+01 7.3441767959372415e+00 3.7838079931303852e+01 -7 3 -1
4609 1 1.1956625914188965e+01 7.0565402685445564e+00 3.2742389225749399e+01 2 0 0
1810 1 1.4571161094716398e+00 1.2144893317511968e+01 3.2668387755006229e+01 -1 3 0
4277 1 5.2157752797941415e+00 6.8202671857248145e+00 2.9792376493303912e+01 5 -1 0
4666 1 3.7996682640335515e+00 1.4441138881755039e+01 3.5385950693456603e+00 1 -1 1
2931 1 2.3490251827527728e-01 2.4431393202216434e+01 1.0086553254973303e+01 2 2 0
3054 1 6.2160178230311081e+00 1.3744151797089284e+01 2.6875896236190879e+00 6 0 0
1303 1 7.9727750088070994e+00 1.5806101937214235e+01 3.4405589319253083e+00 1 2 0
2617 1 1.0524314660737783e+01 1.4730612964847950e+01 2.7006912101779212e+00 -2 2 0
1392 1 2.4482989930438576e-01 1.7580783678706741e+01 3.4323467510476076e+00 -4 7 0
3502 1 2.5724501651508747e+00 1.6587063808648448e+01 2.0459589195725183e+00 -1 1 0
2618 1 1.9861975463017343e+00 1.2651007365081963e+01 2.5808415531432614e+00 -3 -3 1
1707 1 4.5920943823266818e+00 1.8594042380474740e+01 3.0769672814147895e+00 -5 -1 1
3355 1 7.2678666189648258e+00 1.8151076801696583e+01 2.3963058549869594e+00 -3 3 0
1736 1 1.6680264588496543e-01 1.7641822909501844e+01 6.1081402701443182e+00 1 0 0
4651 1 9.3354609329075178e+00 1.9804534442614848e+01 3.3263946748522080e+00 5 0 0
3733 1 1.4302726572553217e+00 2.1777593888115664e+01 3.5574547542739654e+00 -4 3 1
2070 1 4.1689789385973199e+00 2.1294628825253540e+01 2.7260882372805999e+00 0 -1 0
1886 1 1.1408237879068399e+00 2.1856978101787902e+01 6.2308485971497110e+00 5 3 0
142 1 8.1064525957071201e+00 2.2491290992691237e+01 9.9901331971968865e+00 4 -4 0
3778 1 5.9154859415551515e+00 2.3267860941439746e+01 3.6452061830058260e+00 5 1 0
2144 1 8.6891873264151069e+00 2.2564679719188845e+01 2.5834923378973311e+00 -1 -4 0
1871 1 8.0135970130386980e+00 2.1937670002188657e+01 7.2561443108243129e+00 0 2 0
3381 1 4.0518636949141538e+00 2.1286652399287568e+01 9.8069391761908182e+00 3 2 0
2244 1 3.7294564384133939e+00 1.4426370028879298e+01 6.2888720194490189e+00 -5 -4 1
2935 1 9.1777519070347466e+00 1.9659061172494059e+01 6.1322931683149449e+00 -2 1 0
3443 1 3.8165620084298921e+00 2.1191611798633829e+01 6.8858321115801040e+00 -1 3 0
367 1 5.9553528404762988e+00 1.3426859303756702e+01 1.0279981728178834e+01 1 0 0
4524 1 6.3284732551796257e+00 1.3764214546136797e+01 7.3588420520453885e+00 0 -4 1
2150 1 7.9373956083698411e+00 1.5592430738389025e+01 6.3273021918422323e+00 -3 -4 1
4287 1 1.0528332805708555e+01 1.4794931648067287e+01 7.2966363419220617e+00 -2 1 1
1748 1 1.0336359154408960e+01 1.4916810619380522e+01 1.0200508061845387e+01 -1 -3 0
1722 1 5.5605300691301327e+00 2.3070152444249640e+01 6.4280855723638179e+00 -3 0 1
4612 1 2.8600335349605368e+00 1.6946408426310075e+01 9.7508369453046573e+00 -1 0 2
162 1 2.8220823022447159e+00 1.7200283486378709e+01 7.0505089821283491e+00 -1 3 1
4613 1 1.6866992176963629e+00 1.2678758290150506e+01 7.1003954242678553e+00 5 -3 1
4229 1 1.2078940956564153e+01 1.9246950755112415e+01 2.4294653841638651e+00 3 4 0
3003 1 4.7987274540497005e+00 1.8841482386537713e+01 5.9774629691631223e+00 -5 -5 1
73 1 7.0393980341223701e+00 1.8175545101102497e+01 9.8272156522253624e+00 -1 0 0
4646 1 7.3116551622080159e+00 1.8161659714591149e+01 6.9671770562169462e+00 -4 0 2
156 1 1.1395461763988742e+01 1.9011028495394463e+01 9.9974134630963754e+00 -1 2 0
4226 1 1.1461026202440291e+01 1.8869614980630622e+01 7.0980150865336959e+00 3 0 0
2968 1 9.4458501178864687e+00 2.4095340996579335e+01 6.5098770222886193e+00 1 -2 1
1847 1 1.6697995402353978e+00 1.2567861632318181e+01 9.7878635680810735e+00 1 1 0
105 1 1.1754838732870882e+01 2.4105296573826156e+01 8.0161199439789712e+00 3 -2 1
3872 1 4.2128660687582242e-01 2.4191244488290067e+01 2.6440569544843617e+00 -1 -2 0
3804 1 2.1385532248547787e+00 1.9463883637547486e+01 1.0486015218767362e+01 -2 4 0