LAMMPS data file via write_data, version 16 Mar 2018, timestep = 8000000

4063 atoms
2 atom types

0.0000000000000000e+00 4.9219999999999999e+01 xlo xhi
0.0000000000000000e+00 4.9019635930410494e+01 ylo yhi
1.0942629862939999e+00 2.6845737013704351e+01 zlo zhi

Masses

1 18.015
2 12.01

Atoms # atomic

53 2 0.0000000000000000e+00 2.8417180249513345e+00 2.7004581943579886e+00 0 0 0
55 2 0.0000000000000000e+00 0.0000000000000000e+00 2.7004581943579886e+00 0 0 0
57 2 1.2305000000000001e+00 7.1042950623783474e-01 2.7004581943579886e+00 0 0 0
64 2 1.2305000000000001e+00 2.1312885187134998e+00 2.7004581943579886e+00 0 0 0
66 2 2.4610000000000003e+00 2.8417180249513345e+00 2.7004581943579886e+00 0 0 0
68 2 2.4610000000000003e+00 0.0000000000000000e+00 2.7004581943579886e+00 0 0 0
70 2 3.6915000000000004e+00 7.1042950623783474e-01 2.7004581943579886e+00 0 0 0
85 2 3.6914999999999996e+00 2.1312885187134998e+00 2.7004581943579886e+00 0 0 0
87 2 4.9220000000000006e+00 2.8417180249513332e+00 2.7004581943579886e+00 0 0 0
89 2 4.9220000000000006e+00 0.0000000000000000e+00 2.7004581943579886e+00 0 0 0
60 2 0.0000000000000000e+00 4.2625770374269996e+00 2.7004581943579886e+00 0 0 0
81 2 2.4610000000000003e+00 4.2625770374269996e+00 2.7004581943579886e+00 0 0 0
110 2 4.9220000000000006e+00 4.2625770374269978e+00 2.7004581943579886e+00 0 0 0
62 2 1.2305000000000001e+00 4.9730065436648339e+00 2.7004581943579886e+00 0 0 0
77 2 1.2305000000000001e+00 6.3938655561404980e+00 2.7004581943579886e+00 0 0 0
83 2 3.6914999999999996e+00 4.9730065436648339e+00 2.7004581943579886e+00 0 0 0
106 2 3.6914999999999996e+00 6.3938655561404980e+00 2.7004581943579886e+00 0 0 0
58 2 0.0000000000000000e+00 7.1042950623783341e+00 2.7004581943579886e+00 0 0 0
73 2 0.0000000000000000e+00 8.5251540748539991e+00 2.7004581943579886e+00 0 0 0
75 2 1.2305000000000001e+00 9.2355835810918343e+00 2.7004581943579886e+00 0 0 0
79 2 2.4610000000000003e+00 7.1042950623783341e+00 2.7004581943579886e+00 0 0 0
102 2 2.4610000000000003e+00 8.5251540748539991e+00 2.7004581943579886e+00 0 0 0
104 2 3.6915000000000004e+00 9.2355835810918343e+00 2.7004581943579886e+00 0 0 0
108 2 4.9220000000000006e+00 7.1042950623783341e+00 2.7004581943579886e+00 0 0 0
139 2 4.9220000000000006e+00 8.5251540748539991e+00 2.7004581943579886e+00 0 0 0
54 2 0.0000000000000000e+00 1.4208590124756650e+00 5.7752197022192524e+00 0 0 0
56 2 0.0000000000000000e+00 0.0000000000000000e+00 5.7752197022192524e+00 0 0 0
65 2 1.2305000000000001e+00 2.1312885187134998e+00 5.7752197022192524e+00 0 0 0
67 2 2.4610000000000003e+00 1.4208590124756650e+00 5.7752197022192524e+00 0 0 0
69 2 2.4610000000000003e+00 0.0000000000000000e+00 5.7752197022192524e+00 0 0 0
86 2 3.6914999999999996e+00 2.1312885187134998e+00 5.7752197022192524e+00 0 0 0
382 2 0.0000000000000000e+00 2.8417180249513345e+00 8.8499812100743398e+00 0 0 0
383 2 0.0000000000000000e+00 0.0000000000000000e+00 8.8499812100743398e+00 0 0 0
384 2 1.2305000000000001e+00 7.1042950623783474e-01 8.8499812100743398e+00 0 0 0
388 2 1.2305000000000001e+00 2.1312885187134998e+00 8.8499812100743398e+00 0 0 0
389 2 2.4610000000000003e+00 2.8417180249513345e+00 8.8499812100743398e+00 0 0 0
390 2 2.4610000000000003e+00 0.0000000000000000e+00 8.8499812100743398e+00 0 0 0
391 2 3.6915000000000004e+00 7.1042950623783474e-01 8.8499812100743398e+00 0 0 0
399 2 3.6914999999999996e+00 2.1312885187134998e+00 8.8499812100743398e+00 0 0 0
88 2 4.9220000000000006e+00 1.4208590124756650e+00 5.7752197022192524e+00 0 0 0
90 2 4.9220000000000006e+00 0.0000000000000000e+00 5.7752197022192524e+00 0 0 0
400 2 4.9220000000000006e+00 2.8417180249513332e+00 8.8499812100743398e+00 0 0 0
401 2 4.9220000000000006e+00 0.0000000000000000e+00 8.8499812100743398e+00 0 0 0
61 2 0.0000000000000000e+00 4.2625770374269996e+00 5.7752197022192524e+00 0 0 0
63 2 1.2305000000000001e+00 3.5521475311891644e+00 5.7752197022192524e+00 0 0 0
82 2 2.4610000000000003e+00 4.2625770374269996e+00 5.7752197022192524e+00 0 0 0
84 2 3.6914999999999996e+00 3.5521475311891644e+00 5.7752197022192524e+00 0 0 0
386 2 0.0000000000000000e+00 4.2625770374269996e+00 8.8499812100743398e+00 0 0 0
397 2 2.4610000000000003e+00 4.2625770374269996e+00 8.8499812100743398e+00 0 0 0
111 2 4.9220000000000006e+00 4.2625770374269978e+00 5.7752197022192524e+00 0 0 0
412 2 4.9220000000000006e+00 4.2625770374269978e+00 8.8499812100743398e+00 0 0 0
59 2 0.0000000000000000e+00 5.6834360499026637e+00 5.7752197022192524e+00 0 0 0
78 2 1.2305000000000001e+00 6.3938655561404980e+00 5.7752197022192524e+00 0 0 0
80 2 2.4610000000000003e+00 5.6834360499026637e+00 5.7752197022192524e+00 0 0 0
107 2 3.6914999999999996e+00 6.3938655561404980e+00 5.7752197022192524e+00 0 0 0
387 2 1.2305000000000001e+00 4.9730065436648339e+00 8.8499812100743398e+00 0 0 0
395 2 1.2305000000000001e+00 6.3938655561404980e+00 8.8499812100743398e+00 0 0 0
398 2 3.6914999999999996e+00 4.9730065436648339e+00 8.8499812100743398e+00 0 0 0
410 2 3.6914999999999996e+00 6.3938655561404980e+00 8.8499812100743398e+00 0 0 0
109 2 4.9220000000000006e+00 5.6834360499026637e+00 5.7752197022192524e+00 0 0 0
74 2 0.0000000000000000e+00 8.5251540748539991e+00 5.7752197022192524e+00 0 0 0
76 2 1.2305000000000001e+00 7.8147245686161639e+00 5.7752197022192524e+00 0 0 0
103 2 2.4610000000000003e+00 8.5251540748539991e+00 5.7752197022192524e+00 0 0 0
105 2 3.6914999999999996e+00 7.8147245686161639e+00 5.7752197022192524e+00 0 0 0
385 2 0.0000000000000000e+00 7.1042950623783341e+00 8.8499812100743398e+00 0 0 0
393 2 0.0000000000000000e+00 8.5251540748539991e+00 8.8499812100743398e+00 0 0 0
394 2 1.2305000000000001e+00 9.2355835810918343e+00 8.8499812100743398e+00 0 0 0
396 2 2.4610000000000003e+00 7.1042950623783341e+00 8.8499812100743398e+00 0 0 0
408 2 2.4610000000000003e+00 8.5251540748539991e+00 8.8499812100743398e+00 0 0 0
409 2 3.6915000000000004e+00 9.2355835810918343e+00 8.8499812100743398e+00 0 0 0
140 2 4.9220000000000006e+00 8.5251540748539991e+00 5.7752197022192524e+00 0 0 0
411 2 4.9220000000000006e+00 7.1042950623783341e+00 8.8499812100743398e+00 0 0 0
427 2 4.9220000000000006e+00 8.5251540748539991e+00 8.8499812100743398e+00 0 0 0
3258 1 4.1865872596952762e+00 4.4321767393665246e+00 1.1845828655508116e+01 0 0 0
4053 1 1.4953206419839267e+00 4.8462244332190494e+00 1.1206360290506721e+01 1 3 -1
3399 1 4.4307566655656910e-01 7.3588313028208781e+00 1.2101415383167609e+01 0 0 0
2738 1 5.0299462113019553e+00 8.5361381304576849e+00 1.1579070375372861e+01 1 -2 0
1972 1 2.3824492106460795e+00 9.0168407257592271e+00 1.1164462952797777e+01 -2 -1 -1
1949 1 5.1660761472190577e+00 1.8578561540030025e+00 1.1465929088822914e+01 3 -2 0
3361 1 6.0547895398034681e+00 6.1947562332317387e+00 1.1217202984292122e+01 1 -1 -1
3394 1 4.7402959854958500e+00 1.5718412129088146e+00 1.5281171237277347e+01 1 4 -1
3426 1 3.9986779099408918e+00 4.3573076076786901e+00 2.5181021133717195e+01 -1 3 -1
2581 1 4.6400484065883942e+00 1.7594298477588766e+00 1.8083831378280749e+01 -2 0 0
1252 1 1.7744415153098063e+00 4.8355390298087570e+00 1.5363266302401000e+01 -4 1 0
751 1 6.0832323256688952e+00 6.3207746136079974e+00 1.5627893997564188e+01 -1 3 0
1243 1 5.8916972655490847e+00 6.2103226618960381e+00 1.8276785512111601e+01 0 0 1
638 1 1.3383831786644778e+00 4.9345193293874061e+00 1.8320775120976329e+01 -1 4 -1
1332 1 5.1382644913993465e+00 8.5386913606382553e+00 1.4408076831649497e+01 2 -1 -2
2580 1 2.4327169694507247e+00 9.3605781360998925e+00 1.8113347236362358e+01 4 4 -1
2650 1 2.3682516731878076e+00 9.0632459191708286e+00 1.5356379933585044e+01 5 -2 0
3369 1 5.0627644047532927e+00 8.8163106821339348e+00 2.5401074564549234e+01 0 -2 -1
3911 1 5.3980481330512842e-01 7.0155418167331893e+00 1.4795392623972402e+01 4 -1 0
1980 1 2.1929362077004328e+00 2.4243841714220689e+00 2.5994702972036571e+01 0 4 -1
669 1 1.8236132970315682e+00 2.0589933191147063e+00 1.8763234434723216e+01 -1 -3 -1
4024 1 1.9872880096488605e+00 2.4796362428730685e+00 2.1530274152230135e+01 2 1 0
626 1 3.2303383539430954e+00 6.8733353365219738e+00 2.5910904301294465e+01 1 -4 1
661 1 4.7337352870018803e+00 8.8901328270178510e+00 2.2333264763750769e+01 0 -1 -1
2686 1 3.0828446895702379e+00 7.1038164332969149e+00 2.1573846943724924e+01 1 -3 0
2769 1 3.3698625519398009e+00 6.7623994355816359e+00 1.8897120552800729e+01 1 0 0
3279 1 5.5132215813594532e-01 7.1291892472217775e+00 2.2642895427778548e+01 5 -1 0
726 1 3.8712123519777975e-01 7.1949778225544021e+00 2.5411205987346840e+01 3 -1 0
3248 1 3.6173946726862924e+00 4.5047268979456359e+00 2.2323827957943351e+01 1 0 0
1286 1 4.0265917586337768e-02 2.1141820404489259e-01 1.5217257679364227e+01 4 0 -1
586 1 4.2628415711612009e+00 4.2809699704772841e+00 1.4682434494078825e+01 1 0 1
3323 1 2.6884723532663801e+00 3.0030830940205533e-02 1.4451607524317927e+01 -1 -1 1
71 2 0.0000000000000000e+00 1.1366872099805333e+01 2.7004581943579886e+00 0 0 0
94 2 0.0000000000000000e+00 1.2787731112280996e+01 2.7004581943579886e+00 0 0 0
96 2 1.2305000000000001e+00 1.3498160618518829e+01 2.7004581943579886e+00 0 0 0
98 2 1.2305000000000001e+00 1.0656442593567498e+01 2.7004581943579886e+00 0 0 0
100 2 2.4610000000000003e+00 1.1366872099805333e+01 2.7004581943579886e+00 0 0 0
131 2 2.4610000000000003e+00 1.2787731112280996e+01 2.7004581943579886e+00 0 0 0
133 2 3.6915000000000004e+00 1.3498160618518829e+01 2.7004581943579886e+00 0 0 0
135 2 3.6914999999999996e+00 1.0656442593567499e+01 2.7004581943579886e+00 0 0 0
137 2 4.9220000000000006e+00 1.1366872099805333e+01 2.7004581943579886e+00 0 0 0
176 2 4.9220000000000006e+00 1.2787731112280996e+01 2.7004581943579886e+00 0 0 0
178 2 6.1524999999999990e+00 1.3498160618518829e+01 2.7004581943579886e+00 0 0 0
92 2 0.0000000000000000e+00 1.5629449137232333e+01 2.7004581943579886e+00 0 0 0
123 2 0.0000000000000000e+00 1.7050308149707998e+01 2.7004581943579886e+00 0 0 0
127 2 1.2305000000000001e+00 1.4919019630994494e+01 2.7004581943579886e+00 0 0 0
129 2 2.4610000000000003e+00 1.5629449137232328e+01 2.7004581943579886e+00 0 0 0
168 2 2.4610000000000003e+00 1.7050308149707998e+01 2.7004581943579886e+00 0 0 0
172 2 3.6915000000000004e+00 1.4919019630994494e+01 2.7004581943579886e+00 0 0 0
174 2 4.9220000000000006e+00 1.5629449137232333e+01 2.7004581943579886e+00 0 0 0
215 2 4.9220000000000006e+00 1.7050308149707998e+01 2.7004581943579886e+00 0 0 0
219 2 6.1524999999999990e+00 1.4919019630994494e+01 2.7004581943579886e+00 0 0 0
125 2 1.2305000000000001e+00 1.7760737655945832e+01 2.7004581943579886e+00 0 0 0
164 2 1.2305000000000001e+00 1.9181596668421495e+01 2.7004581943579886e+00 0 0 0
170 2 3.6914999999999996e+00 1.7760737655945832e+01 2.7004581943579886e+00 0 0 0
211 2 3.6914999999999996e+00 1.9181596668421495e+01 2.7004581943579886e+00 0 0 0
72 2 0.0000000000000000e+00 9.9460130873296642e+00 5.7752197022192524e+00 0 0 0
101 2 2.4610000000000003e+00 9.9460130873296642e+00 5.7752197022192524e+00 0 0 0
138 2 4.9220000000000006e+00 9.9460130873296642e+00 5.7752197022192524e+00 0 0 0
95 2 0.0000000000000000e+00 1.2787731112280996e+01 5.7752197022192524e+00 0 0 0
97 2 1.2305000000000001e+00 1.2077301606043163e+01 5.7752197022192524e+00 0 0 0
99 2 1.2305000000000001e+00 1.0656442593567498e+01 5.7752197022192524e+00 0 0 0
132 2 2.4610000000000003e+00 1.2787731112280996e+01 5.7752197022192524e+00 0 0 0
134 2 3.6914999999999996e+00 1.2077301606043163e+01 5.7752197022192524e+00 0 0 0
136 2 3.6914999999999996e+00 1.0656442593567499e+01 5.7752197022192524e+00 0 0 0
392 2 0.0000000000000000e+00 1.1366872099805333e+01 8.8499812100743398e+00 0 0 0
404 2 0.0000000000000000e+00 1.2787731112280996e+01 8.8499812100743398e+00 0 0 0
405 2 1.2305000000000001e+00 1.3498160618518829e+01 8.8499812100743398e+00 0 0 0
406 2 1.2305000000000001e+00 1.0656442593567498e+01 8.8499812100743398e+00 0 0 0
407 2 2.4610000000000003e+00 1.1366872099805333e+01 8.8499812100743398e+00 0 0 0
423 2 2.4610000000000003e+00 1.2787731112280996e+01 8.8499812100743398e+00 0 0 0
424 2 3.6915000000000004e+00 1.3498160618518829e+01 8.8499812100743398e+00 0 0 0
425 2 3.6914999999999996e+00 1.0656442593567499e+01 8.8499812100743398e+00 0 0 0
177 2 4.9220000000000006e+00 1.2787731112280996e+01 5.7752197022192524e+00 0 0 0
426 2 4.9220000000000006e+00 1.1366872099805333e+01 8.8499812100743398e+00 0 0 0
446 2 4.9220000000000006e+00 1.2787731112280996e+01 8.8499812100743398e+00 0 0 0
447 2 6.1524999999999990e+00 1.3498160618518829e+01 8.8499812100743398e+00 0 0 0
93 2 0.0000000000000000e+00 1.4208590124756663e+01 5.7752197022192524e+00 0 0 0
130 2 2.4610000000000003e+00 1.4208590124756663e+01 5.7752197022192524e+00 0 0 0
175 2 4.9220000000000006e+00 1.4208590124756663e+01 5.7752197022192524e+00 0 0 0
124 2 0.0000000000000000e+00 1.7050308149707998e+01 5.7752197022192524e+00 0 0 0
126 2 1.2305000000000001e+00 1.6339878643470165e+01 5.7752197022192524e+00 0 0 0
128 2 1.2305000000000001e+00 1.4919019630994494e+01 5.7752197022192524e+00 0 0 0
169 2 2.4610000000000003e+00 1.7050308149707998e+01 5.7752197022192524e+00 0 0 0
171 2 3.6915000000000004e+00 1.6339878643470165e+01 5.7752197022192524e+00 0 0 0
173 2 3.6915000000000004e+00 1.4919019630994494e+01 5.7752197022192524e+00 0 0 0
403 2 0.0000000000000000e+00 1.5629449137232333e+01 8.8499812100743398e+00 0 0 0
419 2 0.0000000000000000e+00 1.7050308149707998e+01 8.8499812100743398e+00 0 0 0
421 2 1.2305000000000001e+00 1.4919019630994494e+01 8.8499812100743398e+00 0 0 0
422 2 2.4610000000000003e+00 1.5629449137232328e+01 8.8499812100743398e+00 0 0 0
442 2 2.4610000000000003e+00 1.7050308149707998e+01 8.8499812100743398e+00 0 0 0
444 2 3.6915000000000004e+00 1.4919019630994494e+01 8.8499812100743398e+00 0 0 0
216 2 4.9220000000000006e+00 1.7050308149707998e+01 5.7752197022192524e+00 0 0 0
220 2 6.1524999999999990e+00 1.4919019630994494e+01 5.7752197022192524e+00 0 0 0
445 2 4.9220000000000006e+00 1.5629449137232333e+01 8.8499812100743398e+00 0 0 0
466 2 4.9220000000000006e+00 1.7050308149707998e+01 8.8499812100743398e+00 0 0 0
468 2 6.1524999999999990e+00 1.4919019630994494e+01 8.8499812100743398e+00 0 0 0
122 2 0.0000000000000000e+00 1.8471167162183658e+01 5.7752197022192524e+00 0 0 0
165 2 1.2305000000000001e+00 1.9181596668421495e+01 5.7752197022192524e+00 0 0 0
167 2 2.4610000000000003e+00 1.8471167162183658e+01 5.7752197022192524e+00 0 0 0
212 2 3.6914999999999996e+00 1.9181596668421495e+01 5.7752197022192524e+00 0 0 0
420 2 1.2305000000000001e+00 1.7760737655945832e+01 8.8499812100743398e+00 0 0 0
440 2 1.2305000000000001e+00 1.9181596668421495e+01 8.8499812100743398e+00 0 0 0
443 2 3.6914999999999996e+00 1.7760737655945832e+01 8.8499812100743398e+00 0 0 0
464 2 3.6914999999999996e+00 1.9181596668421495e+01 8.8499812100743398e+00 0 0 0
214 2 4.9220000000000006e+00 1.8471167162183658e+01 5.7752197022192524e+00 0 0 0
3999 1 1.7008351997662019e+00 1.1591364581005701e+01 1.1729523285217097e+01 3 3 -1
2703 1 3.8104535526070116e+00 1.3472432703175599e+01 1.1298263230072106e+01 1 2 -1
3297 1 2.9246303912429323e+00 1.6097002591828264e+01 1.1912070721786650e+01 -1 4 -1
1399 1 4.9069630188891482e+00 1.7692543173612020e+01 1.1027138394558888e+01 3 2 0
3925 1 2.7201671138639633e-01 1.6442779867255691e+01 1.1099517901048653e+01 -1 3 -1
3371 1 3.6039105795565893e+00 1.3751124169816853e+01 1.5430939686591302e+01 0 2 0
3367 1 1.7545325664238829e+00 1.1685148112638617e+01 1.4414286442421155e+01 1 2 0
3333 1 3.4389106239164082e+00 1.3904870979503446e+01 1.8176961419545989e+01 3 1 -1
2622 1 4.8513222231779478e+00 1.7946887779298283e+01 1.5469533103567581e+01 1 -1 0
567 1 3.1444878569797572e+00 1.6169379343965431e+01 1.4429830351271118e+01 2 0 0
2731 1 5.0379648840224229e+00 1.8198183947081873e+01 1.8249100888530450e+01 2 -2 1
1963 1 2.8948513144018113e+00 1.6011539904381848e+01 2.5536051804563073e+01 -1 0 -1
4057 1 4.1804145252394962e+00 1.1360967779331370e+01 1.8769256892138792e+01 0 1 0
1291 1 4.2822608870498380e+00 1.1280249917351959e+01 2.1579903016960074e+01 1 -2 -1
3992 1 9.2586840221817446e-01 1.4102835531248163e+01 2.2044556473370086e+01 0 2 0
3374 1 9.1022702832383462e-01 1.3900698059174580e+01 1.9168833750279781e+01 1 -2 0
1932 1 1.8047794815938458e+00 1.1648338932347681e+01 2.2599576196593574e+01 -1 2 -1
1440 1 2.7423255548095193e+00 1.6170691154157538e+01 2.2755751386867168e+01 2 -3 -1
2631 1 2.4609876012625111e+00 1.8608153253547794e+01 1.8976113525609946e+01 0 0 0
1375 1 2.2454067856880391e+00 1.8662837662580227e+01 2.1620433335018596e+01 1 4 -1
2083 1 5.6055432695759340e+00 1.5793752765587820e+01 1.8944917166332218e+01 1 0 0
3280 1 4.7358974046013741e-01 1.6471451191453838e+01 1.5357336774462507e+01 2 -3 0
1439 1 1.7502363652267880e+00 1.1336538223633092e+01 2.5243424286966771e+01 0 -1 -1
743 1 4.1620728671403127e+00 1.1337338991633354e+01 2.6065312121223457e+01 -1 -3 0
1280 1 9.2096465708589759e-01 1.4014297370331141e+01 2.5977010281758119e+01 5 3 1
672 1 1.9101808274813254e+00 1.8547595420261427e+01 2.5991789576527680e+01 -1 1 -1
2725 1 5.4828088514871736e+00 1.5964037176197207e+01 2.6215174673126171e+01 1 -1 1
730 1 5.5079290504180056e+00 1.5758997572085971e+01 2.1685343158755323e+01 -1 -1 1
1357 1 5.6504646530016678e-01 1.6577752309330055e+01 1.8202416375052749e+01 4 1 1
2715 1 5.9641599822993383e+00 1.3262227066438497e+01 2.2665376066355563e+01 1 2 0
1245 1 5.7811491528929029e+00 1.3290785216844105e+01 2.5396774335071129e+01 2 -1 0
121 2 0.0000000000000000e+00 1.9892026174659328e+01 2.7004581943579886e+00 0 0 0
166 2 2.4610000000000003e+00 1.9892026174659328e+01 2.7004581943579886e+00 0 0 0
213 2 4.9220000000000006e+00 1.9892026174659328e+01 2.7004581943579886e+00 0 0 0
158 2 0.0000000000000000e+00 2.4154603212086325e+01 2.7004581943579886e+00 0 0 0
160 2 0.0000000000000000e+00 2.1312885187134999e+01 2.7004581943579886e+00 0 0 0
162 2 1.2304999999999993e+00 2.2023314693372832e+01 2.7004581943579886e+00 0 0 0
203 2 1.2304999999999993e+00 2.3444173705848499e+01 2.7004581943579886e+00 0 0 0
205 2 2.4610000000000003e+00 2.4154603212086325e+01 2.7004581943579886e+00 0 0 0
207 2 2.4610000000000003e+00 2.1312885187134995e+01 2.7004581943579886e+00 0 0 0
209 2 3.6914999999999996e+00 2.2023314693372832e+01 2.7004581943579886e+00 0 0 0
250 2 3.6915000000000004e+00 2.3444173705848499e+01 2.7004581943579886e+00 0 0 0
252 2 4.9220000000000006e+00 2.4154603212086325e+01 2.7004581943579886e+00 0 0 0
254 2 4.9220000000000006e+00 2.1312885187134995e+01 2.7004581943579886e+00 0 0 0
256 2 6.1524999999999990e+00 2.2023314693372832e+01 2.7004581943579886e+00 0 0 0
777 2 0.0000000000000000e+00 2.5575462224561992e+01 2.7004581943579886e+00 0 0 0
779 2 1.2305000000000001e+00 2.6285891730799833e+01 2.7004581943579886e+00 0 0 0
787 2 1.2305000000000010e+00 2.7706750743275496e+01 2.7004581943579886e+00 0 0 0
791 2 2.4610000000000003e+00 2.5575462224561992e+01 2.7004581943579886e+00 0 0 0
793 2 3.6914999999999991e+00 2.6285891730799833e+01 2.7004581943579886e+00 0 0 0
809 2 3.6914999999999996e+00 2.7706750743275496e+01 2.7004581943579886e+00 0 0 0
813 2 4.9220000000000006e+00 2.5575462224561992e+01 2.7004581943579886e+00 0 0 0
839 2 6.1524999999999990e+00 2.7706750743275496e+01 2.7004581943579886e+00 0 0 0
775 2 0.0000000000000000e+00 2.8417180249513333e+01 2.7004581943579886e+00 0 0 0
789 2 2.4610000000000003e+00 2.8417180249513326e+01 2.7004581943579886e+00 0 0 0
811 2 4.9220000000000006e+00 2.8417180249513336e+01 2.7004581943579886e+00 0 0 0
163 2 1.2305000000000001e+00 2.0602455680897162e+01 5.7752197022192524e+00 0 0 0
210 2 3.6915000000000004e+00 2.0602455680897162e+01 5.7752197022192524e+00 0 0 0
418 2 0.0000000000000000e+00 1.9892026174659328e+01 8.8499812100743398e+00 0 0 0
441 2 2.4610000000000003e+00 1.9892026174659328e+01 8.8499812100743398e+00 0 0 0
465 2 4.9220000000000006e+00 1.9892026174659328e+01 8.8499812100743398e+00 0 0 0
159 2 0.0000000000000000e+00 2.2733744199610655e+01 5.7752197022192524e+00 0 0 0
161 2 0.0000000000000000e+00 2.1312885187134999e+01 5.7752197022192524e+00 0 0 0
204 2 1.2304999999999993e+00 2.3444173705848499e+01 5.7752197022192524e+00 0 0 0
206 2 2.4610000000000003e+00 2.2733744199610655e+01 5.7752197022192524e+00 0 0 0
208 2 2.4610000000000003e+00 2.1312885187134995e+01 5.7752197022192524e+00 0 0 0
251 2 3.6915000000000004e+00 2.3444173705848499e+01 5.7752197022192524e+00 0 0 0
437 2 0.0000000000000000e+00 2.4154603212086325e+01 8.8499812100743398e+00 0 0 0
438 2 0.0000000000000000e+00 2.1312885187134999e+01 8.8499812100743398e+00 0 0 0
439 2 1.2304999999999993e+00 2.2023314693372832e+01 8.8499812100743398e+00 0 0 0
460 2 1.2304999999999993e+00 2.3444173705848499e+01 8.8499812100743398e+00 0 0 0
461 2 2.4610000000000003e+00 2.4154603212086325e+01 8.8499812100743398e+00 0 0 0
462 2 2.4610000000000003e+00 2.1312885187134995e+01 8.8499812100743398e+00 0 0 0
463 2 3.6914999999999996e+00 2.2023314693372832e+01 8.8499812100743398e+00 0 0 0
484 2 3.6915000000000004e+00 2.3444173705848499e+01 8.8499812100743398e+00 0 0 0
253 2 4.9220000000000006e+00 2.2733744199610655e+01 5.7752197022192524e+00 0 0 0
255 2 4.9220000000000006e+00 2.1312885187134995e+01 5.7752197022192524e+00 0 0 0
485 2 4.9220000000000006e+00 2.4154603212086325e+01 8.8499812100743398e+00 0 0 0
486 2 4.9220000000000006e+00 2.1312885187134995e+01 8.8499812100743398e+00 0 0 0
487 2 6.1524999999999990e+00 2.2023314693372832e+01 8.8499812100743398e+00 0 0 0
776 2 0.0000000000000000e+00 2.6996321237037659e+01 5.7752197022192524e+00 0 0 0
778 2 0.0000000000000000e+00 2.5575462224561992e+01 5.7752197022192524e+00 0 0 0
780 2 1.2305000000000001e+00 2.4865032718324155e+01 5.7752197022192524e+00 0 0 0
788 2 1.2305000000000010e+00 2.7706750743275496e+01 5.7752197022192524e+00 0 0 0
790 2 2.4610000000000003e+00 2.6996321237037659e+01 5.7752197022192524e+00 0 0 0
792 2 2.4610000000000003e+00 2.5575462224561992e+01 5.7752197022192524e+00 0 0 0
794 2 3.6914999999999996e+00 2.4865032718324166e+01 5.7752197022192524e+00 0 0 0
810 2 3.6914999999999996e+00 2.7706750743275496e+01 5.7752197022192524e+00 0 0 0
1091 2 0.0000000000000000e+00 2.5575462224561992e+01 8.8499812100743398e+00 0 0 0
1092 2 1.2305000000000001e+00 2.6285891730799833e+01 8.8499812100743398e+00 0 0 0
1096 2 1.2305000000000010e+00 2.7706750743275496e+01 8.8499812100743398e+00 0 0 0
1098 2 2.4610000000000003e+00 2.5575462224561992e+01 8.8499812100743398e+00 0 0 0
1099 2 3.6914999999999991e+00 2.6285891730799833e+01 8.8499812100743398e+00 0 0 0
1107 2 3.6914999999999996e+00 2.7706750743275496e+01 8.8499812100743398e+00 0 0 0
812 2 4.9220000000000006e+00 2.6996321237037659e+01 5.7752197022192524e+00 0 0 0
814 2 4.9220000000000006e+00 2.5575462224561992e+01 5.7752197022192524e+00 0 0 0
816 2 6.1524999999999990e+00 2.4865032718324155e+01 5.7752197022192524e+00 0 0 0
840 2 6.1524999999999990e+00 2.7706750743275496e+01 5.7752197022192524e+00 0 0 0
1109 2 4.9220000000000006e+00 2.5575462224561992e+01 8.8499812100743398e+00 0 0 0
1122 2 6.1524999999999990e+00 2.7706750743275496e+01 8.8499812100743398e+00 0 0 0
786 2 1.2304999999999993e+00 2.9127609755751163e+01 5.7752197022192524e+00 0 0 0
808 2 3.6914999999999991e+00 2.9127609755751152e+01 5.7752197022192524e+00 0 0 0
1090 2 0.0000000000000000e+00 2.8417180249513333e+01 8.8499812100743398e+00 0 0 0
1097 2 2.4610000000000003e+00 2.8417180249513326e+01 8.8499812100743398e+00 0 0 0
838 2 6.1524999999999981e+00 2.9127609755751152e+01 5.7752197022192524e+00 0 0 0
1108 2 4.9220000000000006e+00 2.8417180249513336e+01 8.8499812100743398e+00 0 0 0
3912 1 1.4025218190099460e+00 2.0856642962033110e+01 1.1074260268463727e+01 3 0 -1
2670 1 3.9252138456053629e+00 2.0272370875230035e+01 1.1490961445040753e+01 2 -3 0
2735 1 5.6584663050140327e-01 2.3545790961958577e+01 1.1784585726577811e+01 3 -2 1
2627 1 1.8633748636827498e+00 2.8084520730046908e+01 1.2072845649138850e+01 -2 1 0
603 1 5.0504315593689926e+00 2.4964161065638663e+01 1.2198793929166461e+01 3 0 0
4029 1 2.4101721065312716e+00 2.5672269142627911e+01 1.1567480108640826e+01 3 1 0
2564 1 5.8330503944358814e+00 2.2491283672735236e+01 1.1315873400266121e+01 -2 -1 -1
4001 1 1.7792127306410392e+00 2.0879055230901887e+01 1.5380896542964408e+01 -3 4 0
587 1 4.2763882046532418e+00 2.0549727204420428e+01 1.4554632981523731e+01 -2 2 0
2051 1 1.1207099113920103e+00 2.3579524030608059e+01 1.4440511685832799e+01 2 0 0
3900 1 1.9096808225564061e+00 2.1179023193739880e+01 1.8344496029554193e+01 1 -4 0
1999 1 1.7795113251137151e+00 2.8045566894054780e+01 2.5575001700316534e+01 1 2 0
2070 1 2.9000734087853686e+00 2.5382446999811734e+01 1.5864345544048783e+01 -3 -3 0
1934 1 1.7532247846886213e+00 2.7805521751450613e+01 1.4975600212311811e+01 -2 -1 0
1365 1 5.3770636341368645e+00 2.5116690495159666e+01 1.5085637519369856e+01 0 -1 1
2081 1 3.4796213070897899e+00 2.3203062171825486e+01 1.9580922558963515e+01 2 1 0
1431 1 3.1578839865020334e+00 2.3109575424061962e+01 2.2281530148477557e+01 1 2 0
2108 1 3.9659829109240916e+00 2.0714211210447086e+01 2.2809435452444085e+01 -2 1 0
3290 1 2.3706287694616204e-01 2.3548179182113667e+01 2.5451704487444225e+01 2 2 0
3326 1 2.5779709388789089e+00 2.5618088398207441e+01 1.8690620859817095e+01 0 4 0
3294 1 4.4688476106320607e+00 2.7474850345456751e+01 1.9118380979564954e+01 0 0 -1
2099 1 4.1843287463753658e+00 2.7781690772783737e+01 2.1908897421826126e+01 2 -1 1
2602 1 5.2135513686974488e-01 2.3296563320772805e+01 2.2819129158929840e+01 7 1 -1
3345 1 3.6912857735501525e+00 2.0465364229496171e+01 2.5405965403964416e+01 1 2 -1
3265 1 2.8122197035055061e+00 2.3046462302800744e+01 2.6027878252586312e+01 -2 1 -1
3355 1 6.0343333546699007e+00 2.2576918923787140e+01 1.8491639992840092e+01 0 2 0
2007 1 4.3283897665399698e+00 2.7564175150263715e+01 2.6108036770028924e+01 -1 4 0
3951 1 1.6160037305167771e+00 2.8011828381435258e+01 2.2851378705643725e+01 -2 -1 0
2010 1 4.9898072860506701e+00 2.5333535628863071e+01 2.2625455776231320e+01 -1 2 1
1367 1 5.0542264001349100e+00 2.4970418752955887e+01 2.5615105066571495e+01 -1 -4 1
4052 1 7.7934794639198390e-02 2.6157071621691525e+01 1.9418416213194384e+01 0 -2 -1
3955 1 5.9947204113549182e+00 2.2533154440806754e+01 1.5645047588850748e+01 1 -2 1
783 2 0.0000000000000000e+00 2.9838039261988989e+01 2.7004581943579886e+00 0 0 0
785 2 1.2304999999999993e+00 3.0548468768226829e+01 2.7004581943579886e+00 0 0 0
805 2 2.4610000000000003e+00 2.9838039261988989e+01 2.7004581943579886e+00 0 0 0
807 2 3.6915000000000004e+00 3.0548468768226829e+01 2.7004581943579886e+00 0 0 0
835 2 4.9220000000000006e+00 2.9838039261988989e+01 2.7004581943579886e+00 0 0 0
781 2 0.0000000000000000e+00 3.2679757286940330e+01 2.7004581943579886e+00 0 0 0
797 2 0.0000000000000000e+00 3.4100616299415996e+01 2.7004581943579886e+00 0 0 0
801 2 1.2304999999999993e+00 3.1969327780702493e+01 2.7004581943579886e+00 0 0 0
803 2 2.4610000000000003e+00 3.2679757286940337e+01 2.7004581943579886e+00 0 0 0
827 2 2.4609999999999985e+00 3.4100616299415996e+01 2.7004581943579886e+00 0 0 0
831 2 3.6914999999999996e+00 3.1969327780702493e+01 2.7004581943579886e+00 0 0 0
833 2 4.9220000000000015e+00 3.2679757286940337e+01 2.7004581943579886e+00 0 0 0
865 2 4.9220000000000006e+00 3.4100616299415996e+01 2.7004581943579886e+00 0 0 0
799 2 1.2305000000000010e+00 3.4811045805653833e+01 2.7004581943579886e+00 0 0 0
829 2 3.6915000000000018e+00 3.4811045805653833e+01 2.7004581943579886e+00 0 0 0
795 2 0.0000000000000000e+00 3.6942334324367337e+01 2.7004581943579886e+00 0 0 0
819 2 0.0000000000000000e+00 3.8363193336842990e+01 2.7004581943579886e+00 0 0 0
823 2 1.2304999999999993e+00 3.6231904818129486e+01 2.7004581943579886e+00 0 0 0
825 2 2.4610000000000021e+00 3.6942334324367337e+01 2.7004581943579886e+00 0 0 0
857 2 2.4610000000000003e+00 3.8363193336842990e+01 2.7004581943579886e+00 0 0 0
861 2 3.6914999999999996e+00 3.6231904818129486e+01 2.7004581943579886e+00 0 0 0
863 2 4.9220000000000006e+00 3.6942334324367316e+01 2.7004581943579886e+00 0 0 0
902 2 4.9220000000000006e+00 3.8363193336842990e+01 2.7004581943579886e+00 0 0 0
821 2 1.2305000000000010e+00 3.9073622843080841e+01 2.7004581943579886e+00 0 0 0
859 2 3.6915000000000018e+00 3.9073622843080820e+01 2.7004581943579886e+00 0 0 0
782 2 0.0000000000000000e+00 3.1258898274464656e+01 5.7752197022192524e+00 0 0 0
784 2 0.0000000000000000e+00 2.9838039261988989e+01 5.7752197022192524e+00 0 0 0
804 2 2.4609999999999985e+00 3.1258898274464656e+01 5.7752197022192524e+00 0 0 0
806 2 2.4610000000000003e+00 2.9838039261988989e+01 5.7752197022192524e+00 0 0 0
1094 2 0.0000000000000000e+00 2.9838039261988989e+01 8.8499812100743398e+00 0 0 0
1095 2 1.2304999999999993e+00 3.0548468768226829e+01 8.8499812100743398e+00 0 0 0
1105 2 2.4610000000000003e+00 2.9838039261988989e+01 8.8499812100743398e+00 0 0 0
1106 2 3.6915000000000004e+00 3.0548468768226829e+01 8.8499812100743398e+00 0 0 0
834 2 4.9219999999999979e+00 3.1258898274464656e+01 5.7752197022192524e+00 0 0 0
836 2 4.9220000000000006e+00 2.9838039261988989e+01 5.7752197022192524e+00 0 0 0
1120 2 4.9220000000000006e+00 2.9838039261988989e+01 8.8499812100743398e+00 0 0 0
798 2 0.0000000000000000e+00 3.4100616299415996e+01 5.7752197022192524e+00 0 0 0
800 2 1.2304999999999993e+00 3.3390186793178160e+01 5.7752197022192524e+00 0 0 0
802 2 1.2304999999999993e+00 3.1969327780702493e+01 5.7752197022192524e+00 0 0 0
828 2 2.4609999999999985e+00 3.4100616299415996e+01 5.7752197022192524e+00 0 0 0
830 2 3.6914999999999978e+00 3.3390186793178160e+01 5.7752197022192524e+00 0 0 0
832 2 3.6914999999999996e+00 3.1969327780702493e+01 5.7752197022192524e+00 0 0 0
1093 2 0.0000000000000000e+00 3.2679757286940330e+01 8.8499812100743398e+00 0 0 0
1101 2 0.0000000000000000e+00 3.4100616299415996e+01 8.8499812100743398e+00 0 0 0
1103 2 1.2304999999999993e+00 3.1969327780702493e+01 8.8499812100743398e+00 0 0 0
1104 2 2.4610000000000003e+00 3.2679757286940337e+01 8.8499812100743398e+00 0 0 0
1116 2 2.4609999999999985e+00 3.4100616299415996e+01 8.8499812100743398e+00 0 0 0