LAMMPS data file via write_data, version 16 Mar 2018, timestep = 100000

6736 atoms
2 atom types

3.4680515457224104e-01 4.8873194845428522e+01 xlo xhi
3.4539338512582063e-01 4.8674242545285608e+01 ylo yhi
3.8389318064282918e-01 5.9678106819356415e+01 zlo zhi

Masses

1 18.015
2 12.01

Atoms # atomic

4289 1 2.1667266146084270e+00 1.0058763894007031e+01 3.6371551473994117e+00 1 0 1
318 1 4.2080477507722822e+00 3.8673651123656807e+00 2.1892868310637059e+00 0 0 0
3729 1 8.0484753210036715e+00 4.6023522357249433e+00 9.3729607373915180e-01 0 1 0
3744 1 1.0570364009448308e+01 2.2820004427443683e+00 4.0423544672884741e+00 0 0 0
3 1 1.1672585887178585e+01 3.1690931918591101e+00 1.5832192474276143e+00 1 1 1
3587 1 8.2940518415941806e+00 3.9428803389750833e+00 3.5304287230543516e+00 1 0 0
1151 1 1.5358641576440712e+01 2.1315672372936358e+01 5.2155582920549772e+00 0 0 1
108 1 6.0995252165700391e+00 1.0093339157199555e+01 1.1728574503179324e+01 0 1 0
4391 1 5.3601587425614463e+00 5.7470384736635500e+00 4.1717080530027175e+00 0 0 1
1118 1 4.1428817413284467e+00 7.3348389444139990e+00 2.4091121750412605e+00 1 0 1
2479 1 8.8341576961271784e+00 8.4302565445042390e+00 3.5622449870319985e+00 -1 1 0
128 1 4.8022093912172163e+00 1.0868581215355556e+01 2.9453684836464791e+00 2 0 1
504 1 1.5712166525692950e+00 4.7380662615406886e+00 1.7404468939283719e+00 0 1 0
4298 1 8.2168156266758547e+00 7.3881952727708704e+00 8.6238018025836194e-01 1 0 1
2427 1 1.1313023577345874e+01 5.8347707797660044e+00 1.2754289657255178e+00 0 -1 1
2740 1 5.4765241230338093e+00 1.5091431742337491e+01 1.8041453295605279e+00 0 1 1
3660 1 1.5697927359769173e+01 5.9206387134018410e+00 1.4744665876338263e+00 1 0 0
5339 1 1.5284115425039992e+01 6.3991124092963032e+00 4.3936855190710604e+00 0 0 0
4157 1 1.2245321979367771e+01 1.9531800482894596e+01 1.3043168447180231e+00 -1 -1 1
3762 1 1.7048288778024403e+00 7.3472689078705731e+00 1.3404594676431874e+00 1 1 0
2053 1 1.5195194697177004e+00 1.2825178903114107e+01 1.8639228538071038e+00 0 0 0
4254 1 7.7599072555496598e+00 1.0626578780048737e+01 2.4843896437075177e+00 0 0 1
5526 1 8.1523095761684949e-01 1.6454881054250290e+01 1.1826541799136766e+01 1 1 0
5104 1 1.2008770099962227e+01 1.1488501171306641e+01 2.0014546566140448e+00 1 1 0
2866 1 1.4361694874234894e+01 1.0535349712308836e+01 1.8519337543358443e+00 0 0 1
3777 1 2.8190179928255068e+00 1.7328706058316040e+01 4.1165718152610733e+00 0 -1 0
2873 1 9.4884704988475548e+00 2.3325578727481322e+01 1.0088342779015514e+01 1 1 1
3783 1 3.4854028266278179e+00 1.7333016859532481e+01 1.4945038270180715e+00 0 0 0
5801 1 7.1427750283342224e+00 1.4994540435796470e+01 4.2180510940522495e+00 0 1 1
1223 1 1.1166009613010967e+01 1.3568231738663094e+01 3.3279582701397423e+00 -1 1 1
163 1 1.6225514450453964e+01 6.0090562225896949e-01 1.0104786791896451e+01 0 2 0
6225 1 1.1288640192853137e+01 6.9407201979286282e-01 1.0325189576447727e+01 1 1 1
1175 1 1.4025605687085445e+01 1.5018542568725916e+01 3.6948416411293770e+00 0 -1 1
3436 1 1.2641356030606090e+00 2.0823452692247766e+01 2.0703327848058444e+00 1 1 1
2176 1 1.5908020192894078e+01 1.5770350573903105e+01 7.4735127143635243e+00 1 1 0
908 1 1.6384772953578945e+01 2.2344801695705783e+01 8.4901500021936762e+00 0 0 1
2764 1 3.1821156195359568e+00 2.1908153805214415e+01 3.5966115100019569e+00 0 1 1
2172 1 8.5194928556818610e+00 1.7638415473884603e+01 3.4603319083042163e+00 1 1 0
407 1 8.2252350009624404e+00 1.9922101300420216e+01 2.0296944302230058e+00 2 0 0
5469 1 1.3572948803310000e+01 1.8985698187658368e+01 3.9434392640839988e+00 0 0 1
2777 1 1.1666592957100027e+01 2.2437669908314227e+01 1.1488541410618689e+01 1 0 1
917 1 6.6812344263902199e+00 2.3551271547183168e+00 5.0878361263438316e+00 -1 1 1
5850 1 6.4271889398503157e-01 5.3486841807209560e+00 7.9728261451815294e+00 1 -1 0
5454 1 3.9065514594123409e+00 2.4260084604076084e+01 2.7671755045218025e+00 -1 0 0
1779 1 8.6060898742234782e-01 2.1708866657625382e+01 8.2993315744024123e+00 0 -1 1
4293 1 7.9768007839070467e+00 2.4016683016367921e+01 3.9188697318185688e+00 1 -1 1
4143 1 8.2173175190636882e-01 3.9372505632714274e+00 4.5422971272536312e+00 0 0 1
3403 1 7.3829717558148928e+00 2.2502269003291872e+01 1.1504398561509959e+01 1 -1 1
1885 1 1.0410564907226272e+01 2.1560000641142892e+01 1.5412655767898109e+00 1 0 0
4208 1 1.1320714326147494e+01 7.0920591072933092e-01 6.1217875442112630e+00 1 0 1
5379 1 1.2675976488840707e+01 9.3221590998889763e+00 1.0823205575177292e+01 0 -1 0
341 1 1.4387255238271020e+01 2.1916630215243000e+01 2.4491960933185095e+00 0 0 0
347 1 2.8209568665166116e+00 2.5617973039282713e+00 6.0665455548000722e+00 0 0 0
4583 1 8.5386630112455180e+00 5.9935497825402200e+00 4.7833569008212038e+00 0 0 1
2168 1 8.4918354421239428e+00 3.2590765297884929e+00 7.5401224805138582e+00 0 1 0
752 1 8.1868227426888183e+00 6.6370556559733460e+00 1.0151238495294663e+01 0 1 1
3408 1 5.0470875502357773e+00 3.8418056891200050e+00 6.7647282326867986e+00 1 2 1
4330 1 4.8919996359318016e+00 7.8674444425680372e+00 6.3191579445930488e+00 -1 0 1
5351 1 1.2685627734173751e+01 7.0011477855845889e+00 3.2547410794513580e+00 0 1 0
2911 1 1.1201285802534297e+01 5.8691719202067212e+00 5.3072355177166655e+00 -1 1 0
3551 1 1.2987230939296035e+00 1.5545865162756215e+01 8.7635789831485744e-01 1 0 1
6063 1 1.3857232543277410e+01 4.2251864267318648e+00 5.5587391091778686e+00 1 3 1
3818 1 1.3735847140322527e+01 2.0788115683173924e+01 1.0392931699389804e+01 1 -1 0
4416 1 1.3393700296145724e+01 1.0168189747017893e+01 5.8909700667132698e+00 -2 0 1
1748 1 2.1571403978643713e+00 8.6932623787072618e+00 6.0051050261260812e+00 1 0 0
3757 1 1.0003617752968644e+01 1.5637948397861486e+01 2.1370196371967891e+00 1 -1 0
2133 1 3.5710595353741090e+00 1.4198013739345043e+01 3.6239806867010840e+00 1 1 0
5886 1 1.1521718048788854e+01 9.4945075895393654e+00 3.8881227378951118e+00 1 1 1
6043 1 6.4163170216604382e+00 1.0063983613589611e+01 6.6553518762662849e+00 -1 1 1
5552 1 5.7057642861510827e+00 1.2245368759216614e+01 5.2385575549961283e+00 1 1 0
4343 1 9.2157542837800577e+00 1.0526352826188560e+01 5.9583960141193417e+00 -1 -1 1
1090 1 9.1493127866848258e+00 1.3019799317418208e+01 7.4481718199733100e+00 -1 0 0
1782 1 4.3504264394617174e+00 2.0494704507658707e+01 1.0608415901233117e+01 1 0 0
3776 1 1.5353489842460018e+01 9.2002117096061369e+00 4.6031127961285412e+00 0 1 0
2889 1 1.3836587141393064e+01 1.2791644135455474e+01 6.6005282126077578e+00 1 0 1
851 1 4.3442667000104613e+00 7.5194496741546875e+00 1.1972461002393812e+01 0 0 1
425 1 1.5958355860204110e+00 1.2374585768593009e+01 5.8246333995177491e+00 1 0 0
5213 1 1.4559433536450510e+00 1.5269351872324432e+01 5.8780049958106382e+00 0 1 0
5420 1 6.1124230865674409e+00 1.6105138806800422e+01 6.4338951587229465e+00 0 2 0
753 1 8.6801141632483354e+00 1.2600281562415162e+01 3.7464620658578078e+00 0 0 1
6280 1 5.1472172542706094e+00 1.8546983557280981e+01 5.3656929942065403e+00 1 0 0
5855 1 7.5473597177677920e+00 1.5544460528053875e+01 8.7789916736789468e+00 0 0 0
3531 1 1.1457573046095105e+01 1.3904238184427989e+01 6.2221791189854212e+00 0 0 0
3716 1 1.1229854921537713e+01 1.6634414196809900e+01 7.3295891280188092e+00 -1 0 0
3423 1 1.2566691965807088e+01 1.6624894663067167e+01 1.2402017254857240e+00 0 1 0
3540 1 1.3757976772199793e+01 1.6509580032868804e+01 5.9054525109813749e+00 -1 0 1
173 1 4.2131293149535622e+00 1.7546856529183814e+00 3.5880694091463843e+00 1 0 1
316 1 3.5274514958720089e+00 1.9843497997336090e+01 7.6708285356345609e+00 -1 0 0
6236 1 1.2223113599079847e+00 1.7849366806099066e+01 7.5687878898840220e+00 2 0 0
3461 1 5.6595498370485506e+00 2.0387643372294992e+01 3.4047380458310434e+00 0 0 0
1842 1 7.5999698873961261e+00 1.9745431598555140e+01 7.6386336082754598e+00 1 1 0
3524 1 1.1147548537600070e+01 2.0031799307447091e+01 5.4007478991120434e+00 1 1 1
4402 1 9.1799417192718948e+00 1.8326090688957237e+01 6.0097148065395185e+00 0 0 1
1172 1 1.3982081394264561e+01 1.8874656084643888e+01 7.4374769773873020e+00 2 0 1
5899 1 1.4205510807961103e+01 2.3591181300995171e+01 7.1161084019827578e+00 -1 2 1
890 1 1.0052813410825627e+00 2.2262127505867550e+01 5.4036149600278831e+00 1 -1 1
72 1 7.0743249457449169e+00 2.1632143299853926e+01 5.1514729499122449e+00 -1 1 1
4614 1 4.3975655634934787e+00 2.2209092338261936e+01 6.6819471992601480e+00 0 0 1
5229 1 1.6311328596957029e+01 2.0134429806614651e+01 1.3011592688309204e+00 -1 -1 0
2481 1 1.1743241959481104e+01 2.2424478857280736e+01 3.9081801277304815e+00 -2 0 1
2688 1 9.9900385631749113e+00 2.3467838007315979e+01 5.9487676061670705e+00 0 -1 1
1986 1 1.5578589771421296e+01 1.2450950618313602e+01 3.9956759053541888e+00 -1 0 0
2702 1 1.7028673142960760e+00 2.0443744039134192e+01 1.1284093008186387e+01 2 0 1
77 1 1.4125298022799882e+01 1.8008129609430474e+00 6.9757539940108853e+00 0 1 0
2020 1 3.2955902965101687e+00 1.3852608645412511e+01 1.1554175646434834e+01 1 1 0
2870 1 7.1065245914228559e+00 2.1293158014976621e+00 9.7835975768818120e+00 2 1 1
4508 1 1.1365383975541226e+01 3.9029716020705014e+00 7.8904968548236463e+00 1 -1 1
6179 1 1.3432284694012234e+01 1.8788186368281701e+00 9.5909326351484889e+00 0 1 1
359 1 9.5651849017059867e+00 2.7929539278999798e+00 1.0985192419987122e+01 0 0 0
1114 1 5.5728082380479793e-01 1.8618104933632626e+01 3.4407693254953919e+00 0 -1 1
4205 1 7.9977265464083143e+00 1.1941243419195890e+01 1.1698134649440062e+01 -1 0 1
171 1 1.3392550628041060e+00 2.6414058701084167e+00 9.0757809545048751e+00 0 -1 1
496 1 3.0115990787066513e+00 1.5783196650154838e+00 1.2014511885252903e+01 0 1 0
1960 1 3.9932892914344191e+00 2.8194148957874545e+00 9.5659789017133701e+00 0 0 0
6105 1 5.4541191370316451e+00 5.1268185629773733e+00 1.0060002173329449e+01 2 1 1
2718 1 9.0352382600505088e+00 8.9156385327400578e+00 8.4199187899321419e+00 0 0 1
5119 1 1.1294729233639046e+01 7.0141959368675115e+00 7.7925548586908775e+00 -1 1 0
338 1 7.3214922015693000e+00 5.8835149763923189e+00 7.2257888226550371e+00 1 0 0
5532 1 1.0878239839929995e+01 5.3953952325096743e+00 1.0918805364020679e+01 0 0 0
71 1 1.3580266110322363e+01 5.1149364154714103e+00 1.0504331659265484e+01 2 0 0
4584 1 1.4328179713261676e+01 5.8643994288333587e+00 8.0063625630996675e+00 1 0 0
2631 1 1.3805290393765871e+01 8.6887347047193977e+00 8.3658387111372186e+00 -1 1 1
3847 1 1.5159441475325193e+00 1.1930344858519033e+01 8.6068626210672807e+00 -1 0 0
2827 1 2.8721960379701725e+00 9.0747761373601037e+00 9.4014075514524755e+00 1 1 1
6252 1 1.2367812073312333e+01 2.1151931876690753e+01 7.6587659110839938e+00 0 0 1
980 1 5.3863062883080604e+00 1.0348525287134326e+01 9.1395533071625490e+00 1 -1 1
3663 1 3.2916809326193808e+00 6.2222063874985967e+00 8.3213650444903813e+00 0 1 1
4570 1 9.6200094677421308e+00 2.1533485441903156e+01 8.0565903678673756e+00 0 0 1
1857 1 1.0315320096002347e+01 1.2315996405939373e+01 9.7453660086012075e+00 0 1 0
1204 1 6.0639244747169450e+00 2.4120473697141072e+01 9.9501683453899847e-01 1 0 0
4334 1 1.0163846964026924e+01 9.6518422699598574e+00 1.0720923685631677e+01 1 -1 1
2199 1 1.3192456621718867e+01 1.2181913431086169e+01 9.4970369651078332e+00 1 -1 0
5096 1 4.1473639227220396e+00 1.4543124694980069e+01 7.2624096958930533e+00 0 1 0
21 1 3.4192504622927102e+00 1.6427840525318473e+01 9.2068645738078718e+00 2 -1 0
3649 1 6.5251694728137100e+00 1.3956425389493353e+01 1.0743957217991449e+01 0 -1 0
2858 1 4.1854381294894729e+00 1.2763358375881740e+01 9.1757976577828408e+00 1 0 1
5838 1 1.1155559911068156e+01 1.4511111508886154e+01 1.1386044598885888e+01 1 0 1
320 1 1.4247881884666844e+01 1.4232566942490312e+01 1.0985332417774437e+01 -1 0 0
5933 1 6.3144833191745153e-01 2.3587470385978623e+01 1.8387499662909639e+00 -1 -1 1
3805 1 1.2560468759263721e+01 1.7992617987951668e+01 1.0188234253218901e+01 0 1 1
3773 1 1.4986606526186106e+01 1.6410272479224055e+01 1.0170654913995664e+01 1 -1 0
3539 1 5.3999527121900837e+00 2.2618195694205305e+01 9.7188578489363007e+00 0 -1 0
951 1 7.3075082302517291e+00 1.7846246681502809e+01 1.1769002025799022e+01 -1 0 1
5371 1 5.8053087913674934e+00 1.8095658614571633e+01 9.2692684249434052e+00 2 0 0
1875 1 1.0203041809088566e+01 1.6481883644122959e+01 9.7342795996227984e+00 -1 1 0
2665 1 9.2238950065464778e+00 1.9318967757474596e+01 1.0281640015990693e+01 1 0 1
2806 1 1.6250009405679148e+01 2.2279476329346330e+01 1.1401297304473653e+01 -1 0 0
507 1 1.5428957223211871e+01 1.4259734063128747e+01 1.2504166262025080e+00 0 -1 0
3755 1 1.3533787382299364e+01 7.4097680312529928e+00 1.2106063239101564e+01 -1 1 0
479 1 5.7723497209379593e-01 1.3939410917283912e+01 1.0698720552223897e+01 1 -1 0
5123 1 1.6361472592577723e+01 1.3113262946340891e+01 7.5202448274851372e+00 0 0 0
740 1 1.7814996093791342e+00 9.8640455685638262e+00 1.1833998090624782e+01 0 0 1
4375 1 1.6245476744104913e+01 1.9762749018522772e+01 8.1872005235400529e+00 -1 1 1
4358 1 1.6237722482848728e+01 7.9037231429816783e+00 1.2085600593526406e+01 -2 1 1
3447 1 3.6625508799335127e-01 6.4023096298923141e+00 5.3605921502582827e+00 1 0 1
86 1 1.4424076267001098e+01 3.0619091678498460e+00 1.1913102474274567e+01 -1 2 0
1866 1 1.5868603948338073e+01 3.3723116818482293e+00 6.2027818759211650e-01 0 2 0
2793 1 1.4046291415154391e+01 8.0870968167241717e+00 4.1730535511835293e-01 2 -1 1
1933 1 3.8737332821052464e+00 1.7209345774379734e+01 1.2221056527625308e+01 0 1 0
1808 1 1.3709652259112742e+01 1.7472017769621300e+00 4.9619186081719135e-01 1 -1 0
6219 1 3.3442106430967202e+00 3.4699547692133454e+00 1.6222758294514477e+01 1 1 1
405 1 6.0546162060233515e+00 3.7415212580015633e+00 1.2686979578309602e+01 1 1 0
1831 1 7.8251811178559176e+00 5.1831611755401887e+00 1.6387386973381936e+01 -1 0 0
1722 1 9.7372451769570016e+00 3.2966376888130662e+00 1.3925121571095380e+01 1 1 0
1795 1 1.7667700901978010e+00 1.1702109627363020e+01 1.6523703417513840e+01 -3 0 0
4455 1 4.6988621708391454e-01 1.2074098301642058e+01 2.3688138026676668e+01 0 0 1
4441 1 1.1662206917956572e+01 2.4039658401662347e+00 2.3667056522009901e+01 0 1 1
840 1 8.6291568854986389e-01 7.5378437635684232e+00 1.3398227132331021e+01 0 1 0
2897 1 8.1483389184082213e+00 9.1916479797417239e+00 1.7798824163906254e+01 1 2 1
4109 1 1.4530850888169653e+00 8.6069739961849940e+00 1.6420090052110186e+01 1 0 0
3534 1 1.0084721497371410e+01 6.1296833639777732e+00 1.3577424764986411e+01 0 0 1
1127 1 7.8735257200425295e+00 7.8876854070471367e+00 1.2494598552739074e+01 -1 1 1
2717 1 6.2448778338362567e+00 6.1036580712295407e+00 1.4024538816581281e+01 1 0 1
4524 1 1.2744643487593475e+01 7.1741228333686973e+00 1.4483223398046235e+01 0 1 1
6160 1 4.3272946246300243e+00 1.0055141750795578e+01 1.5937692718405758e+01 1 0 1
6171 1 2.9728541539628850e+00 2.4210877541338327e+01 2.0749030347918456e+01 1 -1 1
4319 1 3.8991694175308687e+00 1.0747875344956320e+01 1.2960779806696769e+01 0 1 1
2720 1 8.7129032490702656e+00 1.2167737273831639e+01 1.4239729778976892e+01 -1 0 1
5494 1 2.2720884273891109e+00 2.2806647191418449e+01 1.2425166995576722e+01 2 0 0
5113 1 3.1734392560959219e+00 1.5073022040066435e+01 1.4216156269992668e+01 0 0 1
4294 1 1.1731318738870730e+01 2.2082737959952636e+00 2.0984350141708358e+01 0 -1 1
2178 1 9.0000103207780970e+00 1.1629548109446000e+00 2.3602190184726350e+01 0 0 0
510 1 5.9969566339801643e+00 1.5083531262518761e+01 1.3218997265999684e+01 1 -1 0
2212 1 1.8254368961986047e+00 1.3065440189374651e+00 1.7012440528056111e+01 1 1 0
5470 1 1.1326318492645436e+01 1.3009872916359091e+01 1.3642802840322020e+01 1 0 0
5576 1 1.4249280647394636e+01 1.4772962736117956e+01 1.3896661205896047e+01 0 -1 0
5231 1 1.3293068572843438e+01 1.0952422920108859e+01 1.2969569425017992e+01 0 1 0
4280 1 5.8012992845338673e-01 2.3567998963872800e+01 1.9110967572175309e+01 1 -1 1
5290 1 4.7460260760182589e+00 3.6241985668756667e+00 2.3846195019412157e+01 1 -1 0
277 1 1.3133600298221548e+00 9.6273234461439134e+00 1.9359102084039037e+01 0 0 0
3464 1 7.1588080862016623e+00 1.8710162548118237e+01 1.7034580498098364e+01 0 1 0
4424 1 3.9419868052395786e+00 1.9729441571526351e+01 1.4846163500101294e+01 1 0 1
201 1 1.2423279342503022e+01 1.6655054460479754e+01 1.6246288906654243e+01 0 1 0
3671 1 1.0926657464343242e+01 1.8330058810038015e+01 1.4098596350047421e+01 0 0 0
100 1 2.3541592052599341e+00 5.0962943102225742e+00 1.2248118127298207e+01 1 1 1
2794 1 1.0605862960357470e+01 8.5585604533423094e+00 2.3671472888182091e+01 0 0 1
3451 1 1.7126341069234112e+00 2.1682493980931167e+01 1.7485417594790640e+01 1 1 0
5936 1 2.8810177188489097e+00 2.2400826059788940e+01 1.5165846029943371e+01 2 1 1
422 1 7.6648970752488701e+00 2.4180745142814573e+01 1.3807789744614285e+01 -1 1 0
3560 1 5.3132058150378398e+00 2.3305780377134820e+01 1.5671810060940965e+01 0 -1 0
5437 1 8.7736289736103359e+00 2.2917476547801812e+01 1.7518973968950835e+01 0 0 0
36 1 1.6065795416831403e+01 2.3551078677409048e+01 2.3295142399554990e+01 1 1 0
3378 1 2.7651760944943438e+00 2.3413989590467015e+00 2.0834441854643643e+01 2 0 1
759 1 2.5507997454762523e+00 6.1302013953459555e+00 1.7366969656842919e+01 0 0 1
2738 1 1.6444189559713163e+01 1.8742601073702051e+01 1.6840575928408754e+01 1 0 0
839 1 5.6085466282115899e+00 3.2875296057091656e+00 1.8297188563215698e+01 -1 0 0
5970 1 7.7089965256965360e+00 1.4882335770963731e+00 1.8598697789041498e+01 0 1 1
1890 1 5.1351084127534792e+00 4.7231753540104471e+00 2.1197539703213113e+01 0 0 0
3483 1 9.3614520663822738e+00 2.1991426107983632e+00 1.6709392461011234e+01 0 0 0
484 1 9.5643979440507838e+00 6.3560945754412068e-01 2.0550404228246698e+01 0 0 0
5335 1 1.1100843818558221e+01 4.2377144619949316e+00 1.7733969164289523e+01 1 0 0
435 1 1.0271404111627543e+01 6.4012906882254166e+00 1.6490856915289413e+01 1 1 0
861 1 1.5182345101524236e+01 4.0774983517410330e+00 1.9602920422671634e+01 2 1 0
2184 1 1.3966465505251566e+01 4.1347365278474744e+00 1.7156456964511037e+01 -2 1 0
5495 1 6.8208205987600792e+00 6.9517320878032773e+00 1.8161892980848393e+01 -1 2 0
5154 1 8.7371851575240491e+00 6.4286326574948296e+00 2.0591416134306630e+01 1 1 1
862 1 1.5153038611090270e+01 6.4300173536284602e+00 1.6204516123605359e+01 1 -1 1
6235 1 1.2432017770520401e+01 1.0542757739428794e+01 1.6933420622408228e+01 0 0 0
3377 1 6.2684133642204776e-01 1.2287270815816285e+01 2.0973272770022461e+01 -1 0 0
372 1 3.2788293252395335e+00 8.9554744068446936e+00 2.1166793193302599e+01 0 -1 0
5810 1 4.7289853684438192e+00 7.2466686633328523e+00 1.5966174206846818e+01 1 0 1
4487 1 6.1574403389447268e+00 1.1477827901930866e+01 1.7833845680691226e+01 2 0 1
5540 1 7.0897242932045010e+00 1.3371852274463722e+01 1.5863515782153069e+01 2 2 0
928 1 7.4324920680581892e+00 1.1276573659916004e+01 2.0362776397188554e+01 0 0 1
1716 1 5.3239897770557016e+00 1.5013368163979429e+01 1.9588072852302503e+01 0 0 1
2791 1 8.9879474318492516e+00 9.6915696403869465e+00 1.4803450431787288e+01 -1 1 1
3713 1 1.0615847635074179e+01 8.6601459838374080e+00 1.8118652182721714e+01 1 0 0
3774 1 1.0153782607459211e+01 1.3571512038542485e+01 2.0502566726029031e+01 -1 2 0
3568 1 1.1820046509833499e+01 9.6480208182589422e+00 1.4724609237866893e+01 0 0 0
3480 1 1.3600515996239061e+01 1.1063431172787357e+01 1.9814112999211559e+01 0 0 0
3472 1 4.3578717163465468e+00 1.4889835353744571e+01 1.6674620372252836e+01 1 1 1
1861 1 8.7329389057036160e+00 1.1169683931784322e+01 2.3135969347182513e+01 -1 0 1
206 1 4.1255588008390109e+00 1.7873936743466007e+01 1.6926814035779032e+01 1 0 0
4421 1 7.4678801547980926e+00 1.6275110734844468e+01 1.5463212294036623e+01 -1 1 1
882 1 9.4539816698755956e+00 1.4479688327611438e+01 1.7625255495787961e+01 0 1 1
3679 1 1.5140143240107077e+01 1.2557056784722178e+01 1.6158112329137047e+01 1 1 0
4556 1 1.1976409425196252e+01 1.3946150772593766e+01 1.6530941964318707e+01 1 0 0
4150 1 1.4321833539720832e+00 1.9237973143843394e+01 1.3710918893894918e+01 0 1 0
2760 1 2.6951556711160967e+00 2.0174069933372717e+01 1.9668382435676527e+01 1 -1 1
789 1 9.3786869787966882e+00 1.6184562926965619e+01 1.3297756117483445e+01 0 0 1
4412 1 5.3951677716809083e+00 1.9468736341378410e+01 1.9473494047477335e+01 1 0 1
2425 1 9.7317718156614745e+00 1.7449554063081475e+01 1.7456490153603319e+01 0 -1 1
5847 1 8.9965667733629537e+00 2.1948402800351086e+01 1.9963824582557947e+01 1 0 1
3602 1 1.4046321469092673e+01 1.7570265699823580e+01 1.7800823413664354e+01 1 1 0
57 1 1.3000812343166658e+01 1.9813223375857394e+01 1.8659488695261071e+01 1 0 1
94 1 1.6493076020383416e+01 1.6647576432687664e+01 1.4436323508438377e+01 -1 1 1
4518 1 8.0256397108683863e+00 1.8357335316625136e+01 2.4028224723035436e+01 1 2 1
2731 1 7.3422024582333645e+00 2.1007584277296008e+01 1.5855680470203596e+01 1 2 0
2751 1 5.6928033285739774e+00 2.4035163463396128e+01 2.0330171412811101e+01 0 0 1
3516 1 1.0416370239210263e+01 1.9943380429046140e+01 1.6472459925840713e+01 2 0 0
2829 1 1.4237377767710370e+01 1.8245415839336083e+00 2.0436147237224230e+01 0 0 0
166 1 1.3550986473244928e+01 2.1748747798891070e+01 1.6557254118672002e+01 -1 0 0
2038 1 1.5449712357350716e+01 2.1029280736202331e+01 1.5032009304880694e+01 1 -1 0
3418 1 4.7522570005695702e-01 1.6840487213019426e+01 2.2284205304582208e+01 0 2 1
3705 1 7.7096388939339109e+00 3.4721647631036023e+00 2.3636942003359405e+01 2 1 0
5363 1 2.3058773185974082e+00 1.3791042385073117e+01 1.8079573328180750e+01 1 0 0
3476 1 1.3906054225626811e+01 5.6665014931731505e+00 2.3672269046892175e+01 0 0 0
138 1 7.7186746091063441e+00 3.3908836266243250e+00 2.0897048664402728e+01 0 0 1
182 1 1.3493995342729075e+01 8.8855520624657913e+00 2.3760916392501141e+01 1 0 0
2647 1 1.1594083329347602e+00 1.7611546540777482e+01 1.7281880934897384e+01 0 0 0
1131 1 1.1092600304345600e+01 4.6292154950888609e+00 2.0318872291814337e+01 -1 1 1
377 1 3.7179806983939816e+00 3.4136650127819936e+00 1.3566887430501557e+01 0 0 0
1006 1 7.9718713384939521e+00 2.0799705130631303e+01 2.3479830004245255e+01 1 0 1
4283 1 1.4964322574699866e+01 1.9389640061435752e+01 1.2856071265870000e+01 0 1 1
1721 1 1.2420276836664765e+01 2.5561402209017778e+00 1.4345560329381671e+01 -1 1 0
3613 1 1.4617820017703487e+01 1.3117448523548363e+01 2.2857067274888561e+01 0 0 0
3754 1 1.2883875251513434e+01 1.1686859459757288e+01 2.3943885389653481e+01 1 -1 0
4618 1 3.0539170951612427e+00 2.0129337469938427e+01 2.3808593374426000e+01 -2 0 1
1905 1 1.8957409097830729e+00 5.2950598045986563e+00 2.1335164259969780e+01 0 1 0
5344 1 1.2823683253747653e+01 2.4096876900583613e+01 1.6004499447636437e+01 0 0 0
179 1 4.0921575295867960e+00 6.7588909587544457e+00 1.9628450930811223e+01 0 1 0
323 1 6.3152516962052219e-01 3.9226040824264654e+00 1.8789202716254138e+01 0 1 0
4290 1 1.1142097953153865e+01 8.2851535173726401e+00 2.0530450854455751e+01 0 0 1
1207 1 1.5499448613407736e+01 1.6707971107923093e+01 2.0102792041349336e+01 0 1 1
273 1 6.7346047438989372e+00 8.4164577752942762e+00 2.1442721519115356e+01 1 1 0
6075 1 9.0367016116920791e+00 6.3581705987126673e+00 2.3294569989075974e+01 1 0 1
5825 1 1.4348194339247634e+01 8.7308800801849813e+00 2.1201210505289115e+01 0 2 1
233 1 1.3598086244635134e+01 5.9426556180714503e+00 2.0998317165865686e+01 0 1 0
87 1 6.4574868536331795e+00 2.0143310512607364e+01 1.2802788038175940e+01 0 -1 0
283 1 4.9555793260042185e+00 1.1960623663050548e+01 2.3924730370137823e+01 0 0 0
3827 1 4.7664966444572761e+00 1.1238396041853623e+01 2.1516336807694405e+01 -1 0 0
1940 1 5.0761044813502521e+00 2.1993671442005297e+01 2.3622097380146993e+01 0 -1 0
1856 1 7.2584804643594829e+00 1.5468347364211992e+00 1.3645481815618172e+01 0 1 1
1911 1 1.1167389531716976e+01 1.1070102403206331e+01 2.1387656500407790e+01 0 0 0
775 1 1.0048897711480533e+00 4.3318245255384795e+00 2.3709241360461025e+01 0 0 1
4451 1 1.5393013128575511e+01 1.2902790580013676e+01 1.9486414959957546e+01 0 2 1
5539 1 3.2510070739012331e+00 1.3324040688520142e+01 2.0593909443763785e+01 -1 0 0
208 1 1.3092998130363924e+01 1.7192217845088997e+01 1.3079425156426272e+01 0 0 0
14 1 7.6430947856864053e+00 1.4174426473170726e+01 2.1244465255232640e+01 0 1 0
4596 1 1.5288969657657679e+01 1.7654260257315794e+01 2.2678914437684575e+01 1 0 1
5439 1 6.3779170201157491e+00 7.1259310963700742e+00 2.3808797884228547e+01 1 0 0
5435 1 1.1546075483107483e+01 1.5681574675922670e+01 2.1026712325690518e+01 0 0 0
351 1 9.8785612301250598e+00 2.2675575331423442e+01 1.4519615466925323e+01 1 0 0
2808 1 1.3403137610766981e+01 1.4541381678023859e+01 1.9037707328769759e+01 0 3 0
2145 1 4.1684259128562804e+00 1.0533997304911424e+00 1.8787080501842102e+01 3 0 0
230 1 4.8885573411437084e+00 1.7064418789751951e+01 2.0651460264459256e+01 0 0 0
5964 1 3.1974229853537266e+00 1.7366645935402726e+01 2.2689474496056349e+01 0 0 1
3765 1 6.2795589649641501e+00 2.1520262256863102e+01 2.1122388463000952e+01 -1 0 0
221 1 7.5330730739163103e+00 1.7133517159172886e+01 2.1786939401680105e+01 0 2 0
1053 1 1.0016869243113193e+01 2.2618415377884869e+01 2.3817616190129645e+01 -1 1 1
4190 1 2.8358817445456941e+00 1.4091741827586512e+01 2.3259537624287045e+01 0 0 1
160 1 9.7615607916999885e+00 1.7678839544353536e+01 2.0218590594155604e+01 -1 1 1
180 1 1.0824391076548793e+01 1.9998772162943531e+01 2.0328455417635624e+01 1 0 0
5373 1 1.1633536572362972e+01 2.0679135372323600e+01 2.2803608411934576e+01 0 -1 0
5987 1 1.5349878914047313e+01 2.0850245577345163e+01 2.0080494291670622e+01 0 0 1
282 1 1.4271213833934263e+01 2.0252064961121004e+01 2.2318535248170097e+01 1 -1 0
5891 1 1.4866656448511922e+01 1.3153491485123305e+00 1.5746558917402970e+01 -1 0 0
927 1 1.1903328963935982e+01 1.5625460027200088e+01 2.3761869343786532e+01 -2 0 1
5272 1 1.5432984657044461e+01 2.3768039130567381e+01 2.0523175157156739e+01 1 0 0
2805 1 1.8245536069877730e+00 2.1886183013877364e+01 2.2164126284624725e+01 0 0 1
1133 1 2.0553633519802741e+00 8.2170289629322966e+00 2.3307348566079384e+01 -1 2 1
2080 1 1.6344057504574209e+01 1.2254282177268207e+01 1.3530060642410463e+01 1 0 0
1075 1 1.5355276545361823e+01 9.5241480356119759e+00 1.6307102310656337e+01 0 0 0
119 1 9.6270263702680090e+00 2.4070268870115950e+01 2.1594277934022383e+01 0 -1 1
6086 1 1.4445497340117418e+01 9.8105669843733712e-01 2.2875572041400819e+01 -1 2 1
118 1 3.5166783695691066e+00 1.2002879283825008e+00 2.3112723555504491e+01 -1 0 1
255 1 5.1903174080911396e-01 1.3481611965226111e+01 1.4328017103193691e+01 1 -1 0
2694 1 9.6535604609422041e+00 2.0396456261994039e+01 1.2786229936219662e+01 0 1 0
5186 1 1.5112815873881972e+01 3.6207934035544840e+00 2.3964886497254255e+01 1 1 0
2681 1 6.2543949044726173e+00 1.4548805401538120e+01 2.3799708514769232e+01 -1 0 1
1814 1 1.0782319625145181e+01 1.8279631738547799e+01 2.4085476812156596e+01 0 -1 1
511 2 3.4680515457224104e-01 3.1470658002074550e+00 2.6763224259868114e+01 0 0 0
512 2 3.4680515457224104e-01 3.4539338512582063e-01 2.6763224259868114e+01 0 0 0
513 2 1.5599648968436632e+00 1.0458114888962564e+00 2.6763224259868114e+01 0 0 0
517 2 1.5599648968436632e+00 2.4466476964371360e+00 2.6763224259868114e+01 0 0 0
518 2 2.7731246391150854e+00 3.1470658002074550e+00 2.6763224259868114e+01 0 0 0
519 2 2.7731246391150854e+00 3.4539338512582063e-01 2.6763224259868114e+01 0 0 0
520 2 3.9862843813864153e+00 1.0458114888962564e+00 2.6763224259868114e+01 0 0 0
528 2 3.9862843813864153e+00 2.4466476964371360e+00 2.6763224259868114e+01 0 0 0
529 2 5.1994441236579299e+00 3.1470658002074550e+00 2.6763224259868114e+01 0 0 0
530 2 5.1994441236579299e+00 3.4539338512582063e-01 2.6763224259868114e+01 0 0 0
531 2 6.4126038659292739e+00 1.0458114888962564e+00 2.6763224259868114e+01 0 0 0
543 2 6.4126038659292739e+00 2.4466476964371360e+00 2.6763224259868114e+01 0 0 0
544 2 7.6257636082005895e+00 3.1470658002074550e+00 2.6763224259868114e+01 0 0 0
545 2 7.6257636082005895e+00 3.4539338512582063e-01 2.6763224259868114e+01 0 0 0
546 2 8.8389233504720934e+00 1.0458114888962564e+00 2.6763224259868114e+01 0 0 0
562 2 8.8389233504720934e+00 2.4466476964371360e+00 2.6763224259868114e+01 0 0 0
563 2 1.0052083092743619e+01 3.1470658002074550e+00 2.6763224259868114e+01 0 0 0
564 2 1.0052083092743619e+01 3.4539338512582063e-01 2.6763224259868114e+01 0 0 0
565 2 1.1265242835014757e+01 1.0458114888962124e+00 2.6763224259868114e+01 0 0 0
585 2 1.1265242835014757e+01 2.4466476964371360e+00 2.6763224259868114e+01 0 0 0
586 2 1.2478402577286307e+01 3.1470658002074550e+00 2.6763224259868114e+01 0 0 0
587 2 1.2478402577286307e+01 3.4539338512582063e-01 2.6763224259868114e+01 0 0 0
1578 2 1.6117881804101010e+01 2.3459190809549600e+01 3.3298775740135660e+01 0 0 0
588 2 1.3691562319557871e+01 1.0458114888962564e+00 2.6763224259868114e+01 0 0 0
609 2 1.3691562319557871e+01 2.4466476964371360e+00 2.6763224259868114e+01 0 0 0
610 2 1.4904722061828938e+01 3.1470658002074550e+00 2.6763224259868114e+01 0 0 0
611 2 1.4904722061828938e+01 3.4539338512582063e-01 2.6763224259868114e+01 0 0 0
612 2 1.6117881804101010e+01 1.0458114888962564e+00 2.6763224259868114e+01 0 0 0
633 2 1.6117881804101010e+01 2.4466476964371360e+00 2.6763224259868114e+01 0 0 0
514 2 3.4680515457224104e-01 7.3495744228299129e+00 2.6763224259868114e+01 0 0 0
515 2 3.4680515457224104e-01 4.5479020077484513e+00 2.6763224259868114e+01 0 0 0
516 2 1.5599648968436632e+00 5.2483201115187041e+00 2.6763224259868114e+01 0 0 0
524 2 1.5599648968436632e+00 6.6491563190596539e+00 2.6763224259868114e+01 0 0 0
525 2 2.7731246391150854e+00 7.3495744228299129e+00 2.6763224259868114e+01 0 0 0
526 2 2.7731246391150854e+00 4.5479020077484513e+00 2.6763224259868114e+01 0 0 0
527 2 3.9862843813864153e+00 5.2483201115187041e+00 2.6763224259868114e+01 0 0 0
539 2 3.9862843813864153e+00 6.6491563190596539e+00 2.6763224259868114e+01 0 0 0
2840 1 9.1322480953361946e+00 1.9525301752629783e+01 3.5857986374316567e+01 -1 0 0
540 2 5.1994441236579299e+00 7.3495744228299129e+00 2.6763224259868114e+01 0 0 0
541 2 5.1994441236579299e+00 4.5479020077484513e+00 2.6763224259868114e+01 0 0 0
542 2 6.4126038659292739e+00 5.2483201115187041e+00 2.6763224259868114e+01 0 0 0