LAMMPS data file via write_data, version 16 Mar 2018, timestep = 6000000

6736 atoms
2 atom types

1.7975593891814157e-01 4.9040244061078965e+01 xlo xhi
1.7902419101812939e-01 4.8840611739401716e+01 ylo yhi
1.7977637029489202e-01 5.9882223629694124e+01 zlo zhi

Masses

1 18.015
2 12.01

Atoms # atomic

2155 1 1.1471530137101253e+00 1.8847053076954949e+00 2.4447827789607315e+00 1 1 0
53 1 1.9282973269105590e+00 4.5041914706317927e+00 1.4601681528165524e+00 2 2 0
218 1 5.7624800434513119e+00 2.2808863467930385e+00 1.2443993968293947e+00 4 -4 0
21 1 4.6734202255513519e+00 4.5637848082591228e+00 2.1702336308535992e+00 2 2 0
5417 1 1.0060308416834161e+01 2.2311632080423554e+01 9.8488177833593618e+00 -2 1 0
2657 1 8.4801925725483986e+00 2.5930309360150754e+00 2.1766323931269511e+00 3 -1 1
3660 1 1.4751678286225451e+01 2.2475447495150693e+01 5.8707083514378899e+00 2 -5 0
100 1 1.6077748015662074e+01 5.0380671811303888e+00 1.1929380904771952e+01 1 1 1
6053 1 1.3861249965395178e+01 2.3841446988328272e+00 1.2385867461314548e+00 -2 0 1
6244 1 7.4707402779883134e+00 2.2407347450196180e+01 8.9490752999986505e+00 0 1 1
4449 1 1.1062101625881859e+00 6.8504979075506451e+00 2.8385230294965735e+00 0 3 1
3713 1 2.5543278684352737e+00 8.5602356201059600e+00 1.6239737246110590e+00 2 -3 0
5892 1 6.3277340457985387e+00 6.7332772856750953e+00 1.5726472153645759e+00 -2 2 1
6216 1 8.6767036395868828e+00 7.0049296314693006e+00 2.5826174302303793e+00 -1 -1 1
2804 1 1.0051235917338808e+01 4.8666332723081611e+00 1.3655726804252204e+00 2 1 1
4343 1 1.2681668273936129e+01 4.7554718791870378e+00 2.0028971295297948e+00 1 4 1
6124 1 1.3677458385194655e+01 7.1235506455651754e+00 1.3536022539444703e+00 5 1 1
4168 1 1.6245569690059448e+01 2.5510705562923328e+00 2.3679783117818238e+00 -4 -1 1
5356 1 1.1810886094557764e+00 1.0881017089323224e+01 2.5626721866136908e+00 2 1 0
3534 1 5.0210381817959906e+00 8.7868549012775876e+00 2.5186102609156169e+00 -3 0 1
3459 1 6.3088779345240980e+00 1.1047187166322903e+01 1.4114060683779606e+00 -1 1 1
326 1 8.7142824229609364e+00 1.0962294496025017e+01 2.7053061143805457e+00 -1 1 0
5345 1 1.0108505197245506e+01 8.9889014943688093e+00 1.5627649882862198e+00 4 -3 1
5470 1 1.2505439435305199e+01 9.1658183283395829e+00 2.3808266299509011e+00 0 -1 0
3442 1 1.5821195312934494e+01 1.6102331641200248e+01 4.9630203127490731e+00 2 1 0
5340 1 1.3837589960323889e+01 1.1489187385941294e+01 1.3603015259266182e+00 2 -1 0
2828 1 2.5999895996148825e+00 1.2924254510395217e+01 1.5440584423707575e+00 2 0 1
1070 1 1.5202824833889690e+00 1.5379707948563341e+01 2.8738376192665043e+00 6 3 1
183 1 5.1946523844637387e+00 1.3129692429193527e+01 2.5096193737374670e+00 0 6 0
220 1 6.1787503293392376e+00 1.5504396450927636e+01 1.9558405196290738e+00 -2 3 0
2572 1 8.9733108186653947e+00 1.5231976333040086e+01 2.4610012061150099e+00 -3 0 1
4345 1 9.9240233113888152e+00 1.3018259453749900e+01 1.5426864055163763e+00 0 -2 1
1099 1 1.2518401518360806e+01 1.3767510121366129e+01 2.5514368266540486e+00 -2 -4 1
10 1 1.3651431403577078e+01 1.5663862430268178e+01 1.2797661290295859e+00 2 0 0
182 1 1.0065644288932331e+01 6.4635754193614892e-01 9.9397851364042111e+00 3 -1 0
1893 1 2.6880602909414928e+00 1.7630073183648392e+01 1.8299540824820522e+00 1 1 1
3653 1 1.3201575707276278e+00 2.0014318731904829e+01 2.1659816329678585e+00 4 -3 0
84 1 5.0313240549808285e+00 1.7784598895473657e+01 2.7892320344607273e+00 -1 4 0
6297 1 6.1455385233632303e+00 1.9907147159886843e+01 1.5980890546005622e+00 1 0 0
3545 1 9.0063019724927500e+00 2.0157265090044060e+01 2.6648299776887083e+00 -1 4 0
5099 1 9.6182476812173778e+00 1.7859265804831207e+01 1.5415013972177520e+00 4 3 0
828 1 1.2476787522196501e+01 1.7948842896438521e+01 2.1451120032695199e+00 4 1 1
6014 1 1.3785776969540869e+01 2.0169815322129047e+01 1.3736280238366638e+00 -1 -2 1
980 1 1.1360625766533865e+01 2.0171832947912215e+01 9.0415934182045774e+00 1 -4 1
116 1 9.9166865440568195e+00 1.7809411336365208e+01 9.7941417884116255e+00 0 3 0
2826 1 2.5697423811098026e+00 2.2261514370762796e+01 1.5668978851054916e+00 2 0 1
4130 1 5.0708780553058990e+00 2.2118738676458413e+01 2.3867800968467656e+00 1 3 0
3554 1 1.4260451285591962e+01 2.2546681278627421e+01 8.7021885851616965e+00 0 4 0
2682 1 9.8551202045804285e+00 2.2455449588951183e+01 1.5263657957357677e+00 2 -1 1
5234 1 1.2287863705802078e+01 2.2217920516817561e+01 2.4127403186345497e+00 -2 1 0
3399 1 3.5822472941240346e+00 2.4767152204682921e+00 6.3564214957418779e+00 -3 4 0
2730 1 7.3365411413506143e-01 2.1782417068744113e+00 5.1830823049328698e+00 -1 0 1
4258 1 2.4813932003487955e+00 2.2388092537028975e+01 9.6219092845023706e+00 -2 -3 1
2473 1 4.3616110612036145e+00 4.5575204971308230e+00 5.1240494874416918e+00 2 3 1
3408 1 8.4147343759381652e+00 3.1236299335260687e+00 5.0010161010877630e+00 2 2 1
3863 1 1.1164232789508134e+01 2.5105570524501108e+00 5.9058622793015418e+00 0 3 0
5282 1 8.4907397754328007e-01 6.9782607242965886e+00 5.5978998825099566e+00 2 -4 0
3546 1 3.4280676212946686e+00 6.8133314401727443e+00 6.1005550984411068e+00 -3 2 0
2570 1 7.0352679955569180e+00 5.1936298263748313e+00 5.9334891300231014e+00 0 4 1
117 1 8.3276796435173281e+00 7.2772048370172921e+00 5.2893773583974220e+00 1 -4 0
3782 1 1.0907944377038529e+01 6.5478959213618637e+00 6.0976733810511297e+00 4 3 0
156 1 1.2537953382317450e+01 4.5484312716527517e+00 4.9343714762239594e+00 -1 3 0
5428 1 1.4974706339639038e+01 5.0409611006841457e+00 5.9085853766163865e+00 0 1 0
1721 1 1.5798857664807286e+01 7.3079601671295533e+00 4.8538918251696836e+00 -2 3 0
6064 1 1.0328450839310515e+00 1.0884317794291571e+01 5.3166270622331337e+00 3 -3 1
2107 1 3.3612661398309687e+00 1.1172100732771034e+01 6.2184203360499817e+00 0 -1 0
932 1 4.6579681046956951e+00 9.0100515203242733e+00 5.2058084205340434e+00 0 -1 1
265 1 7.1528331084119818e+00 9.2680144684601586e+00 6.6654961876577943e+00 -2 0 0
5429 1 8.5332119336539218e+00 1.1400365178130389e+01 5.4764272180949982e+00 -1 0 0
824 1 1.3738317088751367e+01 1.0978333990529928e+01 5.8495214304678784e+00 0 1 1
3806 1 3.5322869736102773e+00 2.4254279000140009e+01 6.1666431512268201e+00 -3 1 0
4616 1 1.3145957409961660e+01 8.2194210837750443e+00 5.0394332953769512e+00 1 0 1
1112 1 1.1187657167683374e+00 1.5548183793273330e+01 5.5341726188777329e+00 1 0 1
2793 1 3.7938358078088803e+00 1.5567198806026280e+01 6.2037084470851900e+00 2 -2 1
1139 1 4.9135150629444571e+00 1.3502793992684936e+01 5.1877616202959311e+00 3 1 1
1944 1 7.2009819115159912e+00 1.3419614654523501e+01 6.3495072758930737e+00 -1 2 0
6027 1 8.7899528553488260e+00 1.5393657069875646e+01 5.2636476631089710e+00 0 -1 1
4446 1 1.1369713653311114e+01 1.4451060398006843e+01 6.2944269086955096e+00 0 3 1
353 1 1.1109341196188815e+01 1.1566444051339486e+01 6.5378158270417970e+00 -5 -1 0
491 1 1.3714024246221516e+01 1.3742536648437026e+01 4.5539058660142837e+00 1 -3 1
3537 1 1.1261811267048789e+00 2.0069020287243092e+01 4.8975377082944318e+00 3 -1 1
3846 1 3.3057132140645051e+00 1.9769888339669958e+01 6.2029305792530582e+00 -2 0 1
5987 1 5.1602523693766287e+00 1.7852498691662920e+01 5.5914922201141675e+00 3 -4 1
1853 1 7.9808871859879584e+00 1.7928594404302935e+01 6.0070977995672807e+00 4 0 0
3709 1 8.8489983566878454e+00 2.0313063737960320e+01 5.2861941518295357e+00 2 -1 0
1985 1 1.2892964255660187e+01 1.8815808740433145e+01 4.8896300626515306e+00 -4 1 0
4181 1 1.3686760320715276e+01 1.6617009835395010e+01 6.2747639252189735e+00 -2 -3 1
790 1 1.5414522335717356e+01 1.9965739613724871e+01 4.8640996862531845e+00 1 1 0
5355 1 1.2486781998933091e+01 3.9296390761879008e-01 5.1249399834496163e+00 1 -1 0
737 1 4.8526872747842722e+00 2.1894391987968142e+01 5.1569739607944225e+00 4 -2 0
5850 1 7.4856063851387367e+00 2.2532699548589356e+01 6.2457498991868485e+00 2 -1 0
4256 1 1.1319770293775569e+01 2.0505697856776194e+01 6.2820698236086381e+00 -2 0 1
4378 1 1.2311802822045408e+01 2.2574834961378198e+01 5.2193755348423609e+00 3 3 1
31 1 1.6052058921711392e+01 7.1276670173618717e+00 2.3591502649277030e+00 0 -1 0
4360 1 3.5387757657942762e+00 2.2816581460860790e+00 9.1551509886597255e+00 -2 -2 1
5538 1 6.1355144016522063e+00 2.4506495381066018e+00 9.8018429618195544e+00 4 -1 0
5577 1 1.3968319344440671e+01 1.9702375771198753e+01 9.8668178991910818e+00 -4 -1 0
5820 1 1.1207495434977924e+01 2.7801915250322620e+00 8.5638573982360011e+00 0 4 1
3644 1 1.4633900246818738e+01 1.7191090621538322e+01 8.9741284395301513e+00 -1 7 0
5998 1 1.5902832944177311e+01 1.5821623450576633e+01 2.2769036774712981e+00 2 -1 1
6194 1 1.3578723087648275e+01 2.7899072966371929e+00 9.6111112346974092e+00 3 1 1
379 1 2.3793640653787729e+00 4.5221749062373906e+00 9.8632209584194239e+00 -1 4 0
6224 1 3.4351084877078897e+00 6.7607234697288625e+00 8.8398739602320067e+00 -5 -1 0
3392 1 7.1668279228074914e+00 4.6902570198648270e+00 8.7974130231279304e+00 -1 0 0
4423 1 5.8297531722451623e+00 6.6865715775422334e+00 9.8150012594134992e+00 2 -3 1
3597 1 1.0807185730864417e+01 7.0714703089140807e+00 8.6386504408298972e+00 -2 3 1
5922 1 9.7285946599658750e+00 4.8605423735704640e+00 9.8103397012524898e+00 3 3 0
2710 1 7.3567968287145913e+00 5.4667667627966465e-01 6.3403330668744102e+00 1 2 1
129 1 1.4700986855205938e+01 5.0942110405418823e+00 8.5286801761728857e+00 -1 5 1
6054 1 1.3602400257436033e+01 7.5412166063815036e+00 9.5965869195066311e+00 5 0 1
5092 1 1.4554891143995178e+01 4.4088975344101289e-01 8.6454922646314500e+00 0 0 0
2062 1 3.8059427214249739e+00 1.1255240250929594e+01 9.0274045709935500e+00 -7 1 0
3463 1 2.1543339640138273e+00 9.0714382092846311e+00 1.0056717395830688e+01 6 2 0
3616 1 7.1671554266578434e+00 8.9868947829132750e+00 9.4167422917512162e+00 -4 -2 0
4235 1 6.2504431473175064e+00 1.1497340107221300e+01 1.0381049983479908e+01 -2 -1 1
62 1 1.1083315914767686e+01 1.1375231630351989e+01 9.1017712846091801e+00 4 2 0
4260 1 9.9361307576396651e+00 9.2292016963246279e+00 1.0190603560790509e+01 1 -1 1
6159 1 1.4281103318092887e+01 9.8733430355626481e+00 8.3127245541028856e+00 0 -4 1
759 1 2.4070444377948785e+00 1.3581233488056780e+01 9.7168127283151318e+00 1 -2 1
1136 1 3.7572809611658036e+00 1.5735810964696753e+01 8.9305089447468902e+00 -3 -3 1
6115 1 7.1910071238697002e+00 1.3623933439846670e+01 9.0656145468566596e+00 1 3 1
3705 1 6.0490567097747840e+00 1.5770589292686358e+01 9.8331394872052087e+00 2 0 0
107 1 9.8058665035692769e+00 1.3470187106059184e+01 9.7982761262081617e+00 0 0 1
3480 1 1.1416400224097025e+01 1.5686958298878970e+01 8.9575898949671640e+00 0 -5 0
3848 1 1.3653778228608044e+01 1.1975146674681634e+01 1.0134668102067021e+01 -1 -2 0
3725 1 1.4323134436043162e+01 1.4548591001161594e+01 1.0058780156431487e+01 1 -2 0
6043 1 3.4313599330249716e+00 2.0124390232581721e+01 8.9506866658272006e+00 0 -4 1
2697 1 2.3376109532676916e+00 1.7804114208986171e+01 9.6404384826560356e+00 5 -3 1
3427 1 7.4073844713549049e+00 1.7957073569278016e+01 8.6921652269606238e+00 -2 3 0
1990 1 6.2160430815754015e+00 2.0264720258870231e+01 9.5978492373125857e+00 4 3 0
3378 1 4.9216868188292375e+00 3.8111297332022476e-01 5.2265286680904008e+00 3 -3 1
5474 1 1.6358303823423824e+01 2.0334387952999933e+01 2.2612403905842435e+00 6 -4 0
173 1 1.6152137462390890e+01 1.1749422096439787e+01 4.7668957604948661e+00 0 1 1
1736 1 1.2316658087442017e+01 4.4436042946660331e-01 2.4962090188277060e+00 -3 0 1
5160 1 1.0766841313160349e+00 2.4360177832002069e+01 5.3645130225336732e+00 -5 -1 1
4595 1 7.6353233016028597e+00 4.5141029505610936e-01 8.9954003352665701e+00 1 0 0
1838 1 1.3619462526529965e+01 2.4492492827960529e+01 1.4181178777089054e+00 1 -1 1
49 1 5.9358696074495345e+00 2.4435749264303627e+01 1.5847216040080763e+00 -1 -2 1
2801 1 9.0022487156935094e-01 2.8598660938462168e+00 1.3175089916927256e+01 1 4 0
2573 1 1.1476375992994927e+00 2.4366513729613670e+00 1.5878325311779706e+01 0 -4 1
2509 1 2.3644583877515228e+00 1.3923402446512432e+01 1.2358092859850592e+01 1 1 1
5841 1 1.3449761418106434e+01 1.5647177503060835e+01 1.2496998785864404e+01 -2 3 0
2817 1 1.3654507599835194e+01 2.0089273236532261e+01 1.2461516664267332e+01 0 -2 1
6182 1 8.7067652890055687e+00 2.7836324971784614e+00 1.3226781500196587e+01 -1 3 1
2428 1 8.8659408920789993e+00 2.9177579142260477e+00 1.5913392047102590e+01 0 -1 1
6029 1 5.9692751518946805e+00 7.0783736655263318e+00 1.2550867571482749e+01 0 -1 1
5531 1 4.9437999216601050e+00 6.0204956961821154e-01 2.0622036941625822e+01 4 -1 0
978 1 6.2564995104809435e+00 2.2541359947320894e+00 1.2558290996198785e+01 4 4 1
2711 1 1.3868498325501147e+01 2.3410353635354810e+00 1.2310637379271853e+01 -3 -1 1
1840 1 6.2097502335620058e+00 1.6039239164913987e+01 1.2547102095268825e+01 0 1 0
6101 1 4.6391890966099281e+00 2.2890359265310309e+01 2.0668761265615963e+01 -1 -1 1
308 1 1.1957681815282799e+00 7.2010978737736302e+00 1.3572345293357333e+01 3 6 0
4576 1 1.6325371200462065e+01 7.0866436295567254e+00 1.6250337989650792e+01 2 0 0
1779 1 1.6207597111238854e+01 1.5793308632926006e+01 2.0279973605914620e+01 -5 -2 1
1026 1 4.7185130849416108e+00 4.6462711122512372e+00 1.3529495223438198e+01 4 2 1
5335 1 5.0570569310602629e+00 4.9133468243725034e+00 1.6038754366805556e+01 2 -1 0
6183 1 8.5502435796446719e+00 7.0650254729431632e+00 1.3341354825153751e+01 0 3 1
1058 1 8.7156635743279356e+00 7.2975129533518110e+00 1.6043857918013671e+01 -3 3 1
3628 1 1.5819982346109384e+01 1.6391066910522774e+01 1.3771507350031621e+01 1 0 0
2721 1 1.2464230164755170e+01 4.7278545352903238e+00 1.3299827512286344e+01 -6 1 1
6248 1 1.2747128176188340e+01 4.8580004834095698e+00 1.5952614368781838e+01 2 -1 1
5398 1 1.1505437492892430e+00 1.1912328367138048e+01 1.3369779482199837e+01 -1 2 0
2475 1 2.1586148346680165e+00 3.2673467185783134e-01 1.2339883365396014e+01 0 3 1
4555 1 1.0930167201093710e+00 1.1866163227844901e+01 1.6013650698726103e+01 1 1 1
3645 1 4.6177492516195606e+00 9.3278519731806977e+00 1.3811231221993360e+01 0 0 0
5116 1 8.2642277802122894e+00 1.1450916525780945e+01 1.6868070935879317e+01 0 1 0
2797 1 1.5127440979284943e+01 4.9256178954962204e-01 1.9515055650506298e+01 -6 -6 1
4187 1 4.7297514681980388e+00 9.4501383340386038e+00 1.6347465206865671e+01 1 0 0
3536 1 7.2609232017449905e+00 7.8633010933482061e-01 1.6943241421636909e+01 -2 1 1
3651 1 8.4979742638123810e+00 1.1464380261950513e+01 1.4063991663224702e+01 2 -1 0
6270 1 7.3112442788980072e+00 8.5457673534013889e-01 1.9557355110557470e+01 2 1 0
318 1 1.2206934617587168e+01 8.9402046558310371e+00 1.3613593912263342e+01 0 1 0
112 1 9.8854008601246495e+00 5.0859435944424884e+00 1.2432836144963650e+01 -2 3 0
3446 1 4.9711896797561606e+00 7.1987514774240102e-01 1.6172423239808339e+01 -3 5 1
5870 1 1.2901458899167091e+00 1.6000567759088092e+01 1.3565329161382005e+01 1 4 0
5420 1 1.3610837394775823e+00 1.6082947973322955e+01 1.5991585815393115e+01 1 -1 0
50 1 1.1637957861163422e+00 8.7110492244143742e+00 2.2989753850228425e+01 2 2 0
4173 1 4.9494958737517383e+00 1.3973294733942863e+01 1.3487550666509357e+01 3 0 0
5330 1 4.4176358943976597e+00 1.4000492100981925e+01 1.6233251113158566e+01 0 1 0
4329 1 1.2721021585252167e+01 2.3807090455377822e-01 1.3124404912548973e+01 -1 -2 1
4431 1 8.5865245151585992e+00 1.5840104111306585e+01 1.3361198742416514e+01 0 0 1
1905 1 8.7410009904233021e+00 1.5687419949847301e+01 1.5988743868282329e+01 2 3 0
5979 1 1.6269358495241693e+01 1.5803794461472142e+01 2.2993645461961034e+01 8 -1 1
2004 1 1.2225896754353451e+01 1.3663038332895473e+01 1.3373167993987547e+01 0 1 0
52 1 1.4999118595240285e+01 3.1223376685829396e-01 2.3953269015928310e+01 2 0 1
2536 1 1.5685972094810676e+01 1.5856742558770097e+01 1.6155130920880218e+01 0 -1 0
5233 1 1.4515270178911912e+00 2.0394293433480872e+01 1.3321799310597019e+01 1 2 0
4170 1 1.6813775798062949e+00 2.0594799352939521e+01 1.5892420824780263e+01 -4 -2 1
6138 1 4.5980971131933321e+00 2.6963057584506900e-01 1.3448228035810343e+01 1 0 0
1095 1 5.0109753937915427e+00 1.8296991710940873e+01 1.3259945993243354e+01 -2 1 1
1773 1 9.6529822181916334e+00 9.2629445810513076e+00 1.2898381156695176e+01 2 -2 1
3793 1 9.7035487156079920e+00 1.7970943448540520e+01 1.2341137002090614e+01 2 3 0
5513 1 1.6344796170735886e+01 2.5413553189627915e+00 1.3382025749507998e+01 -1 2 0
2628 1 1.2217179176132888e+01 1.8003014855223125e+01 1.2919385643061689e+01 -2 2 1
5486 1 1.2726764211202751e+01 2.0002595358230885e-01 1.5663812503379383e+01 1 0 0
3667 1 1.3680553778878918e+01 6.8090181993380599e+00 1.2430931899330561e+01 -2 0 0
2847 1 1.2477808703719935e+00 2.0802907068795513e+01 2.0501139208406450e+01 -4 0 1
1901 1 5.1304669203224309e+00 2.2820370322042912e+01 1.3389837651363864e+01 1 -1 0
4385 1 5.0171825660595486e+00 2.2975102711988754e+01 1.6277600046574438e+01 -2 -2 1
46 1 8.5352491375597186e+00 2.0431303212647045e+01 1.3333355750479857e+01 2 -2 0
2773 1 8.4927692583474883e+00 2.0525246464813975e+01 1.5899854563394136e+01 5 1 1
3749 1 1.2653906319968124e+01 2.2440852843220842e+01 1.3435492220310133e+01 -1 0 1
35 1 3.7676540244101253e+00 2.9160246179153186e+00 1.7085453825981951e+01 0 -2 0
5468 1 3.3553645897900313e+00 2.7022851719492036e+00 1.9563226531298579e+01 -2 -2 0
2074 1 1.5938766034094236e+01 1.0518342300764413e+01 1.3583237402197232e+01 0 4 0
3404 1 9.6405843477298880e+00 1.3574972202616808e+01 1.2422802411500701e+01 1 4 0
3865 1 2.3236979007707008e+00 1.8185925457884451e+01 1.2422859242760996e+01 5 3 1
5243 1 1.1416592212829025e+01 2.3585793233465706e+00 1.6749502601613379e+01 0 -1 1
119 1 1.1486184076997443e+01 2.7146142530883086e+00 1.9500929508754769e+01 -4 1 1
3820 1 1.6272131639049615e+01 7.5916840419982572e+00 1.3692570013983664e+01 1 0 0
2001 1 1.5889656451528893e+01 1.1458001752723773e+01 1.5977628249800205e+01 -3 0 0
2466 1 8.6908353006234096e-01 7.1764943348910961e+00 1.6281307987367498e+01 0 6 0
859 1 3.7270109366747772e+00 6.9182237160733004e+00 1.7074904772565780e+01 -4 -4 1
1062 1 3.5569805343899596e+00 7.0506325261124587e+00 1.9804311369557954e+01 -3 0 1
5312 1 7.6391866674730320e+00 5.1884421601529800e+00 1.6747923265348341e+01 -1 2 1
4569 1 7.1723844854557512e+00 4.8334928436311424e+00 1.9556420448623022e+01 -4 1 0
2002 1 1.1033644381417279e+01 7.0373797461865504e+00 1.7167351881160080e+01 -4 5 1
301 1 1.0969922325872854e+01 7.1842354331491132e+00 1.9863880628003042e+01 -1 1 0
5921 1 1.5152257246021462e+01 4.7528331006831070e+00 1.7160042070606451e+01 0 4 0
2922 1 1.5211452391922194e+01 5.1107072533980622e+00 2.0040210651222647e+01 2 -6 1
5268 1 4.7720745921709318e+00 2.2707002736533205e+01 2.3318849970990804e+01 -1 1 0
6277 1 3.5562315330948659e+00 1.1642346767220022e+01 1.6877297291438115e+01 1 1 1
3611 1 3.4875194577655284e+00 1.1707773388560586e+01 1.9553744019181515e+01 -2 -2 0
42 1 7.0509710425548677e+00 9.2373763122463739e+00 1.7412792038022925e+01 0 1 0
5231 1 7.4483594285277670e+00 9.2791367654622476e+00 2.0120907553753923e+01 1 0 0
92 1 1.1272087371689013e+01 1.1745086501536250e+01 1.6952288132454857e+01 -2 3 1
2539 1 1.0994469204625732e+01 1.1284948204607437e+01 1.9739467079273197e+01 2 -1 1
430 1 1.2290157096710560e+01 9.2974986804095892e+00 1.6482110023047138e+01 0 4 0
5980 1 1.4734012154663564e+01 9.3819005498237793e+00 1.6959949185661927e+01 0 -1 1
4278 1 1.4582175746059811e+01 9.0841769184439141e+00 1.9775249561243509e+01 -2 0 1
6229 1 5.8237557222998708e+00 1.1687129037166031e+01 1.2995090199743583e+01 -3 0 0
6267 1 3.9522869866297841e+00 1.6347173205678200e+01 1.7155819888534051e+01 -1 2 1
5416 1 7.0250856537677375e+00 1.3664364334235801e+01 1.7270789845324284e+01 4 1 0
982 1 7.3950248388491975e+00 1.3794847187226905e+01 2.0040790429991162e+01 -2 0 0
462 1 1.2286818035163364e+01 1.3996735069607645e+01 1.5929845095065462e+01 -2 -1 0
2851 1 1.1062537580459818e+01 1.6174117802108917e+01 1.7129111960834251e+01 -4 2 0
5130 1 1.1327661027403474e+01 1.5978110332770003e+01 1.9771105405078405e+01 -1 -3 0
6073 1 1.4705615399412581e+01 1.3652396053488919e+01 1.6957413968582919e+01 -1 -1 1
361 1 1.4783447707955670e+01 1.3692007320399343e+01 1.9671047471691899e+01 -2 2 0
163 1 3.7640653376208704e+00 1.6352545867894872e+01 1.9934381130510396e+01 -3 -2 0
5568 1 5.0312409195635084e+00 1.8524958671452055e+01 1.5958518694930859e+01 3 -3 0
1842 1 7.7207947928343952e+00 1.8151958769110728e+01 1.6979006865809080e+01 3 2 0
2622 1 7.0792597172490099e+00 1.7992710393491169e+01 1.9601378574341435e+01 2 0 1
2604 1 1.2280714841162373e+01 1.8401924569010145e+01 1.5807467114655211e+01 1 -1 1
3544 1 1.4603743672094152e+01 1.8164085655171924e+01 1.6899264228349594e+01 4 2 0
6149 1 1.4999101738316410e+01 1.7925715497082237e+01 1.9682292824662497e+01 0 -2 0
333 1 1.6299379999064282e+01 2.0238141258065241e+01 1.5941762983773963e+01 0 -2 0
1230 1 3.9786031472924814e+00 2.0612496979777994e+01 1.7168101702961955e+01 2 -2 1
1887 1 3.8998210500597938e+00 2.0652616347623617e+01 1.9867103012803675e+01 -3 0 1
1860 1 2.0923248341811753e+00 9.5643293448337623e+00 1.2611852077999297e+01 2 0 0
5133 1 7.2000532906053225e+00 2.2784271962921462e+01 1.9733851742864477e+01 4 0 0
2586 1 7.6240812617465039e+00 2.2783978907521764e+01 1.7011688326680883e+01 -3 3 1
4104 1 1.1133477011502499e+01 2.0534910683789697e+01 1.6907234850188605e+01 2 0 1
3595 1 1.1134569745997052e+01 2.0227843239944317e+01 1.9689818419977485e+01 0 2 0
80 1 1.2457187261670917e+01 2.2827710200716950e+01 1.6229988282145335e+01 1 -2 1
1883 1 1.4687394899860161e+01 2.2480489843469787e+01 2.0037653980591962e+01 0 -2 0
2893 1 1.4885472621209640e+01 2.2145120505581925e+01 1.7282725614653259e+01 2 2 1
2902 1 9.2915092653624098e-01 2.9887738066846263e+00 2.0746042084630069e+01 -1 -2 1
3823 1 1.2646239851295103e+01 6.1411435321932717e-01 2.3072032983046356e+01 -2 -3 0
370 1 1.5126754665599570e+01 5.3023985304059151e-01 1.6616881358668866e+01 1 0 1
4239 1 1.2284504652130302e+01 2.2401585344412357e+01 2.0589948214625455e+01 -4 1 1
5266 1 4.9791672046560222e+00 1.1992543024416435e+00 2.3157233052512694e+01 -1 3 0
4546 1 4.9458038310202133e+00 4.1418573637039948e+00 2.3060014303626001e+01 -3 0 0
4609 1 9.0457191699913757e+00 2.6504809104528633e+00 2.3308007460064026e+01 -2 1 1
5879 1 8.8463203994071691e+00 2.8590775308172676e+00 2.0579488288937839e+01 1 -2 1
3679 1 8.7448655461883167e+00 1.6051321151361822e+01 2.0561915626197742e+01 1 0 0
5285 1 1.2282307774856450e+01 1.8025475069999946e+01 2.3127039840103958e+01 -1 7 0
5834 1 1.0390585674072761e+00 2.0768042073699746e+01 2.3199780234893414e+01 2 4 0
5109 1 1.5855508054450983e+01 1.9089115784347324e+01 1.3644821540876972e+01 1 -1 0
3704 1 1.0398594868342967e+00 7.4428079418026130e+00 2.0607274327400383e+01 2 4 0
6272 1 1.6151088051335833e+01 6.7833939133052867e+00 2.3608231274450009e+01 1 0 1
2892 1 4.7219088961961520e+00 4.6888477080163540e+00 2.0445357545525741e+01 1 1 0
2117 1 1.2561070710834704e+01 1.7977110822289752e+01 2.0441279139627905e+01 2 -1 0
5250 1 8.4573841329119155e+00 6.9548433226935114e+00 2.1017558473224774e+01 1 2 0
6189 1 8.5148502427203390e+00 7.2119685582770874e+00 2.3658132995481843e+01 -4 3 1
5216 1 1.2557327078847953e+01 4.9056792562505303e+00 2.3161430350440789e+01 -1 -1 0
5467 1 1.2558464201355548e+01 4.8880736118368295e+00 2.0344682395156845e+01 2 3 0
2715 1 2.5109616217705146e+00 2.2918618872979735e+01 1.2663568167720392e+01 3 3 1
126 1 1.6166215515393954e+01 2.0299802985578982e+01 2.0450623177251298e+01 -1 -1 0
2564 1 1.0111081884734272e+01 3.9077998916592671e-01 1.2619036085985696e+01 -5 1 0
3779 1 1.2529948844243597e+00 1.1818140146313020e+01 2.3251142457576886e+01 -2 2 0
4270 1 1.1338818778665360e+00 1.2044220683833561e+01 2.0601734388999557e+01 -1 -1 1
3368 1 4.8154216126380520e+00 9.2801824306085496e+00 2.3433164448665078e+01 8 1 0
5806 1 4.5622089174448943e+00 9.5043039173966459e+00 2.0758737796057069e+01 -1 -6 0
4295 1 1.2312913100941319e+01 9.0553137190165742e+00 2.3607480818584154e+01 0 0 1
3610 1 8.3166652613864223e+00 1.1612817816462513e+01 2.3408662182861146e+01 3 -1 0
6024 1 8.4443792567811400e+00 1.1530265037875800e+01 2.0591282610307122e+01 -1 3 1
4597 1 1.2256210497924103e+01 9.3960048907824518e+00 2.0889582931452829e+01 -4 -1 1
3635 1 4.9115873441937419e+00 1.8521304741277202e+01 2.0652013727115861e+01 0 5 0
5570 1 1.5900075422511103e+01 2.0073550462290079e+01 2.3118411339347237e+01 -1 3 0
2841 1 1.2259603902709246e+01 2.2427080625193856e+01 2.3312460650619446e+01 3 1 0
1757 1 4.5738226445927914e+00 1.4176935111152806e+01 2.3057782923589787e+01 1 2 0
4325 1 4.8389930110142165e+00 1.3970397639758945e+01 2.0449219514299166e+01 -1 1 1
4395 1 8.7158287282801368e+00 1.6097059101730281e+01 2.3357321233275638e+01 -3 2 0
5502 1 1.2356420040606631e+01 1.3685931911137100e+01 2.3221116726469933e+01 4 -1 0
281 1 1.2310764592590656e+01 1.3581275197027221e+01 2.0521640471827915e+01 2 -3 0
5983 1 9.9688832407284682e+00 2.2614587749374156e+01 1.2680215013012905e+01 1 1 1
290 1 4.5939983918449583e+00 1.8959455773904001e+01 2.3384698272388960e+01 -3 3 0
4352 1 1.2766753252888231e+01 4.4420459872869866e-01 2.0465407139315168e+01 0 -2 1
5438 1 8.9209090245393945e+00 2.0215117005658630e+01 2.3226835653283153e+01 0 -5 0
4603 1 1.0001460149401868e+00 1.6464237602175633e+01 2.3560783103716339e+01 0 4 1
4336 1 1.3436492518504841e+00 1.6316337129666991e+01 2.0779492639733132e+01 -2 -2 1
5351 1 8.4500500676189887e+00 2.0285041356430984e+01 2.0673414647211370e+01 2 -2 0
4506 1 2.3158079194214585e+00 4.9077524038395977e+00 1.2447529355854162e+01 3 4 1
4341 1 1.3422828290043977e+01 1.1377408431836516e+01 1.2789183581681041e+01 1 0 1
6153 1 3.0780126768979532e-01 2.2577370373413576e+01 1.7137635697142848e+01 2 -5 1
5283 1 6.2273821564129301e+00 2.0556718296520327e+01 1.2393007244772228e+01 -1 3 0
238 1 1.6109758545156176e+01 2.7134585775060938e+00 2.0709805027081540e+01 -2 3 1
1163 1 1.6266478535425353e+01 1.0939153905340772e+01 2.3291454330281077e+01 -1 0 1
5452 1 8.3637133135862152e-01 3.5069754909912167e+00 2.3272521478310171e+01 -1 1 0
130 1 3.8459590202936731e+00 1.1646895246835603e+01 2.4046886253806857e+01 -4 0 1
24 1 2.8653623751030501e+00 4.9731749166624510e+00 2.3940501145762710e+01 2 3 0
4562 1 3.5747250428298771e-01 1.8361800211985123e+01 1.6815129878724274e+01 -1 3 0
4292 1 1.5975064049216089e+01 1.1318696053828655e+01 2.0510707779753908e+01 -1 -2 1
5388 1 1.5008536388472901e+01 1.3347331658755543e+01 2.3844710689586101e+01 0 2 0
2880 1 7.4967645570980803e+00 6.6993323336509980e-01 2.3857977066693262e+01 -1 2 1
5971 1 1.4806608444335923e+01 1.7960687536154275e+01 2.3876568472301866e+01 4 4 1
2025 1 7.1980404325176677e+00 1.8348246482440505e+01 2.4021613662944734e+01 -3 4 0
4500 1 7.4877705064366245e+00 4.8406787833474487e+00 2.4045892873413393e+01 1 0 0
5111 1 3.6145732223217593e+00 1.6607482362190048e+01 2.3964879516030479e+01 3 -1 1
392 1 7.1790806173761643e+00 1.3989055021568971e+01 2.3915197561771002e+01 -4 0 0
511 2 1.7975593891814157e-01 2.9999857880252701e+00 2.6740726011889375e+01 0 0 0
512 2 1.7975593891814157e-01 1.7902419101812939e-01 2.6740726011889375e+01 0 0 0
513 2 1.4012681419726225e+00 8.8426459026970594e-01 2.6740726011889375e+01 0 0 0
517 2 1.4012681419726225e+00 2.2947453887741767e+00 2.6740726011889375e+01 0 0 0
518 2 2.6227803450271034e+00 2.9999857880252701e+00 2.6740726011889375e+01 0 0 0
519 2 2.6227803450271034e+00 1.7902419101812939e-01 2.6740726011889375e+01 0 0 0
520 2 3.8442925480804528e+00 8.8426459026970594e-01 2.6740726011889375e+01 0 0 0
528 2 3.8442925480804528e+00 2.2947453887741767e+00 2.6740726011889375e+01 0 0 0
529 2 5.0658047511360653e+00 2.9999857880252701e+00 2.6740726011889375e+01 0 0 0
530 2 5.0658047511360653e+00 1.7902419101812939e-01 2.6740726011889375e+01 0 0 0
531 2 6.2873169541882428e+00 8.8426459026970594e-01 2.6740726011889375e+01 0 0 0
543 2 6.2873169541882428e+00 2.2947453887741767e+00 2.6740726011889375e+01 0 0 0
544 2 7.5088291572427641e+00 2.9999857880252701e+00 2.6740726011889375e+01 0 0 0
545 2 7.5088291572427641e+00 1.7902419101812939e-01 2.6740726011889375e+01 0 0 0
546 2 8.7303413602992546e+00 8.8426459026970594e-01 2.6740726011889375e+01 0 0 0
562 2 8.7303413602992546e+00 2.2947453887741767e+00 2.6740726011889375e+01 0 0 0
563 2 9.9518535633539891e+00 2.9999857880252701e+00 2.6740726011889375e+01 0 0 0
564 2 9.9518535633539891e+00 1.7902419101812939e-01 2.6740726011889375e+01 0 0 0
565 2 1.1173365766408546e+01 8.8426459026970594e-01 2.6740726011889375e+01 0 0 0
585 2 1.1173365766408546e+01 2.2947453887741767e+00 2.6740726011889375e+01 0 0 0
586 2 1.2394877969458344e+01 2.9999857880252701e+00 2.6740726011889375e+01 0 0 0
587 2 1.2394877969458344e+01 1.7902419101812939e-01 2.6740726011889375e+01 0 0 0
5444 1 1.1074481423292513e+01 6.8066546389439706e+00 2.4148375428979030e+01 -1 2 0
588 2 1.3616390172511093e+01 8.8426459026970594e-01 2.6740726011889375e+01 0 0 0
609 2 1.3616390172511093e+01 2.2947453887741767e+00 2.6740726011889375e+01 0 0 0
610 2 1.4837902375567387e+01 2.9999857880252701e+00 2.6740726011889375e+01 0 0 0
611 2 1.4837902375567387e+01 1.7902419101812939e-01 2.6740726011889375e+01 0 0 0
612 2 1.6059414578624420e+01 8.8426459026970594e-01 2.6740726011889375e+01 0 0 0
633 2 1.6059414578624420e+01 2.2947453887741767e+00 2.6740726011889375e+01 0 0 0
1117 1 1.1122734684219663e+01 1.9932657632242897e+01 2.4178103917939406e+01 -5 0 1
514 2 1.7975593891814157e-01 7.2314281835375898e+00 2.6740726011889375e+01 0 0 0
515 2 1.7975593891814157e-01 4.4104665865302239e+00 2.6740726011889375e+01 0 0 0
516 2 1.4012681419726225e+00 5.1157069857818787e+00 2.6740726011889375e+01 0 0 0
524 2 1.4012681419726225e+00 6.5261877842844624e+00 2.6740726011889375e+01 0 0 0
525 2 2.6227803450271034e+00 7.2314281835375898e+00 2.6740726011889375e+01 0 0 0
526 2 2.6227803450271034e+00 4.4104665865302239e+00 2.6740726011889375e+01 0 0 0
527 2 3.8442925480804528e+00 5.1157069857818787e+00 2.6740726011889375e+01 0 0 0
539 2 3.8442925480804528e+00 6.5261877842844624e+00 2.6740726011889375e+01 0 0 0
3654 1 2.8813219125660829e+00 7.5062681573358887e+00 2.4215284192353149e+01 0 1 0