LAMMPS data file via write_data, version 16 Mar 2018, timestep = 100000

4078 atoms
2 atom types

0.0000000000000000e+00 4.9219999999999999e+01 xlo xhi
0.0000000000000000e+00 4.9019635930410494e+01 ylo yhi
1.4294521592464768e+00 2.6510547840754811e+01 zlo zhi

Masses

1 18.015
2 12.01

Atoms # atomic

52 2 0.0000000000000000e+00 2.8417180249513345e+00 3.1680866485655610e+00 0 0 0
54 2 0.0000000000000000e+00 0.0000000000000000e+00 3.1680866485655610e+00 0 0 0
56 2 1.2305000000000001e+00 7.1042950623783474e-01 3.1680866485655610e+00 0 0 0
63 2 1.2305000000000001e+00 2.1312885187134998e+00 3.1680866485655610e+00 0 0 0
65 2 2.4610000000000003e+00 2.8417180249513345e+00 3.1680866485655610e+00 0 0 0
67 2 2.4610000000000003e+00 0.0000000000000000e+00 3.1680866485655610e+00 0 0 0
69 2 3.6915000000000004e+00 7.1042950623783474e-01 3.1680866485655610e+00 0 0 0
84 2 3.6914999999999996e+00 2.1312885187134998e+00 3.1680866485655610e+00 0 0 0
86 2 4.9220000000000006e+00 2.8417180249513332e+00 3.1680866485655610e+00 0 0 0
88 2 4.9220000000000006e+00 0.0000000000000000e+00 3.1680866485655610e+00 0 0 0
90 2 6.1524999999999999e+00 7.1042950623783407e-01 3.1680866485655610e+00 0 0 0
113 2 6.1524999999999999e+00 2.1312885187134989e+00 3.1680866485655610e+00 0 0 0
115 2 7.3829999999999991e+00 2.8417180249513345e+00 3.1680866485655610e+00 0 0 0
117 2 7.3829999999999991e+00 0.0000000000000000e+00 3.1680866485655610e+00 0 0 0
119 2 8.6134999999999984e+00 7.1042950623783407e-01 3.1680866485655610e+00 0 0 0
150 2 8.6134999999999984e+00 2.1312885187135002e+00 3.1680866485655610e+00 0 0 0
152 2 9.8440000000000012e+00 2.8417180249513332e+00 3.1680866485655610e+00 0 0 0
154 2 9.8440000000000012e+00 0.0000000000000000e+00 3.1680866485655610e+00 0 0 0
156 2 1.1074500000000002e+01 7.1042950623783330e-01 3.1680866485655610e+00 0 0 0
195 2 1.1074500000000002e+01 2.1312885187135002e+00 3.1680866485655610e+00 0 0 0
59 2 0.0000000000000000e+00 4.2625770374269996e+00 3.1680866485655610e+00 0 0 0
61 2 1.2305000000000001e+00 4.9730065436648339e+00 3.1680866485655610e+00 0 0 0
76 2 1.2305000000000001e+00 6.3938655561404980e+00 3.1680866485655610e+00 0 0 0
80 2 2.4610000000000003e+00 4.2625770374269996e+00 3.1680866485655610e+00 0 0 0
82 2 3.6914999999999996e+00 4.9730065436648339e+00 3.1680866485655610e+00 0 0 0
105 2 3.6914999999999996e+00 6.3938655561404980e+00 3.1680866485655610e+00 0 0 0
57 2 0.0000000000000000e+00 7.1042950623783341e+00 3.1680866485655610e+00 0 0 0
78 2 2.4610000000000003e+00 7.1042950623783341e+00 3.1680866485655610e+00 0 0 0
109 2 4.9220000000000006e+00 4.2625770374269978e+00 3.1680866485655610e+00 0 0 0
111 2 6.1524999999999999e+00 4.9730065436648339e+00 3.1680866485655610e+00 0 0 0
142 2 6.1524999999999999e+00 6.3938655561404980e+00 3.1680866485655610e+00 0 0 0
146 2 7.3829999999999991e+00 4.2625770374269996e+00 3.1680866485655610e+00 0 0 0
107 2 4.9220000000000006e+00 7.1042950623783341e+00 3.1680866485655610e+00 0 0 0
144 2 7.3830000000000009e+00 7.1042950623783341e+00 3.1680866485655610e+00 0 0 0
148 2 8.6135000000000002e+00 4.9730065436648339e+00 3.1680866485655610e+00 0 0 0
187 2 8.6135000000000002e+00 6.3938655561404980e+00 3.1680866485655610e+00 0 0 0
191 2 9.8440000000000012e+00 4.2625770374270004e+00 3.1680866485655610e+00 0 0 0
193 2 1.1074500000000002e+01 4.9730065436648339e+00 3.1680866485655610e+00 0 0 0
234 2 1.1074500000000002e+01 6.3938655561404980e+00 3.1680866485655610e+00 0 0 0
189 2 9.8440000000000012e+00 7.1042950623783341e+00 3.1680866485655610e+00 0 0 0
72 2 0.0000000000000000e+00 8.5251540748539991e+00 3.1680866485655610e+00 0 0 0
74 2 1.2305000000000001e+00 9.2355835810918343e+00 3.1680866485655610e+00 0 0 0
101 2 2.4610000000000003e+00 8.5251540748539991e+00 3.1680866485655610e+00 0 0 0
103 2 3.6915000000000004e+00 9.2355835810918343e+00 3.1680866485655610e+00 0 0 0
70 2 0.0000000000000000e+00 1.1366872099805333e+01 3.1680866485655610e+00 0 0 0
97 2 1.2305000000000001e+00 1.0656442593567498e+01 3.1680866485655610e+00 0 0 0
99 2 2.4610000000000003e+00 1.1366872099805333e+01 3.1680866485655610e+00 0 0 0
134 2 3.6914999999999996e+00 1.0656442593567499e+01 3.1680866485655610e+00 0 0 0
138 2 4.9220000000000006e+00 8.5251540748539991e+00 3.1680866485655610e+00 0 0 0
140 2 6.1524999999999999e+00 9.2355835810918343e+00 3.1680866485655610e+00 0 0 0
183 2 7.3830000000000009e+00 8.5251540748539991e+00 3.1680866485655610e+00 0 0 0
136 2 4.9220000000000006e+00 1.1366872099805333e+01 3.1680866485655610e+00 0 0 0
179 2 6.1524999999999999e+00 1.0656442593567499e+01 3.1680866485655610e+00 0 0 0
181 2 7.3829999999999991e+00 1.1366872099805333e+01 3.1680866485655610e+00 0 0 0
185 2 8.6134999999999984e+00 9.2355835810918343e+00 3.1680866485655610e+00 0 0 0
230 2 9.8440000000000012e+00 8.5251540748539956e+00 3.1680866485655610e+00 0 0 0
232 2 1.1074500000000002e+01 9.2355835810918343e+00 3.1680866485655610e+00 0 0 0
226 2 8.6134999999999984e+00 1.0656442593567498e+01 3.1680866485655610e+00 0 0 0
228 2 9.8440000000000012e+00 1.1366872099805333e+01 3.1680866485655610e+00 0 0 0
273 2 1.1074500000000002e+01 1.0656442593567498e+01 3.1680866485655610e+00 0 0 0
275 2 1.2304999999999998e+01 1.1366872099805333e+01 3.1680866485655610e+00 0 0 0
53 2 0.0000000000000000e+00 1.4208590124756650e+00 6.1152612504298425e+00 0 0 0
55 2 0.0000000000000000e+00 0.0000000000000000e+00 6.1152612504298425e+00 0 0 0
64 2 1.2305000000000001e+00 2.1312885187134998e+00 6.1152612504298425e+00 0 0 0
66 2 2.4610000000000003e+00 1.4208590124756650e+00 6.1152612504298425e+00 0 0 0
68 2 2.4610000000000003e+00 0.0000000000000000e+00 6.1152612504298425e+00 0 0 0
85 2 3.6914999999999996e+00 2.1312885187134998e+00 6.1152612504298425e+00 0 0 0
381 2 0.0000000000000000e+00 2.8417180249513345e+00 9.0624358522938913e+00 0 0 0
382 2 0.0000000000000000e+00 0.0000000000000000e+00 9.0624358522938913e+00 0 0 0
383 2 1.2305000000000001e+00 7.1042950623783474e-01 9.0624358522938913e+00 0 0 0
387 2 1.2305000000000001e+00 2.1312885187134998e+00 9.0624358522938913e+00 0 0 0
388 2 2.4610000000000003e+00 2.8417180249513345e+00 9.0624358522938913e+00 0 0 0
389 2 2.4610000000000003e+00 0.0000000000000000e+00 9.0624358522938913e+00 0 0 0
390 2 3.6915000000000004e+00 7.1042950623783474e-01 9.0624358522938913e+00 0 0 0
398 2 3.6914999999999996e+00 2.1312885187134998e+00 9.0624358522938913e+00 0 0 0
62 2 1.2305000000000001e+00 3.5521475311891644e+00 6.1152612504298425e+00 0 0 0
83 2 3.6914999999999996e+00 3.5521475311891644e+00 6.1152612504298425e+00 0 0 0
87 2 4.9220000000000006e+00 1.4208590124756650e+00 6.1152612504298425e+00 0 0 0
89 2 4.9220000000000006e+00 0.0000000000000000e+00 6.1152612504298425e+00 0 0 0
114 2 6.1524999999999999e+00 2.1312885187134989e+00 6.1152612504298425e+00 0 0 0
116 2 7.3829999999999991e+00 1.4208590124756659e+00 6.1152612504298425e+00 0 0 0
118 2 7.3829999999999991e+00 0.0000000000000000e+00 6.1152612504298425e+00 0 0 0
399 2 4.9220000000000006e+00 2.8417180249513332e+00 9.0624358522938913e+00 0 0 0
400 2 4.9220000000000006e+00 0.0000000000000000e+00 9.0624358522938913e+00 0 0 0
401 2 6.1524999999999999e+00 7.1042950623783407e-01 9.0624358522938913e+00 0 0 0
413 2 6.1524999999999999e+00 2.1312885187134989e+00 9.0624358522938913e+00 0 0 0
414 2 7.3829999999999991e+00 2.8417180249513345e+00 9.0624358522938913e+00 0 0 0
415 2 7.3829999999999991e+00 0.0000000000000000e+00 9.0624358522938913e+00 0 0 0
112 2 6.1524999999999999e+00 3.5521475311891644e+00 6.1152612504298425e+00 0 0 0
151 2 8.6134999999999984e+00 2.1312885187135002e+00 6.1152612504298425e+00 0 0 0
153 2 9.8440000000000012e+00 1.4208590124756659e+00 6.1152612504298425e+00 0 0 0
155 2 9.8440000000000012e+00 0.0000000000000000e+00 6.1152612504298425e+00 0 0 0
196 2 1.1074500000000002e+01 2.1312885187135002e+00 6.1152612504298425e+00 0 0 0
416 2 8.6134999999999984e+00 7.1042950623783407e-01 9.0624358522938913e+00 0 0 0
432 2 8.6134999999999984e+00 2.1312885187135002e+00 9.0624358522938913e+00 0 0 0
433 2 9.8440000000000012e+00 2.8417180249513332e+00 9.0624358522938913e+00 0 0 0
434 2 9.8440000000000012e+00 0.0000000000000000e+00 9.0624358522938913e+00 0 0 0
435 2 1.1074500000000002e+01 7.1042950623783330e-01 9.0624358522938913e+00 0 0 0
455 2 1.1074500000000002e+01 2.1312885187135002e+00 9.0624358522938913e+00 0 0 0
149 2 8.6134999999999984e+00 3.5521475311891657e+00 6.1152612504298425e+00 0 0 0
194 2 1.1074500000000002e+01 3.5521475311891644e+00 6.1152612504298425e+00 0 0 0
58 2 0.0000000000000000e+00 5.6834360499026637e+00 6.1152612504298425e+00 0 0 0
60 2 0.0000000000000000e+00 4.2625770374269996e+00 6.1152612504298425e+00 0 0 0
77 2 1.2305000000000001e+00 6.3938655561404980e+00 6.1152612504298425e+00 0 0 0
79 2 2.4610000000000003e+00 5.6834360499026637e+00 6.1152612504298425e+00 0 0 0
81 2 2.4610000000000003e+00 4.2625770374269996e+00 6.1152612504298425e+00 0 0 0
106 2 3.6914999999999996e+00 6.3938655561404980e+00 6.1152612504298425e+00 0 0 0
385 2 0.0000000000000000e+00 4.2625770374269996e+00 9.0624358522938913e+00 0 0 0
386 2 1.2305000000000001e+00 4.9730065436648339e+00 9.0624358522938913e+00 0 0 0
394 2 1.2305000000000001e+00 6.3938655561404980e+00 9.0624358522938913e+00 0 0 0
396 2 2.4610000000000003e+00 4.2625770374269996e+00 9.0624358522938913e+00 0 0 0
397 2 3.6914999999999996e+00 4.9730065436648339e+00 9.0624358522938913e+00 0 0 0
409 2 3.6914999999999996e+00 6.3938655561404980e+00 9.0624358522938913e+00 0 0 0
75 2 1.2305000000000001e+00 7.8147245686161639e+00 6.1152612504298425e+00 0 0 0
104 2 3.6914999999999996e+00 7.8147245686161639e+00 6.1152612504298425e+00 0 0 0
384 2 0.0000000000000000e+00 7.1042950623783341e+00 9.0624358522938913e+00 0 0 0
395 2 2.4610000000000003e+00 7.1042950623783341e+00 9.0624358522938913e+00 0 0 0
108 2 4.9220000000000006e+00 5.6834360499026637e+00 6.1152612504298425e+00 0 0 0
110 2 4.9220000000000006e+00 4.2625770374269978e+00 6.1152612504298425e+00 0 0 0
143 2 6.1524999999999999e+00 6.3938655561404980e+00 6.1152612504298425e+00 0 0 0
145 2 7.3829999999999991e+00 5.6834360499026637e+00 6.1152612504298425e+00 0 0 0
147 2 7.3829999999999991e+00 4.2625770374269996e+00 6.1152612504298425e+00 0 0 0
411 2 4.9220000000000006e+00 4.2625770374269978e+00 9.0624358522938913e+00 0 0 0
412 2 6.1524999999999999e+00 4.9730065436648339e+00 9.0624358522938913e+00 0 0 0
428 2 6.1524999999999999e+00 6.3938655561404980e+00 9.0624358522938913e+00 0 0 0
430 2 7.3829999999999991e+00 4.2625770374269996e+00 9.0624358522938913e+00 0 0 0
141 2 6.1524999999999999e+00 7.8147245686161639e+00 6.1152612504298425e+00 0 0 0
410 2 4.9220000000000006e+00 7.1042950623783341e+00 9.0624358522938913e+00 0 0 0
429 2 7.3830000000000009e+00 7.1042950623783341e+00 9.0624358522938913e+00 0 0 0
188 2 8.6135000000000002e+00 6.3938655561404980e+00 6.1152612504298425e+00 0 0 0
190 2 9.8440000000000012e+00 5.6834360499026637e+00 6.1152612504298425e+00 0 0 0
192 2 9.8440000000000012e+00 4.2625770374270004e+00 6.1152612504298425e+00 0 0 0
235 2 1.1074500000000002e+01 6.3938655561404980e+00 6.1152612504298425e+00 0 0 0
431 2 8.6135000000000002e+00 4.9730065436648339e+00 9.0624358522938913e+00 0 0 0
451 2 8.6135000000000002e+00 6.3938655561404980e+00 9.0624358522938913e+00 0 0 0
453 2 9.8440000000000012e+00 4.2625770374270004e+00 9.0624358522938913e+00 0 0 0
454 2 1.1074500000000002e+01 4.9730065436648339e+00 9.0624358522938913e+00 0 0 0
475 2 1.1074500000000002e+01 6.3938655561404980e+00 9.0624358522938913e+00 0 0 0
186 2 8.6135000000000002e+00 7.8147245686161639e+00 6.1152612504298425e+00 0 0 0
233 2 1.1074500000000002e+01 7.8147245686161639e+00 6.1152612504298425e+00 0 0 0
452 2 9.8440000000000012e+00 7.1042950623783341e+00 9.0624358522938913e+00 0 0 0
71 2 0.0000000000000000e+00 9.9460130873296642e+00 6.1152612504298425e+00 0 0 0
73 2 0.0000000000000000e+00 8.5251540748539991e+00 6.1152612504298425e+00 0 0 0
100 2 2.4610000000000003e+00 9.9460130873296642e+00 6.1152612504298425e+00 0 0 0
102 2 2.4610000000000003e+00 8.5251540748539991e+00 6.1152612504298425e+00 0 0 0
392 2 0.0000000000000000e+00 8.5251540748539991e+00 9.0624358522938913e+00 0 0 0
393 2 1.2305000000000001e+00 9.2355835810918343e+00 9.0624358522938913e+00 0 0 0
407 2 2.4610000000000003e+00 8.5251540748539991e+00 9.0624358522938913e+00 0 0 0
408 2 3.6915000000000004e+00 9.2355835810918343e+00 9.0624358522938913e+00 0 0 0
96 2 1.2305000000000001e+00 1.2077301606043163e+01 6.1152612504298425e+00 0 0 0
98 2 1.2305000000000001e+00 1.0656442593567498e+01 6.1152612504298425e+00 0 0 0
133 2 3.6914999999999996e+00 1.2077301606043163e+01 6.1152612504298425e+00 0 0 0
135 2 3.6914999999999996e+00 1.0656442593567499e+01 6.1152612504298425e+00 0 0 0
391 2 0.0000000000000000e+00 1.1366872099805333e+01 9.0624358522938913e+00 0 0 0
405 2 1.2305000000000001e+00 1.0656442593567498e+01 9.0624358522938913e+00 0 0 0
406 2 2.4610000000000003e+00 1.1366872099805333e+01 9.0624358522938913e+00 0 0 0
424 2 3.6914999999999996e+00 1.0656442593567499e+01 9.0624358522938913e+00 0 0 0
137 2 4.9220000000000006e+00 9.9460130873296642e+00 6.1152612504298425e+00 0 0 0
139 2 4.9220000000000006e+00 8.5251540748539991e+00 6.1152612504298425e+00 0 0 0
182 2 7.3830000000000009e+00 9.9460130873296642e+00 6.1152612504298425e+00 0 0 0
184 2 7.3830000000000009e+00 8.5251540748539991e+00 6.1152612504298425e+00 0 0 0
426 2 4.9220000000000006e+00 8.5251540748539991e+00 9.0624358522938913e+00 0 0 0
427 2 6.1524999999999999e+00 9.2355835810918343e+00 9.0624358522938913e+00 0 0 0
449 2 7.3830000000000009e+00 8.5251540748539991e+00 9.0624358522938913e+00 0 0 0
178 2 6.1524999999999999e+00 1.2077301606043163e+01 6.1152612504298425e+00 0 0 0
180 2 6.1524999999999999e+00 1.0656442593567499e+01 6.1152612504298425e+00 0 0 0
425 2 4.9220000000000006e+00 1.1366872099805333e+01 9.0624358522938913e+00 0 0 0
447 2 6.1524999999999999e+00 1.0656442593567499e+01 9.0624358522938913e+00 0 0 0
448 2 7.3829999999999991e+00 1.1366872099805333e+01 9.0624358522938913e+00 0 0 0
229 2 9.8440000000000012e+00 9.9460130873296642e+00 6.1152612504298425e+00 0 0 0
231 2 9.8440000000000012e+00 8.5251540748539956e+00 6.1152612504298425e+00 0 0 0
450 2 8.6134999999999984e+00 9.2355835810918343e+00 9.0624358522938913e+00 0 0 0
473 2 9.8440000000000012e+00 8.5251540748539956e+00 9.0624358522938913e+00 0 0 0
474 2 1.1074500000000002e+01 9.2355835810918343e+00 9.0624358522938913e+00 0 0 0
225 2 8.6135000000000002e+00 1.2077301606043163e+01 6.1152612504298425e+00 0 0 0
227 2 8.6134999999999984e+00 1.0656442593567498e+01 6.1152612504298425e+00 0 0 0
272 2 1.1074500000000002e+01 1.2077301606043163e+01 6.1152612504298425e+00 0 0 0
274 2 1.1074500000000002e+01 1.0656442593567498e+01 6.1152612504298425e+00 0 0 0
471 2 8.6134999999999984e+00 1.0656442593567498e+01 9.0624358522938913e+00 0 0 0
472 2 9.8440000000000012e+00 1.1366872099805333e+01 9.0624358522938913e+00 0 0 0
495 2 1.1074500000000002e+01 1.0656442593567498e+01 9.0624358522938913e+00 0 0 0
496 2 1.2304999999999998e+01 1.1366872099805333e+01 9.0624358522938913e+00 0 0 0
731 1 2.2303343462442342e+00 2.9579552719929518e+00 1.1746983235110996e+01 0 0 0
2691 1 3.2904702723102575e-01 8.3167169006610937e+00 1.3629326570196650e+01 1 -1 0
534 1 6.5681042683647410e+00 2.3463797330377600e+00 1.1984049315822370e+01 1 1 0
1950 1 2.5228216256747116e+00 1.1288983258345375e+01 1.1642169880035091e+01 2 1 0
1286 1 9.2605784662692496e+00 1.8183116089809732e+00 1.2143381262554888e+01 -1 2 0
560 1 7.7170166336430901e+00 1.0849142195137018e+01 1.1685735282411725e+01 -1 0 -1
2092 1 4.7334302662176038e+00 4.5465378317695082e+00 1.1895838187727596e+01 0 0 0
4025 1 4.4486264645088465e+00 7.2334415006673298e+00 1.2082833952131642e+01 0 1 -1
2669 1 9.6790806621270988e+00 6.8658605562164174e+00 1.1791466439579139e+01 1 0 0
2791 1 1.0821609014646592e+01 4.0247909902577348e+00 1.2081194682362751e+01 0 1 -1
747 1 2.1322162874817829e+00 8.5828532963772943e+00 1.1538520179948746e+01 0 0 0
2065 1 1.1457196716063184e+01 9.0311336934812605e+00 1.1663826967393092e+01 0 1 0
4051 1 7.4180145330113678e+00 8.0347143058361592e+00 1.1366409761487962e+01 0 0 0
609 1 1.0519045875236056e+01 1.2088940279791730e+01 1.1977417275378603e+01 1 0 0
1320 1 2.4284598558790731e+00 2.5424174492339086e-01 1.1987851497133258e+01 0 0 -1
2583 1 5.4698177980989948e+00 1.2150299966609799e+01 1.2143865522941317e+01 -1 -1 0
3436 1 3.8832410175792225e+00 4.4237942109999215e+00 1.7394262913859514e+01 0 1 -1
1425 1 3.9340044818707227e+00 4.8863678494138130e+00 1.4640093782735308e+01 2 0 1
1981 1 1.1282569305552045e+01 4.0729667701478265e+00 1.4872495787714493e+01 1 0 0
2030 1 6.0548849097689983e+00 1.1507721709633025e+00 1.6044013171756422e+01 1 2 0
4003 1 1.0441579431581728e+01 3.2767619768434508e-01 2.2545506035376000e+01 1 1 -1
3373 1 9.6221293818205993e+00 1.9251672415494523e+00 1.5520018125528665e+01 1 0 1
2704 1 9.9763861094853645e+00 1.0905009599862601e+00 1.8041018016874926e+01 1 0 0
4027 1 7.1779224250021407e+00 3.2164531936868292e+00 1.4575843509669525e+01 0 0 -1
3424 1 4.8494026746437351e+00 9.1482957170967634e+00 2.2519152451177170e+01 0 1 -1
1358 1 1.2028981506966471e+01 8.5157927320313238e+00 2.5331972904463655e+01 0 0 -1
3360 1 7.2210320955478444e+00 5.9855238939067021e+00 1.5543696737239102e+01 1 0 0
2115 1 4.0634353613205709e+00 8.3771946751553408e+00 1.7445319434742935e+01 1 1 0
2644 1 1.0744440149326193e+01 4.9005803338278975e+00 1.7629717752878275e+01 0 -1 0
2039 1 9.6293946193611681e+00 6.6006925849264011e+00 1.4616043505001700e+01 1 0 -1
3973 1 6.7037795576268511e-01 3.9438200757783730e+00 1.8346163912255466e+01 2 1 0
1929 1 1.0540778285388564e+01 1.0913359555945659e+01 2.5095403971315474e+01 1 0 0
4026 1 5.4832650206803626e+00 7.9200968338379196e+00 1.4927503340899669e+01 0 1 -1
2050 1 1.2371612447620621e+00 8.8950444112001126e+00 1.6944346293770018e+01 1 0 1
2717 1 1.0393262497804441e+01 6.1633674717403375e-01 2.5645004888186936e+01 0 0 -1
2586 1 7.7597572435010056e+00 9.4417157298647822e+00 1.4215518056668774e+01 0 0 0
2645 1 8.9509652980745056e+00 1.0793531918837951e+01 1.7160704774585348e+01 1 0 0
675 1 5.1470339071417222e+00 9.7050103167838220e+00 1.9874133460102509e+01 1 1 1
1426 1 3.4908429489951245e+00 5.1954619342493091e-01 1.4794347767320133e+01 0 0 0
32 1 1.0680303178109654e+01 8.9942470615903893e+00 1.5614933398946688e+01 0 0 0
1437 1 4.3281663712090024e-02 5.3784227478516247e+00 2.2637749109723725e+01 0 -1 0
1952 1 1.7822164369957232e+00 6.6617581916347062e+00 1.5231477746576797e+01 0 0 0
1403 1 2.9762095061807368e+00 3.3048298699093662e-02 1.9549831829750282e+01 0 1 1
2016 1 2.9162703628347626e+00 4.4464942886754368e+00 2.2587239580466928e+01 1 1 -1
2103 1 4.5612769295944542e+00 2.1846906878025130e+00 2.0229526809574718e+01 0 0 1
2114 1 6.6400619952627622e+00 4.8289399773311142e-01 2.1127060865547644e+01 1 1 0
2728 1 1.0301627298389571e+00 5.7617912999144094e+00 2.0089949831653911e+01 1 -1 -1
3980 1 9.0557309854670969e+00 8.3282125958277788e+00 2.3487790302248914e+01 0 -1 -1
553 1 3.6366528110180547e+00 6.2982729798584636e+00 1.9524528270907027e+01 1 1 -1
4038 1 5.0741961097209476e+00 6.3224824725210400e+00 2.2165063919057403e+01 0 2 -1
569 1 6.0822260939567077e+00 2.5813565463138173e+00 1.8232306020848672e+01 0 0 1
1251 1 6.7484994373155933e+00 5.7639855573783754e+00 1.8220745881683062e+01 0 1 0
2796 1 1.0100719345312172e+01 7.4906453529100814e+00 1.7859693066810959e+01 1 1 0
3355 1 8.6267720137838175e+00 3.3927756873486605e+00 1.8933626736149325e+01 1 0 0
2611 1 8.8347057652988870e+00 1.0405742323509957e+01 2.1392629075043576e+01 -1 -1 0
1984 1 1.1311571694540282e+01 5.3547028567132084e+00 2.2885191479499145e+01 0 0 0
1282 1 2.3438378231614587e+00 1.0236509505312357e+01 2.2624727109611470e+01 1 0 0
4023 1 3.1077051888951077e+00 7.7661796164810317e+00 2.5844222091751821e+01 1 1 0
1422 1 5.5235100273227544e-01 1.0115041604215895e+00 1.8445317024917678e+01 2 1 1
4047 1 8.0796517421779779e+00 8.5088319692470087e+00 1.9442658226127108e+01 1 1 -1
1325 1 7.2937169586403883e-01 1.1482323110713413e+01 1.6296953959112692e+01 0 1 -1
2140 1 7.2169387511865324e-01 5.7623085958695972e+00 2.5296832055921879e+01 1 1 0
2587 1 2.4284249542041199e+00 1.2574545743575209e+00 2.5079734888980251e+01 0 -1 0
2605 1 1.1904412063031774e+01 7.9329350996253396e+00 2.2357158437905213e+01 0 0 0
4013 1 8.1237172663019077e+00 2.4598769218950389e+00 2.5598535239576609e+01 1 1 -1
1387 1 8.1602299440673072e+00 2.0375199129005086e+00 2.2608760215032678e+01 0 1 -1
2025 1 5.5897085576870724e+00 1.0146370858523339e+01 2.5641848082163644e+01 0 0 -1
3993 1 5.1972555110942515e+00 6.0699617251556175e+00 2.5061796294456506e+01 1 1 -1
1348 1 1.1318874155409073e+01 1.1599528329960338e+01 2.2526859982756516e+01 0 1 -1
2027 1 7.2350375145163088e+00 7.9869394748358689e+00 2.5751844844000313e+01 0 0 0
695 1 7.6717658796717396e+00 6.6918995903939491e+00 2.1377111825337867e+01 1 0 0
3343 1 2.9272050724789951e+00 4.0673703652342592e+00 2.5220959603697310e+01 1 1 -1
1335 1 8.0326053836226734e+00 5.0904148569495558e+00 2.4585574715216758e+01 0 0 -1
2711 1 9.1873006005537672e+00 4.5140035163995123e+00 2.1735750537711560e+01 0 0 0
3364 1 1.8639757688312850e+00 2.8639678064460941e+00 1.4419212434330586e+01 1 0 -1
697 1 2.7934064445239764e+00 1.0765671770507179e+01 2.5414329703568860e+01 -1 0 -1
2569 1 1.7670456712099575e-03 1.0785419776351468e+01 2.5398629726566092e+01 1 -1 -1
2615 1 1.0675083886252507e+01 5.7634263038842235e+00 2.5733762733112520e+01 1 2 0
40 1 1.7505030424269543e+00 1.6065974236731757e+00 2.2226296972551495e+01 0 1 0
2724 1 1.1375103511663619e+01 1.1437768677951880e+01 1.9251911629812312e+01 1 0 0
602 1 6.8310103556909212e+00 1.1478035592172390e+01 2.3084351013772530e+01 0 0 0
1945 1 1.2115811068160923e+01 8.5526409911712165e+00 1.9512497434616865e+01 0 0 0
1356 1 2.6034892701666448e+00 1.2154866216621222e+01 1.4443689306893988e+01 0 0 0
597 1 5.5667096937113687e+00 1.1364897207066514e+01 1.4817807267822412e+01 0 1 -1
716 1 9.3818184517147074e-05 4.3627612452421506e-02 2.5818856576299865e+01 1 1 1
93 2 0.0000000000000000e+00 1.2787731112280996e+01 3.1680866485655610e+00 0 0 0
95 2 1.2305000000000001e+00 1.3498160618518829e+01 3.1680866485655610e+00 0 0 0
130 2 2.4610000000000003e+00 1.2787731112280996e+01 3.1680866485655610e+00 0 0 0
132 2 3.6915000000000004e+00 1.3498160618518829e+01 3.1680866485655610e+00 0 0 0
91 2 0.0000000000000000e+00 1.5629449137232333e+01 3.1680866485655610e+00 0 0 0
126 2 1.2305000000000001e+00 1.4919019630994494e+01 3.1680866485655610e+00 0 0 0
128 2 2.4610000000000003e+00 1.5629449137232328e+01 3.1680866485655610e+00 0 0 0
171 2 3.6915000000000004e+00 1.4919019630994494e+01 3.1680866485655610e+00 0 0 0
175 2 4.9220000000000006e+00 1.2787731112280996e+01 3.1680866485655610e+00 0 0 0
177 2 6.1524999999999990e+00 1.3498160618518829e+01 3.1680866485655610e+00 0 0 0
222 2 7.3829999999999991e+00 1.2787731112280996e+01 3.1680866485655610e+00 0 0 0
173 2 4.9220000000000006e+00 1.5629449137232333e+01 3.1680866485655610e+00 0 0 0
218 2 6.1524999999999990e+00 1.4919019630994494e+01 3.1680866485655610e+00 0 0 0
220 2 7.3829999999999991e+00 1.5629449137232333e+01 3.1680866485655610e+00 0 0 0
224 2 8.6135000000000002e+00 1.3498160618518835e+01 3.1680866485655610e+00 0 0 0
269 2 9.8440000000000012e+00 1.2787731112280996e+01 3.1680866485655610e+00 0 0 0
271 2 1.1074500000000002e+01 1.3498160618518829e+01 3.1680866485655610e+00 0 0 0
265 2 8.6135000000000002e+00 1.4919019630994494e+01 3.1680866485655610e+00 0 0 0
267 2 9.8440000000000012e+00 1.5629449137232328e+01 3.1680866485655610e+00 0 0 0
307 2 1.1074500000000002e+01 1.4919019630994494e+01 3.1680866485655610e+00 0 0 0
122 2 0.0000000000000000e+00 1.7050308149707998e+01 3.1680866485655610e+00 0 0 0
167 2 2.4610000000000003e+00 1.7050308149707998e+01 3.1680866485655610e+00 0 0 0
120 2 0.0000000000000000e+00 1.9892026174659328e+01 3.1680866485655610e+00 0 0 0
124 2 1.2305000000000001e+00 1.7760737655945832e+01 3.1680866485655610e+00 0 0 0
163 2 1.2305000000000001e+00 1.9181596668421495e+01 3.1680866485655610e+00 0 0 0
165 2 2.4610000000000003e+00 1.9892026174659328e+01 3.1680866485655610e+00 0 0 0
169 2 3.6914999999999996e+00 1.7760737655945832e+01 3.1680866485655610e+00 0 0 0
210 2 3.6914999999999996e+00 1.9181596668421495e+01 3.1680866485655610e+00 0 0 0
214 2 4.9220000000000006e+00 1.7050308149707998e+01 3.1680866485655610e+00 0 0 0
261 2 7.3830000000000009e+00 1.7050308149707998e+01 3.1680866485655610e+00 0 0 0
212 2 4.9220000000000006e+00 1.9892026174659328e+01 3.1680866485655610e+00 0 0 0
216 2 6.1524999999999999e+00 1.7760737655945832e+01 3.1680866485655610e+00 0 0 0
257 2 6.1524999999999999e+00 1.9181596668421495e+01 3.1680866485655610e+00 0 0 0
259 2 7.3829999999999991e+00 1.9892026174659328e+01 3.1680866485655610e+00 0 0 0
303 2 9.8440000000000012e+00 1.7050308149707998e+01 3.1680866485655610e+00 0 0 0
337 2 1.2304999999999998e+01 1.7050308149707998e+01 3.1680866485655610e+00 0 0 0
263 2 8.6134999999999984e+00 1.7760737655945832e+01 3.1680866485655610e+00 0 0 0
299 2 8.6135000000000002e+00 1.9181596668421495e+01 3.1680866485655610e+00 0 0 0
301 2 9.8440000000000012e+00 1.9892026174659335e+01 3.1680866485655610e+00 0 0 0
305 2 1.1074500000000002e+01 1.7760737655945835e+01 3.1680866485655610e+00 0 0 0
333 2 1.1074500000000002e+01 1.9181596668421495e+01 3.1680866485655610e+00 0 0 0
157 2 0.0000000000000000e+00 2.4154603212086325e+01 3.1680866485655610e+00 0 0 0
159 2 0.0000000000000000e+00 2.1312885187134999e+01 3.1680866485655610e+00 0 0 0
161 2 1.2304999999999993e+00 2.2023314693372832e+01 3.1680866485655610e+00 0 0 0
202 2 1.2304999999999993e+00 2.3444173705848499e+01 3.1680866485655610e+00 0 0 0
204 2 2.4610000000000003e+00 2.4154603212086325e+01 3.1680866485655610e+00 0 0 0
206 2 2.4610000000000003e+00 2.1312885187134995e+01 3.1680866485655610e+00 0 0 0
208 2 3.6914999999999996e+00 2.2023314693372832e+01 3.1680866485655610e+00 0 0 0
249 2 3.6915000000000004e+00 2.3444173705848499e+01 3.1680866485655610e+00 0 0 0
251 2 4.9220000000000006e+00 2.4154603212086325e+01 3.1680866485655610e+00 0 0 0
253 2 4.9220000000000006e+00 2.1312885187134995e+01 3.1680866485655610e+00 0 0 0
255 2 6.1524999999999990e+00 2.2023314693372832e+01 3.1680866485655610e+00 0 0 0
291 2 6.1524999999999999e+00 2.3444173705848499e+01 3.1680866485655610e+00 0 0 0
293 2 7.3830000000000009e+00 2.4154603212086336e+01 3.1680866485655610e+00 0 0 0
295 2 7.3829999999999991e+00 2.1312885187134999e+01 3.1680866485655610e+00 0 0 0
297 2 8.6135000000000002e+00 2.2023314693372832e+01 3.1680866485655610e+00 0 0 0
325 2 8.6134999999999984e+00 2.3444173705848499e+01 3.1680866485655610e+00 0 0 0
327 2 9.8440000000000012e+00 2.4154603212086336e+01 3.1680866485655610e+00 0 0 0
329 2 9.8440000000000012e+00 2.1312885187134999e+01 3.1680866485655610e+00 0 0 0
331 2 1.1074500000000002e+01 2.2023314693372832e+01 3.1680866485655610e+00 0 0 0
351 2 1.1074500000000002e+01 2.3444173705848499e+01 3.1680866485655610e+00 0 0 0
94 2 0.0000000000000000e+00 1.2787731112280996e+01 6.1152612504298425e+00 0 0 0
131 2 2.4610000000000003e+00 1.2787731112280996e+01 6.1152612504298425e+00 0 0 0
403 2 0.0000000000000000e+00 1.2787731112280996e+01 9.0624358522938913e+00 0 0 0
404 2 1.2305000000000001e+00 1.3498160618518829e+01 9.0624358522938913e+00 0 0 0
422 2 2.4610000000000003e+00 1.2787731112280996e+01 9.0624358522938913e+00 0 0 0
423 2 3.6915000000000004e+00 1.3498160618518829e+01 9.0624358522938913e+00 0 0 0
92 2 0.0000000000000000e+00 1.4208590124756663e+01 6.1152612504298425e+00 0 0 0
127 2 1.2305000000000001e+00 1.4919019630994494e+01 6.1152612504298425e+00 0 0 0
129 2 2.4610000000000003e+00 1.4208590124756663e+01 6.1152612504298425e+00 0 0 0
172 2 3.6915000000000004e+00 1.4919019630994494e+01 6.1152612504298425e+00 0 0 0
402 2 0.0000000000000000e+00 1.5629449137232333e+01 9.0624358522938913e+00 0 0 0
420 2 1.2305000000000001e+00 1.4919019630994494e+01 9.0624358522938913e+00 0 0 0
421 2 2.4610000000000003e+00 1.5629449137232328e+01 9.0624358522938913e+00 0 0 0
443 2 3.6915000000000004e+00 1.4919019630994494e+01 9.0624358522938913e+00 0 0 0
176 2 4.9220000000000006e+00 1.2787731112280996e+01 6.1152612504298425e+00 0 0 0
223 2 7.3829999999999991e+00 1.2787731112280996e+01 6.1152612504298425e+00 0 0 0
445 2 4.9220000000000006e+00 1.2787731112280996e+01 9.0624358522938913e+00 0 0 0
446 2 6.1524999999999990e+00 1.3498160618518829e+01 9.0624358522938913e+00 0 0 0
469 2 7.3829999999999991e+00 1.2787731112280996e+01 9.0624358522938913e+00 0 0 0
174 2 4.9220000000000006e+00 1.4208590124756663e+01 6.1152612504298425e+00 0 0 0
219 2 6.1524999999999990e+00 1.4919019630994494e+01 6.1152612504298425e+00 0 0 0
221 2 7.3830000000000009e+00 1.4208590124756663e+01 6.1152612504298425e+00 0 0 0
444 2 4.9220000000000006e+00 1.5629449137232333e+01 9.0624358522938913e+00 0 0 0
467 2 6.1524999999999990e+00 1.4919019630994494e+01 9.0624358522938913e+00 0 0 0
468 2 7.3829999999999991e+00 1.5629449137232333e+01 9.0624358522938913e+00 0 0 0
270 2 9.8440000000000012e+00 1.2787731112280996e+01 6.1152612504298425e+00 0 0 0
470 2 8.6135000000000002e+00 1.3498160618518835e+01 9.0624358522938913e+00 0 0 0
493 2 9.8440000000000012e+00 1.2787731112280996e+01 9.0624358522938913e+00 0 0 0
494 2 1.1074500000000002e+01 1.3498160618518829e+01 9.0624358522938913e+00 0 0 0
266 2 8.6135000000000002e+00 1.4919019630994494e+01 6.1152612504298425e+00 0 0 0
268 2 9.8440000000000012e+00 1.4208590124756663e+01 6.1152612504298425e+00 0 0 0
306 2 1.1074500000000002e+01 1.6339878643470161e+01 6.1152612504298425e+00 0 0 0
308 2 1.1074500000000002e+01 1.4919019630994494e+01 6.1152612504298425e+00 0 0 0
310 2 1.2304999999999998e+01 1.4208590124756658e+01 6.1152612504298425e+00 0 0 0
491 2 8.6135000000000002e+00 1.4919019630994494e+01 9.0624358522938913e+00 0 0 0
492 2 9.8440000000000012e+00 1.5629449137232328e+01 9.0624358522938913e+00 0 0 0
512 2 1.1074500000000002e+01 1.4919019630994494e+01 9.0624358522938913e+00 0 0 0