LAMMPS data file via write_data, version 16 Mar 2018, timestep = 8000000

4078 atoms
2 atom types

0.0000000000000000e+00 4.9219999999999999e+01 xlo xhi
0.0000000000000000e+00 4.9019635930410494e+01 ylo yhi
9.2658063540150692e-01 2.7013419364597844e+01 zlo zhi

Masses

1 18.015
2 12.01

Atoms # atomic

52 2 0.0000000000000000e+00 2.8417180249513345e+00 2.7349337515428989e+00 0 0 0
54 2 0.0000000000000000e+00 0.0000000000000000e+00 2.7349337515428989e+00 0 0 0
56 2 1.2305000000000001e+00 7.1042950623783474e-01 2.7349337515428989e+00 0 0 0
63 2 1.2305000000000001e+00 2.1312885187134998e+00 2.7349337515428989e+00 0 0 0
65 2 2.4610000000000003e+00 2.8417180249513345e+00 2.7349337515428989e+00 0 0 0
67 2 2.4610000000000003e+00 0.0000000000000000e+00 2.7349337515428989e+00 0 0 0
69 2 3.6915000000000004e+00 7.1042950623783474e-01 2.7349337515428989e+00 0 0 0
84 2 3.6914999999999996e+00 2.1312885187134998e+00 2.7349337515428989e+00 0 0 0
86 2 4.9220000000000006e+00 2.8417180249513332e+00 2.7349337515428989e+00 0 0 0
88 2 4.9220000000000006e+00 0.0000000000000000e+00 2.7349337515428989e+00 0 0 0
90 2 6.1524999999999999e+00 7.1042950623783407e-01 2.7349337515428989e+00 0 0 0
113 2 6.1524999999999999e+00 2.1312885187134989e+00 2.7349337515428989e+00 0 0 0
115 2 7.3829999999999991e+00 2.8417180249513345e+00 2.7349337515428989e+00 0 0 0
117 2 7.3829999999999991e+00 0.0000000000000000e+00 2.7349337515428989e+00 0 0 0
119 2 8.6134999999999984e+00 7.1042950623783407e-01 2.7349337515428989e+00 0 0 0
150 2 8.6134999999999984e+00 2.1312885187135002e+00 2.7349337515428989e+00 0 0 0
152 2 9.8440000000000012e+00 2.8417180249513332e+00 2.7349337515428989e+00 0 0 0
154 2 9.8440000000000012e+00 0.0000000000000000e+00 2.7349337515428989e+00 0 0 0
156 2 1.1074500000000002e+01 7.1042950623783330e-01 2.7349337515428989e+00 0 0 0
195 2 1.1074500000000002e+01 2.1312885187135002e+00 2.7349337515428989e+00 0 0 0
59 2 0.0000000000000000e+00 4.2625770374269996e+00 2.7349337515428989e+00 0 0 0
61 2 1.2305000000000001e+00 4.9730065436648339e+00 2.7349337515428989e+00 0 0 0
76 2 1.2305000000000001e+00 6.3938655561404980e+00 2.7349337515428989e+00 0 0 0
80 2 2.4610000000000003e+00 4.2625770374269996e+00 2.7349337515428989e+00 0 0 0
82 2 3.6914999999999996e+00 4.9730065436648339e+00 2.7349337515428989e+00 0 0 0
105 2 3.6914999999999996e+00 6.3938655561404980e+00 2.7349337515428989e+00 0 0 0
57 2 0.0000000000000000e+00 7.1042950623783341e+00 2.7349337515428989e+00 0 0 0
78 2 2.4610000000000003e+00 7.1042950623783341e+00 2.7349337515428989e+00 0 0 0
109 2 4.9220000000000006e+00 4.2625770374269978e+00 2.7349337515428989e+00 0 0 0
111 2 6.1524999999999999e+00 4.9730065436648339e+00 2.7349337515428989e+00 0 0 0
142 2 6.1524999999999999e+00 6.3938655561404980e+00 2.7349337515428989e+00 0 0 0
146 2 7.3829999999999991e+00 4.2625770374269996e+00 2.7349337515428989e+00 0 0 0
107 2 4.9220000000000006e+00 7.1042950623783341e+00 2.7349337515428989e+00 0 0 0
144 2 7.3830000000000009e+00 7.1042950623783341e+00 2.7349337515428989e+00 0 0 0
148 2 8.6135000000000002e+00 4.9730065436648339e+00 2.7349337515428989e+00 0 0 0
187 2 8.6135000000000002e+00 6.3938655561404980e+00 2.7349337515428989e+00 0 0 0
191 2 9.8440000000000012e+00 4.2625770374270004e+00 2.7349337515428989e+00 0 0 0
193 2 1.1074500000000002e+01 4.9730065436648339e+00 2.7349337515428989e+00 0 0 0
234 2 1.1074500000000002e+01 6.3938655561404980e+00 2.7349337515428989e+00 0 0 0
189 2 9.8440000000000012e+00 7.1042950623783341e+00 2.7349337515428989e+00 0 0 0
72 2 0.0000000000000000e+00 8.5251540748539991e+00 2.7349337515428989e+00 0 0 0
74 2 1.2305000000000001e+00 9.2355835810918343e+00 2.7349337515428989e+00 0 0 0
101 2 2.4610000000000003e+00 8.5251540748539991e+00 2.7349337515428989e+00 0 0 0
103 2 3.6915000000000004e+00 9.2355835810918343e+00 2.7349337515428989e+00 0 0 0
70 2 0.0000000000000000e+00 1.1366872099805333e+01 2.7349337515428989e+00 0 0 0
97 2 1.2305000000000001e+00 1.0656442593567498e+01 2.7349337515428989e+00 0 0 0
99 2 2.4610000000000003e+00 1.1366872099805333e+01 2.7349337515428989e+00 0 0 0
134 2 3.6914999999999996e+00 1.0656442593567499e+01 2.7349337515428989e+00 0 0 0
138 2 4.9220000000000006e+00 8.5251540748539991e+00 2.7349337515428989e+00 0 0 0
140 2 6.1524999999999999e+00 9.2355835810918343e+00 2.7349337515428989e+00 0 0 0
183 2 7.3830000000000009e+00 8.5251540748539991e+00 2.7349337515428989e+00 0 0 0
136 2 4.9220000000000006e+00 1.1366872099805333e+01 2.7349337515428989e+00 0 0 0
179 2 6.1524999999999999e+00 1.0656442593567499e+01 2.7349337515428989e+00 0 0 0
181 2 7.3829999999999991e+00 1.1366872099805333e+01 2.7349337515428989e+00 0 0 0
185 2 8.6134999999999984e+00 9.2355835810918343e+00 2.7349337515428989e+00 0 0 0
230 2 9.8440000000000012e+00 8.5251540748539956e+00 2.7349337515428989e+00 0 0 0
232 2 1.1074500000000002e+01 9.2355835810918343e+00 2.7349337515428989e+00 0 0 0
226 2 8.6134999999999984e+00 1.0656442593567498e+01 2.7349337515428989e+00 0 0 0
228 2 9.8440000000000012e+00 1.1366872099805333e+01 2.7349337515428989e+00 0 0 0
273 2 1.1074500000000002e+01 1.0656442593567498e+01 2.7349337515428989e+00 0 0 0
275 2 1.2304999999999998e+01 1.1366872099805333e+01 2.7349337515428989e+00 0 0 0
53 2 0.0000000000000000e+00 1.4208590124756650e+00 5.8002890104162628e+00 0 0 0
55 2 0.0000000000000000e+00 0.0000000000000000e+00 5.8002890104162628e+00 0 0 0
64 2 1.2305000000000001e+00 2.1312885187134998e+00 5.8002890104162628e+00 0 0 0
66 2 2.4610000000000003e+00 1.4208590124756650e+00 5.8002890104162628e+00 0 0 0
68 2 2.4610000000000003e+00 0.0000000000000000e+00 5.8002890104162628e+00 0 0 0
85 2 3.6914999999999996e+00 2.1312885187134998e+00 5.8002890104162628e+00 0 0 0
381 2 0.0000000000000000e+00 2.8417180249513345e+00 8.8656442692874826e+00 0 0 0
382 2 0.0000000000000000e+00 0.0000000000000000e+00 8.8656442692874826e+00 0 0 0
383 2 1.2305000000000001e+00 7.1042950623783474e-01 8.8656442692874826e+00 0 0 0
387 2 1.2305000000000001e+00 2.1312885187134998e+00 8.8656442692874826e+00 0 0 0
388 2 2.4610000000000003e+00 2.8417180249513345e+00 8.8656442692874826e+00 0 0 0
389 2 2.4610000000000003e+00 0.0000000000000000e+00 8.8656442692874826e+00 0 0 0
390 2 3.6915000000000004e+00 7.1042950623783474e-01 8.8656442692874826e+00 0 0 0
398 2 3.6914999999999996e+00 2.1312885187134998e+00 8.8656442692874826e+00 0 0 0
62 2 1.2305000000000001e+00 3.5521475311891644e+00 5.8002890104162628e+00 0 0 0
83 2 3.6914999999999996e+00 3.5521475311891644e+00 5.8002890104162628e+00 0 0 0
87 2 4.9220000000000006e+00 1.4208590124756650e+00 5.8002890104162628e+00 0 0 0
89 2 4.9220000000000006e+00 0.0000000000000000e+00 5.8002890104162628e+00 0 0 0
114 2 6.1524999999999999e+00 2.1312885187134989e+00 5.8002890104162628e+00 0 0 0
116 2 7.3829999999999991e+00 1.4208590124756659e+00 5.8002890104162628e+00 0 0 0
118 2 7.3829999999999991e+00 0.0000000000000000e+00 5.8002890104162628e+00 0 0 0
399 2 4.9220000000000006e+00 2.8417180249513332e+00 8.8656442692874826e+00 0 0 0
400 2 4.9220000000000006e+00 0.0000000000000000e+00 8.8656442692874826e+00 0 0 0
401 2 6.1524999999999999e+00 7.1042950623783407e-01 8.8656442692874826e+00 0 0 0
413 2 6.1524999999999999e+00 2.1312885187134989e+00 8.8656442692874826e+00 0 0 0
414 2 7.3829999999999991e+00 2.8417180249513345e+00 8.8656442692874826e+00 0 0 0
415 2 7.3829999999999991e+00 0.0000000000000000e+00 8.8656442692874826e+00 0 0 0
112 2 6.1524999999999999e+00 3.5521475311891644e+00 5.8002890104162628e+00 0 0 0
151 2 8.6134999999999984e+00 2.1312885187135002e+00 5.8002890104162628e+00 0 0 0
153 2 9.8440000000000012e+00 1.4208590124756659e+00 5.8002890104162628e+00 0 0 0
155 2 9.8440000000000012e+00 0.0000000000000000e+00 5.8002890104162628e+00 0 0 0
196 2 1.1074500000000002e+01 2.1312885187135002e+00 5.8002890104162628e+00 0 0 0
416 2 8.6134999999999984e+00 7.1042950623783407e-01 8.8656442692874826e+00 0 0 0
432 2 8.6134999999999984e+00 2.1312885187135002e+00 8.8656442692874826e+00 0 0 0
433 2 9.8440000000000012e+00 2.8417180249513332e+00 8.8656442692874826e+00 0 0 0
434 2 9.8440000000000012e+00 0.0000000000000000e+00 8.8656442692874826e+00 0 0 0
435 2 1.1074500000000002e+01 7.1042950623783330e-01 8.8656442692874826e+00 0 0 0
455 2 1.1074500000000002e+01 2.1312885187135002e+00 8.8656442692874826e+00 0 0 0
149 2 8.6134999999999984e+00 3.5521475311891657e+00 5.8002890104162628e+00 0 0 0
194 2 1.1074500000000002e+01 3.5521475311891644e+00 5.8002890104162628e+00 0 0 0
58 2 0.0000000000000000e+00 5.6834360499026637e+00 5.8002890104162628e+00 0 0 0
60 2 0.0000000000000000e+00 4.2625770374269996e+00 5.8002890104162628e+00 0 0 0
77 2 1.2305000000000001e+00 6.3938655561404980e+00 5.8002890104162628e+00 0 0 0
79 2 2.4610000000000003e+00 5.6834360499026637e+00 5.8002890104162628e+00 0 0 0
81 2 2.4610000000000003e+00 4.2625770374269996e+00 5.8002890104162628e+00 0 0 0
106 2 3.6914999999999996e+00 6.3938655561404980e+00 5.8002890104162628e+00 0 0 0
385 2 0.0000000000000000e+00 4.2625770374269996e+00 8.8656442692874826e+00 0 0 0
386 2 1.2305000000000001e+00 4.9730065436648339e+00 8.8656442692874826e+00 0 0 0
394 2 1.2305000000000001e+00 6.3938655561404980e+00 8.8656442692874826e+00 0 0 0
396 2 2.4610000000000003e+00 4.2625770374269996e+00 8.8656442692874826e+00 0 0 0
397 2 3.6914999999999996e+00 4.9730065436648339e+00 8.8656442692874826e+00 0 0 0
409 2 3.6914999999999996e+00 6.3938655561404980e+00 8.8656442692874826e+00 0 0 0
75 2 1.2305000000000001e+00 7.8147245686161639e+00 5.8002890104162628e+00 0 0 0
104 2 3.6914999999999996e+00 7.8147245686161639e+00 5.8002890104162628e+00 0 0 0
384 2 0.0000000000000000e+00 7.1042950623783341e+00 8.8656442692874826e+00 0 0 0
395 2 2.4610000000000003e+00 7.1042950623783341e+00 8.8656442692874826e+00 0 0 0
108 2 4.9220000000000006e+00 5.6834360499026637e+00 5.8002890104162628e+00 0 0 0
110 2 4.9220000000000006e+00 4.2625770374269978e+00 5.8002890104162628e+00 0 0 0
143 2 6.1524999999999999e+00 6.3938655561404980e+00 5.8002890104162628e+00 0 0 0
145 2 7.3829999999999991e+00 5.6834360499026637e+00 5.8002890104162628e+00 0 0 0
147 2 7.3829999999999991e+00 4.2625770374269996e+00 5.8002890104162628e+00 0 0 0
411 2 4.9220000000000006e+00 4.2625770374269978e+00 8.8656442692874826e+00 0 0 0
412 2 6.1524999999999999e+00 4.9730065436648339e+00 8.8656442692874826e+00 0 0 0
428 2 6.1524999999999999e+00 6.3938655561404980e+00 8.8656442692874826e+00 0 0 0
430 2 7.3829999999999991e+00 4.2625770374269996e+00 8.8656442692874826e+00 0 0 0
141 2 6.1524999999999999e+00 7.8147245686161639e+00 5.8002890104162628e+00 0 0 0
410 2 4.9220000000000006e+00 7.1042950623783341e+00 8.8656442692874826e+00 0 0 0
429 2 7.3830000000000009e+00 7.1042950623783341e+00 8.8656442692874826e+00 0 0 0
188 2 8.6135000000000002e+00 6.3938655561404980e+00 5.8002890104162628e+00 0 0 0
190 2 9.8440000000000012e+00 5.6834360499026637e+00 5.8002890104162628e+00 0 0 0
192 2 9.8440000000000012e+00 4.2625770374270004e+00 5.8002890104162628e+00 0 0 0
235 2 1.1074500000000002e+01 6.3938655561404980e+00 5.8002890104162628e+00 0 0 0
431 2 8.6135000000000002e+00 4.9730065436648339e+00 8.8656442692874826e+00 0 0 0
451 2 8.6135000000000002e+00 6.3938655561404980e+00 8.8656442692874826e+00 0 0 0
453 2 9.8440000000000012e+00 4.2625770374270004e+00 8.8656442692874826e+00 0 0 0
454 2 1.1074500000000002e+01 4.9730065436648339e+00 8.8656442692874826e+00 0 0 0
475 2 1.1074500000000002e+01 6.3938655561404980e+00 8.8656442692874826e+00 0 0 0
186 2 8.6135000000000002e+00 7.8147245686161639e+00 5.8002890104162628e+00 0 0 0
233 2 1.1074500000000002e+01 7.8147245686161639e+00 5.8002890104162628e+00 0 0 0
452 2 9.8440000000000012e+00 7.1042950623783341e+00 8.8656442692874826e+00 0 0 0
71 2 0.0000000000000000e+00 9.9460130873296642e+00 5.8002890104162628e+00 0 0 0
73 2 0.0000000000000000e+00 8.5251540748539991e+00 5.8002890104162628e+00 0 0 0
100 2 2.4610000000000003e+00 9.9460130873296642e+00 5.8002890104162628e+00 0 0 0
102 2 2.4610000000000003e+00 8.5251540748539991e+00 5.8002890104162628e+00 0 0 0
392 2 0.0000000000000000e+00 8.5251540748539991e+00 8.8656442692874826e+00 0 0 0
393 2 1.2305000000000001e+00 9.2355835810918343e+00 8.8656442692874826e+00 0 0 0
407 2 2.4610000000000003e+00 8.5251540748539991e+00 8.8656442692874826e+00 0 0 0
408 2 3.6915000000000004e+00 9.2355835810918343e+00 8.8656442692874826e+00 0 0 0
96 2 1.2305000000000001e+00 1.2077301606043163e+01 5.8002890104162628e+00 0 0 0
98 2 1.2305000000000001e+00 1.0656442593567498e+01 5.8002890104162628e+00 0 0 0
133 2 3.6914999999999996e+00 1.2077301606043163e+01 5.8002890104162628e+00 0 0 0
135 2 3.6914999999999996e+00 1.0656442593567499e+01 5.8002890104162628e+00 0 0 0
391 2 0.0000000000000000e+00 1.1366872099805333e+01 8.8656442692874826e+00 0 0 0
405 2 1.2305000000000001e+00 1.0656442593567498e+01 8.8656442692874826e+00 0 0 0
406 2 2.4610000000000003e+00 1.1366872099805333e+01 8.8656442692874826e+00 0 0 0
424 2 3.6914999999999996e+00 1.0656442593567499e+01 8.8656442692874826e+00 0 0 0
137 2 4.9220000000000006e+00 9.9460130873296642e+00 5.8002890104162628e+00 0 0 0
139 2 4.9220000000000006e+00 8.5251540748539991e+00 5.8002890104162628e+00 0 0 0
182 2 7.3830000000000009e+00 9.9460130873296642e+00 5.8002890104162628e+00 0 0 0
184 2 7.3830000000000009e+00 8.5251540748539991e+00 5.8002890104162628e+00 0 0 0
426 2 4.9220000000000006e+00 8.5251540748539991e+00 8.8656442692874826e+00 0 0 0
427 2 6.1524999999999999e+00 9.2355835810918343e+00 8.8656442692874826e+00 0 0 0
449 2 7.3830000000000009e+00 8.5251540748539991e+00 8.8656442692874826e+00 0 0 0
178 2 6.1524999999999999e+00 1.2077301606043163e+01 5.8002890104162628e+00 0 0 0
180 2 6.1524999999999999e+00 1.0656442593567499e+01 5.8002890104162628e+00 0 0 0
425 2 4.9220000000000006e+00 1.1366872099805333e+01 8.8656442692874826e+00 0 0 0
447 2 6.1524999999999999e+00 1.0656442593567499e+01 8.8656442692874826e+00 0 0 0
448 2 7.3829999999999991e+00 1.1366872099805333e+01 8.8656442692874826e+00 0 0 0
229 2 9.8440000000000012e+00 9.9460130873296642e+00 5.8002890104162628e+00 0 0 0
231 2 9.8440000000000012e+00 8.5251540748539956e+00 5.8002890104162628e+00 0 0 0
450 2 8.6134999999999984e+00 9.2355835810918343e+00 8.8656442692874826e+00 0 0 0
473 2 9.8440000000000012e+00 8.5251540748539956e+00 8.8656442692874826e+00 0 0 0
474 2 1.1074500000000002e+01 9.2355835810918343e+00 8.8656442692874826e+00 0 0 0
225 2 8.6135000000000002e+00 1.2077301606043163e+01 5.8002890104162628e+00 0 0 0
227 2 8.6134999999999984e+00 1.0656442593567498e+01 5.8002890104162628e+00 0 0 0
272 2 1.1074500000000002e+01 1.2077301606043163e+01 5.8002890104162628e+00 0 0 0
274 2 1.1074500000000002e+01 1.0656442593567498e+01 5.8002890104162628e+00 0 0 0
471 2 8.6134999999999984e+00 1.0656442593567498e+01 8.8656442692874826e+00 0 0 0
472 2 9.8440000000000012e+00 1.1366872099805333e+01 8.8656442692874826e+00 0 0 0
495 2 1.1074500000000002e+01 1.0656442593567498e+01 8.8656442692874826e+00 0 0 0
496 2 1.2304999999999998e+01 1.1366872099805333e+01 8.8656442692874826e+00 0 0 0
2028 1 3.8762830034256397e+00 2.1775931885324451e+00 1.1224760077841388e+01 0 -1 0
2782 1 2.2821132935940489e+00 2.0711638801887547e-02 1.1904767154429715e+01 3 -2 0
2580 1 6.2889143617852383e+00 1.4209795612079477e+00 1.2124257541075664e+01 -1 1 0
3301 1 8.4352113220527372e+00 2.9770292998363761e+00 1.1442425412117602e+01 -1 2 0
584 1 1.1119129815762644e+01 2.5628141107236857e+00 1.2308797661113578e+01 0 -1 -1
2000 1 1.2014304133712692e+01 1.8831568603246196e-01 1.1212817936773760e+01 3 1 0
3311 1 8.4294146718510232e-01 5.7250532871339725e+00 1.1409920962871650e+01 1 2 0
2075 1 3.3103396179975610e+00 4.8169796999658194e+00 1.2102158611098183e+01 3 3 -1
1989 1 5.3713471231853198e+00 6.4185924257248983e+00 1.1303089706829107e+01 2 4 -1
714 1 7.7514611805148474e+00 5.7247850285176369e+00 1.2356832146320544e+01 3 1 0
4069 1 9.5234659118552916e+00 7.5970815831850551e+00 1.1982792811554406e+01 -1 0 1
1241 1 1.9707720745653963e+00 1.0801204137729368e+01 1.1068611679495941e+01 0 2 -1
1416 1 3.3510133525076308e-01 8.6716637798122438e+00 1.2014195349251503e+01 2 1 0
3330 1 4.3281704934572067e+00 9.1480512290589839e+00 1.1860669879232470e+01 -4 0 0
1367 1 6.3065580989949774e+00 1.0680615111131265e+01 1.1257946871217445e+01 0 1 0
2601 1 1.0899318249913049e+01 1.1902408973658618e+01 1.1072739472060968e+01 1 -1 0
643 1 8.8235852884750798e+00 1.0212738681382840e+01 1.2206079874687703e+01 -5 -1 -1
2611 1 3.9023443126764246e+00 1.9598952292961140e+00 1.5634267850341947e+01 -3 -3 0
3323 1 2.1915802278543479e+00 4.1906029963112011e-02 1.4667942614610032e+01 2 2 0
574 1 6.4877886382953216e+00 1.3700942134569651e+00 1.4857173980033277e+01 -3 3 -1
1985 1 8.5921955788589663e+00 2.9477899959487974e+00 1.5946107685524741e+01 -2 -2 0
1243 1 1.1306319741323097e+01 2.5170759050147486e+00 1.5189235436763548e+01 2 4 -1
1291 1 8.8439389537596869e-01 5.8370831990216452e+00 1.5471437267874714e+01 -1 3 0
1364 1 3.4060602933029651e+00 4.8578289080733095e+00 1.4899319303182590e+01 2 3 -1
3312 1 9.5170945300071841e-01 5.5097559920080652e+00 1.8183902835731502e+01 -1 -1 1
3946 1 5.3664362557664989e+00 6.4717516537110349e+00 1.5723051409014966e+01 1 0 1
2647 1 7.7420093734523752e+00 5.3879182653073032e+00 1.5156669106089701e+01 1 3 -1
3460 1 9.4682419545982448e+00 7.5326969729766562e+00 1.5206750988752544e+01 1 1 0
2759 1 9.6537918052484279e+00 7.4890403085652757e+00 1.8251538282965942e+01 0 -4 0
3345 1 1.2156548939515009e+01 7.0832292238734738e+00 1.4504750522686109e+01 1 -2 1
1288 1 2.1463638954944027e+00 9.8909346412648294e+00 1.5882330671112600e+01 -1 0 -1
2023 1 4.6946172148041415e-01 8.2933627945724346e+00 1.4906178862032696e+01 -1 -1 -2
1984 1 4.4700831223398989e+00 9.1191411321558942e+00 1.4578213388534550e+01 -2 0 0
1378 1 6.2060538388423474e+00 1.0610752836321778e+01 1.5808956637474667e+01 3 2 0
1283 1 8.9179837391154422e+00 1.0198433928449418e+01 1.5043060512403313e+01 1 -2 0
4051 1 1.0969337466718736e+01 1.1762822961697371e+01 1.5747110291130854e+01 0 -4 0
2583 1 1.4773879576426794e+00 3.0184653945156947e+00 1.8755528083755621e+01 -2 -4 0
645 1 1.5060910212488403e+00 2.5475231881100275e+00 2.1736720065436209e+01 2 -1 0
552 1 4.2047509874762747e+00 2.0638729283204928e+00 1.8328990337332286e+01 -2 3 0
586 1 6.0556494933796090e+00 3.8681422671057573e+00 1.9451674994238267e+01 1 2 0
3382 1 5.9349832721947076e+00 4.0242593377272646e+00 2.2239836067529932e+01 2 0 0
2026 1 8.5649526216675298e+00 3.1436753797738084e+00 1.8726725711687639e+01 2 4 -1
2731 1 9.2890553012388981e+00 5.9851786798871942e-01 2.2525113018053133e+01 -1 -1 0
2108 1 9.4814739002640192e+00 6.6605843675426779e-01 1.9591271567602551e+01 1 1 0
2793 1 2.7378680724516400e+00 7.3124619132614583e+00 1.9109828613977179e+01 -2 5 1
582 1 2.6369079448703099e+00 7.2978288793199448e+00 2.1981948533216659e+01 0 0 1
2139 1 5.4024120535614708e+00 6.4386700171263831e+00 1.8437972652167034e+01 -2 5 1
1455 1 1.0593600385470767e+01 5.0277873436518448e+00 1.9368400020476042e+01 -1 -1 0
2088 1 1.0439127374903258e+01 5.2343992350613879e+00 2.1977347770999614e+01 -1 -3 0
713 1 1.8323815856551133e+00 9.8042898260615363e+00 1.8570793743209936e+01 -1 2 1
2692 1 3.7670373284313201e+00 1.1675460097717931e+01 2.2209685531434392e+01 -1 -2 -1
1944 1 3.9927641476640781e+00 1.1536680005381474e+01 1.9463198604187951e+01 -3 -2 -1
2651 1 7.0921534175450454e+00 8.3591326419336625e+00 1.9225843827595000e+01 1 0 0
4003 1 6.3257189568336294e+00 1.0835384805949094e+01 1.8659744567470042e+01 3 -1 -1
705 1 6.8299769556967647e+00 8.2094818774432330e+00 2.1760589747126787e+01 0 -1 0
600 1 1.1397253993513541e+01 9.4528374374778821e+00 1.9234523607826450e+01 0 -2 -1
1420 1 1.1230474252119715e+01 9.3381393418535108e+00 2.1907452497609100e+01 0 2 0
1379 1 1.0987604887249114e+01 1.1976199452172130e+01 1.8423647571997304e+01 0 4 0
2657 1 1.4362232284519239e+00 2.4562122152134278e+00 2.6549178119716302e+01 -1 1 0
563 1 2.3842687872741188e+00 7.3402971163780029e-02 2.2944811193856783e+01 -1 -2 1
2643 1 2.4705419210793216e+00 8.7553991753026139e-02 2.5775289011973445e+01 1 -2 -1
2743 1 6.6465088512501111e+00 1.3820894490198368e+00 2.3023416473249110e+01 2 0 -1
3305 1 6.7166457565988411e+00 1.3303118985789553e+00 2.5724683670216006e+01 1 0 0
3393 1 5.8412678171741357e+00 3.7550122983793814e+00 2.6100433429999548e+01 0 1 -1
3963 1 1.1341942826789252e+01 3.0326775318938965e+00 2.5991600680375939e+01 -1 4 0
725 1 1.0939588626607522e+01 2.8291034620436819e+00 2.3281299573322009e+01 -1 2 -1
2030 1 9.4169140651405865e+00 8.9194155678961240e-01 2.6429310956916030e+01 0 1 0
2769 1 8.5049636925317390e-02 7.9336295557255703e+00 2.5629801436137786e+01 3 1 0
2606 1 3.2312240021034366e+00 4.6139817035362034e+00 2.2974453147584729e+01 -1 -3 0
2119 1 3.1171852211291871e+00 4.3030454476958235e+00 2.5853674673163344e+01 0 -1 -1
2654 1 2.5664334737273911e+00 6.8756619800388457e+00 2.6412298323522901e+01 4 3 -1
3982 1 7.1951578880955198e+00 8.0863312710690902e+00 2.6613092702738594e+01 2 3 0
3939 1 7.7957888487462395e+00 6.0224278147317918e+00 2.2991349010506593e+01 -2 -1 0
3454 1 7.8843406276014090e+00 5.5395462581041910e+00 2.5756548253183841e+01 -1 3 -1
615 1 1.0494550653300248e+01 5.6710655837147064e+00 2.6367742738940674e+01 0 0 0
1292 1 1.2146375670200580e+01 7.0823542966791022e+00 2.3217847542748707e+01 -2 -1 0
2776 1 4.0818278421309797e+00 1.1545600220936750e+01 2.6359406195665450e+01 -1 -1 0
1311 1 4.5513735175223289e+00 8.8556981541029103e+00 2.6067402762537135e+01 1 -2 0
1228 1 4.2600380265536639e+00 9.0449879188483013e+00 2.3236130540505741e+01 0 -3 -1
4064 1 8.8971846176400984e+00 9.9723783640790806e+00 2.3043535701665860e+01 0 0 0
4012 1 9.0432986091270831e+00 9.7082528299333042e+00 2.5826350802006807e+01 2 0 0
599 1 1.1225228811433707e+01 8.2866377663436506e+00 2.5813260270234931e+01 1 -1 0
93 2 0.0000000000000000e+00 1.2787731112280996e+01 2.7349337515428989e+00 0 0 0
95 2 1.2305000000000001e+00 1.3498160618518829e+01 2.7349337515428989e+00 0 0 0
130 2 2.4610000000000003e+00 1.2787731112280996e+01 2.7349337515428989e+00 0 0 0
132 2 3.6915000000000004e+00 1.3498160618518829e+01 2.7349337515428989e+00 0 0 0
91 2 0.0000000000000000e+00 1.5629449137232333e+01 2.7349337515428989e+00 0 0 0
126 2 1.2305000000000001e+00 1.4919019630994494e+01 2.7349337515428989e+00 0 0 0
128 2 2.4610000000000003e+00 1.5629449137232328e+01 2.7349337515428989e+00 0 0 0
171 2 3.6915000000000004e+00 1.4919019630994494e+01 2.7349337515428989e+00 0 0 0
175 2 4.9220000000000006e+00 1.2787731112280996e+01 2.7349337515428989e+00 0 0 0
177 2 6.1524999999999990e+00 1.3498160618518829e+01 2.7349337515428989e+00 0 0 0
222 2 7.3829999999999991e+00 1.2787731112280996e+01 2.7349337515428989e+00 0 0 0
173 2 4.9220000000000006e+00 1.5629449137232333e+01 2.7349337515428989e+00 0 0 0
218 2 6.1524999999999990e+00 1.4919019630994494e+01 2.7349337515428989e+00 0 0 0
220 2 7.3829999999999991e+00 1.5629449137232333e+01 2.7349337515428989e+00 0 0 0
224 2 8.6135000000000002e+00 1.3498160618518835e+01 2.7349337515428989e+00 0 0 0
269 2 9.8440000000000012e+00 1.2787731112280996e+01 2.7349337515428989e+00 0 0 0
271 2 1.1074500000000002e+01 1.3498160618518829e+01 2.7349337515428989e+00 0 0 0
265 2 8.6135000000000002e+00 1.4919019630994494e+01 2.7349337515428989e+00 0 0 0
267 2 9.8440000000000012e+00 1.5629449137232328e+01 2.7349337515428989e+00 0 0 0
307 2 1.1074500000000002e+01 1.4919019630994494e+01 2.7349337515428989e+00 0 0 0
122 2 0.0000000000000000e+00 1.7050308149707998e+01 2.7349337515428989e+00 0 0 0
167 2 2.4610000000000003e+00 1.7050308149707998e+01 2.7349337515428989e+00 0 0 0
120 2 0.0000000000000000e+00 1.9892026174659328e+01 2.7349337515428989e+00 0 0 0
124 2 1.2305000000000001e+00 1.7760737655945832e+01 2.7349337515428989e+00 0 0 0
163 2 1.2305000000000001e+00 1.9181596668421495e+01 2.7349337515428989e+00 0 0 0
165 2 2.4610000000000003e+00 1.9892026174659328e+01 2.7349337515428989e+00 0 0 0
169 2 3.6914999999999996e+00 1.7760737655945832e+01 2.7349337515428989e+00 0 0 0
210 2 3.6914999999999996e+00 1.9181596668421495e+01 2.7349337515428989e+00 0 0 0
214 2 4.9220000000000006e+00 1.7050308149707998e+01 2.7349337515428989e+00 0 0 0
261 2 7.3830000000000009e+00 1.7050308149707998e+01 2.7349337515428989e+00 0 0 0
212 2 4.9220000000000006e+00 1.9892026174659328e+01 2.7349337515428989e+00 0 0 0
216 2 6.1524999999999999e+00 1.7760737655945832e+01 2.7349337515428989e+00 0 0 0
257 2 6.1524999999999999e+00 1.9181596668421495e+01 2.7349337515428989e+00 0 0 0
259 2 7.3829999999999991e+00 1.9892026174659328e+01 2.7349337515428989e+00 0 0 0
303 2 9.8440000000000012e+00 1.7050308149707998e+01 2.7349337515428989e+00 0 0 0
337 2 1.2304999999999998e+01 1.7050308149707998e+01 2.7349337515428989e+00 0 0 0
263 2 8.6134999999999984e+00 1.7760737655945832e+01 2.7349337515428989e+00 0 0 0
299 2 8.6135000000000002e+00 1.9181596668421495e+01 2.7349337515428989e+00 0 0 0
301 2 9.8440000000000012e+00 1.9892026174659335e+01 2.7349337515428989e+00 0 0 0
305 2 1.1074500000000002e+01 1.7760737655945835e+01 2.7349337515428989e+00 0 0 0
333 2 1.1074500000000002e+01 1.9181596668421495e+01 2.7349337515428989e+00 0 0 0
157 2 0.0000000000000000e+00 2.4154603212086325e+01 2.7349337515428989e+00 0 0 0
159 2 0.0000000000000000e+00 2.1312885187134999e+01 2.7349337515428989e+00 0 0 0
161 2 1.2304999999999993e+00 2.2023314693372832e+01 2.7349337515428989e+00 0 0 0
202 2 1.2304999999999993e+00 2.3444173705848499e+01 2.7349337515428989e+00 0 0 0
204 2 2.4610000000000003e+00 2.4154603212086325e+01 2.7349337515428989e+00 0 0 0
206 2 2.4610000000000003e+00 2.1312885187134995e+01 2.7349337515428989e+00 0 0 0
208 2 3.6914999999999996e+00 2.2023314693372832e+01 2.7349337515428989e+00 0 0 0
249 2 3.6915000000000004e+00 2.3444173705848499e+01 2.7349337515428989e+00 0 0 0
251 2 4.9220000000000006e+00 2.4154603212086325e+01 2.7349337515428989e+00 0 0 0
253 2 4.9220000000000006e+00 2.1312885187134995e+01 2.7349337515428989e+00 0 0 0
255 2 6.1524999999999990e+00 2.2023314693372832e+01 2.7349337515428989e+00 0 0 0
291 2 6.1524999999999999e+00 2.3444173705848499e+01 2.7349337515428989e+00 0 0 0
293 2 7.3830000000000009e+00 2.4154603212086336e+01 2.7349337515428989e+00 0 0 0
295 2 7.3829999999999991e+00 2.1312885187134999e+01 2.7349337515428989e+00 0 0 0
297 2 8.6135000000000002e+00 2.2023314693372832e+01 2.7349337515428989e+00 0 0 0
325 2 8.6134999999999984e+00 2.3444173705848499e+01 2.7349337515428989e+00 0 0 0
327 2 9.8440000000000012e+00 2.4154603212086336e+01 2.7349337515428989e+00 0 0 0
329 2 9.8440000000000012e+00 2.1312885187134999e+01 2.7349337515428989e+00 0 0 0
331 2 1.1074500000000002e+01 2.2023314693372832e+01 2.7349337515428989e+00 0 0 0
351 2 1.1074500000000002e+01 2.3444173705848499e+01 2.7349337515428989e+00 0 0 0
94 2 0.0000000000000000e+00 1.2787731112280996e+01 5.8002890104162628e+00 0 0 0
131 2 2.4610000000000003e+00 1.2787731112280996e+01 5.8002890104162628e+00 0 0 0
403 2 0.0000000000000000e+00 1.2787731112280996e+01 8.8656442692874826e+00 0 0 0
404 2 1.2305000000000001e+00 1.3498160618518829e+01 8.8656442692874826e+00 0 0 0
422 2 2.4610000000000003e+00 1.2787731112280996e+01 8.8656442692874826e+00 0 0 0
423 2 3.6915000000000004e+00 1.3498160618518829e+01 8.8656442692874826e+00 0 0 0
92 2 0.0000000000000000e+00 1.4208590124756663e+01 5.8002890104162628e+00 0 0 0
127 2 1.2305000000000001e+00 1.4919019630994494e+01 5.8002890104162628e+00 0 0 0
129 2 2.4610000000000003e+00 1.4208590124756663e+01 5.8002890104162628e+00 0 0 0
172 2 3.6915000000000004e+00 1.4919019630994494e+01 5.8002890104162628e+00 0 0 0
402 2 0.0000000000000000e+00 1.5629449137232333e+01 8.8656442692874826e+00 0 0 0
420 2 1.2305000000000001e+00 1.4919019630994494e+01 8.8656442692874826e+00 0 0 0
421 2 2.4610000000000003e+00 1.5629449137232328e+01 8.8656442692874826e+00 0 0 0
443 2 3.6915000000000004e+00 1.4919019630994494e+01 8.8656442692874826e+00 0 0 0
176 2 4.9220000000000006e+00 1.2787731112280996e+01 5.8002890104162628e+00 0 0 0
223 2 7.3829999999999991e+00 1.2787731112280996e+01 5.8002890104162628e+00 0 0 0
445 2 4.9220000000000006e+00 1.2787731112280996e+01 8.8656442692874826e+00 0 0 0
446 2 6.1524999999999990e+00 1.3498160618518829e+01 8.8656442692874826e+00 0 0 0
469 2 7.3829999999999991e+00 1.2787731112280996e+01 8.8656442692874826e+00 0 0 0
174 2 4.9220000000000006e+00 1.4208590124756663e+01 5.8002890104162628e+00 0 0 0
219 2 6.1524999999999990e+00 1.4919019630994494e+01 5.8002890104162628e+00 0 0 0
221 2 7.3830000000000009e+00 1.4208590124756663e+01 5.8002890104162628e+00 0 0 0
444 2 4.9220000000000006e+00 1.5629449137232333e+01 8.8656442692874826e+00 0 0 0
467 2 6.1524999999999990e+00 1.4919019630994494e+01 8.8656442692874826e+00 0 0 0
468 2 7.3829999999999991e+00 1.5629449137232333e+01 8.8656442692874826e+00 0 0 0
270 2 9.8440000000000012e+00 1.2787731112280996e+01 5.8002890104162628e+00 0 0 0
470 2 8.6135000000000002e+00 1.3498160618518835e+01 8.8656442692874826e+00 0 0 0
493 2 9.8440000000000012e+00 1.2787731112280996e+01 8.8656442692874826e+00 0 0 0
494 2 1.1074500000000002e+01 1.3498160618518829e+01 8.8656442692874826e+00 0 0 0
266 2 8.6135000000000002e+00 1.4919019630994494e+01 5.8002890104162628e+00 0 0 0
268 2 9.8440000000000012e+00 1.4208590124756663e+01 5.8002890104162628e+00 0 0 0
306 2 1.1074500000000002e+01 1.6339878643470161e+01 5.8002890104162628e+00 0 0 0
308 2 1.1074500000000002e+01 1.4919019630994494e+01 5.8002890104162628e+00 0 0 0
310 2 1.2304999999999998e+01 1.4208590124756658e+01 5.8002890104162628e+00 0 0 0
491 2 8.6135000000000002e+00 1.4919019630994494e+01 8.8656442692874826e+00 0 0 0
492 2 9.8440000000000012e+00 1.5629449137232328e+01 8.8656442692874826e+00 0 0 0
512 2 1.1074500000000002e+01 1.4919019630994494e+01 8.8656442692874826e+00 0 0 0
123 2 0.0000000000000000e+00 1.7050308149707998e+01 5.8002890104162628e+00 0 0 0
125 2 1.2305000000000001e+00 1.6339878643470165e+01 5.8002890104162628e+00 0 0 0
168 2 2.4610000000000003e+00 1.7050308149707998e+01 5.8002890104162628e+00 0 0 0