
# Create simulation box and atoms

read_data data.ML_graphite_m1000atm_255K
  orthogonal box = (0 0 1.44492) to (49.22 49.0196 26.4951)
  4 by 4 by 2 MPI processor grid
  reading atoms ...
  4078 atoms
  reading velocities ...
  4078 velocities
group water type 1
1318 atoms in group water
group graphite type 2
2760 atoms in group graphite

# Define potential

pair_style sw
pair_coeff * * MLC_e.sw mW C


# Fix graphite atoms in place

fix 5 graphite setforce 0.0 0.0 0.0
velocity graphite set 0.0 0.0 0.0


# Equilibration of molecular water

# Add velocity/set timestep

velocity	    water create ${TEMP} ${SEED} rot yes dist gaussian
velocity	    water create 255 ${SEED} rot yes dist gaussian
velocity	    water create 255 22973 rot yes dist gaussian
timestep	    5.0

# Define output

compute			1 water msd
compute			3 water temp
thermo	    	50
thermo_style	custom step temp press vol etotal ke pe c_1[4] c_3

# Neighbor lists

neigh_modify    delay 0 every 1 check yes

# Set fixes

fix             1 water momentum 10 linear 1 1 1 rescale
fix             2 water nve
fix             3 water temp/csvr ${TEMP} ${TEMP} 500.0 ${SEED}
fix             3 water temp/csvr 255 ${TEMP} 500.0 ${SEED}
fix             3 water temp/csvr 255 255 500.0 ${SEED}
fix             3 water temp/csvr 255 255 500.0 22973
fix             4 water press/berendsen z ${PRES} ${PRES} 1000.0 modulus 20000
fix             4 water press/berendsen z -1000 ${PRES} 1000.0 modulus 20000
fix             4 water press/berendsen z -1000 -1000 1000.0 modulus 20000

# Run 0.5 ns equilibration

dump		    1 all atom 2000 ${DIR}/eq.${NAME}-${TEMP}.dump
dump		    1 all atom 2000 run_1/eq.${NAME}-${TEMP}.dump
dump		    1 all atom 2000 run_1/eq.het_freeze_1-${TEMP}.dump
dump		    1 all atom 2000 run_1/eq.het_freeze_1-255.dump

reset_timestep  0

run	            100000
Neighbor list info ...
  update every 1 steps, delay 0 steps, check yes
  max neighbors/atom: 2000, page size: 100000
  master list distance cutoff = 6.67472
  ghost atom cutoff = 6.67472
  binsize = 3.33736, bins = 15 15 8
  1 neighbor lists, perpetual/occasional/extra = 1 0 0
  (1) pair sw, perpetual
      attributes: full, newton on
      pair build: full/bin/atomonly
      stencil: full/bin/3d
      bin: standard
Per MPI rank memory allocation (min/avg/max) = 4.115 | 4.3 | 4.486 Mbytes
Step Temp Press Volume TotEng KinEng PotEng c_1[4] c_3 
       0    82.373068   -1477.0276    60439.688   -12684.867    1001.0603   -13685.928            0          255 
      50     84.65045   -1428.0036    60435.244   -12678.903    1028.7368    -13707.64   0.55043242    262.05003 
     100    84.688467   -1476.1242     60456.55   -12669.315    1029.1988   -13698.514   0.96876673    262.16771 
     150    81.791739   -1424.4561    60442.727   -12688.557    993.99559   -13682.553     1.309358     253.2004 
     200    81.881434   -1339.4108    60480.466   -12715.856    995.08563   -13710.941     1.534714    253.47806 
     250    81.764213    -1103.233    60551.612   -12703.817    993.66106   -13697.478    1.7044825    253.11518 
     300    81.273236   -1627.5149    60541.752   -12709.482    987.69435   -13697.177    1.8561335    251.59528 
     350    80.790336   -1478.2955    60499.119   -12743.756    981.82577   -13725.582    2.0337393    250.10038 
     400    79.646157    -1078.154     60491.44   -12757.784    967.92084   -13725.705    2.1570093    246.55838 
     450    80.027722   -1438.7915    60531.915   -12764.345    972.55791   -13736.903    2.3224589    247.73958 
     500    82.970021   -1489.1487    60572.741   -12732.469     1008.315   -13740.784    2.4880597    256.84797 
     550    80.052651    -1064.042    60568.258    -12709.75    972.86086    -13682.61    2.5932374    247.81675 
     600    86.211289   -1222.2672    60551.245   -12694.645    1047.7053   -13742.351    2.6491538    266.88187 
     650    84.192049   -1000.5878    60556.607   -12717.681     1023.166   -13740.847    2.7724325    260.63097 
     700    84.103386   -1036.4577    60631.673   -12746.748    1022.0885   -13768.837    2.9343975     260.3565 
     750    80.692355   -1206.6973    60656.913   -12762.337    980.63503   -13742.972    3.0915624    249.79706 
     800    78.890558   -1643.6428    60640.429   -12740.596    958.73822   -13699.334    3.3275721    244.21929 
     850    80.897673   -1462.3588    60582.165   -12758.934    983.13021   -13742.064     3.492769    250.43266 
     900    79.015445   -1463.2506    60551.753   -12776.867    960.25594   -13737.123    3.6031012     244.6059 
     950    81.769228   -1483.1575    60538.547   -12713.301    993.72201   -13707.023     3.685657    253.13071 
    1000    84.647074    -1376.611    60429.575   -12690.764    1028.6958    -13719.46    3.7156529    262.03957 
    1050    82.481351   -1200.0834    60431.445   -12702.474    1002.3763   -13704.851    3.8916773    255.33521 
    1100      82.9119   -1517.0832    60389.151   -12687.595    1007.6086   -13695.203    4.1611217    256.66805 
    1150     83.07682   -1740.3848    60322.826    -12665.64    1009.6129   -13675.253    4.3648825    257.17858 
    1200    82.181248   -1222.1699    60270.402   -12688.943    998.72919   -13687.672    4.5466508    254.40619 
    1250    83.181895   -1183.2975     60296.67   -12678.558    1010.8898   -13689.448    4.7152156    257.50386 
    1300    82.954666   -1242.1118    60353.616   -12690.118    1008.1284   -13698.246    4.8565933    256.80044 
    1350    83.627077   -2083.4606    60297.866   -12671.902       1016.3   -13688.202    5.1664752      258.882 
    1400    83.613059   -1510.3695    60300.573   -12657.927    1016.1297   -13674.057    5.3838055     258.8386 
    1450     83.62823   -1332.3672    60351.411   -12664.182     1016.314   -13680.496    5.6676667    258.88557 
    1500    82.857347   -1371.5356     60433.49   -12672.421    1006.9457   -13679.366    5.8449222    256.49917 
    1550    78.948484   -1471.4093      60407.1    -12670.95    959.44218   -13630.393    6.1176358    244.39861 
    1600    80.982136   -1721.2599    60379.612   -12687.328    984.15668   -13671.484    6.2992465    250.69413 
    1650    80.162131   -1117.8182    60360.498   -12726.322    974.19135   -13700.514    6.5356704    248.15566 
    1700    81.962317   -1720.3359    60337.428   -12689.906    996.06857   -13685.975    6.6863722    253.72845 
    1750    80.135365   -1396.4764    60336.908   -12699.067    973.86606   -13672.933    6.8615387     248.0728 
    1800    83.817049   -1461.8348    60356.496    -12646.94    1018.6087   -13665.549    7.0757594    259.47009 
    1850     82.35821   -1522.3825    60308.176     -12667.4    1000.8798    -13668.28     7.285258      254.954 
    1900     81.05426   -1331.4336    60280.332    -12683.95    985.03318   -13668.983     7.507909     250.9174 
    1950    83.384868   -1530.5736     60295.93   -12698.736    1013.3565   -13712.092    7.6625944     258.1322 
    2000    82.175559   -1446.9437    60271.376   -12702.194    998.66006   -13700.854    7.8478824    254.38858 
    2050    83.616297   -1170.5633     60294.89   -12676.531     1016.169     -13692.7     8.216351    258.84863 
    2100    82.733796   -1555.9919    60349.695   -12673.526    1005.4442    -13678.97    8.3947338    256.11669 
    2150    79.341872   -1251.5862    60400.368   -12671.827    964.22293   -13636.049    8.6888754    245.61641 
    2200    80.403086   -1218.4999    60365.009   -12665.752    977.11961   -13642.872    8.9357561    248.90158 
    2250    81.061499   -1392.1861    60414.267   -12660.605    985.12116   -13645.726    9.1566987    250.93981 
    2300    82.584062   -1754.7025    60362.236   -12682.295    1003.6245   -13685.919    9.4034168    255.65317 
    2350    81.246199   -1687.8442    60337.593   -12662.038    987.36576   -13649.404    9.5287862    251.51158 
    2400    84.647048   -1335.4022     60323.79   -12646.119    1028.6955   -13674.815     9.553097    262.03949 
    2450    80.316702   -1617.2576    60297.164   -12686.713    976.06981   -13662.783    9.7272577    248.63416 
    2500    80.925122   -1708.0818    60288.412   -12710.789    983.46379   -13694.253    9.8119404    250.51763 
    2550    78.483755   -1580.9266      60264.7   -12717.788    953.79444   -13671.582    10.080609    242.95996 
    2600    79.806729    -1252.557    60244.667   -12730.701    969.87223   -13700.574    10.232858    247.05545 
    2650    84.693954   -1481.7499     60240.24   -12705.536    1029.2655   -13734.802    10.309503     262.1847 
    2700    81.706927   -1414.8483    60264.273   -12702.799    992.96488   -13695.764    10.512386    252.93784 
    2750    83.480777   -1281.9334    60269.636   -12739.652    1014.5221   -13754.174     10.81636     258.4291 
    2800    81.104058   -995.74974    60287.513    -12760.99    985.63836   -13746.628    11.068783    251.07156 
    2850    81.635253   -1380.7553    60329.455   -12760.334    992.09385   -13752.428     11.21399    252.71597 
    2900    82.149807    -1235.927    60313.083    -12734.26     998.3471   -13732.607    11.536486    254.30886 
    2950    78.923316   -1673.9228    60335.733   -12757.992    959.13633   -13717.129    11.858025     244.3207 
    3000    79.921155   -1338.3074    60337.232   -12734.373    971.26283   -13705.636    12.161725    247.40968 
    3050    81.547831   -1423.6427    60372.581   -12743.053    991.03143   -13734.084    12.516621    252.44533 
    3100    80.554241   -1555.1691    60385.733   -12733.917    978.95657   -13712.874    12.808924    249.36951 
    3150    80.486032   -1492.9915    60424.126   -12733.375    978.12764   -13711.502    12.797474    249.15836 
    3200    82.312087   -1423.8116    60460.208   -12749.031    1000.3192    -13749.35    12.827919    254.81122 
    3250    82.217952   -1585.6767    60490.271   -12737.703    999.17525   -13736.878    12.986898    254.51981 
    3300    82.949525   -1657.6116     60498.11   -12735.551    1008.0659   -13743.617    13.066705    256.78452 
    3350    82.473786    -1434.435    60431.219   -12692.451    1002.2843   -13694.736    13.232646    255.31179 
    3400    83.495984   -1639.9293    60410.845   -12692.801    1014.7069   -13707.508    13.265786    258.47618 
    3450    81.227066   -1768.4414    60369.822   -12712.562    987.13325   -13699.695    13.381709    251.45235 
    3500    80.033559   -1797.3233    60331.069     -12721.3    972.62884   -13693.929    13.515267    247.75765 
    3550    84.166322   -1505.6125    60364.012   -12687.576    1022.8533    -13710.43    13.535829    260.55132 
    3600     84.06924    -1149.007     60428.92   -12667.351    1021.6735   -13689.024    13.656336    260.25079 
    3650     82.42786   -1166.0756     60473.35   -12668.256    1001.7262   -13669.982    13.849248    255.16962 
    3700    82.627102   -1429.5404    60480.511    -12731.92    1004.1476   -13736.068    13.948909    255.78641 
    3750    81.211395   -1532.8805    60474.517   -12686.134     986.9428   -13673.077    14.008276    251.40384 
    3800    82.273476   -1765.4711    60498.995   -12666.639    999.85002   -13666.489    14.008989    254.69169 
    3850    81.316246   -1836.2415    60478.532    -12688.08    988.21703   -13676.297    14.254531    251.72842 
    3900    82.634619   -1413.4912    60512.081   -12670.043    1004.2389   -13674.282    14.463545    255.80968 
    3950    80.794152   -1455.6306    60522.944   -12657.958    981.87215    -13639.83    14.559305    250.11219 
    4000    80.039355   -1582.1727    60502.207   -12672.313    972.69928   -13645.012    14.817023    247.77559 
    4050    82.484444   -1476.4242    60517.174   -12675.392    1002.4139   -13677.806    14.815899    255.34478 
    4100    80.290072   -1744.8558    60467.756   -12687.973    975.74618    -13663.72    15.021813    248.55173 
    4150    80.716116   -1722.1868    60452.185   -12686.276     980.9238     -13667.2    15.376412    249.87062 
    4200    79.724809   -1500.8721    60417.546   -12700.599    968.87667   -13669.476    15.776184    246.80186 
    4250    84.284558   -1392.3763    60445.444   -12701.269    1024.2902   -13725.559    16.120001    260.91734 
    4300     79.47475   -1588.6475     60442.49   -12715.775    965.83776   -13681.612    16.390803    246.02776 
    4350    82.663494   -1606.8678    60365.428   -12729.892    1004.5898   -13734.482    16.581092    255.89906 
    4400    82.220285   -1041.3795    60428.415   -12707.927     999.2036    -13707.13    16.738737    254.52703 
    4450    83.401884   -1471.5697    60490.795   -12682.561    1013.5633   -13696.124    17.136209    258.18488 
    4500    85.335005   -1378.1489    60520.437   -12665.443    1037.0561   -13702.499     17.41841    264.16918 
    4550     82.30695   -1821.8828    60552.657    -12654.58    1000.2568   -13654.836    17.566189    254.79532 
    4600    80.289426   -1291.6485    60539.902   -12705.956    975.73834   -13681.694     17.65649    248.54973 
    4650    80.200367   -1069.0306    60565.143    -12711.99    974.65602   -13686.647    17.969776    248.27403 
    4700    80.297235   -1324.5422    60604.455   -12706.169    975.83323   -13682.002    18.420134     248.5739 
    4750    84.449116   -1577.4552    60608.479   -12700.766    1026.2901   -13727.057    18.631841    261.42676 
    4800     81.96471   -1412.9301    60579.013   -12711.448    996.09766   -13707.546    18.789026    253.73586 
    4850    81.225286   -1536.6191     60592.54   -12716.989    987.11161     -13704.1    18.898737    251.44684 
    4900    82.171178   -1805.6785    60507.105   -12714.308    998.60682   -13712.915    18.975548    254.37501 
    4950    81.593199   -1342.8342    60500.649   -12689.043    991.58278   -13680.626    18.953339    252.58578 
    5000    81.000137   -1208.3796    60543.397   -12724.134    984.37543   -13708.509    19.177889    250.74985 
    5050    82.448962   -1705.5988     60528.74   -12695.879    1001.9827   -13697.862    19.347748    255.23494 
    5100    82.546517   -1644.8799    60468.514   -12690.099    1003.1682   -13693.267    19.379545    255.53694 
    5150    81.964545   -1490.4942    60438.226    -12685.28    996.09566   -13681.375     19.30737    253.73535 
    5200    82.376568   -1428.7323    60417.996   -12709.133    1001.1029   -13710.236    19.406877    255.01083 
    5250    83.679775   -1145.5826    60460.791   -12684.503    1016.9404   -13701.443    19.519028    259.04513 
    5300    81.409583    -1776.903    60430.772   -12713.272    989.35133   -13702.623    19.774667    252.01736 
    5350    82.716151   -1796.0147    60408.327   -12692.196    1005.2297   -13697.426    19.679115    256.06207 
    5400    82.503577    -1543.806    60389.733   -12697.944    1002.6464    -13700.59    19.830618    255.40401 
    5450    78.830211   -1515.3187    60427.734   -12713.737    958.00483   -13671.742    20.170302    244.03247 
    5500    81.730444   -1664.2958    60397.209   -12698.183    993.25068   -13691.434    20.313358    253.01064 
    5550    80.385763   -944.84834    60380.049   -12711.464    976.90909   -13688.373    20.439271    248.84795 
    5600    79.772886   -1283.0614    60386.857   -12742.368    969.46095   -13711.829    20.644131    246.95069 
    5650    79.346798   -1323.2551     60467.73   -12759.455    964.28279   -13723.738    20.851435    245.63166 
    5700    79.855802   -1299.1468    60518.407   -12737.768     970.4686   -13708.237    21.137582    247.20737 
    5750    81.198796   -1492.5413    60539.062   -12720.961    986.78969    -13707.75    21.186733    251.36484 
    5800    81.671489   -1390.7432    60505.836    -12681.34    992.53421   -13673.874    21.378498    252.82814 
    5850    79.382937   -1811.8817    60513.787   -12698.612    964.72199   -13663.334     21.38842    245.74354 
    5900    82.926344   -1643.9829    60469.082   -12685.139    1007.7842   -13692.923    21.665073    256.71276 
    5950    85.014755   -1376.7096    60414.152   -12655.675    1033.1641   -13688.839    21.804645    263.17779 
    6000     85.74253    -1402.901    60490.594   -12646.738    1042.0086   -13688.747    21.941172    265.43075 
    6050    86.085764   -1308.6943    60494.917   -12655.355    1046.1798   -13701.535    22.085249    266.49329 
    6100    84.384196   -1455.8005    60532.559   -12667.271    1025.5011   -13692.772    22.131983    261.22579 
    6150    82.157404   -1622.1456    60539.174   -12691.739    998.43942   -13690.178    22.211355    254.33237 
    6200    81.964102   -1891.2407    60515.628   -12695.882    996.09027   -13691.973    22.212309    253.73397 
    6250    82.486259   -1679.9818     60510.33   -12738.956    1002.4359   -13741.392    22.287338     255.3504 
    6300    82.385352   -1485.0511    60467.582   -12712.581    1001.2096    -13713.79    22.276356    255.03802 
    6350    83.367175   -1635.7438      60450.5   -12709.531    1013.1415   -13722.672    22.431636    258.07743 
    6400    81.353018   -997.36132    60479.298   -12692.441    988.66391   -13681.104    22.653222    251.84226 
    6450    83.659576   -1749.5343     60494.15    -12692.37     1016.695   -13709.065    22.856347    258.98261 
    6500    85.891727   -1772.2566    60436.497   -12685.201    1043.8218   -13729.023    22.881844    265.89261 
    6550    82.860242   -1649.4688    60435.659    -12683.13    1006.9808   -13690.111    22.827327    256.50813 
    6600    83.215529   -1485.1494    60369.974    -12663.03    1011.2986   -13674.329       23.009    257.60798 
    6650    82.542608   -1389.7604    60398.724   -12672.744    1003.1207   -13675.865     23.45267    255.52484 
    6700     84.38329   -1376.1669    60459.222   -12652.086    1025.4901   -13677.577    23.422187    261.22299 
    6750     82.58049    -637.4229    60514.623   -12654.814    1003.5811   -13658.395    23.484175    255.64211 
    6800    80.975248   -1119.3254    60572.954    -12661.07    984.07296   -13645.143    23.641154     250.6728 
    6850    84.657716   -1227.1691    60580.899   -12636.873    1028.8251   -13665.698    23.549687    262.07252 
    6900    81.664233   -1393.2268    60545.387   -12635.743    992.44603   -13628.189    23.904663    252.80568 
    6950    82.328019   -1512.9905    60474.627   -12638.492    1000.5129   -13639.005    24.302996    254.86054 
    7000    82.950804   -1444.6677    60428.491   -12640.441    1008.0814   -13648.522    24.489607    256.78848 
    7050    80.165437   -1356.3282    60326.651   -12654.317    974.23152   -13628.548    24.600132     248.1659 
    7100    81.945157   -1206.5259    60319.634    -12677.24    995.86003     -13673.1    24.997628    253.67533 
    7150    84.096109    -1319.969    60378.123   -12655.952         1022   -13677.952    25.159456    260.33397 
    7200    82.551846   -1335.9318    60372.215   -12670.704     1003.233   -13673.937    25.341685    255.55344 
    7250    81.778649    -1621.352    60303.768   -12676.433    993.83651    -13670.27     25.55164    253.15987 
    7300    79.972918   -1348.7518    60302.892   -12679.561    971.89188   -13651.453    25.713918    247.56992 
    7350    84.226831    -1441.946    60302.417   -12675.371    1023.5887    -13698.96    25.702935    260.73864 
    7400    81.886205   -1530.5398     60310.66   -12680.469    995.14361   -13675.613    25.683594    253.49283 
    7450    83.231754   -1575.8495    60271.701   -12670.976    1011.4957   -13682.472    25.915879    257.65821 
    7500    83.955166   -1362.2161    60286.151   -12635.013    1020.2872     -13655.3    25.949996    259.89765 
    7550    85.085316   -1340.5836    60324.493   -12619.961    1034.0216   -13653.983    25.931199    263.39623 
    7600    82.368321   -1389.0186    60313.268   -12633.844    1001.0027   -13634.847    26.163675     254.9853 
    7650    81.870251   -1667.3847    60345.711   -12624.909    994.94972   -13619.859    26.458456    253.44344 
    7700    86.331136   -1496.4418    60363.955   -12591.046    1049.1618   -13640.208    26.965707    267.25288 
    7750    83.683614    -1427.039    60368.843   -12610.394    1016.9871   -13627.381    27.346754    259.05702 
    7800    81.629462   -1572.5598    60348.587   -12632.296    992.02347   -13624.319    27.652765    252.69804 
    7850      83.6573   -1540.5175    60339.433   -12641.669    1016.6673   -13658.336    27.853212    258.97556 
    7900    83.366829   -1566.3359    60275.991   -12655.582    1013.1373   -13668.719    28.133803    258.07636 
    7950    84.003474   -1550.0685    60216.291   -12638.831    1020.8743   -13659.705    28.430549     260.0472 
    8000    84.295849   -1288.6541    60207.081   -12620.073    1024.4274     -13644.5    28.942503     260.9523 
    8050    87.539034   -1243.9306    60270.845   -12620.426    1063.8411   -13684.267    29.001118    270.99214 
    8100    82.464262    -1456.435    60234.725   -12644.806    1002.1686   -13646.974     29.42338     255.2823 
    8150    85.138673   -1517.4809    60250.466   -12648.442    1034.6701   -13683.112    29.750942     263.5614 
    8200     82.98072   -1394.2602    60290.603   -12658.804     1008.445   -13667.249     30.05996    256.88109 
    8250    82.222163   -1565.8408    60381.069    -12681.97    999.22643   -13681.196     30.34217    254.53285 
    8300    81.295946   -1368.2829     60363.75   -12700.224    987.97033   -13688.194    30.486505    251.66558 
    8350    82.229668   -1812.3375    60327.952   -12674.799    999.31763   -13674.116    30.744048    254.55608 
    8400    82.445901   -1349.9361    60397.704   -12674.502    1001.9455   -13676.448     31.07337    255.22547 
    8450     80.28142   -1628.0498    60403.063   -12660.121    975.64103   -13635.762    31.289691    248.52494 
    8500    81.837579   -1273.4863    60399.186    -12678.81    994.55266   -13673.363    31.346436     253.3423 
    8550    80.081906   -1386.4864    60382.725   -12676.109    973.21639   -13649.326    31.727908    247.90731 
    8600    82.045243   -1533.7094     60391.61   -12668.339    997.07636   -13665.415    31.897377    253.98516 
    8650    82.248306   -1502.7195    60401.733   -12654.595    999.54413    -13654.14    32.006209    254.61378 
    8700    82.816724   -1711.3643    60426.673   -12688.878     1006.452    -13695.33    32.006617    256.37341 
    8750    81.327881   -1684.5926    60401.605   -12659.382    988.35843    -13647.74    32.083638    251.76444 
    8800    84.771915   -1362.4585    60388.121   -12635.406     1030.213   -13665.619    32.299787    262.42604 
    8850    85.409109   -1394.8327    60334.846   -12648.189    1037.9566   -13686.146    32.627222    264.39859 
    8900    84.222615    -1550.181    60379.431   -12655.194    1023.5374   -13678.732    32.949509    260.72559 
    8950    83.713051   -1757.9676    60364.798   -12662.014    1017.3448   -13679.359     33.34972    259.14815 
    9000    80.994395   -1141.9018    60389.834   -12663.089    984.30565   -13647.394    33.628605    250.73208 
    9050    80.489485   -1503.3543    60395.056   -12646.162    978.16961   -13624.331    33.896202    249.16905 
    9100    82.942182   -1144.7665    60456.273     -12650.5    1007.9766   -13658.477    33.942183    256.76179 
    9150    85.205179   -1566.5753    60430.306   -12647.311    1035.4783   -13682.789    34.433481    263.76729 
    9200    82.580264   -1229.2635    60438.319   -12635.926    1003.5783   -13639.504    34.504775    255.64141 
    9250    81.412377   -1376.7162    60408.838   -12633.594    989.38529   -13622.979    34.858718    252.02602 
    9300    80.833972   -1521.1728    60377.114   -12672.122    982.35607   -13654.479    35.091514    250.23546 
    9350    82.444932   -1434.7864     60376.06   -12670.452    1001.9337   -13672.386    35.233819    255.22246 
    9400     80.43457   -1123.2621    60438.413   -12695.234    977.50223   -13672.736    35.551612    248.99905 
    9450     78.64511   -1396.4787    60443.076   -12705.136    955.75535   -13660.891    35.872872    243.45946 
    9500    80.411695   -1326.2151    60462.749   -12689.739    977.22423   -13666.963    35.935021    248.92823 
    9550    81.671498   -1815.5794    60450.185   -12699.511    992.53432   -13692.045    36.186004    252.82817 
    9600    80.703025   -1611.7859    60360.081   -12713.021     980.7647   -13693.786     36.28262    249.83009 
    9650    82.374682   -1216.7072    60314.131   -12702.141      1001.08   -13703.221    36.644161    255.00499 
    9700    81.520982   -1202.0435    60328.324   -12705.329    990.70514   -13696.035    36.923841    252.36222 
    9750    83.251912   -971.02973    60414.597   -12701.983    1011.7407   -13713.724    37.211196    257.72061 
    9800     82.35524   -1380.0233    60506.555   -12704.249    1000.8437   -13705.093    37.338549    254.94481 
    9850    81.578589   -1350.7676    60537.173   -12683.861    991.40522   -13675.266    37.484502    252.54055 
    9900      78.8262   -1293.3978    60531.776   -12705.502    957.95609   -13663.458    37.429433    244.02006 
    9950    80.150931   -1812.8786    60565.584   -12708.175    974.05523    -13682.23    37.776759    248.12099 
   10000      79.5633   -986.71026    60597.409   -12689.691     966.9139   -13656.605    37.737768    246.30188 
   10050    80.693505   -1740.0122    60582.024   -12691.871    980.64901    -13672.52     38.15381    249.80062 
   10100     82.82644   -1407.8766    60563.093   -12674.195    1006.5701   -13680.765    38.412652    256.40349 
   10150    81.019162   -1494.4856    60515.003   -12692.795    984.60663   -13677.402    38.480772    250.80875 
   10200    82.755877   -1299.0417     60507.13   -12687.148    1005.7125    -13692.86    38.912802    256.18505 
   10250     80.28114   -1676.5618    60532.252   -12699.934    975.63763   -13675.572    39.246992    248.52407 
   10300    80.483935   -1287.2108    60481.488   -12700.539    978.10215   -13678.641    39.432466    249.15186 
   10350    79.235353   -1502.1498     60440.88   -12734.143    962.92844   -13697.071    39.886888    245.28666 
   10400    81.132514   -1835.6861    60444.919   -12692.557    985.98418   -13678.542    40.266661    251.15965 
   10450    81.977614   -1618.4052    60418.348   -12689.991    996.25448   -13686.246    40.225611     253.7758 
   10500    83.478506   -1643.2505     60367.37   -12670.101    1014.4945   -13684.595    40.275365    258.42207 
   10550    80.377245   -1678.8777    60344.535   -12674.355    976.80557   -13651.161    40.290781    248.82158 
   10600    82.482961   -1482.4797    60283.316   -12659.636    1002.3958   -13662.032    40.448849    255.34019 
   10650    81.930642   -1578.0046    60283.585   -12683.313    995.68365   -13678.996    40.460684    253.63039 
   10700       80.425   -1239.1342    60261.577   -12711.513    977.38593   -13688.898    40.598536    248.96942 
   10750    81.217517   -1640.2149    60269.172   -12718.192     987.0172    -13705.21    40.696364    251.42279 
   10800    83.647394   -1278.5876     60315.62   -12696.303    1016.5469    -13712.85    40.758634    258.94489 
   10850    85.683684   -1603.0693    60378.695    -12663.61    1041.2935   -13704.904    40.939212    265.24858 
   10900    83.883641   -1577.6081    60400.577   -12675.041     1019.418   -13694.459     40.83821    259.67624 
   10950    84.055601   -1451.1308     60400.31   -12663.037    1021.5078   -13684.544     40.96277    260.20857 
   11000    82.299605    -1403.916    60408.631   -12637.176    1000.1676   -13637.343    41.208711    254.77258 
   11050    80.764464   -1490.8131    60425.083   -12675.991    981.51135   -13657.503    41.489631    250.02029 
   11100     83.29299   -1296.4899    60413.238   -12694.062    1012.2399   -13706.302    41.686473    257.84778 
   11150    80.797673   -1518.3278    60373.352   -12703.945    981.91494    -13685.86    41.689941    250.12309 
   11200    80.240761   -1352.0008    60319.701   -12723.419    975.14692   -13698.566    41.552823    248.39908 
   11250    82.175246   -1433.4362    60317.776   -12716.138    998.65626   -13714.794    41.755541    254.38761 
   11300    82.838036   -1592.9388    60347.223   -12690.437     1006.711   -13697.148    42.055991    256.43939 
   11350    82.589033   -1447.1092    60329.636   -12670.131    1003.6849   -13673.816    42.617526    255.66856 
   11400    79.003296    -1535.305     60272.21   -12678.368     960.1083   -13638.476    42.974255    244.56829 
   11450    81.552791   -1699.6077     60261.56   -12685.509     991.0917   -13676.601    42.920727    252.46069 
   11500    82.947128   -1711.3083    60259.495   -12689.098    1008.0367   -13697.135    43.221318     256.7771 
   11550    81.995266   -1514.4966    60281.187    -12667.38      996.469   -13663.849    43.398749    253.83045 
   11600    82.256862   -1274.5016    60251.897   -12703.479    999.64811   -13703.127    43.419166    254.64026 
   11650    83.693412   -1152.6974    60271.467    -12665.24    1017.1062   -13682.346    43.616932    259.08735 
   11700    84.615168   -1199.2968    60344.715   -12659.264     1028.308   -13687.572    43.883846     261.9408 
   11750    85.215258   -1375.8353    60392.624   -12662.233    1035.6008   -13697.834    43.817146    263.79849 
   11800    83.207662   -1317.0757    60454.998   -12656.732     1011.203   -13667.935      44.4517    257.58363 
   11850    84.694193   -1196.4332    60446.106   -12658.297    1029.2684   -13687.566    44.861649    262.18544 
   11900    82.554922   -1325.0983    60480.075   -12668.097    1003.2704   -13671.367    45.309434    255.56296 
   11950    84.883157   -1341.5915    60457.437    -12672.21    1031.5649   -13703.775    45.419295    262.77041 
   12000    82.099432   -1655.9933    60445.711   -12707.619    997.73491   -13705.354    45.279515    254.15291 
   12050    81.837392   -1428.3187    60411.938   -12685.324     994.5504   -13679.874    45.313237    253.34172 
   12100    83.078101   -1341.0909    60464.005   -12699.151    1009.6284    -13708.78    45.528927    257.18255 
   12150    82.655004   -1064.3829    60555.439   -12698.883    1004.4866   -13703.369    45.922764    255.87278 
   12200    81.659649   -1174.0776    60581.022   -12698.258    992.39032   -13690.648    46.134848    252.79149 
   12250     80.50163   -1730.9923    60552.395   -12710.737    978.31719   -13689.054    46.917445    249.20664 
   12300    83.288386   -1320.3579    60525.207   -12707.475     1012.184   -13719.658    47.129181    257.83352 
   12350    83.199068   -1562.1482    60521.601   -12708.446    1011.0985   -13719.544      47.3173    257.55703 
   12400    81.552378   -1378.6355    60519.726   -12696.609    991.08669   -13687.696    47.701134    252.45941 
   12450    85.933809   -1514.0184    60532.109   -12646.818    1044.3332   -13691.151    47.725575    266.02288 
   12500    83.007367   -1119.1538    60487.982   -12627.828    1008.7688   -13636.597    47.493438    256.96358 
   12550    82.145831   -1704.9275    60531.364   -12665.063    998.29878   -13663.362    47.615875    254.29655 
   12600    83.624691   -1216.3783    60516.569   -12656.903     1016.271   -13673.174    47.599474    258.87461 
   12650    80.473521   -1434.5689    60549.367    -12677.94    977.97559   -13655.916    47.511877    249.11962 
   12700    81.544948   -1475.7054    60524.486   -12672.686     990.9964   -13663.682    47.938524    252.43641 
   12750    82.028351   -1265.2105    60539.028   -12664.776    996.87107   -13661.647    48.003875    253.93287 
   12800    82.850338   -1407.5583    60525.555   -12660.025    1006.8605   -13666.886    48.302268    256.47747 
   12850    79.954829   -1257.9641    60505.304   -12692.086    971.67206   -13663.758    48.487726    247.51392 
   12900    77.126585   -1270.6459    60516.691   -12708.062    937.30107   -13645.363    48.456874    238.75861 
   12950    84.183336   -1390.7379    60523.116   -12711.853    1023.0601   -13734.913    48.459468      260.604 
   13000    79.266423   -1179.5819    60509.722   -12681.556    963.30602   -13644.862    48.534732    245.38284 
   13050    83.334775   -1508.2682    60548.042   -12701.919    1012.7477   -13714.667    48.847772    257.97713 
   13100    80.350536   -1187.9104     60569.51   -12735.499    976.48099    -13711.98    48.855148     248.7389 
   13150    79.492328    -1783.432     60579.03   -12730.606    966.05139   -13696.657    49.052365    246.08217 
   13200    80.508057   -1468.4906     60521.13   -12724.495     978.3953   -13702.891    48.951206    249.22654 
   13250    79.930576   -1431.1493    60524.288   -12674.297    971.37731   -13645.675    49.147227    247.43884 
   13300    82.195418   -1509.7529    60485.441   -12674.065    998.90139   -13672.966    49.544233    254.45005 
   13350    84.921892   -1195.4322    60454.268   -12655.645    1032.0356    -13687.68    49.779554    262.89032 
   13400    84.512181   -1352.8029    60465.903   -12671.676    1027.0565   -13698.732     49.73812    261.62199 
   13450    83.106028   -1137.2402    60506.722   -12680.896    1009.9678   -13690.864    49.863511      257.269 
   13500    83.864224   -1587.1987    60463.229   -12668.949     1019.182   -13688.131    49.996324    259.61613 
   13550    84.143326   -1546.7601    60460.989   -12643.913    1022.5739   -13666.487    50.147865    260.48014 
   13600    88.005035   -1664.4967    60431.935   -12677.587    1069.5043   -13747.092    50.563864    272.43472 
   13650    80.819769   -1418.5442    60442.836   -12693.803    982.18346   -13675.987    50.653241    250.19149 
   13700    83.998857   -1249.6432    60467.874   -12689.185    1020.8182   -13710.003    51.091166    260.03291 
   13750    84.152462     -1460.03    60450.172   -12644.873    1022.6849   -13667.557    51.600151    260.50842 
   13800    85.725872    -1735.027    60479.576   -12605.848    1041.8062   -13647.654    51.618025    265.37918 
   13850    87.303418   -1182.9089    60498.419   -12624.549    1060.9777   -13685.526    51.889001    270.26275 
   13900    85.459075   -1602.5382    60524.634   -12622.195    1038.5638   -13660.759     52.41762    264.55326 
   13950    83.526115   -1537.1734    60507.007   -12681.323     1015.073   -13696.396    52.089695    258.56945 
   14000     84.30873    -1401.984    60506.719   -12681.919     1024.584   -13706.503    52.179307    260.99217 
   14050    85.887487   -1229.2046    60542.598   -12671.302    1043.7702   -13715.073    52.356947    265.87949 
   14100    80.546428    -1456.365     60546.26   -12671.004    978.86162   -13649.866    52.571478    249.34532 
   14150    82.010564   -1858.7578    60560.485    -12666.84    996.65492   -13663.495    52.579295    253.87781 
   14200    84.144984   -1578.0595    60496.563   -12656.441     1022.594   -13679.035    52.677592    260.48527 
   14250    83.504987   -1356.3662    60481.651   -12638.983    1014.8163   -13653.799    52.716957    258.50405 
   14300    84.333917   -1630.6007    60485.337   -12634.966    1024.8901   -13659.856     52.65839    261.07014 
   14350    80.894491   -1575.3451    60428.316   -12649.453    983.09154   -13632.545    53.198262    250.42281 
   14400    84.870782   -1366.7894    60447.324   -12639.949    1031.4145   -13671.363    53.401784     262.7321 
   14450    83.405885   -1415.6705    60440.818   -12645.251    1013.6119   -13658.862    53.719348    258.19726 
   14500    82.937945   -1321.1108    60424.498   -12631.964    1007.9252   -13639.889     53.91493    256.74867 
   14550    83.168444   -1850.7633    60351.785   -12635.836    1010.7264   -13646.562    53.798456    257.46222 
   14600    82.844225   -1317.1455    60347.085    -12646.12    1006.7862   -13652.906    53.616273    256.45855 
   14650    86.089246   -1364.3387    60378.237   -12649.775    1046.2222   -13695.997    53.435855    266.50407 
   14700    83.727004   -1644.3789    60390.938   -12620.835    1017.5144   -13638.349    53.308475    259.19134 
   14750    84.249137   -1502.1689    60383.206   -12642.869    1023.8598   -13666.728    53.708442    260.80769 
   14800     84.19136   -1338.8814    60377.516   -12647.322    1023.1576   -13670.479    54.049552    260.62883 
   14850     83.54201   -1729.0096     60344.43    -12663.74    1015.2662   -13679.006    54.299072    258.61866 
   14900    83.745982   -1462.3626    60298.202   -12652.865     1017.745    -13670.61    54.415592    259.25009 
   14950    83.004841   -1484.2414    60297.178    -12681.57    1008.7381   -13690.309     54.57837    256.95576 
   15000    83.616222    -1325.826    60294.624   -12643.776    1016.1681   -13659.944    54.722414    258.84839 
   15050    81.685163   -1310.7489    60340.719    -12643.87     992.7004    -13636.57    55.023576    252.87047 
   15100    85.055175   -1659.4404    60355.057    -12655.31    1033.6553   -13688.966    54.989719    263.30292 
   15150    84.905577   -1431.0999     60295.41   -12629.661    1031.8373   -13661.499    55.199065    262.83982 
   15200    84.313598   -1638.7272    60292.338   -12678.142    1024.6431   -13702.786    55.639426    261.00724 
   15250    83.454876   -1240.6651    60313.764    -12688.87    1014.2073   -13703.077    56.057002    258.34892 
   15300    81.895062   -1319.0975    60362.621   -12728.952    995.25124   -13724.203    56.399838    253.52025 
   15350    82.587633   -1112.1985    60436.202   -12711.818    1003.6679   -13715.486    56.222847    255.66422 
   15400    79.490429   -1683.3026     60400.01   -12731.544    966.02831   -13697.572    56.149034    246.07629 
   15450    80.055789   -1229.8794    60319.241   -12731.439    972.89899   -13704.338    56.381183    247.82646 
   15500    82.768985   -1543.0961    60262.073    -12695.07    1005.8718   -13700.941    56.754047    256.22563 
   15550    81.973662   -1226.6933    60222.517   -12718.885    996.20645   -13715.091    56.887002    253.76357 
   15600    79.187088   -1736.5125    60236.316   -12734.973    962.34188   -13697.315     56.71133    245.13725 
   15650    80.449562   -1270.0742    60195.325   -12750.073    977.68442   -13727.758    57.212507    249.04545 
   15700    81.295164   -1627.0644     60203.65    -12691.75    987.96082   -13679.711    57.490459    251.66316 
   15750    84.207697   -1219.7954    60245.998   -12682.202    1023.3561   -13705.558    57.615852    260.67941 
   15800    83.170032   -1244.0962    60285.487   -12701.118    1010.7457   -13711.863    57.920807    257.46714 
   15850    81.720413   -1248.1373    60225.508   -12669.911    993.12877   -13663.039    57.913078    252.97959 
   15900    83.357154   -1386.6414      60204.3   -12681.017    1013.0197   -13694.037    58.000667    258.04641 
   15950    81.721994   -1798.9552    60156.734   -12698.743    993.14799   -13691.891    58.333835    252.98449 
   16000    81.417547   -1684.4073     60121.52   -12741.888    989.44812   -13731.336     58.70919    252.04202 
   16050    83.155451   -1374.2464    60128.295   -12706.993    1010.5685   -13717.562      59.1108      257.422 
   16100    85.630724   -1608.2099    60142.712   -12681.577    1040.6499   -13722.227    59.478022    265.08463 
   16150     82.91823   -1359.1972    60149.169   -12701.454    1007.6856    -13709.14    59.672319    256.68764 
   16200    82.056793    -1514.815    60101.536   -12710.072    997.21672   -13707.288    59.719025    254.02091 
   16250     80.57788    -1268.558    60076.592   -12731.505    979.24385   -13710.749    59.865754    249.44269 
   16300    83.125043   -1509.1348    60032.586   -12680.434    1010.1989   -13690.633    59.982858    257.32787 
   16350    79.977538   -1234.8226    60007.581   -12705.716    971.94803   -13677.664    60.426711    247.58422 
   16400    84.054318   -1309.1747    60008.252   -12675.127    1021.4922   -13696.619     60.45354     260.2046 
   16450    83.709726   -1291.4485    60038.247   -12675.169    1017.3044   -13692.473    60.434904    259.13785 
   16500    81.706865   -1503.3081    60070.732   -12663.045    992.96413   -13656.009    61.050539    252.93765 
   16550    84.973418   -1983.9613    60037.681   -12660.684    1032.6618   -13693.346    61.101031    263.04983 
   16600     82.41508   -1526.4938    59961.773   -12682.817    1001.5709   -13684.387    61.197026    255.13005 
   16650    80.959322    -1255.516    59900.229    -12678.85    983.87941   -13662.729     61.19565     250.6235 
   16700    83.556757   -1275.7893    59910.557   -12664.893    1015.4454   -13680.339    61.012432    258.66431 
   16750    80.168911   -1455.7092     59899.23   -12690.985    974.27374   -13665.259    61.253149    248.17665 
   16800    81.023172   -1349.7139    59892.886   -12697.892    984.65537   -13682.547    61.090262    250.82116 
   16850    84.250319   -1043.9648    59905.721   -12688.419    1023.8741   -13712.293    61.551064    260.81135 
   16900    82.701112   -1075.3538    59978.873   -12713.245     1005.047   -13718.292    61.695447    256.01552 
   16950    80.954427   -1333.9646     60031.21   -12711.788    983.81994   -13695.608    62.058372    250.60835 
   17000    84.111143   -796.82803    60065.386   -12715.188    1022.1828    -13737.37    61.956193    260.38051 
   17050    82.971043   -1076.5115    60117.311   -12721.251    1008.3274   -13729.578    62.346009    256.85113 
   17100    81.787359   -1203.8808    60171.865   -12729.303    993.94235   -13723.245    62.493115    253.18683 
   17150    81.502208   -1182.3201    60225.952   -12709.763    990.47698    -13700.24    62.504999     252.3041 
   17200    83.527279   -1416.7414    60260.111   -12718.303    1015.0872    -13733.39     62.60509    258.57306 
   17250    80.947464   -1348.9274    60199.918   -12771.528    983.73531   -13755.264    62.476618     250.5868 
   17300    79.304917   -1466.9424    60135.202   -12762.128    963.77383   -13725.901    62.490432    245.50201 
   17350    82.551824   -1068.3311    60108.234   -12752.439    1003.2327   -13755.671    62.623957    255.55337 
   17400    80.993986   -1484.9406    60087.194   -12747.344    984.30068   -13731.644    63.055077    250.73081 
   17450    82.433816      -1560.2    60056.681   -12793.416    1001.7986   -13795.214    62.873513    255.18805 
   17500    80.268665   -1469.9534    59997.109   -12806.505    975.48603   -13781.991    63.099251    248.48546 
   17550    81.429664   -1701.3962    60007.407   -12825.531    989.59537   -13815.126    63.146628    252.07953 
   17600    79.147704    -1305.493    60041.349   -12824.079    961.86325   -13785.942    63.176733    245.01533 
   17650    82.509969   -1147.7432     60059.46   -12805.336    1002.7241    -13808.06    63.409486     255.4238 
   17700    80.509784   -1259.3934    60122.079    -12830.89    978.41629   -13809.306     63.55201    249.23188 
   17750    82.683712   -1206.2385    60199.153   -12780.374    1004.8355   -13785.209    63.736312    255.96165 
   17800     80.58894   -1275.6622    60233.016   -12829.989    979.37826   -13809.367    63.900461    249.47692 
   17850    79.497979   -1753.7807    60192.669   -12829.479    966.12006   -13795.599    63.890884    246.09967 
   17900    82.659426   -1284.6092    60250.622   -12781.825    1004.5404   -13786.365    63.961866    255.88647 
   17950    82.864241   -1361.8587    60306.552    -12737.42    1007.0294   -13744.449    64.198987    256.52051 
   18000    84.317922   -1374.3205    60378.093   -12732.535    1024.6957    -13757.23    64.814091    261.02063 
   18050    85.388961   -1278.6612    60346.531   -12789.005    1037.7118   -13826.717    64.951242    264.33621 
   18100    80.685338   -1182.0473     60344.05   -12820.056    980.54976   -13800.606    65.011291    249.77534 
   18150    82.143924   -1440.2602    60342.926   -12811.266    998.27561   -13809.541    65.256554    254.29065 
   18200    83.179672   -1403.6278    60371.159   -12778.129    1010.8628   -13788.992    65.532507    257.49698 
   18250    81.605274   -1438.7661     60351.87    -12789.13    991.72952    -13780.86    65.477308    252.62316 
   18300    79.934488   -1505.3846     60310.83   -12806.438    971.42485   -13777.863    65.688715    247.45096 
   18350    80.394686   -1636.2818    60302.005   -12800.454    977.01754   -13777.472    66.256385    248.87558 
   18400    78.491999   -1659.5652     60271.28    -12815.05    953.89463   -13768.945     66.22892    242.98548 
   18450    80.605133   -1179.6746    60274.205   -12815.143    979.57504   -13794.719    66.182516    249.52705 
   18500    82.188806   -1443.3704    60278.075   -12807.362    998.82105   -13806.183    65.941314    254.42958 
   18550     80.33706   -1256.6568    60292.548   -12792.361    976.31722   -13768.678    66.211917    248.69719 
   18600    80.866362   -1749.9472    60292.349   -12791.858    982.74969   -13774.607    66.528181    250.33573 
   18650    81.811848   -1854.1264    60253.516    -12769.59    994.23996    -13763.83    66.900047    253.26265 
   18700     83.47537   -1748.4583     60279.16   -12764.236    1014.4564   -13778.693     67.19899    258.41236 
   18750    80.542309   -1288.2148     60312.31   -12780.034    978.81156   -13758.846    67.055792    249.33257 
   18800    79.972185   -1144.3595    60354.041    -12781.53    971.88298   -13753.413    67.191033    247.56765 
   18850    84.036831   -1236.5301    60346.058   -12734.882    1021.2797   -13756.162    67.151803    260.15046 
   18900    82.895841   -1162.6674    60381.353   -12765.819    1007.4135   -13773.233    67.285715    256.61833 
   18950    78.238681   -1341.7403    60424.165    -12777.81    950.81611   -13728.626    67.938347    242.20129 
   19000    80.511762   -1325.0482    60427.711    -12804.79    978.44033    -13783.23    68.338641    249.23801 
   19050    78.786293   -1470.4484    60448.822   -12833.136    957.47111   -13790.607    68.631761    243.89652 
   19100    80.610965   -1658.4119    60465.241   -12789.736    979.64592   -13769.382    68.548345    249.54511 
   19150    79.308968   -1823.8844    60440.391   -12751.045    963.82306   -13714.868    68.601141    245.51455 
   19200    83.235861    -1251.412    60431.561   -12732.838    1011.5457   -13744.383    68.413494    257.67092 
   19250    82.223395   -1323.0189    60457.925    -12746.09     999.2414   -13745.332    68.872017    254.53666 
   19300    81.176062   -1612.2481    60454.423   -12773.963    986.51341   -13760.476    68.949745    251.29446 
   19350    82.487278   -1304.9385      60453.9    -12737.19    1002.4483   -13739.639    69.069454    255.35356 
   19400    82.223501    -1243.027    60441.821   -12730.451    999.24269   -13729.694    69.072535    254.53699 
   19450    81.107051    -1322.234    60483.196   -12731.692    985.67474   -13717.367    69.644978    251.08083 
   19500    84.417899   -1420.4056    60501.437   -12724.968    1025.9107   -13750.879    69.899815    261.33012 
   19550    82.313593   -1191.5654    60477.539   -12721.896    1000.3375   -13722.234    70.106542    254.81588 
   19600    80.195325   -1545.5506    60480.558   -12728.908    974.59475   -13703.503     70.14571    248.25842 
   19650    79.286944   -1254.3463    60425.972    -12768.65    963.55541   -13732.206    70.125786    245.44637 
   19700    85.118037   -981.05961    60453.363   -12731.109    1034.4193   -13765.528    70.228843    263.49752 
   19750    85.166315   -698.39388    60491.571   -12715.978     1035.006   -13750.984    70.520642    263.64697 
   19800    82.137357   -1045.7809     60542.33   -12741.989     998.1958   -13740.184    70.543763    254.27031 
   19850    79.696728   -1447.5947    60563.778   -12717.611    968.53542   -13686.146    70.612911    246.71493 
   19900    82.513072   -1366.6121    60585.164   -12701.726    1002.7618   -13704.488    70.674133    255.43341 
   19950    81.936011      -1017.5    60624.063   -12692.588    995.74888   -13688.337    70.587512    253.64701 
   20000    85.194979   -1290.2014    60688.636   -12659.799    1035.3543   -13695.154     70.50298    263.73571 
   20050    85.654204   -1285.7709    60697.746   -12640.687    1040.9352   -13681.622    70.347833    265.15732 
   20100    84.170372   -1079.3909    60726.003   -12672.495    1022.9026   -13695.397    70.879581    260.56386 
   20150    84.456404   -891.69895    60767.983   -12675.037    1026.3786   -13701.415    71.146935    261.44932 
   20200    83.722023   -1484.3698    60805.345   -12721.369    1017.4539   -13738.823    70.954774    259.17592 
   20250    82.413454   -1408.2605    60762.976    -12765.39    1001.5511   -13766.941    71.077604    255.12502 
   20300    80.444048   -1537.8958    60776.529   -12745.431    977.61742   -13723.048    71.103465    249.02839 
   20350    80.537935    -1347.849    60813.346   -12773.944     978.7584   -13752.703    71.487496    249.31903 
   20400    80.693956   -1499.4033    60814.586   -12769.974    980.65449   -13750.628    72.004196    249.80202 
   20450    82.690713   -1248.3627    60777.225    -12746.76    1004.9206    -13751.68     72.28654    255.98332 
   20500    79.287524   -1428.0671     60825.67   -12759.624    963.56246   -13723.186    72.433963    245.44817 
   20550    81.382108   -1257.8805     60755.38   -12793.869    989.01744   -13782.887    72.320788    251.93231 
   20600    81.674279   -1575.6109    60710.915   -12762.402    992.56813    -13754.97    72.509808    252.83678 
   20650    78.724268   -1434.5688    60671.271   -12755.379    956.71733   -13712.096    72.305722    243.70451 
   20700    79.221316   -1088.8707    60699.166   -12732.232    962.75784    -13694.99    72.555081    245.24321 
   20750    83.883618   -947.45421    60720.687   -12723.315    1019.4177   -13742.733    72.760534    259.67617 
   20800    85.296827   -1457.4469    60776.647   -12692.885    1036.5921   -13729.477    73.316261      264.051 
   20850    84.849868   -1490.7918    60777.087   -12702.681    1031.1603   -13733.841     73.53573    262.66736 
   20900    83.472263   -1491.9145    60803.605   -12695.104    1014.4186   -13709.523    73.693776    258.40275 
   20950    84.514267   -1547.6875    60882.928   -12689.387    1027.0818   -13716.468    74.061937    261.62845 
   21000    82.297284   -1412.0596    60878.034   -12718.103    1000.1394   -13718.242    74.316244     254.7654 
   21050    81.246932   -1660.6975    60883.734   -12737.269    987.37468   -13724.644    74.711302    251.51385 
   21100    82.544494   -1347.6629    60843.026   -12757.356    1003.1436     -13760.5    74.523424    255.53068 
   21150    81.252268   -1434.6188    60816.029   -12746.807    987.43952   -13734.247    74.696391    251.53037 
   21200    80.062433   -1484.3562    60767.015   -12775.158    972.97974   -13748.138    74.505614    247.84703 
   21250    83.145772   -1329.3788    60811.775   -12760.086    1010.4508   -13770.536    75.174842    257.39204 
   21300    80.467054   -1576.5719    60830.298   -12749.314      977.897   -13727.211    75.163863     249.0996 
   21350    82.771093   -1505.3782    60744.341   -12762.843    1005.8974    -13768.74    75.232203    256.23215 
   21400    83.347588   -1294.8359    60745.798    -12751.04    1012.9034   -13763.944    75.667163    258.01679 
   21450    81.102903   -1513.0818    60731.687   -12780.365    985.62432   -13765.989    75.385081    251.06798 
   21500    81.379855   -1365.0403    60683.639   -12802.187    988.99006   -13791.177    75.428262    251.92534 
   21550    83.601718   -1671.5517    60713.828   -12783.721    1015.9918   -13799.713    75.725994     258.8035 
   21600     81.75207   -1151.6692    60731.442   -12811.113     993.5135   -13804.626    76.352312    253.07759 
   21650    80.381239   -1532.3436    60760.042     -12800.6    976.85412   -13777.454    76.684047    248.83395 
   21700    82.272644   -1572.3532    60758.312   -12767.303    999.83991   -13767.143    76.945544    254.68912 
   21750    83.323984   -1295.3183    60809.599   -12775.939    1012.6166   -13788.555    77.145491    257.94372 
   21800    84.481195   -1416.6004    60777.655   -12752.774    1026.6799   -13779.453     77.10034    261.52607 
   21850    84.471512   -1053.2652    60816.236   -12736.592    1026.5622   -13763.155    76.986177    261.49609 
   21900    82.694553   -1264.1899    60804.126   -12728.896    1004.9673   -13733.863    77.360623    255.99521 
   21950    82.640816   -1542.3861    60779.676   -12743.712    1004.3142   -13748.026    78.090905    255.82886 
   22000    83.626584   -1238.7293    60780.299   -12770.461     1016.294   -13786.755    78.269415    258.88047 
   22050    82.243256    -1475.758    60713.872   -12786.643    999.48276   -13786.126    78.628003    254.59814 
   22100    77.571047   -1381.8226    60705.086   -12759.063    942.70251   -13701.765    79.059536    240.13452 
   22150    81.061076   -1557.2875     60703.81   -12747.529    985.11601   -13732.645       79.581     250.9385 
   22200    79.759805   -1343.7005    60677.272   -12756.103    969.30197   -13725.405    79.794077    246.91019 
   22250    80.461115   -1432.9799    60671.833   -12758.907    977.82483   -13736.732    79.966758    249.08122 
   22300    83.762048   -1264.5183    60681.281   -12753.212    1017.9403   -13771.153    79.851437    259.29982 
   22350    81.942428   -1058.6877    60748.569   -12754.178    995.82687   -13750.005    79.917102    253.66688 
   22400    84.455152   -1433.3636    60827.968   -12718.951    1026.3634   -13745.315    80.234153    261.44545 
   22450    83.048325   -1378.1708     60831.11   -12738.531    1009.2666   -13747.797    80.385356    257.09037 
   22500    81.605606   -1609.0019    60814.485    -12700.74    991.73355   -13692.473    80.284296    252.62419 
   22550    83.806044   -1076.2987    60813.191   -12720.018     1018.475   -13738.493    80.481597    259.43602 
   22600    82.580522   -1738.0608    60867.249   -12727.219    1003.5815     -13730.8    81.304945    255.64221 
   22650    81.011719   -1184.0925    60868.007   -12731.938    984.51619   -13716.454    81.373886    250.78571 
   22700    81.433882   -1957.5245    60874.022    -12772.21    989.64663   -13761.856    81.461444    252.09259 
   22750    80.466818   -1541.2406    60853.005   -12758.739    977.89413   -13736.633    81.547686    249.09887 
   22800    81.657477   -1813.0153    60863.169   -12762.202    992.36393   -13754.566    82.198746    252.78476 
   22850    80.355842      -1570.5    60812.841   -12779.246    976.54547   -13755.791    82.175856    248.75533 
   22900    83.918036   -1035.4817    60822.409   -12791.089     1019.836   -13810.925    82.031357    259.78271 
   22950     82.65208   -1624.3159     60845.14   -12760.435    1004.4511   -13764.886    82.175911    255.86373 
   23000    79.217559    -1618.837    60845.918   -12780.424    962.71219   -13743.136    82.662547    245.23158 
   23050    80.761083   -1382.9986    60773.727   -12771.241    981.47027   -13752.711    82.524502    250.00982 
   23100    82.461575   -1326.8651    60749.455   -12742.607    1002.1359   -13744.743    82.693941    255.27399 
   23150    84.367702   -1123.4727    60715.609   -12724.405    1025.3007   -13749.706    82.615783    261.17473 
   23200    79.280814   -1371.9754    60727.007   -12732.664    963.48091   -13696.145    82.587951    245.42739 
   23250    83.849022   -1485.5736      60745.7    -12726.12    1018.9973   -13745.117    82.442067    259.56907 
   23300    81.979441   -1535.3397    60700.547   -12718.124    996.27668     -13714.4    82.720699    253.78146 
   23350    83.077441   -1746.0048    60672.616   -12668.374    1009.6204   -13677.995    82.742457    257.18051 
   23400     82.66788   -1440.6961    60628.624   -12695.298    1004.6431   -13699.941    82.364242    255.91264 
   23450    86.467455   -1748.0204    60626.212   -12685.894    1050.8185   -13736.713    82.782554    267.67488 
   23500    84.485541   -1749.7374    60620.102   -12654.417    1026.7327    -13681.15    82.695809    261.53952 
   23550    85.109456   -1884.2534    60610.965   -12676.831     1034.315   -13711.146     82.73481    263.47096 
   23600    85.464951   -1376.9691    60579.872   -12687.701    1038.6353   -13726.336    82.867987    264.57145 
   23650    81.776993   -1686.4699    60553.888   -12709.841    993.81638   -13703.657    82.818481    253.15475 
   23700    82.523051   -1691.7876    60518.538   -12737.667     1002.883    -13740.55     82.63971     255.4643 
   23750    77.597214   -1318.8443    60561.826   -12757.707    943.02052   -13700.728    82.952815    240.21552 
   23800    82.271451   -1638.6202    60531.139   -12731.875    999.82542     -13731.7    83.917388    254.68543 
   23850    81.410016   -1239.6733     60531.42   -12716.571    989.35659   -13705.927     84.11109     252.0187 
   23900    82.294625   -1429.2294    60574.795   -12745.666     1000.107   -13745.773    84.087466    254.75717 
   23950    80.304536   -1727.3228    60553.527   -12784.482    975.92196   -13760.404    84.278971     248.5965 
   24000    82.983531   -1474.1997    60564.598    -12754.67    1008.4791   -13763.149    84.592545    256.88979 
   24050    81.954356   -1575.2195    60546.354   -12751.797    995.97183   -13747.769     84.52626     253.7038 
   24100    81.694729   -1759.6622    60541.021   -12738.665    992.81665   -13731.481     84.59315    252.90008 
   24150    79.976772   -1269.6085    60538.545    -12755.45    971.93872   -13727.389    84.633972    247.58185 
   24200    81.462381   -1379.0627    60507.148   -12723.682    989.99297   -13713.675    84.800873    252.18081 
   24250    84.118727   -1301.3735    60539.477   -12710.257    1022.2749   -13732.532    84.865908    260.40399 
   24300    82.958176    -1309.648    60515.327   -12710.691     1008.171   -13718.862     84.71585     256.8113 
   24350    80.249125   -1518.6897    60529.507   -12716.927    975.24856   -13692.176    84.528999    248.42497 
   24400    80.134519   -1622.2653    60514.996    -12723.47    973.85579   -13697.325    84.398601    248.07019 
   24450    80.499274   -1398.9004      60482.2   -12712.853    978.28857   -13691.142    84.543889    249.19935 
   24500    80.584661   -1265.9161    60521.352   -12727.299    979.32625   -13706.625    84.586984    249.46368 
   24550    80.547982   -1546.7589    60538.031   -12732.065    978.88051   -13710.945    84.859673    249.35013 
   24600    81.834067   -1108.0232      60542.9    -12742.95    994.50998    -13737.46    84.542748    253.33143 
   24650    82.251695   -1603.7256    60513.879   -12773.163    999.58532   -13772.749    84.875242    254.62427 
   24700    82.018599   -1600.4963    60473.956   -12730.442    996.75256   -13727.195    85.179414    253.90268 
   24750    84.777076   -1379.6642        60422   -12691.338    1030.2757   -13721.614    85.099001    262.44202 
   24800    82.884803   -1536.6694    60392.113   -12714.246    1007.2793   -13721.525    85.620673    256.58416 
   24850    80.254474   -1113.9826    60403.432   -12729.929    975.31357   -13705.242    85.993421    248.44153 
   24900    79.832022   -1296.6219    60377.612   -12736.357    970.17961   -13706.537    86.208822    247.13375 
   24950     83.36704   -1298.5138    60379.202   -12742.426    1013.1398   -13755.566    86.410194    258.07701 
   25000     81.67764   -1318.7669    60388.268   -12744.068    992.60897   -13736.677     86.74744    252.84718 
   25050    81.311269     -1194.16    60398.147   -12752.479    988.15654   -13740.636    86.884904    251.71302 
   25100    81.787117   -1331.9381    60375.458   -12757.628    993.93942   -13751.567    86.901704    253.18609 
   25150    82.237381   -1624.9809    60336.789    -12740.89    999.41136   -13740.301    86.882571    254.57996 
   25200    84.112275   -1223.4715    60313.012   -12740.694    1022.1965   -13762.891    87.112838    260.38401 
   25250    84.647245    -1278.325     60315.85   -12683.949    1028.6979   -13712.647    87.046009     262.0401 
   25300    81.260901   -1158.5356    60300.113   -12705.353    987.54443   -13692.897    87.542537    251.55709 
   25350    82.055947   -1335.1266    60289.206   -12718.171    997.20644   -13715.377     87.70777     254.0183 
   25400    84.215419   -1381.6323     60279.18   -12679.272      1023.45   -13702.722    87.867997    260.70331 
   25450    83.176354   -1339.4861    60285.438   -12691.634    1010.8225   -13702.456    87.639738    257.48671 
   25500    81.932954   -1397.8282    60308.955    -12667.09    995.71174   -13662.802    87.493512    253.63755 
   25550    82.282634   -1693.2287    60273.139   -12670.604    999.96132   -13670.565    87.523548    254.72004 
   25600    80.709033   -1337.2312    60238.595   -12680.169    980.83771   -13661.006    87.651768    249.84869 
   25650    82.887618   -1633.0101    60273.405    -12659.65    1007.3135   -13666.963    87.889121    256.59288 
   25700     83.04376   -1383.5893    60259.925   -12652.138    1009.2111   -13661.349    87.727218    257.07624 
   25750    79.377604   -1092.5174    60280.652   -12688.696    964.65717   -13653.353    87.873159    245.72702 
   25800      84.7829   -1069.4455    60267.137   -12672.402    1030.3465   -13702.748    88.124371    262.46005 
   25850    82.387761   -1265.9822    60278.597   -12680.806    1001.2389   -13682.045    88.458074    255.04548 
   25900     84.42607   -1340.9436    60244.607   -12671.177      1026.01   -13697.187     88.56417    261.35542 
   25950    85.475485   -1006.1443    60311.205   -12700.024    1038.7633   -13738.787    88.585431    264.60406 
   26000      81.9363   -1407.6786    60327.005   -12696.478     995.7524   -13692.231    88.830243    253.64791 
   26050    83.070853    -1781.948    60353.692   -12674.712    1009.5404   -13684.253    88.880886    257.16011 
   26100     83.55863   -1426.5084    60343.882   -12680.742    1015.4682    -13696.21    88.993699    258.67011 
   26150    83.971813   -1703.8052    60308.495   -12691.012    1020.4895   -13711.501    89.196526    259.94919 
   26200    82.665236   -1354.2276    60256.924   -12705.861     1004.611   -13710.472    89.208698    255.90446 
   26250    83.203503   -1490.1327     60228.84   -12724.796    1011.1524   -13735.949    89.418041    257.57075 
   26300    81.461693   -1624.8088    60193.634   -12729.021    989.98461   -13719.005    89.311219    252.17868 
   26350    80.668691   -1562.5951    60149.556   -12725.081    980.34745   -13705.429    89.795217    249.72381 
   26400    83.110542   -1514.5634    60172.792   -12741.533    1010.0227   -13751.556    90.052645    257.28298 
   26450     80.75649   -1683.5911    60150.102   -12730.684    981.41444   -13712.098    90.702878     249.9956 
   26500    82.113493   -1297.6855    60130.726    -12725.45    997.90579   -13723.356    90.741104    254.19644 
   26550    80.777006    -1351.378    60088.906   -12716.511    981.66378   -13698.175    90.854181    250.05912 
   26600    78.555708   -1536.9309    60070.443   -12730.069    954.66887   -13684.738    90.961506    243.18271 
   26650    83.087689   -1312.3623    60040.638   -12733.766     1009.745    -13743.51    90.494083    257.21223 
   26700    81.517154   -1328.5411    60052.325   -12723.516    990.65862   -13714.174    90.282407    252.35037 
   26750    81.338969   -1420.9461    60027.569   -12691.264    988.49318   -13679.757     90.10367    251.79877 
   26800     81.19564   -1386.7622    60092.819   -12733.659    986.75134    -13720.41    90.337438    251.35507 
   26850     80.78478   -1414.3054    60141.514   -12714.715    981.75825   -13696.473    90.473961    250.08318 
   26900    83.395775   -1598.5836    60239.798   -12724.046    1013.4891   -13737.535    90.861489    258.16596 
   26950    80.880474   -1406.0506    60224.493   -12730.818     982.9212    -13713.74    90.930095    250.37942 
   27000    81.617197   -1634.2876    60232.714   -12719.803    991.87441   -13711.678    90.836804    252.66007 
   27050    81.312439   -1637.7798    60213.006   -12734.594    988.17076   -13722.765    91.003049    251.71664 
   27100    83.754447   -1487.7901    60193.561   -12716.347    1017.8479   -13734.195    91.311431    259.27629 
   27150    81.530949   -1607.2469    60170.738   -12746.841    990.82626   -13737.667      91.6347    252.39307 
   27200    81.055963   -1195.8192     60156.91   -12729.004    985.05387   -13714.057    91.520573    250.92267 
   27250    84.449715   -1248.7275    60196.522    -12681.18    1026.2973   -13707.477    91.910315    261.42862 
   27300    84.037028   -1317.5707    60267.231    -12687.16    1021.2821   -13708.442    91.752924    260.15107 
   27350    83.585066   -1343.8938    60240.323    -12709.12    1015.7895    -13724.91    92.218249    258.75195 
   27400    82.690955   -1056.5109    60207.655   -12725.114    1004.9235   -13730.037    92.286426    255.98407 
   27450    78.485065   -1731.7263    60222.253   -12723.865    953.81036   -13677.675    92.553411    242.96402 
   27500    81.839712   -1254.3077    60224.096   -12703.502    994.57859   -13698.081    92.418195     253.3489 
   27550    82.991306   -1657.7749    60159.815   -12704.484    1008.5736   -13713.058    92.609207    256.91386 
   27600    79.490282   -1458.1626     60149.28   -12736.174    966.02652   -13702.201    92.624827    246.07584 
   27650    81.070497   -1332.6568    60156.525   -12758.622     985.2305   -13743.853    93.040768    250.96767 
   27700    85.325369    -1856.686    60118.088   -12759.624     1036.939   -13796.563       93.137    264.13935 
   27750     81.63358   -876.59642     60097.64   -12743.549    992.07351   -13735.623    93.302252    252.71079 
   27800    84.507639   -1535.9611    60147.846   -12740.702    1027.0013   -13767.703    93.665872    261.60793 
   27850    82.264897   -1283.8433    60225.249   -12742.215    999.74576   -13741.961    93.798718    254.66514 
   27900    81.507576   -1414.5717    60234.104   -12730.358    990.54222     -13720.9    93.667072    252.32072 
   27950    79.972099   -1479.4099    60217.946    -12766.24    971.88193   -13738.122     93.87625    247.56739 
   28000    81.018691   -1386.7827    60208.085   -12770.646    984.60091   -13755.247     94.10708    250.80729 
   28050    81.507563   -1423.4112    60196.306   -12770.575    990.54206   -13761.117    94.595028    252.32068 
   28100    84.929578   -790.91428     60212.34   -12711.001     1032.129    -13743.13    94.873665    262.91411 
   28150    82.859285   -1070.5823    60231.163   -12688.894    1006.9692   -13695.863    95.333107    256.50517 
   28200    81.802225   -1336.8607    60204.524   -12704.891    994.12302   -13699.014    95.195573    253.23286 
   28250    83.159877   -1450.2597    60178.545   -12700.687    1010.6222    -13711.31    95.245974     257.4357 
   28300    83.735956   -1563.4747    60233.522   -12657.489    1017.6232   -13675.112     95.19756    259.21905 
   28350    84.020242   -1605.5499    60293.673    -12647.38     1021.078   -13668.458    95.537451    260.09911 
   28400     81.74136   -1200.1348    60349.591   -12671.559    993.38334   -13664.943    95.560538    253.04444 
   28450     83.91106   -1509.4381    60357.308   -12638.491    1019.7512   -13658.242     95.85161    259.76112 
   28500    82.112624   -1510.5644     60371.39   -12647.727    997.89523   -13645.622    95.956267    254.19375 
   28550    83.680655   -1519.1084    60375.546   -12634.065    1016.9511   -13651.017    96.139858    259.04786 
   28600    82.448877   -1014.9549    60409.745   -12623.617    1001.9816   -13625.599    96.837977    255.23468 
   28650    83.584262    -1522.906    60424.892   -12606.342    1015.7797   -13622.122    97.321281    258.74946 
   28700    85.633803    -1229.756    60441.922   -12630.322    1040.6873   -13671.009    97.421567    265.09416 
   28750     81.75374   -1404.7234    60478.116   -12638.106    993.53379    -13631.64    97.325098    253.08276 
   28800    81.570754   -1280.0677    60458.214   -12651.044       991.31   -13642.354    97.710868     252.5163 
   28850    82.584437   -1658.9407    60401.895   -12623.988    1003.6291   -13627.618    98.169931    255.65433 
   28900    85.651177   -1587.3351    60346.063   -12628.999    1040.8984   -13669.897    98.583659    265.14795 
   28950    85.055826   -1406.9604    60379.505   -12609.443    1033.6633   -13643.107    98.875555    263.30494 
   29000    81.302452   -1350.4561     60387.65   -12604.083    988.04939   -13592.133    98.841824    251.68572 
   29050    86.015928   -1476.1197    60326.782   -12602.796    1045.3311   -13648.127    98.803191     266.2771 
   29100    86.389367   -1165.7715    60379.384   -12581.487    1049.8695   -13631.357    98.765242    267.43314 
   29150    85.326247   -1640.5539    60388.864   -12602.781    1036.9496    -13639.73    98.474277    264.14207 
   29200    85.772369   -1627.4364    60355.648   -12612.618    1042.3712   -13654.989    99.187588    265.52312 
   29250    84.918909   -1445.9104    60276.407    -12622.95    1031.9993    -13654.95    99.476999    262.88109 
   29300    79.761124   -1795.9261    60218.817   -12662.847    969.31801   -13632.165    99.666529    246.91428 
   29350    80.332225   -1093.5509    60191.536   -12672.455    976.25846   -13648.714    99.702017    248.68222 
   29400    81.417572   -1288.6393    60129.738   -12696.021    989.44842   -13685.469    99.616271     252.0421 
   29450    84.710486   -1531.2207    60071.335    -12698.88    1029.4664   -13728.347    99.237228    262.23588 
   29500    80.057224   -1916.5573     60024.01   -12691.948    972.91643   -13664.864    99.339985    247.83091 
   29550     82.77783   -1525.2835    59990.952   -12713.216    1005.9793   -13719.196    99.826974    256.25301 
   29600    81.788054   -1780.1348    59971.995   -12714.276     993.9508   -13708.227    100.03823    253.18899 
   29650    83.916872   -1664.8827     59943.47   -12673.457    1019.8218   -13693.279      100.617    259.77911 
   29700    80.827613   -1513.8593     59917.96   -12675.336    982.27879   -13657.615    100.64862    250.21578 
   29750    83.137297   -1834.8717    59853.387   -12658.708    1010.3478   -13669.056    100.52895     257.3658 
   29800    81.341789   -1661.2403    59788.004   -12634.228    988.52745   -13622.755    100.71433     251.8075 
   29850    82.765518   -1652.3608    59760.438    -12633.64    1005.8297    -13639.47    101.00119     256.2149 
   29900    82.848881   -1508.6983    59764.675   -12607.354    1006.8428   -13614.197    101.01574    256.47296 
   29950    84.519996   -1184.3463    59743.936   -12628.187    1027.1514   -13655.339    101.27603    261.64618 
   30000    83.888112   -1174.2826    59752.184   -12637.956    1019.4723   -13657.428    101.24654    259.69008 
   30050    82.517748   -1352.6612    59781.785   -12631.657    1002.8186   -13634.475    101.19333    255.44788 
   30100    82.290527    -1244.131    59816.917   -12622.022    1000.0572   -13622.079    101.38372    254.74448 
   30150     82.35725    -1584.303    59820.287   -12581.569    1000.8681   -13582.437    101.36309    254.95103 
   30200     82.15669   -1270.0869    59839.322   -12594.566    998.43075   -13592.997     101.3785    254.33016 
   30250    86.460776   -910.11129    59823.181   -12583.158    1050.7373   -13633.895    101.37168     267.6542 
   30300    79.968782   -1251.4947     59831.27   -12593.051    971.84163   -13564.892    102.30952    247.55712 
   30350    82.312073   -1665.0924    59804.893   -12576.441    1000.3191    -13576.76    102.42074    254.81118 
   30400    83.458674   -1475.4095    59814.836   -12571.213    1014.2535   -13585.466     102.5019    258.36068 
   30450    86.071225   -989.55145    59789.042   -12571.008    1046.0032   -13617.011    102.75479    266.44828 
   30500     82.17038   -1418.0452    59806.234   -12569.853    998.59712    -13568.45    103.43333    254.37254 
   30550    79.118086   -1440.9478    59816.519   -12614.908    961.50331   -13576.411    103.44124    244.92364 
   30600    83.077693   -1476.4538    59796.571   -12610.999    1009.6235   -13620.622     103.5401    257.18129 
   30650    84.751469    -1298.776    59785.346   -12588.292    1029.9645   -13618.256    103.60773    262.36275 
   30700    83.118269   -1576.4263    59821.645   -12594.096    1010.1166   -13604.213    103.99434     257.3069 
   30750    85.097609   -2083.6961    59842.907   -12555.699     1034.171    -13589.87    104.17056    263.43428 
   30800    85.049955   -1616.2442     59807.98   -12566.237    1033.5919   -13599.829    104.46571    263.28676 
   30850    83.023668   -1562.8708    59783.456   -12584.548    1008.9669   -13593.515    105.16574    257.01404 
   30900    82.384199   -1277.6068    59837.527   -12577.826    1001.1956   -13579.022    105.22898    255.03446 
   30950    84.305777   -1501.4943    59856.391   -12616.082    1024.5481    -13640.63    105.46838    260.98303 
   31000    82.974243   -1540.7569    59840.817    -12624.79    1008.3663   -13633.156     105.8307    256.86104 
   31050    83.395455   -1369.3276    59852.598   -12605.157    1013.4852   -13618.642     106.5765    258.16497 
   31100    84.124817   -1701.8069    59896.031   -12579.882    1022.3489   -13602.231    106.80733    260.42284 
   31150    80.167757   -1545.9505    59936.332    -12563.99    974.25972    -13538.25    106.90007    248.17308 
   31200    84.656482   -1376.5281    60002.156   -12560.421    1028.8101   -13589.231    107.05444     262.0687 
   31250    81.774766   -1566.2025    60027.005   -12580.362    993.78932   -13574.151    107.30264    253.14785 
   31300    84.079527   -1309.2594    59962.397   -12571.074    1021.7985   -13592.872    107.40025    260.28264 
   31350    83.540913   -1484.7998    59978.726   -12583.875    1015.2529   -13599.127    108.03887    258.61526 
   31400    84.515209   -1359.2668    59996.576   -12615.201    1027.0933   -13642.295    108.42752    261.63136 
   31450    82.944773   -1819.5565    59969.032   -12608.491    1008.0081   -13616.499    108.80135    256.76981 
   31500    82.029309   -1447.6913    59896.837   -12616.938    996.88272    -13613.82    108.93781    253.93583 
   31550    83.411084    -1272.354    59913.872   -12590.641    1013.6751   -13604.316    109.54491    258.21336 
   31600    82.988939   -1366.6654    59865.622   -12589.415    1008.5449   -13597.959    109.55304    256.90653 
   31650    85.029354   -1178.3633    59833.407   -12586.089    1033.3416   -13619.431    109.36258    263.22299 
   31700    87.427666   -1279.9567    59811.209   -12593.069    1062.4877   -13655.556    109.73607    270.64738 
   31750    83.641011   -1042.9495    59812.683   -12605.769    1016.4693   -13622.238    109.60335    258.92513 
   31800    84.119882   -1614.6959    59823.868   -12630.243     1022.289   -13652.532    109.72777    260.40756 
   31850    82.538099   -1448.4104    59789.641   -12638.724    1003.0659    -13641.79    109.48811    255.51088 
   31900    81.454244   -1556.8944    59776.174   -12645.618    989.89409   -13635.512    109.62917    252.15562 
   31950    82.516335   -1813.0814    59767.464   -12627.211    1002.8014   -13630.012    109.64359    255.44351 
   32000    84.168193    -1381.324     59738.19   -12660.131    1022.8761   -13683.007     109.9663    260.55712 
   32050    83.094548    -1446.638    59744.957   -12644.897    1009.8283   -13654.725    110.06811    257.23347 
   32100    82.547423    -1623.566    59755.614   -12641.268    1003.1792   -13644.447    110.37009    255.53974 
   32150    80.869369   -1252.1574    59727.172   -12635.763    982.78624   -13618.549    110.75879    250.34504 
   32200    83.251133   -1834.4065    59747.277   -12636.028    1011.7313    -13647.76    110.93506     257.7182 
   32250    81.491348   -944.56288    59769.082   -12657.573    990.34501   -13647.918    111.04564    252.27048 
   32300    83.957573   -1471.0994    59814.281   -12668.106    1020.3164   -13688.422    111.43344    259.90511 
   32350    81.770831   -1439.1982    59791.246   -12650.912    993.74149   -13644.654    111.51927    253.13567 
   32400    82.809014   -1619.7482    59720.136   -12659.213    1006.3583   -13665.572    111.40205    256.34955 
   32450    80.141484   -1521.1596    59681.458    -12677.06    973.94043   -13651.001    111.51213    248.09175 
   32500    83.157515   -1007.5266    59712.858   -12631.454    1010.5935   -13642.048    111.64214    257.42839 
   32550     83.62958   -1281.0905    59734.437   -12636.105    1016.3304   -13652.436    112.24917    258.88975 
   32600    84.700769   -1227.7708    59698.584   -12617.831    1029.3483    -13647.18    112.45282     262.2058 
   32650    86.727507   -1437.1312    59746.666   -12589.985    1053.9788   -13643.964    113.21723    268.47991 
   32700    85.944193   -1256.6547    59711.849   -12578.136    1044.4594   -13622.595    113.00877    266.05503 
   32750    85.568384   -1545.0136    59635.284    -12578.76    1039.8923   -13618.652    113.49937    264.89165 
   32800    85.687559   -1284.9181    59655.202   -12591.081    1041.3406   -13632.421    114.00765    265.26057 
   32850    83.799606   -1529.8699    59667.675   -12617.035    1018.3967   -13635.432    114.53742    259.41609 
   32900     83.50336   -1335.2992    59653.255   -12637.921    1014.7965   -13652.718    114.39275    258.49901 
   32950    81.830954   -1579.1008    59646.291   -12659.531    994.47215   -13654.003    114.94201    253.32179 
   33000    83.462992   -1461.0808    59629.983   -12656.373    1014.3059   -13670.679    114.87686    258.37405 
   33050    86.397453   -1230.0395    59680.756   -12657.926    1049.9677   -13707.893     114.3267    267.45817 
   33100    81.894804   -1247.7635    59745.394   -12670.585    995.24811   -13665.833    114.68918    253.51945 
   33150    81.413857   -1575.0253    59754.117     -12682.7    989.40327   -13672.103    114.72837    252.03059 
   33200    84.924305   -1043.8972    59811.208   -12670.688    1032.0649   -13702.753    114.96236    262.89779 
   33250    81.763349   -1052.3576    59800.903   -12664.013    993.65056   -13657.663     115.2802    253.11251 
   33300    85.667785   -1424.0294    59794.579   -12647.805    1041.1002   -13688.906    115.66916    265.19936 
   33350     85.27832   -1017.3015    59839.428   -12648.259    1036.3672   -13684.626    116.23262    263.99371 
   33400    83.500734   -1198.1209    59893.381   -12662.328    1014.7646   -13677.092    116.29226    258.49088 
   33450    83.245818   -1258.4552    59975.795   -12655.746    1011.6667   -13667.413    116.49146    257.70175 
   33500    81.955511   -1494.8935    59968.013   -12693.128    995.98586   -13689.114    116.89767    253.70738 
   33550    84.015462   -1432.9767    59955.943   -12684.732      1021.02   -13705.752     116.6571    260.08431 
   33600    79.825424   -1280.6523    59964.618   -12687.438    970.09942   -13657.537    116.86309    247.11333 
   33650    80.127926   -1322.1169    59988.761   -12644.977    973.77566   -13618.753    117.27864    248.04978 
   33700    84.579702   -1279.6023    59915.138   -12606.817     1027.877   -13634.694    117.45201    261.83101 
   33750    82.928106   -1044.7025    59899.034   -12608.932    1007.8056   -13616.737    117.65909    256.71821 
   33800    84.580681   -1236.3339    59899.736   -12617.676    1027.8889   -13645.565    118.31382    261.83404 
   33850    83.379146   -1469.5572    59914.906   -12649.828     1013.287   -13663.115    118.91384    258.11449 
   33900    83.402664   -1097.6921     59972.14   -12663.852    1013.5728   -13677.425    119.41711    258.18729 
   33950    79.911458   -1202.8572    60043.816   -12663.831    971.14497   -13634.976    119.45035    247.37966 
[...]
   92000    80.975813   -1529.4861    60421.813   -12756.335    984.07983   -13740.414    304.80692    250.67456 
   92050    82.233195   -1319.6507    60398.318   -12751.066     999.3605   -13750.427    305.56472      254.567 
   92100    79.929374   -1193.1437    60397.802     -12760.2     971.3627   -13731.563    305.32197    247.43512 
   92150    82.046255   -1173.0548    60399.061   -12758.534    997.08866   -13755.623    305.12897    253.98829 
   92200    82.380936   -1121.1145    60476.102   -12739.213     1001.156   -13740.369    305.27464    255.02436 
   92250     79.00348   -1317.3296    60476.633   -12725.471    960.11054   -13685.582    305.17169    244.56886 
   92300    81.221433   -1306.2852    60481.654   -12731.892     987.0648   -13718.957    305.98158    251.43492 
   92350    81.426528   -1611.2732     60520.42   -12713.885    989.55727   -13703.442    306.28794    252.06982 
   92400    82.835789   -1586.7844    60501.399   -12685.983    1006.6837   -13692.667    306.52109    256.43243 
   92450    81.880484   -1526.6529    60525.004   -12700.036    995.07408    -13695.11    306.32978    253.47512 
   92500    85.022641    -1546.816    60531.227    -12684.19      1033.26    -13717.45    306.42553    263.20221 
   92550    82.869717   -1602.5212    60533.429   -12659.642     1007.096   -13666.738    306.75758    256.53746 
   92600    88.357984   -1623.9304    60496.425   -12665.429    1073.7936   -13739.223    307.11735    273.52734 
   92650    83.780858   -1615.9488    60495.145    -12687.94    1018.1689   -13706.109    307.13787    259.35806 
   92700    81.714117   -1507.7467     60472.55   -12695.597    993.05226    -13688.65    306.83063     252.9601 
   92750    84.191714   -1652.4486    60457.443   -12679.589    1023.1619   -13702.751    306.13461    260.62993 
   92800    84.071413   -1577.7684      60440.6   -12702.815    1021.6999   -13724.515    306.43492    260.25752 
   92850     82.98402   -1282.4271    60505.966   -12721.947    1008.4851   -13730.432    307.13193     256.8913 
   92900    82.652956   -993.11353    60590.172   -12678.855    1004.4617   -13683.316    306.69965    255.86644 
   92950    83.006687   -1351.5716    60617.186   -12657.772    1008.7606   -13666.533    307.00591    256.96147 
   93000    86.844962   -1315.3646     60666.84    -12640.68    1055.4062   -13696.086    307.32783    268.84352 
   93050    84.813425   -1382.6326    60704.685   -12661.028    1030.7174   -13691.746    307.55636    262.55454 
   93100    86.589844    -1241.671    60720.511   -12613.774    1052.3058    -13666.08    307.74616    268.05375 
   93150    85.684508   -1704.1314    60709.995   -12612.489    1041.3035   -13653.792    307.78817    265.25113 
   93200    84.727562   -1596.7158    60669.284   -12601.394    1029.6739   -13631.067    307.63477    262.28874 
   93250    89.884632   -1392.2691     60650.83   -12551.939    1092.3466   -13644.286    307.61019    278.25334 
   93300    85.436545    -1498.759    60643.042   -12584.636      1038.29   -13622.926    308.11235    264.48352 
   93350    83.153801   -1384.0357    60708.035   -12588.897    1010.5484   -13599.445    308.48633    257.41689 
   93400    84.189016    -1417.818    60741.345   -12602.133    1023.1291   -13625.262    308.14323    260.62158 
   93450    87.363163   -1997.7827    60710.506   -12605.786    1061.7038    -13667.49    308.20977     270.4477 
   93500       85.646   -1784.3246     60657.29   -12610.711    1040.8355   -13651.546    308.59875    265.13192 
   93550    82.276835   -1803.9926    60567.905   -12642.437    999.89085   -13642.328    309.01036    254.70209 
   93600    83.653873   -1331.2697    60505.432     -12649.9    1016.6257   -13666.526    309.53164    258.96495 
   93650    79.378804   -1335.1532     60556.26   -12700.382    964.67176   -13665.054    310.27009    245.73074 
   93700    85.434766   -1404.4119    60643.765   -12671.887    1038.2684   -13710.156    311.21381    264.47801 
   93750    84.535413   -1395.3056    60661.891    -12657.86    1027.3388   -13685.199    311.14962    261.69391 
   93800    83.834757   -1525.5869    60634.999   -12685.417    1018.8239    -13704.24    311.98257    259.52491 
   93850    82.334611   -1236.6026    60628.144   -12706.097     1000.593    -13706.69    312.27616    254.88095 
   93900    82.344435   -1482.2523    60638.536   -12699.102    1000.7124   -13699.814    312.36413    254.91136 
   93950    84.450024   -1373.8965     60715.19   -12682.062    1026.3011   -13708.363    313.13952    261.42957 
   94000    85.370534   -1452.6036    60694.859   -12690.626    1037.4878   -13728.114    313.34771    264.27917 
   94050    82.311788   -1628.6208    60637.034   -12701.774    1000.3156    -13702.09    314.10299     254.8103 
   94100    82.363127   -1769.0552    60662.259   -12718.104    1000.9395   -13719.043    314.20673    254.96922 
   94150    81.168276   -1690.6349    60657.027   -12721.599    986.41879   -13708.018    314.08336    251.27036 
   94200    81.658298    -1205.821      60644.4   -12698.087    992.37391   -13690.461     313.7274    252.78731 
   94250    84.981861   -1265.5479    60643.636    -12661.75    1032.7644   -13694.514    313.74857    263.07597 
   94300    81.022373   -1697.1338    60630.211   -12698.966    984.64566   -13683.612    314.30108    250.81869 
   94350    81.172454   -1236.0836        60669   -12684.023    986.46956   -13670.492    314.73967    251.28329 
   94400    82.233749   -1466.9808    60690.095   -12658.852    999.36723   -13658.219    314.73669    254.56871 
   94450    80.364917   -1089.7289    60698.497   -12653.726    976.65575   -13630.381    314.35752    248.78342 
   94500    81.731491   -1056.3187    60766.582   -12658.332    993.26341   -13651.596    314.88819    253.01389 
   94550    83.004544   -1427.4202     60825.97   -12640.826    1008.7345   -13649.561    316.47098    256.95484 
   94600    81.344364   -1125.5144     60846.93   -12692.505    988.55874   -13681.064    316.12105    251.81547 
   94650    81.997255   -1221.8572    60905.184   -12674.299    996.49317   -13670.792    316.79485     253.8366 
   94700    80.440193    -1494.367    60937.482   -12643.999    977.57056   -13621.569    316.41719    249.01645 
   94750    83.154312     -1380.22    60927.434    -12651.02    1010.5546   -13661.575    316.34661    257.41847 
   94800     82.38316   -1788.2228    60905.943   -12637.589     1001.183   -13638.772    317.16524    255.03124 
   94850    83.335487    -1244.718    60905.094   -12619.826    1012.7564   -13632.582    316.27466    257.97933 
   94900    84.029415   -1527.6457    60918.971   -12654.654    1021.1895   -13675.843    316.40826    260.12751 
   94950    83.364905   -1298.3457    60955.878   -12649.842    1013.1139   -13662.956    316.02946     258.0704 
   95000    81.951288   -1346.3708    60918.143   -12682.283    995.93455   -13678.218    316.47257    253.69431 
   95050    79.788128   -1661.1783    60908.325    -12690.35    969.64617   -13659.997    316.24623    246.99787 
   95100    82.389469   -1532.9772    60897.985   -12644.756    1001.2597   -13646.016    316.02417    255.05077 
   95150    88.646253   -1213.2912    60879.145   -12615.902    1077.2969   -13693.199     316.4421    274.41972 
   95200    83.621334    -1513.556    60844.479   -12657.688    1016.2302   -13673.918    316.45028    258.86422 
   95250    82.985331   -1733.8766    60805.393   -12642.829     1008.501    -13651.33    315.96318    256.89536 
   95300     83.92004   -1311.7548    60780.153   -12649.863    1019.8603   -13669.723    315.96584    259.78892 
   95350    81.313262   -1498.1982     60795.39   -12682.747    988.18077   -13670.928    316.01764    251.71919 
   95400    82.004459   -1804.0194    60728.146   -12688.879    996.58072   -13685.459    316.29438    253.85891 
   95450    82.345931   -1325.2515    60701.688   -12697.722    1000.7305   -13698.453    316.48076    254.91599 
   95500    80.093413   -1397.0922    60651.577   -12709.722    973.35624   -13683.079    316.81437    247.94294 
   95550     87.00237   -1550.7939    60645.958   -12682.383    1057.3191   -13739.702    317.02414     269.3308 
   95600    78.910063    -1317.407    60628.316   -12717.106    958.97526   -13676.082    317.20295    244.27967 
   95650    81.376386   -1695.0826    60620.838   -12721.889     988.9479   -13710.837    318.30276     251.9146 
   95700    81.745759   -1516.3269    60565.798   -12708.055     993.4368   -13701.492     318.4765    253.05805 
   95750    79.964738   -1141.3263    60578.431   -12709.287    971.79248   -13681.079    317.70591     247.5446 
   95800    83.042195    -1506.396     60620.34   -12697.396    1009.1921   -13706.588    318.05374     257.0714 
   95850    84.306991   -1074.2058    60628.356   -12624.823    1024.5628   -13649.386    318.63094    260.98679 
   95900    82.611669   -1457.0722     60634.82   -12637.009      1003.96   -13640.969    319.34494    255.73863 
   95950    82.958005   -1214.9629    60648.301     -12643.9    1008.1689   -13652.069    319.46604    256.81077 
   96000    86.934791   -1734.1583    60598.997   -12621.808    1056.4979   -13678.305    319.65905     269.1216 
   96050    82.011614   -1013.0115     60631.88   -12631.854    996.66767   -13628.522    318.68618    253.88106 
   96100    85.046739   -1322.7412    60673.188   -12658.338    1033.5528   -13691.891    318.72664    263.27681 
   96150     81.44189   -1394.6841    60689.842   -12677.982    989.74396   -13667.726    318.52425    252.11738 
   96200    82.175627   -1530.6152     60668.88   -12670.479    998.66089    -13669.14    318.89506    254.38879 
   96250    83.404344   -1591.3658    60706.041     -12678.9    1013.5932   -13692.493    318.92996    258.19249 
   96300    82.934656    -1836.686      60644.8   -12722.005    1007.8852    -13729.89    318.69686    256.73849 
   96350    81.879417   -1707.0756    60619.447   -12707.676    995.06111   -13702.737    319.00562    253.47182 
   96400    80.126503   -1316.4125    60608.703   -12722.328    973.75836   -13696.086    319.40162    248.04537 
   96450    81.332064   -1520.1086    60609.654   -12723.493    988.40926   -13711.902    320.13371    251.77739 
   96500    82.500737   -1160.2674    60629.502    -12702.51    1002.6119   -13705.122    319.07849    255.39522 
   96550    81.952025   -1995.7177     60642.04   -12707.371     995.9435   -13703.315    319.24198    253.69659 
   96600    77.937398   -1659.8967    60606.367   -12759.523    947.15469   -13706.678    318.57464    241.26862 
   96650    81.765129   -1061.7865    60585.531   -12752.542     993.6722   -13746.215    318.65171    253.11802 
   96700    81.023371   -1192.8379    60618.488   -12761.473    984.65779    -13746.13    318.85158    250.82178 
   96750    80.498053   -1778.7838    60598.373    -12744.56    978.27372   -13722.834    319.68363    249.19557 
   96800    79.417921    -1570.822    60568.583   -12754.848    965.14714   -13719.995    319.33594    245.85183 
   96850    83.893008   -1339.1964    60535.873   -12739.111    1019.5318   -13758.643    319.26053    259.70524 
   96900    81.722473   -915.13686    60620.292   -12742.149    993.15381   -13735.303    319.21811    252.98597 
   96950    84.316235   -1413.8635    60650.537   -12718.551    1024.6752   -13743.227    319.22574    261.01541 
   97000    83.258079   -1599.5769    60666.593     -12706.6    1011.8157   -13718.415    319.99106     257.7397 
   97050    81.122948    -1269.928    60661.878   -12724.042    985.86793    -13709.91    319.74153    251.13004 
   97100    81.574257   -1617.9575    60667.358   -12711.708    991.35257    -13703.06    320.38094    252.52714 
   97150    83.435138   -1702.0238    60639.622   -12703.313    1013.9674    -13717.28    321.18939    258.28782 
   97200    82.667726   -1429.9291    60632.901   -12672.618    1004.6412   -13677.259      321.043    255.91216 
   97250    82.784248   -1602.6897    60660.585   -12708.629    1006.0573   -13714.686    321.09195    256.27288 
   97300    79.831835   -1322.0506    60695.826   -12746.901    970.17734   -13717.079    321.16014    247.13318 
   97350    81.614828    -1445.636    60694.962   -12751.247    991.84563   -13743.093    321.57238    252.65274 
   97400    83.078886   -1257.7959    60776.239    -12719.45     1009.638   -13729.088    321.90387    257.18498 
   97450    81.502327   -1286.3825    60827.097   -12740.661    990.47843   -13731.139    322.89787    252.30447 
   97500    82.004148   -1312.9779    60852.557   -12719.552    996.57695   -13716.129    322.72484    253.85794 
   97550    86.007915   -1590.8534    60872.949    -12679.87    1045.2338   -13725.103    322.70189    266.25229 
   97600    85.547448   -1308.9901    60870.745   -12663.743    1039.6378   -13703.381    322.77075    264.82684 
   97650    81.085613   -1238.7879    60891.572   -12704.092     985.4142   -13689.506    323.41878    251.01446 
   97700    83.269297   -1512.5071    60862.702   -12757.661     1011.952   -13769.613    324.33219    257.77443 
   97750    82.429199   -1684.0879    60833.263    -12758.67    1001.7425   -13760.413    324.38658    255.17376 
   97800    80.243426    -1569.427    60847.488   -12777.441     975.1793   -13752.621    323.98239    248.40733 
   97850    79.614295   -1656.6585    60794.097   -12777.428    967.53363   -13744.962    324.77245    246.45974 
   97900    82.312995   -1866.3217    60790.926   -12774.354    1000.3303   -13774.685    324.75529    254.81403 
   97950      82.0744   -1465.2402    60701.693   -12787.082     997.4307   -13784.512    324.91226    254.07542 
   98000    83.462799   -1288.3075    60652.815   -12784.183    1014.3036   -13798.486    324.98432    258.37345 
   98050     79.38609   -1339.8726    60628.575   -12809.591     964.7603   -13774.352    325.49664    245.75329 
   98100    78.383408   -1286.4421    60654.092    -12840.34    952.57495   -13792.915    324.77091    242.64932 
   98150    81.988389   -1897.3519    60604.239   -12796.859    996.38543   -13793.245    324.38873    253.80916 
   98200    78.546311   -1726.7302    60543.651   -12814.237    954.55467   -13768.791    325.02529    243.15361 
   98250    81.222634   -1417.6996    60462.868   -12804.995    987.07938   -13792.074    325.35858    251.43863 
   98300    83.325185   -1709.1082    60463.324   -12808.757    1012.6312   -13821.388    325.42845    257.94744 
   98350    77.655314   -1350.2045    60527.332   -12825.839    943.72659   -13769.566     325.0233    240.39538 
   98400    77.431306   -1818.8976    60535.916   -12813.816    941.00428    -13754.82      324.993    239.70193 
   98450    80.804001    -1413.371    60561.443   -12784.459    981.99184   -13766.451    324.76292    250.14268 
   98500    80.980864   -1433.9933    60569.727   -12797.399    984.14121    -13781.54    324.75631    250.69019 
   98550    82.964537   -1294.6408    60590.749   -12758.102    1008.2483    -13766.35    325.01673    256.83099 
   98600    78.905223   -1739.4275    60590.849   -12787.276    958.91645   -13746.193    325.78055    244.26469 
   98650    84.070444   -1314.5846    60610.703   -12755.107    1021.6881   -13776.795     325.5871    260.25452 
   98700    84.005594   -1374.5184     60608.76   -12731.563       1020.9   -13752.463    325.61323    260.05376 
   98750    86.335968   -1345.8008    60588.889    -12700.79    1049.2205    -13750.01    325.64546    267.26784 
   98800    82.125818   -1156.3094    60570.456   -12711.047    998.05556   -13709.103    326.08486    254.23459 
   98850    81.423943   -1394.3112    60581.194   -12699.452    989.52584   -13688.978    326.12365    252.06182 
   98900     82.49806   -1352.9897    60640.084   -12701.951    1002.5793    -13704.53    326.41099    255.38693 
   98950    84.060399   -1001.9504    60605.876   -12709.674    1021.5661    -13731.24     327.1243    260.22342 
   99000    83.765953   -1189.8428    60610.826   -12708.382    1017.9877    -13726.37     327.0947    259.31191 
   99050    81.838705   -1028.4646    60672.888   -12758.434    994.56635       -13753    327.42286    253.34579 
   99100    81.045614   -1418.8248    60652.924   -12785.019     984.9281   -13769.947    328.02311    250.89064 
   99150    82.852194   -1575.8161    60643.769   -12718.556     1006.883   -13725.439     327.6167    256.48322 
   99200    82.010912   -1230.3337    60655.148   -12735.477    996.65914   -13732.136    328.11207    253.87888 
   99250     80.69215    -1803.049    60665.083     -12763.3    980.63254   -13743.933     328.2691    249.79643 
   99300    80.565614   -1303.7639    60647.663   -12794.557    979.09477   -13773.651     328.3009    249.40471 
   99350    82.071055   -1259.4705    60628.834   -12779.214    997.39005   -13776.604    329.29044    254.06507 
   99400    80.591119   -1513.7678     60624.79   -12763.761    979.40474   -13743.166    329.47937    249.48367 
   99450    82.907729   -1457.4775    60628.374   -12756.308    1007.5579   -13763.866    329.90536    256.65513 
   99500    79.763425   -1458.6551    60622.554   -12761.061    969.34596   -13730.407     329.8192     246.9214 
   99550    83.578481   -1360.4406    60577.827    -12738.75    1015.7094    -13754.46    329.53014    258.73156 
   99600    80.312173   -1661.7135    60549.975   -12758.399    976.01477   -13734.414    329.98537    248.62014 
   99650    81.571577   -1462.9867    60544.377   -12787.265    991.32001   -13778.585     329.9718    252.51885 
   99700    81.452969   -1784.3154    60486.789   -12796.989    989.87859   -13786.868    330.01549    252.15167 
   99750    78.971792   -1486.9197    60444.948   -12809.438    959.72543   -13769.163    329.49251    244.47076 
   99800    80.878848   -1717.5779    60431.356   -12774.693    982.90144   -13757.595    329.36697    250.37439 
   99850     81.85964   -1579.1502    60440.618   -12733.956    994.82077   -13728.776    329.15377     253.4106 
   99900    81.624732   -1385.3156    60470.775    -12733.38    991.96599   -13725.346    329.36454     252.6834 
   99950    84.947035   -1257.7695     60500.34   -12714.162    1032.3412   -13746.503    329.08098    262.96816 
  100000    83.245219   -1406.0957    60514.325   -12735.938    1011.6594   -13747.597     329.6371    257.69989 
Loop time of 84.6415 on 32 procs for 100000 steps with 4078 atoms

Performance: 510.388 ns/day, 0.047 hours/ns, 1181.454 timesteps/s
100.0% CPU use with 32 MPI tasks x no OpenMP threads

MPI task timing breakdown:
Section |  min time  |  avg time  |  max time  |%varavg| %total
---------------------------------------------------------------
Pair    | 48.3       | 54.717     | 62.062     |  76.3 | 64.65
Neigh   | 1.1981     | 2.7892     | 5.155      |  95.0 |  3.30
Comm    | 12.069     | 20.865     | 29.179     | 150.6 | 24.65
Output  | 0.09683    | 0.1026     | 0.20706    |   5.9 |  0.12
Modify  | 4.2947     | 5.3151     | 6.8539     |  30.9 |  6.28
Other   |            | 0.8528     |            |       |  1.01

Nlocal:    127.438 ave 199 max 63 min
Histogram: 16 0 0 0 0 0 0 0 8 8
Nghost:    991.031 ave 1060 max 915 min
Histogram: 5 5 6 0 0 0 0 0 8 8
Neighs:    0 ave 0 max 0 min
Histogram: 32 0 0 0 0 0 0 0 0 0
FullNghs:  13853.8 ave 25418 max 3283 min
Histogram: 16 0 0 0 0 0 0 0 3 13

Total # of neighbors = 443322
Ave neighs/atom = 108.711
Neighbor list builds = 5797
Dangerous builds = 0

write_data		${DIR}/data.eq-${NAME}-${TEMP}
write_data		run_1/data.eq-${NAME}-${TEMP}
write_data		run_1/data.eq-het_freeze_1-${TEMP}
write_data		run_1/data.eq-het_freeze_1-255
undump          1

reset_timestep  0

unfix           2
unfix           3
unfix           4


################################################
#######         Run Simulation         #########
################################################

log				${DIR}/log.run_${NAME}
log				run_1/log.run_${NAME}
log				run_1/log.run_het_freeze_1
