LAMMPS data file via write_data, version 16 Mar 2018, timestep = 100000

4560 atoms
2 atom types

0.0000000000000000e+00 4.9219999999999999e+01 xlo xhi
0.0000000000000000e+00 4.9019635930410494e+01 ylo yhi
1.2284182088297815e+00 3.2711581791170985e+01 zlo zhi

Masses

1 18.015
2 12.01

Atoms # atomic

147 2 0.0000000000000000e+00 2.8417180249513345e+00 3.3154218090425909e+00 0 0 0
149 2 0.0000000000000000e+00 0.0000000000000000e+00 3.3154218090425909e+00 0 0 0
151 2 1.2305000000000001e+00 7.1042950623783474e-01 3.3154218090425909e+00 0 0 0
158 2 1.2305000000000001e+00 2.1312885187134998e+00 3.3154218090425909e+00 0 0 0
160 2 2.4610000000000003e+00 2.8417180249513345e+00 3.3154218090425909e+00 0 0 0
162 2 2.4610000000000003e+00 0.0000000000000000e+00 3.3154218090425909e+00 0 0 0
164 2 3.6915000000000004e+00 7.1042950623783474e-01 3.3154218090425909e+00 0 0 0
179 2 3.6914999999999996e+00 2.1312885187134998e+00 3.3154218090425909e+00 0 0 0
181 2 4.9220000000000006e+00 2.8417180249513332e+00 3.3154218090425909e+00 0 0 0
183 2 4.9220000000000006e+00 0.0000000000000000e+00 3.3154218090425909e+00 0 0 0
185 2 6.1524999999999999e+00 7.1042950623783407e-01 3.3154218090425909e+00 0 0 0
208 2 6.1524999999999999e+00 2.1312885187134989e+00 3.3154218090425909e+00 0 0 0
210 2 7.3829999999999991e+00 2.8417180249513345e+00 3.3154218090425909e+00 0 0 0
212 2 7.3829999999999991e+00 0.0000000000000000e+00 3.3154218090425909e+00 0 0 0
214 2 8.6134999999999984e+00 7.1042950623783407e-01 3.3154218090425909e+00 0 0 0
245 2 8.6134999999999984e+00 2.1312885187135002e+00 3.3154218090425909e+00 0 0 0
247 2 9.8440000000000012e+00 2.8417180249513332e+00 3.3154218090425909e+00 0 0 0
249 2 9.8440000000000012e+00 0.0000000000000000e+00 3.3154218090425909e+00 0 0 0
251 2 1.1074500000000002e+01 7.1042950623783330e-01 3.3154218090425909e+00 0 0 0
290 2 1.1074500000000002e+01 2.1312885187135002e+00 3.3154218090425909e+00 0 0 0
322 2 8.6134999999999984e+00 1.0656442593567498e+01 6.3100896474307904e+00 0 0 0
154 2 0.0000000000000000e+00 4.2625770374269996e+00 3.3154218090425909e+00 0 0 0
156 2 1.2305000000000001e+00 4.9730065436648339e+00 3.3154218090425909e+00 0 0 0
171 2 1.2305000000000001e+00 6.3938655561404980e+00 3.3154218090425909e+00 0 0 0
175 2 2.4610000000000003e+00 4.2625770374269996e+00 3.3154218090425909e+00 0 0 0
177 2 3.6914999999999996e+00 4.9730065436648339e+00 3.3154218090425909e+00 0 0 0
200 2 3.6914999999999996e+00 6.3938655561404980e+00 3.3154218090425909e+00 0 0 0
152 2 0.0000000000000000e+00 7.1042950623783341e+00 3.3154218090425909e+00 0 0 0
173 2 2.4610000000000003e+00 7.1042950623783341e+00 3.3154218090425909e+00 0 0 0
204 2 4.9220000000000006e+00 4.2625770374269978e+00 3.3154218090425909e+00 0 0 0
206 2 6.1524999999999999e+00 4.9730065436648339e+00 3.3154218090425909e+00 0 0 0
237 2 6.1524999999999999e+00 6.3938655561404980e+00 3.3154218090425909e+00 0 0 0
241 2 7.3829999999999991e+00 4.2625770374269996e+00 3.3154218090425909e+00 0 0 0
202 2 4.9220000000000006e+00 7.1042950623783341e+00 3.3154218090425909e+00 0 0 0
239 2 7.3830000000000009e+00 7.1042950623783341e+00 3.3154218090425909e+00 0 0 0
243 2 8.6135000000000002e+00 4.9730065436648339e+00 3.3154218090425909e+00 0 0 0
282 2 8.6135000000000002e+00 6.3938655561404980e+00 3.3154218090425909e+00 0 0 0
286 2 9.8440000000000012e+00 4.2625770374270004e+00 3.3154218090425909e+00 0 0 0
288 2 1.1074500000000002e+01 4.9730065436648339e+00 3.3154218090425909e+00 0 0 0
329 2 1.1074500000000002e+01 6.3938655561404980e+00 3.3154218090425909e+00 0 0 0
284 2 9.8440000000000012e+00 7.1042950623783341e+00 3.3154218090425909e+00 0 0 0
167 2 0.0000000000000000e+00 8.5251540748539991e+00 3.3154218090425909e+00 0 0 0
169 2 1.2305000000000001e+00 9.2355835810918343e+00 3.3154218090425909e+00 0 0 0
196 2 2.4610000000000003e+00 8.5251540748539991e+00 3.3154218090425909e+00 0 0 0
198 2 3.6915000000000004e+00 9.2355835810918343e+00 3.3154218090425909e+00 0 0 0
165 2 0.0000000000000000e+00 1.1366872099805333e+01 3.3154218090425909e+00 0 0 0
192 2 1.2305000000000001e+00 1.0656442593567498e+01 3.3154218090425909e+00 0 0 0
194 2 2.4610000000000003e+00 1.1366872099805333e+01 3.3154218090425909e+00 0 0 0
229 2 3.6914999999999996e+00 1.0656442593567499e+01 3.3154218090425909e+00 0 0 0
233 2 4.9220000000000006e+00 8.5251540748539991e+00 3.3154218090425909e+00 0 0 0
235 2 6.1524999999999999e+00 9.2355835810918343e+00 3.3154218090425909e+00 0 0 0
278 2 7.3830000000000009e+00 8.5251540748539991e+00 3.3154218090425909e+00 0 0 0
231 2 4.9220000000000006e+00 1.1366872099805333e+01 3.3154218090425909e+00 0 0 0
274 2 6.1524999999999999e+00 1.0656442593567499e+01 3.3154218090425909e+00 0 0 0
276 2 7.3829999999999991e+00 1.1366872099805333e+01 3.3154218090425909e+00 0 0 0
280 2 8.6134999999999984e+00 9.2355835810918343e+00 3.3154218090425909e+00 0 0 0
325 2 9.8440000000000012e+00 8.5251540748539956e+00 3.3154218090425909e+00 0 0 0
327 2 1.1074500000000002e+01 9.2355835810918343e+00 3.3154218090425909e+00 0 0 0
321 2 8.6134999999999984e+00 1.0656442593567498e+01 3.3154218090425909e+00 0 0 0
323 2 9.8440000000000012e+00 1.1366872099805333e+01 3.3154218090425909e+00 0 0 0
368 2 1.1074500000000002e+01 1.0656442593567498e+01 3.3154218090425909e+00 0 0 0
370 2 1.2304999999999998e+01 1.1366872099805333e+01 3.3154218090425909e+00 0 0 0
148 2 0.0000000000000000e+00 1.4208590124756650e+00 6.3100896474307904e+00 0 0 0
150 2 0.0000000000000000e+00 0.0000000000000000e+00 6.3100896474307904e+00 0 0 0
159 2 1.2305000000000001e+00 2.1312885187134998e+00 6.3100896474307904e+00 0 0 0
161 2 2.4610000000000003e+00 1.4208590124756650e+00 6.3100896474307904e+00 0 0 0
163 2 2.4610000000000003e+00 0.0000000000000000e+00 6.3100896474307904e+00 0 0 0
180 2 3.6914999999999996e+00 2.1312885187134998e+00 6.3100896474307904e+00 0 0 0
157 2 1.2305000000000001e+00 3.5521475311891644e+00 6.3100896474307904e+00 0 0 0
178 2 3.6914999999999996e+00 3.5521475311891644e+00 6.3100896474307904e+00 0 0 0
182 2 4.9220000000000006e+00 1.4208590124756650e+00 6.3100896474307904e+00 0 0 0
184 2 4.9220000000000006e+00 0.0000000000000000e+00 6.3100896474307904e+00 0 0 0
209 2 6.1524999999999999e+00 2.1312885187134989e+00 6.3100896474307904e+00 0 0 0
211 2 7.3829999999999991e+00 1.4208590124756659e+00 6.3100896474307904e+00 0 0 0
213 2 7.3829999999999991e+00 0.0000000000000000e+00 6.3100896474307904e+00 0 0 0
207 2 6.1524999999999999e+00 3.5521475311891644e+00 6.3100896474307904e+00 0 0 0
246 2 8.6134999999999984e+00 2.1312885187135002e+00 6.3100896474307904e+00 0 0 0
248 2 9.8440000000000012e+00 1.4208590124756659e+00 6.3100896474307904e+00 0 0 0
250 2 9.8440000000000012e+00 0.0000000000000000e+00 6.3100896474307904e+00 0 0 0
291 2 1.1074500000000002e+01 2.1312885187135002e+00 6.3100896474307904e+00 0 0 0
244 2 8.6134999999999984e+00 3.5521475311891657e+00 6.3100896474307904e+00 0 0 0
289 2 1.1074500000000002e+01 3.5521475311891644e+00 6.3100896474307904e+00 0 0 0
153 2 0.0000000000000000e+00 5.6834360499026637e+00 6.3100896474307904e+00 0 0 0
155 2 0.0000000000000000e+00 4.2625770374269996e+00 6.3100896474307904e+00 0 0 0
172 2 1.2305000000000001e+00 6.3938655561404980e+00 6.3100896474307904e+00 0 0 0
174 2 2.4610000000000003e+00 5.6834360499026637e+00 6.3100896474307904e+00 0 0 0
176 2 2.4610000000000003e+00 4.2625770374269996e+00 6.3100896474307904e+00 0 0 0
201 2 3.6914999999999996e+00 6.3938655561404980e+00 6.3100896474307904e+00 0 0 0
170 2 1.2305000000000001e+00 7.8147245686161639e+00 6.3100896474307904e+00 0 0 0
199 2 3.6914999999999996e+00 7.8147245686161639e+00 6.3100896474307904e+00 0 0 0
203 2 4.9220000000000006e+00 5.6834360499026637e+00 6.3100896474307904e+00 0 0 0
205 2 4.9220000000000006e+00 4.2625770374269978e+00 6.3100896474307904e+00 0 0 0
238 2 6.1524999999999999e+00 6.3938655561404980e+00 6.3100896474307904e+00 0 0 0
240 2 7.3829999999999991e+00 5.6834360499026637e+00 6.3100896474307904e+00 0 0 0
242 2 7.3829999999999991e+00 4.2625770374269996e+00 6.3100896474307904e+00 0 0 0
236 2 6.1524999999999999e+00 7.8147245686161639e+00 6.3100896474307904e+00 0 0 0
283 2 8.6135000000000002e+00 6.3938655561404980e+00 6.3100896474307904e+00 0 0 0
285 2 9.8440000000000012e+00 5.6834360499026637e+00 6.3100896474307904e+00 0 0 0
287 2 9.8440000000000012e+00 4.2625770374270004e+00 6.3100896474307904e+00 0 0 0
330 2 1.1074500000000002e+01 6.3938655561404980e+00 6.3100896474307904e+00 0 0 0
281 2 8.6135000000000002e+00 7.8147245686161639e+00 6.3100896474307904e+00 0 0 0
328 2 1.1074500000000002e+01 7.8147245686161639e+00 6.3100896474307904e+00 0 0 0
166 2 0.0000000000000000e+00 9.9460130873296642e+00 6.3100896474307904e+00 0 0 0
168 2 0.0000000000000000e+00 8.5251540748539991e+00 6.3100896474307904e+00 0 0 0
195 2 2.4610000000000003e+00 9.9460130873296642e+00 6.3100896474307904e+00 0 0 0
197 2 2.4610000000000003e+00 8.5251540748539991e+00 6.3100896474307904e+00 0 0 0
191 2 1.2305000000000001e+00 1.2077301606043163e+01 6.3100896474307904e+00 0 0 0
193 2 1.2305000000000001e+00 1.0656442593567498e+01 6.3100896474307904e+00 0 0 0
228 2 3.6914999999999996e+00 1.2077301606043163e+01 6.3100896474307904e+00 0 0 0
230 2 3.6914999999999996e+00 1.0656442593567499e+01 6.3100896474307904e+00 0 0 0
232 2 4.9220000000000006e+00 9.9460130873296642e+00 6.3100896474307904e+00 0 0 0
234 2 4.9220000000000006e+00 8.5251540748539991e+00 6.3100896474307904e+00 0 0 0
277 2 7.3830000000000009e+00 9.9460130873296642e+00 6.3100896474307904e+00 0 0 0
279 2 7.3830000000000009e+00 8.5251540748539991e+00 6.3100896474307904e+00 0 0 0
273 2 6.1524999999999999e+00 1.2077301606043163e+01 6.3100896474307904e+00 0 0 0
275 2 6.1524999999999999e+00 1.0656442593567499e+01 6.3100896474307904e+00 0 0 0
367 2 1.1074500000000002e+01 1.2077301606043163e+01 6.3100896474307904e+00 0 0 0
369 2 1.1074500000000002e+01 1.0656442593567498e+01 6.3100896474307904e+00 0 0 0
324 2 9.8440000000000012e+00 9.9460130873296642e+00 6.3100896474307904e+00 0 0 0
326 2 9.8440000000000012e+00 8.5251540748539956e+00 6.3100896474307904e+00 0 0 0
320 2 8.6135000000000002e+00 1.2077301606043163e+01 6.3100896474307904e+00 0 0 0
476 2 0.0000000000000000e+00 2.8417180249513345e+00 9.3047574858186941e+00 0 0 0
477 2 0.0000000000000000e+00 0.0000000000000000e+00 9.3047574858186941e+00 0 0 0
478 2 1.2305000000000001e+00 7.1042950623783474e-01 9.3047574858186941e+00 0 0 0
482 2 1.2305000000000001e+00 2.1312885187134998e+00 9.3047574858186941e+00 0 0 0
483 2 2.4610000000000003e+00 2.8417180249513345e+00 9.3047574858186941e+00 0 0 0
484 2 2.4610000000000003e+00 0.0000000000000000e+00 9.3047574858186941e+00 0 0 0
485 2 3.6915000000000004e+00 7.1042950623783474e-01 9.3047574858186941e+00 0 0 0
493 2 3.6914999999999996e+00 2.1312885187134998e+00 9.3047574858186941e+00 0 0 0
3475 1 1.7481458121734446e+00 1.7558116947994795e+00 1.1712959298862730e+01 1 0 1
4396 1 5.4658883747435683e+00 3.0158744751954671e+00 1.1839345355601663e+01 0 0 1
494 2 4.9220000000000006e+00 2.8417180249513332e+00 9.3047574858186941e+00 0 0 0
495 2 4.9220000000000006e+00 0.0000000000000000e+00 9.3047574858186941e+00 0 0 0
496 2 6.1524999999999999e+00 7.1042950623783407e-01 9.3047574858186941e+00 0 0 0
508 2 6.1524999999999999e+00 2.1312885187134989e+00 9.3047574858186941e+00 0 0 0
509 2 7.3829999999999991e+00 2.8417180249513345e+00 9.3047574858186941e+00 0 0 0
510 2 7.3829999999999991e+00 0.0000000000000000e+00 9.3047574858186941e+00 0 0 0
1102 1 1.0315922791679421e+01 1.1180538112977212e+00 1.2041281735500162e+01 0 0 -1
511 2 8.6134999999999984e+00 7.1042950623783407e-01 9.3047574858186941e+00 0 0 0
527 2 8.6134999999999984e+00 2.1312885187135002e+00 9.3047574858186941e+00 0 0 0
528 2 9.8440000000000012e+00 2.8417180249513332e+00 9.3047574858186941e+00 0 0 0
529 2 9.8440000000000012e+00 0.0000000000000000e+00 9.3047574858186941e+00 0 0 0
530 2 1.1074500000000002e+01 7.1042950623783330e-01 9.3047574858186941e+00 0 0 0
550 2 1.1074500000000002e+01 2.1312885187135002e+00 9.3047574858186941e+00 0 0 0
3519 1 1.1730985309119381e+01 3.6889028406176267e+00 1.2381852511910349e+01 0 0 0
1176 1 2.3478847358122454e+00 4.6855688136622273e+00 1.1987594896241973e+01 1 -1 0
480 2 0.0000000000000000e+00 4.2625770374269996e+00 9.3047574858186941e+00 0 0 0
481 2 1.2305000000000001e+00 4.9730065436648339e+00 9.3047574858186941e+00 0 0 0
489 2 1.2305000000000001e+00 6.3938655561404980e+00 9.3047574858186941e+00 0 0 0
491 2 2.4610000000000003e+00 4.2625770374269996e+00 9.3047574858186941e+00 0 0 0
492 2 3.6914999999999996e+00 4.9730065436648339e+00 9.3047574858186941e+00 0 0 0
504 2 3.6914999999999996e+00 6.3938655561404980e+00 9.3047574858186941e+00 0 0 0
479 2 0.0000000000000000e+00 7.1042950623783341e+00 9.3047574858186941e+00 0 0 0
490 2 2.4610000000000003e+00 7.1042950623783341e+00 9.3047574858186941e+00 0 0 0
3228 1 1.1155068537532570e+01 1.0822709419149135e+01 1.4827337131253065e+01 0 1 0
1013 1 4.7256517067627897e+00 5.9715983879237173e+00 1.1752853365490763e+01 1 1 -1
506 2 4.9220000000000006e+00 4.2625770374269978e+00 9.3047574858186941e+00 0 0 0
507 2 6.1524999999999999e+00 4.9730065436648339e+00 9.3047574858186941e+00 0 0 0
523 2 6.1524999999999999e+00 6.3938655561404980e+00 9.3047574858186941e+00 0 0 0
525 2 7.3829999999999991e+00 4.2625770374269996e+00 9.3047574858186941e+00 0 0 0
505 2 4.9220000000000006e+00 7.1042950623783341e+00 9.3047574858186941e+00 0 0 0
524 2 7.3830000000000009e+00 7.1042950623783341e+00 9.3047574858186941e+00 0 0 0
2088 1 8.2531021266192308e+00 6.4163227122441278e+00 1.2334031897135837e+01 0 -1 0
526 2 8.6135000000000002e+00 4.9730065436648339e+00 9.3047574858186941e+00 0 0 0
546 2 8.6135000000000002e+00 6.3938655561404980e+00 9.3047574858186941e+00 0 0 0
548 2 9.8440000000000012e+00 4.2625770374270004e+00 9.3047574858186941e+00 0 0 0
549 2 1.1074500000000002e+01 4.9730065436648339e+00 9.3047574858186941e+00 0 0 0
570 2 1.1074500000000002e+01 6.3938655561404980e+00 9.3047574858186941e+00 0 0 0
547 2 9.8440000000000012e+00 7.1042950623783341e+00 9.3047574858186941e+00 0 0 0
3442 1 1.1214661694682597e+01 5.0907415260919713e+00 1.4460468345995523e+01 1 0 -1
2258 1 3.1050150345395804e+00 8.5540227930481567e+00 1.6335507846185941e+01 0 1 0
487 2 0.0000000000000000e+00 8.5251540748539991e+00 9.3047574858186941e+00 0 0 0
488 2 1.2305000000000001e+00 9.2355835810918343e+00 9.3047574858186941e+00 0 0 0
502 2 2.4610000000000003e+00 8.5251540748539991e+00 9.3047574858186941e+00 0 0 0
503 2 3.6915000000000004e+00 9.2355835810918343e+00 9.3047574858186941e+00 0 0 0
486 2 0.0000000000000000e+00 1.1366872099805333e+01 9.3047574858186941e+00 0 0 0
500 2 1.2305000000000001e+00 1.0656442593567498e+01 9.3047574858186941e+00 0 0 0
501 2 2.4610000000000003e+00 1.1366872099805333e+01 9.3047574858186941e+00 0 0 0
519 2 3.6914999999999996e+00 1.0656442593567499e+01 9.3047574858186941e+00 0 0 0
3341 1 3.5959260512637918e+00 1.0416753938753617e+01 1.2317387305407003e+01 0 0 0
54 1 4.9326391635259931e-01 9.6946850510288929e+00 1.2503003986955209e+01 1 0 0
521 2 4.9220000000000006e+00 8.5251540748539991e+00 9.3047574858186941e+00 0 0 0
522 2 6.1524999999999999e+00 9.2355835810918343e+00 9.3047574858186941e+00 0 0 0
544 2 7.3830000000000009e+00 8.5251540748539991e+00 9.3047574858186941e+00 0 0 0
520 2 4.9220000000000006e+00 1.1366872099805333e+01 9.3047574858186941e+00 0 0 0
542 2 6.1524999999999999e+00 1.0656442593567499e+01 9.3047574858186941e+00 0 0 0
543 2 7.3829999999999991e+00 1.1366872099805333e+01 9.3047574858186941e+00 0 0 0
1165 1 5.9569055557893744e+00 8.3129808079188638e+00 1.2524168540378302e+01 0 2 -1
2175 1 1.0376387793941971e+01 1.0150391669067472e+01 1.1840179192495242e+01 0 0 0
545 2 8.6134999999999984e+00 9.2355835810918343e+00 9.3047574858186941e+00 0 0 0
568 2 9.8440000000000012e+00 8.5251540748539956e+00 9.3047574858186941e+00 0 0 0
569 2 1.1074500000000002e+01 9.2355835810918343e+00 9.3047574858186941e+00 0 0 0
566 2 8.6134999999999984e+00 1.0656442593567498e+01 9.3047574858186941e+00 0 0 0
567 2 9.8440000000000012e+00 1.1366872099805333e+01 9.3047574858186941e+00 0 0 0
590 2 1.1074500000000002e+01 1.0656442593567498e+01 9.3047574858186941e+00 0 0 0
591 2 1.2304999999999998e+01 1.1366872099805333e+01 9.3047574858186941e+00 0 0 0
3306 1 7.7684452192313467e+00 1.1135155420455311e+01 1.2930731497620192e+01 1 1 0
4405 1 7.7246686177424218e-01 2.9503162937771870e+00 1.4499863068659034e+01 0 0 0
4275 1 1.0660973796761260e+01 7.6470417246102693e+00 1.2285664629540223e+01 1 1 0
3566 1 5.8587674138867909e+00 3.3698045684449389e+00 1.4587796663209124e+01 1 1 0
2068 1 7.2385513652621265e+00 9.6177687124012612e-01 1.5475226329286746e+01 0 1 0
1966 1 9.8916404353000011e+00 7.8565676855242961e-01 1.4714192945305367e+01 -1 0 0
1971 1 7.6913424959015819e-01 6.2097986065896018e+00 1.4891155454100719e+01 0 1 0
1178 1 3.6164258926838810e+00 6.0684896604023546e+00 1.4593906945116832e+01 0 0 0
2280 1 8.1112797883949685e+00 3.5363824309258369e+00 1.1899874698313424e+01 1 0 -1
3532 1 8.3774568097391633e+00 4.6967971805899573e+00 1.4827552108650163e+01 0 1 1
902 1 1.0353475856679371e+01 3.1518014246561590e+00 1.6904277974852118e+01 0 1 0
3135 1 1.0274703624083692e+01 8.3546388236793803e+00 1.5226453824684102e+01 0 1 0
2307 1 4.3001098893065217e+00 4.1234639021374020e-01 1.2565578315553404e+01 0 0 0
78 1 1.9393655672215151e+00 1.0511736591689807e+01 1.4731392064157349e+01 0 0 0
2361 1 5.9187923574506032e+00 8.3493984741115277e+00 1.5276626710511600e+01 0 0 0
3182 1 8.0251168543021745e+00 7.0014201238528253e+00 1.6220908681131661e+01 0 0 0
3349 1 6.7392446299887219e+00 1.0849517641813424e+01 1.5593719924551044e+01 0 0 0
1028 1 3.1576868704073373e+00 3.9189122398260241e+00 1.5985217387140763e+01 0 0 0
1190 1 7.4170299496540588e+00 3.3939334300099683e-01 1.2487959841662754e+01 0 0 0
1162 1 3.0685102691954227e+00 9.7140393329460617e-01 1.6963854118212545e+01 1 1 0
2023 1 5.6581228171320241e-01 1.0670449605899812e+01 2.1701405665562646e+01 0 0 0
2179 1 8.0503474795818235e+00 2.0491172615297395e+00 1.8135736687883359e+01 1 2 -1
1989 1 3.3788036759567071e+00 2.8114657960401757e+00 2.0670819818878329e+01 1 2 0
1147 1 9.1116268106366363e+00 1.4295267427516396e+00 2.0664992962859877e+01 0 0 -1
3266 1 5.8207465282473003e-01 2.8187491525232709e+00 2.1236907268385913e+01 0 0 0
2177 1 9.8683549116652554e+00 1.1236324727122035e+01 2.4594042663544485e+01 0 0 0
142 1 5.3877250513156740e+00 3.0785861948805433e+00 1.7980686502966293e+01 1 1 0
848 1 8.3242463057000293e-01 3.9223152346737171e+00 2.3849268571410470e+01 1 0 -1
134 1 8.4244896221044954e+00 6.5428166711616838e+00 1.9030771600236100e+01 0 0 0
3295 1 1.0618929132694687e+01 5.0682990606985250e+00 1.8495636699869927e+01 0 0 0
4436 1 9.1892439922038971e-01 1.1165817094234860e+01 1.8898723080159755e+01 1 1 0
2138 1 2.5140517858646385e+00 8.7263510562481628e+00 2.1138139835503480e+01 1 1 0
2152 1 1.4336381748897575e+00 8.4238952098221258e+00 1.8656376938326346e+01 0 0 0
1273 1 4.5213289230936846e+00 1.0763077775309293e+01 2.1016217948489370e+01 1 1 0
55 1 7.2164604164223300e+00 1.0668441806726264e+01 1.9511185427115961e+01 0 0 0
1998 1 8.8470064029183373e+00 1.1440863481810439e+01 1.7398967940816767e+01 -1 1 0
144 1 1.0698757929445167e+01 9.9846427910366362e+00 1.9137183007378127e+01 0 1 0
2174 1 7.1567420804605577e+00 8.2186513667809695e+00 2.3936296187103274e+01 0 0 0
2397 1 1.8632579802949203e+00 8.5627441318637700e+00 2.4205757070324772e+01 1 -1 0
900 1 1.1898312888065929e+01 7.5407052495687390e+00 2.2658492344820296e+01 1 0 0
965 1 7.0122658377738079e+00 1.1912644223582214e+00 2.2717714684224525e+01 0 0 0
988 1 5.0430587240499118e+00 3.0733594469583592e+00 2.2930588024399405e+01 0 0 0
973 1 1.0617698941641233e+01 3.5496524930387148e+00 2.1060411898323821e+01 1 1 0
2229 1 1.0578075825048061e+00 1.1364063623137628e+01 2.4362131176714470e+01 0 1 0
3314 1 3.2411541757145836e+00 5.5467334388540417e+00 2.0164408758814929e+01 1 -1 0
101 1 1.3039085844164353e+00 6.0437654000494145e+00 2.2300606831943853e+01 0 1 0
3250 1 6.1498196843727539e+00 5.1420435964835782e+00 1.9788814456546163e+01 0 1 0
4425 1 6.4560249733527506e+00 5.5125573446848160e+00 2.2517550108684098e+01 2 2 0
855 1 8.4814821148958348e+00 9.7307016264436896e+00 2.1598252121428423e+01 1 1 -1
4302 1 9.3236278400196664e+00 7.0822487331485435e+00 2.1756112583229026e+01 0 1 0
3545 1 9.3184194868455315e+00 4.4767577909634682e+00 2.3322523298085464e+01 0 0 0
1133 1 5.0708980424755365e+00 1.1283691272140004e+01 2.3915256266305327e+01 0 0 0
1307 1 1.4708223287272715e+00 5.2798074626993214e+00 1.7796904601258220e+01 0 0 0
2274 1 1.1233101023693022e+01 1.0587278874503360e+01 2.2192545287534195e+01 1 1 0
4465 1 1.1428999436114125e+01 7.7404645428818899e+00 1.7656369008827404e+01 1 1 0
3131 1 4.1815776738435257e+00 2.9799793643499517e-01 1.9310795931566794e+01 0 0 0
3365 1 1.1932515288897365e+01 5.1782083654064701e+00 2.4671325372123327e+01 0 2 0
4340 1 8.0564513933331892e+00 5.3519063923422712e+00 3.2120272004630912e+01 0 0 0
916 1 4.9132266944693646e+00 4.3886280610596886e+00 2.5572162443081083e+01 0 0 0
4443 1 3.1431431158537957e+00 2.3880762131242350e+00 2.9189415063949006e+01 1 1 0
4433 1 1.4641155729586328e-01 9.3526484352845412e+00 3.2278390157997379e+01 1 -1 -1
889 1 4.3096480007742617e+00 1.9087042733436566e+00 2.6567347022228098e+01 1 0 0
1053 1 9.1722012282800982e+00 2.6478252551963539e+00 2.8757900654106251e+01 0 1 0
3372 1 4.4407423897965366e+00 8.8651486523526906e+00 2.5326386570688193e+01 1 0 0
2330 1 4.1222642949512531e+00 6.5817210726524804e+00 2.7400903195714001e+01 1 0 0
3447 1 3.0630147999568553e+00 7.3189030374641639e+00 3.2007998950414951e+01 0 -1 0
2171 1 7.4218275217913847e+00 3.8813101342828178e+00 2.6818995653561046e+01 0 1 0
976 1 4.4717534660734248e+00 1.0168344627793219e+01 2.7896741808765107e+01 0 0 0
1021 1 8.9277754903966109e+00 8.9058475339452929e+00 2.5833546889343928e+01 1 0 0
2183 1 8.1236145447790395e+00 1.0481638035403957e+01 2.7877387810756105e+01 0 1 -1
1218 1 8.3384758303237501e+00 2.7057235679859479e+00 3.1388296638226244e+01 0 0 0
2058 1 2.6441802004245984e-01 6.5212606201807466e+00 3.2299283734537084e+01 1 0 0
883 1 7.8396138156182060e-01 8.6334778894076436e+00 2.7124151437136987e+01 0 0 0
1257 1 5.9783222505436955e+00 1.2240506122872416e+01 2.6842827222139292e+01 0 0 0
922 1 5.7110450886785031e+00 3.2093592702313827e+00 2.9561587977608475e+01 1 0 0
4442 1 5.7453329283038794e+00 1.6375193928915961e+00 3.2024971599667090e+01 1 0 0
4410 1 3.0380108548537104e+00 1.5414537384988245e+00 3.1811113059645493e+01 1 0 -1
3557 1 1.9557010652869864e+00 1.4995226604200844e+00 2.4937131973261636e+01 0 1 0
2420 1 1.0724119403072072e+01 1.8632651514449314e+00 3.2626378073489676e+01 -1 0 0
2098 1 1.3058426349946997e+00 4.4037244360743149e+00 2.9725401414298716e+01 0 0 0
4470 1 9.8832959507218088e-01 4.0039892678660873e+00 3.2372147611229323e+01 0 0 0
944 1 2.2721650769490402e+00 7.2202799386032446e+00 2.9109860880322536e+01 0 0 0
2289 1 8.5191126811967646e+00 9.5015351959494492e+00 3.0576342719430649e+01 1 -1 -1
3479 1 4.9792927873277257e+00 5.2987153672950384e+00 3.2001392779830624e+01 0 0 -1
4253 1 6.2413868038224596e+00 6.1610111629260631e+00 2.9133111531563451e+01 1 1 -1
4295 1 8.4550429865451733e+00 6.4538216805691562e+00 2.7361303475909097e+01 0 1 -1
1036 1 1.1220929649094904e+01 3.1209641744853128e-01 2.7890739295589675e+01 1 1 -1
891 1 9.3439824808647955e+00 6.6897575768657651e+00 3.0310221164198261e+01 0 1 0
3504 1 1.2133045705310167e+01 5.7994930866031700e+00 3.2103168225645661e+01 1 0 0
4488 1 1.0543102545028948e+01 8.4082279780990845e+00 3.2363310268028371e+01 0 0 0
3215 1 1.7766679416158744e+00 1.1128629377918852e+01 2.8637493020575846e+01 0 0 0
2339 1 1.8688634617894115e+00 1.0936318001440888e+01 3.1392289710516877e+01 0 1 0
2331 1 4.1063545456321116e+00 9.6489087745765776e+00 3.2315684656269482e+01 1 -1 0
1299 1 5.7876872137269553e+00 8.9638805571796851e+00 3.0063028156401586e+01 0 1 0
1050 1 6.9522311801079484e+00 1.1993109173274606e+01 3.1923340722244255e+01 1 1 -1
39 1 1.1126362383689280e+01 4.8612808301210322e+00 2.7290990845058005e+01 -1 0 0
4446 1 1.1846223702998151e+01 8.3943657119697690e+00 2.5393801102858525e+01 0 0 0
3172 1 1.1901776660975383e+01 1.0844409340985706e+01 3.2259361918337738e+01 1 -1 0
4474 1 1.2112068006572219e+01 6.4941126785609358e+00 2.9394789254616995e+01 1 1 0
4273 1 9.9762612560958459e+00 1.2189576907176832e+01 3.0918651683402786e+01 1 0 -1
3177 1 8.5262125668382236e+00 2.1744166984476347e+00 2.4933443935507739e+01 0 0 -1
38 1 1.0929847256577149e+01 1.1198282012953611e+00 2.5062686712547496e+01 0 0 0
188 2 0.0000000000000000e+00 1.2787731112280996e+01 3.3154218090425909e+00 0 0 0
190 2 1.2305000000000001e+00 1.3498160618518829e+01 3.3154218090425909e+00 0 0 0
225 2 2.4610000000000003e+00 1.2787731112280996e+01 3.3154218090425909e+00 0 0 0
227 2 3.6915000000000004e+00 1.3498160618518829e+01 3.3154218090425909e+00 0 0 0
186 2 0.0000000000000000e+00 1.5629449137232333e+01 3.3154218090425909e+00 0 0 0
221 2 1.2305000000000001e+00 1.4919019630994494e+01 3.3154218090425909e+00 0 0 0
223 2 2.4610000000000003e+00 1.5629449137232328e+01 3.3154218090425909e+00 0 0 0
266 2 3.6915000000000004e+00 1.4919019630994494e+01 3.3154218090425909e+00 0 0 0
270 2 4.9220000000000006e+00 1.2787731112280996e+01 3.3154218090425909e+00 0 0 0
272 2 6.1524999999999990e+00 1.3498160618518829e+01 3.3154218090425909e+00 0 0 0
317 2 7.3829999999999991e+00 1.2787731112280996e+01 3.3154218090425909e+00 0 0 0
268 2 4.9220000000000006e+00 1.5629449137232333e+01 3.3154218090425909e+00 0 0 0
313 2 6.1524999999999990e+00 1.4919019630994494e+01 3.3154218090425909e+00 0 0 0
315 2 7.3829999999999991e+00 1.5629449137232333e+01 3.3154218090425909e+00 0 0 0
319 2 8.6135000000000002e+00 1.3498160618518835e+01 3.3154218090425909e+00 0 0 0
364 2 9.8440000000000012e+00 1.2787731112280996e+01 3.3154218090425909e+00 0 0 0
366 2 1.1074500000000002e+01 1.3498160618518829e+01 3.3154218090425909e+00 0 0 0
360 2 8.6135000000000002e+00 1.4919019630994494e+01 3.3154218090425909e+00 0 0 0
362 2 9.8440000000000012e+00 1.5629449137232328e+01 3.3154218090425909e+00 0 0 0
402 2 1.1074500000000002e+01 1.4919019630994494e+01 3.3154218090425909e+00 0 0 0
217 2 0.0000000000000000e+00 1.7050308149707998e+01 3.3154218090425909e+00 0 0 0
262 2 2.4610000000000003e+00 1.7050308149707998e+01 3.3154218090425909e+00 0 0 0
215 2 0.0000000000000000e+00 1.9892026174659328e+01 3.3154218090425909e+00 0 0 0
219 2 1.2305000000000001e+00 1.7760737655945832e+01 3.3154218090425909e+00 0 0 0
258 2 1.2305000000000001e+00 1.9181596668421495e+01 3.3154218090425909e+00 0 0 0
260 2 2.4610000000000003e+00 1.9892026174659328e+01 3.3154218090425909e+00 0 0 0
264 2 3.6914999999999996e+00 1.7760737655945832e+01 3.3154218090425909e+00 0 0 0
305 2 3.6914999999999996e+00 1.9181596668421495e+01 3.3154218090425909e+00 0 0 0
309 2 4.9220000000000006e+00 1.7050308149707998e+01 3.3154218090425909e+00 0 0 0
356 2 7.3830000000000009e+00 1.7050308149707998e+01 3.3154218090425909e+00 0 0 0
307 2 4.9220000000000006e+00 1.9892026174659328e+01 3.3154218090425909e+00 0 0 0
311 2 6.1524999999999999e+00 1.7760737655945832e+01 3.3154218090425909e+00 0 0 0
352 2 6.1524999999999999e+00 1.9181596668421495e+01 3.3154218090425909e+00 0 0 0
354 2 7.3829999999999991e+00 1.9892026174659328e+01 3.3154218090425909e+00 0 0 0
398 2 9.8440000000000012e+00 1.7050308149707998e+01 3.3154218090425909e+00 0 0 0
432 2 1.2304999999999998e+01 1.7050308149707998e+01 3.3154218090425909e+00 0 0 0
358 2 8.6134999999999984e+00 1.7760737655945832e+01 3.3154218090425909e+00 0 0 0
394 2 8.6135000000000002e+00 1.9181596668421495e+01 3.3154218090425909e+00 0 0 0
396 2 9.8440000000000012e+00 1.9892026174659335e+01 3.3154218090425909e+00 0 0 0
400 2 1.1074500000000002e+01 1.7760737655945835e+01 3.3154218090425909e+00 0 0 0
428 2 1.1074500000000002e+01 1.9181596668421495e+01 3.3154218090425909e+00 0 0 0
252 2 0.0000000000000000e+00 2.4154603212086325e+01 3.3154218090425909e+00 0 0 0
254 2 0.0000000000000000e+00 2.1312885187134999e+01 3.3154218090425909e+00 0 0 0
256 2 1.2304999999999993e+00 2.2023314693372832e+01 3.3154218090425909e+00 0 0 0
297 2 1.2304999999999993e+00 2.3444173705848499e+01 3.3154218090425909e+00 0 0 0
299 2 2.4610000000000003e+00 2.4154603212086325e+01 3.3154218090425909e+00 0 0 0
301 2 2.4610000000000003e+00 2.1312885187134995e+01 3.3154218090425909e+00 0 0 0
303 2 3.6914999999999996e+00 2.2023314693372832e+01 3.3154218090425909e+00 0 0 0
344 2 3.6915000000000004e+00 2.3444173705848499e+01 3.3154218090425909e+00 0 0 0
346 2 4.9220000000000006e+00 2.4154603212086325e+01 3.3154218090425909e+00 0 0 0
348 2 4.9220000000000006e+00 2.1312885187134995e+01 3.3154218090425909e+00 0 0 0
350 2 6.1524999999999990e+00 2.2023314693372832e+01 3.3154218090425909e+00 0 0 0
386 2 6.1524999999999999e+00 2.3444173705848499e+01 3.3154218090425909e+00 0 0 0
388 2 7.3830000000000009e+00 2.4154603212086336e+01 3.3154218090425909e+00 0 0 0
390 2 7.3829999999999991e+00 2.1312885187134999e+01 3.3154218090425909e+00 0 0 0
392 2 8.6135000000000002e+00 2.2023314693372832e+01 3.3154218090425909e+00 0 0 0
420 2 8.6134999999999984e+00 2.3444173705848499e+01 3.3154218090425909e+00 0 0 0
422 2 9.8440000000000012e+00 2.4154603212086336e+01 3.3154218090425909e+00 0 0 0
424 2 9.8440000000000012e+00 2.1312885187134999e+01 3.3154218090425909e+00 0 0 0
426 2 1.1074500000000002e+01 2.2023314693372832e+01 3.3154218090425909e+00 0 0 0
446 2 1.1074500000000002e+01 2.3444173705848499e+01 3.3154218090425909e+00 0 0 0
189 2 0.0000000000000000e+00 1.2787731112280996e+01 6.3100896474307904e+00 0 0 0
226 2 2.4610000000000003e+00 1.2787731112280996e+01 6.3100896474307904e+00 0 0 0
187 2 0.0000000000000000e+00 1.4208590124756663e+01 6.3100896474307904e+00 0 0 0
222 2 1.2305000000000001e+00 1.4919019630994494e+01 6.3100896474307904e+00 0 0 0
224 2 2.4610000000000003e+00 1.4208590124756663e+01 6.3100896474307904e+00 0 0 0
267 2 3.6915000000000004e+00 1.4919019630994494e+01 6.3100896474307904e+00 0 0 0