LAMMPS data file via write_data, version 16 Mar 2018, timestep = 100000

6589 atoms
2 atom types

0.0000000000000000e+00 4.9219999999999999e+01 xlo xhi
0.0000000000000000e+00 4.9019635930410494e+01 ylo yhi
1.5239921804658465e+00 5.8538007819535153e+01 zlo zhi

Masses

1 18.015
2 12.01

Atoms # atomic

5347 1 2.5376989068964892e+00 3.3457103943608488e+00 5.9739219814681332e+00 0 0 0
6473 1 2.8362102949795398e+00 1.3164889286580914e+00 3.8398630205903324e+00 -1 0 0
2076 1 1.0187925888632734e+00 4.2590142611761950e+00 3.7509040956724453e+00 1 1 0
5370 1 5.3673155144025164e-01 2.1908166389977533e+00 7.5526561344094620e+00 3 -1 0
1916 1 5.3693483917355209e+00 2.5121994756585058e+00 5.8156809807487519e+00 1 1 0
3572 1 1.0970446133006904e+01 1.6008678449357312e+01 7.1002122813298740e+00 0 1 0
1909 1 1.1620334307618291e+01 5.7251619036806396e+00 1.0103576831461593e+01 1 0 0
5492 1 7.1452977178846897e+00 8.2118803640373150e-01 2.2065512724281526e+00 1 -1 1
1682 1 9.3417556725594544e+00 1.5648785654403939e+01 1.0194193260862574e+01 1 0 0
5274 1 1.6493732085279911e+00 6.9022990234402268e+00 3.8681100239255328e+00 1 2 0
334 1 3.8687431663516860e+00 6.7742915602012639e+00 4.9578589267552289e+00 1 0 0
5216 1 7.5154368907406006e+00 4.3506315805361382e+00 5.3696858623537338e+00 0 0 0
1629 1 5.7111900485262517e+00 5.5139185077931501e+00 3.6856888189525190e+00 0 -1 1
4775 1 7.5731607806741605e+00 6.8582361994220085e+00 1.9279992793090523e+00 1 0 1
84 1 1.1804504357549956e+01 3.8619645155711266e+00 2.5772601494767526e+00 0 0 1
317 1 9.8477229439633263e+00 2.7710303399041010e+00 5.8715753257037546e+00 0 1 0
1464 1 7.8159102497986399e-01 1.1472137823867678e+01 5.7254102004726404e+00 0 -1 1
2113 1 1.1458500626305826e+01 6.5784389327508457e+00 2.0486254342314596e+00 1 1 0
4689 1 4.1238387884679115e+00 1.0803099572274251e+01 2.6462723120653573e+00 0 1 0
4728 1 3.3802443925816199e+00 1.2435227841416506e+01 4.5690320827654736e+00 0 1 1
3013 1 4.3758434584511772e+00 9.3277089966872460e+00 5.6671592085209612e+00 0 1 1
2926 1 8.1353706975985425e+00 1.1189558565114369e+01 2.8583802673191916e+00 0 1 1
3600 1 8.5673773531762265e+00 8.4849351902129868e+00 4.0501576727300312e+00 0 -1 0
218 1 6.9145703956372602e+00 9.1678848928183463e+00 6.4856061009869173e+00 1 0 0
6393 1 7.9956316082076462e-01 1.5603130962349313e+01 9.3139269512339808e+00 1 0 0
1871 1 1.0877494546021328e+01 1.1456873880180403e+01 2.5552686646490077e+00 1 0 0
343 1 6.6941187169461296e+00 1.0926594341794031e+00 1.2257395099171555e+01 0 0 0
2937 1 1.6254282407052331e-02 1.2156985666193691e+01 2.9756755832294965e+00 2 1 1
6331 1 4.0144176535072557e-01 6.9913647309719638e+00 9.8849296353789757e+00 0 0 1
1326 1 1.3150265683418474e+00 1.5942906105999388e+01 5.2819408802409118e+00 1 0 1
4921 1 2.7374682701777640e+00 1.4816917604626566e+01 2.9558005436327859e+00 -1 1 1
1919 1 8.7770373962550892e+00 1.4758936381604371e+01 5.6845712554081382e+00 1 0 0
124 1 1.1558271448732373e+00 1.1040983827018369e+01 9.1677394050588656e+00 0 1 0
5401 1 7.9721936714337156e+00 1.1860564097375448e+01 5.5490007359930864e+00 0 2 0
3151 1 1.1693141590247912e+01 1.4210184573029254e+01 2.5394173174364054e+00 2 -2 1
26 1 7.0331396619312714e-01 2.9984360821864029e+00 1.0321645171718341e+01 0 0 1
4570 1 3.5020373108038778e+00 3.0276013457922968e+00 1.1035122750203906e+01 1 2 1
1585 1 6.9493160415054511e+00 3.9843916773527028e+00 8.7696464406248822e+00 -1 -1 1
5194 1 4.0839792337881793e+00 2.2314962379845424e-01 1.1292717918063691e+01 1 1 0
2131 1 9.0275700288328125e+00 3.3588732925009519e+00 1.0695023777239145e+01 1 0 1
201 1 1.0952960220877728e+01 1.3872145222595503e+01 8.7784367822803304e+00 0 0 0
3268 1 6.3473829722096511e+00 4.6663449007862062e-01 7.2076343677130064e+00 0 1 1
5307 1 9.9927020207001718e+00 1.4143508300427838e+00 2.6562505154889093e+00 1 1 0
1835 1 5.2263845774423698e+00 2.9325968809893608e+00 2.8999637712387747e+00 1 1 0
1987 1 8.6689572374101331e+00 1.5423439120052782e+00 8.1905043038431593e+00 1 0 0
3531 1 3.0502527751288468e+00 7.1854871341698567e+00 9.3709215704586768e+00 0 0 0
2946 1 4.1549484124347700e+00 5.4936649123476489e+00 7.3617407885090733e+00 2 0 1
183 1 5.3143046637371603e+00 5.1585925745508350e+00 1.0478805621286405e+01 2 1 0
4569 1 7.3038165533367057e+00 6.5179631018735451e+00 6.9823039384509489e+00 1 -1 1
68 1 8.7679358887552059e+00 6.3228915996306956e+00 9.6548892863110982e+00 0 0 0
3775 1 6.2801095425922675e+00 1.5720919452760890e+01 6.4254038817355310e+00 2 2 0
3383 1 7.3697139254176589e+00 8.1873429271781308e+00 1.0857660735649169e+01 0 0 0
270 1 1.1480549454798586e+01 3.6347131997749447e+00 8.1250980845182657e+00 1 1 0
39 1 3.3302397595069211e+00 8.3574705837451582e+00 1.1711656496419531e+01 1 0 0
232 1 2.4516906036518904e-01 8.6393897301555835e+00 5.7442771870469524e+00 -1 -1 0
6483 1 3.3661278053398029e+00 9.6627716855027490e+00 8.2757535470937142e+00 1 1 1
1355 1 7.4518140416455267e+00 1.0266719069194833e+01 8.9035624198442740e+00 0 0 1
1381 1 5.4182093076770608e+00 1.1808365677258367e+01 8.9589044104224733e+00 3 0 1
392 1 9.7404893297301225e+00 1.1476569437577130e+01 7.8351356738474305e+00 0 0 0
3157 1 4.3159086295698614e+00 1.0791303595338590e+01 1.1507909406531464e+01 1 0 1
3376 1 8.6321213140763831e-01 8.9309117355262817e+00 1.2737080164425226e+01 1 -1 0
1454 1 1.1667716300406067e+01 9.5516864807143715e+00 7.0721198484680716e+00 0 0 1
2235 1 2.2706460909821358e+00 1.2500068927626572e+01 1.1150158619336045e+01 1 1 1
6552 1 3.1628674131240562e+00 1.5186846452460669e+01 1.0722854417927199e+01 1 -1 1
5071 1 7.1381238619858181e+00 1.3873865099362289e+01 1.2414504564376809e+01 1 0 0
325 1 5.4070023117887471e+00 1.2651417130282837e+01 6.3433827149171780e+00 0 1 0
5447 1 5.8320051943927007e+00 1.4361727338607942e+01 1.0069301302488618e+01 -1 0 0
4917 1 9.2780640385686812e+00 1.5556809249728179e+01 3.1205513949185657e+00 2 0 1
318 1 1.1003119331743022e+01 1.4316460785547547e+00 1.1342360871012790e+01 0 0 0
5172 1 6.8138460894280763e+00 1.5666612249655723e+01 1.8911652674675459e+00 2 0 0
2075 1 1.1044264500659899e+01 7.9895586162565682e+00 4.9608508501264748e+00 0 0 0
3654 1 1.1535039434969836e+01 4.9916041830146050e+00 5.4064919049657290e+00 0 0 0
5050 1 9.7156744927071461e+00 1.4116850042486316e+01 1.2630581963136049e+01 0 0 1
6239 1 8.2699376444921313e-03 9.0782672758889404e-01 1.1728251152991014e+01 1 1 1
1709 1 5.9072417260637673e+00 6.4133768558284849e+00 1.2894444864189762e+01 1 1 1
5283 1 2.8950141727194905e+00 7.9481814535012223e+00 1.5790149796823556e+00 1 1 0
3507 1 3.2861067655470833e+00 2.1900201948420932e+00 1.5153078740230908e+01 0 -1 0
1500 1 4.3218230621777598e-01 6.5024211222097659e+00 2.3628252715484162e+01 0 2 1
1565 1 2.4731306515446545e+00 4.0332430992347552e+00 1.3411669107332713e+01 2 1 1
1803 1 5.6593964590382253e+00 1.5032541530337292e+01 2.1110877992492469e+01 -1 1 1
2915 1 3.2786168501715713e+00 1.3850388073764114e+01 2.0493200020227761e+01 1 0 1
3584 1 6.1773843252790899e+00 2.5648649361305069e+00 1.5102601468724600e+01 1 1 0
3235 1 1.0171591970415990e+00 5.8843056200388322e-01 2.0208613661881007e+01 -1 -1 1
385 1 8.6344029615029516e+00 9.5077156333010859e-01 1.7950434246516039e+01 0 0 0
6394 1 2.3380979644827371e+00 1.5905648238084312e+01 1.3335564860811504e+01 1 -2 1
349 1 1.0514057515771185e+01 1.5724051354382020e+00 1.5802324595735072e+01 -1 0 0
41 1 3.9010100529522513e+00 7.7176625053239798e+00 1.6186766874198536e+01 1 0 1
20 1 3.5310042456946018e+00 6.5932096467165602e+00 1.3888166165320806e+01 0 0 0
9 1 9.6187590623169363e+00 7.5725150144204836e+00 1.4725097847282060e+01 1 0 0
432 1 6.7534572740038676e+00 6.8215492380244633e+00 1.5674234153427761e+01 1 1 0
330 1 3.7690111391588217e+00 5.7805937807252930e+00 1.8151336990405117e+01 -1 1 0
3332 1 9.6067422749499833e+00 3.9933176531753154e+00 1.7080008418381368e+01 1 0 0
3004 1 1.0881259504157962e+01 6.0975970381568327e+00 1.8295338140442770e+01 0 0 1
3593 1 9.6740251353746771e+00 4.9554802590268467e+00 1.4517776029421741e+01 -1 1 0
3011 1 1.2570247147909392e+00 8.2174028996797741e+00 1.6820761862538887e+01 0 0 1
1686 1 2.5362523156776007e+00 1.1553785026785578e+01 1.5233990077462673e+01 0 1 0
3807 1 9.8399009687690564e-01 1.1601762627719717e+01 1.3183739084918631e+01 1 -1 1
50 1 1.7519655564073586e+00 1.1137639886596606e+01 1.7750262395729180e+01 1 0 1
6362 1 6.4786002450135580e+00 1.1218502503574069e+01 1.3424752261149282e+01 1 1 1
4712 1 4.8313445960739099e+00 1.0258449930294121e+01 1.5849240402129919e+01 1 1 1
3198 1 5.8937143891497605e+00 1.1193623988345799e+01 1.8271695897712387e+01 0 1 0
455 1 6.2609914458517668e+00 3.1468475786646390e+00 2.4024008987624477e+01 1 1 0
1427 1 1.1411955706489275e+01 1.2205876689000778e+01 1.6156752111154400e+01 0 0 1
5253 1 1.1398269009021528e+01 1.0617367644207981e+01 1.8789154717132050e+01 1 -1 0
5012 1 9.8600201123109343e+00 8.5233088851614269e+00 1.7369813770215700e+01 3 1 0
1604 1 1.0640968726601246e+01 1.1431590388886960e+01 1.3523198756355072e+01 1 0 0
1413 1 2.8207579469626816e+00 1.4335923214730911e+01 1.5514780446493695e+01 -1 0 1
1607 1 4.9441169727486689e-01 1.4725468162525347e+01 1.7283931410677315e+01 1 2 1
3316 1 3.1512424031843933e+00 5.8790940718613083e-01 2.3466543287808694e+01 2 0 0
4846 1 7.3622692856689316e+00 1.3611451376789065e+01 1.7592070406060550e+01 0 2 1
6549 1 9.8722404075988308e+00 2.2230207227738301e+00 2.3512975576799132e+01 0 0 0
4566 1 7.4180623087026136e+00 4.9486294098297323e-01 2.4114392405176478e+01 1 0 1
1419 1 9.6093199926717130e+00 1.4246966836343145e+01 1.6204384789598059e+01 1 0 1
6361 1 3.9939671325763273e+00 6.4877977394934332e+00 2.3708300719657103e+01 1 2 1
4802 1 1.4703864753231135e+00 1.5783862848224988e+01 1.9581292185709099e+01 2 -2 1
254 1 3.7014983838420701e+00 1.5495850464652903e+00 2.0835228973996255e+01 1 1 1
29 1 1.2122085763233772e+01 1.4760634068983954e+01 2.2692641516620981e+01 0 -1 1
2984 1 6.2040578336812591e-01 6.5832247726767443e+00 2.0956076784363287e+01 1 0 1
4663 1 4.9941011554315784e+00 3.9403693451067801e+00 2.1287551363900171e+01 -1 0 1
439 1 6.6483065845254092e+00 7.3791584722567833e+00 2.3774025960494296e+01 0 1 0
4906 1 1.1074603989881956e+01 1.6030179815004015e+01 1.7501952765293666e+01 1 0 1
2125 1 5.1439477933825355e+00 1.5270428648656715e+01 1.6789261820010054e+01 -1 1 0
6268 1 9.7903300996576856e+00 1.4083864325276922e+01 2.1297943769454825e+01 1 0 1
214 1 7.3365271981216313e+00 4.0480042640853720e+00 1.3023444547092247e+01 1 1 0
1305 1 9.5354696322762447e+00 3.8820335822574386e+00 2.1119618335979020e+01 1 2 1
2256 1 5.8373152452723343e+00 3.2074546462322645e-01 1.9738227643939258e+01 1 -1 1
3007 1 7.0853085560595632e+00 3.1155459706250221e+00 1.9482661360421730e+01 -1 1 1
3393 1 1.5558744885204088e+00 4.1767735271730748e+00 1.7268320315424283e+01 1 2 0
308 1 1.5893498294307762e+00 1.2150869097610606e+00 1.7202958474662228e+01 0 0 0
3684 1 3.5869304651477503e+00 1.1036382130127143e+01 2.3070305580655496e+01 2 0 0
1938 1 7.3221294660777305e+00 1.4679122113430214e+01 2.3407865392119874e+01 2 0 0
160 1 6.7786299726841293e+00 4.3234979068323947e+00 1.6989718327508449e+01 0 0 0
178 1 4.6304175317001901e+00 6.5889188267336554e+00 2.0929467119595692e+01 0 0 0
2973 1 8.7478627882378408e+00 9.6565290546609237e+00 1.3142452829036335e+01 1 1 1
3739 1 1.1586018675531447e+01 3.0333945723514324e+00 1.3433816261646321e+01 2 2 0
6206 1 1.0877634370578678e+01 1.4748480608416330e+00 1.9955260332896593e+01 -1 1 0
1890 1 1.0003354591433711e+01 6.6849016959110976e+00 2.1080231018691151e+01 1 1 0
2069 1 7.3742206959402798e+00 7.5866470588098309e+00 2.0852301450909067e+01 0 1 1
1378 1 6.3376563741474401e+00 1.2081345350643325e+01 2.3040283124393355e+01 0 -1 1
1996 1 2.7983941314217033e+00 8.8778759434578109e+00 2.0984768610150066e+01 0 1 0
6427 1 8.0832381968320774e+00 1.5329912052615290e+01 1.9541644132523427e+01 1 1 1
1310 1 2.1818773894863157e+00 1.3268418739751384e+01 2.2990728331265267e+01 1 0 1
3865 1 1.0458910759039874e+00 3.6883885880531917e+00 2.3033600525526470e+01 0 1 1
3221 1 7.2902410529436645e+00 1.0358614838882721e+01 2.1026417035320588e+01 0 0 1
2958 1 3.7051077271475745e+00 1.1276505281755886e+01 1.9818979945916894e+01 1 0 1
3244 1 7.2257561521495957e+00 8.6395944885180356e+00 1.7911239433463447e+01 0 0 0
6230 1 1.0316808128698375e+01 1.0536202205361787e+01 2.3517235047587054e+01 0 1 1
3716 1 9.8397205745618326e+00 1.1245577469431332e+01 2.0956599797354603e+01 0 0 0
3689 1 1.0093290727367087e+01 7.4339879228866499e+00 2.3718952403590706e+01 1 1 1
4830 1 8.5175222245842852e-01 3.5523558447611361e+00 2.0011767598303418e+01 0 -1 0
6490 1 5.9083272925331638e+00 1.5826569459155026e+01 1.4168831326927860e+01 1 1 0
2090 1 2.2292735330340996e+00 8.7113436308072885e+00 2.4305137705967425e+01 0 0 0
4999 1 5.8531174173184040e+00 6.0976456237497700e-02 1.6468176241448695e+01 1 1 0
5218 1 8.4339928147373566e+00 5.1236533537273283e+00 2.4244122457128583e+01 0 2 0
4675 1 3.7649734633533027e+00 1.5398007518098634e+01 2.4271008840813995e+01 0 0 0
2038 1 9.7947760584638139e+00 1.3299120718047991e+01 2.4099455428452860e+01 0 0 0
5333 1 1.2282058163732309e+01 7.4409923194489815e+00 1.4026706862913848e+01 1 1 0
594 2 0.0000000000000000e+00 2.8417180249513345e+00 2.6831260281615549e+01 0 0 0
596 2 0.0000000000000000e+00 0.0000000000000000e+00 2.6831260281615549e+01 0 0 0
598 2 1.2305000000000001e+00 7.1042950623783474e-01 2.6831260281615549e+01 0 0 0
605 2 1.2305000000000001e+00 2.1312885187134998e+00 2.6831260281615549e+01 0 0 0
607 2 2.4610000000000003e+00 2.8417180249513345e+00 2.6831260281615549e+01 0 0 0
609 2 2.4610000000000003e+00 0.0000000000000000e+00 2.6831260281615549e+01 0 0 0
611 2 3.6915000000000004e+00 7.1042950623783474e-01 2.6831260281615549e+01 0 0 0
626 2 3.6914999999999996e+00 2.1312885187134998e+00 2.6831260281615549e+01 0 0 0
628 2 4.9220000000000006e+00 2.8417180249513332e+00 2.6831260281615549e+01 0 0 0
630 2 4.9220000000000006e+00 0.0000000000000000e+00 2.6831260281615549e+01 0 0 0
632 2 6.1524999999999999e+00 7.1042950623783407e-01 2.6831260281615549e+01 0 0 0
655 2 6.1524999999999999e+00 2.1312885187134989e+00 2.6831260281615549e+01 0 0 0
657 2 7.3829999999999991e+00 2.8417180249513345e+00 2.6831260281615549e+01 0 0 0
659 2 7.3829999999999991e+00 0.0000000000000000e+00 2.6831260281615549e+01 0 0 0
661 2 8.6134999999999984e+00 7.1042950623783407e-01 2.6831260281615549e+01 0 0 0
692 2 8.6134999999999984e+00 2.1312885187135002e+00 2.6831260281615549e+01 0 0 0
694 2 9.8440000000000012e+00 2.8417180249513332e+00 2.6831260281615549e+01 0 0 0
696 2 9.8440000000000012e+00 0.0000000000000000e+00 2.6831260281615549e+01 0 0 0
698 2 1.1074500000000002e+01 7.1042950623783330e-01 2.6831260281615549e+01 0 0 0
737 2 1.1074500000000002e+01 2.1312885187135002e+00 2.6831260281615549e+01 0 0 0
599 2 0.0000000000000000e+00 7.1042950623783341e+00 2.6831260281615549e+01 0 0 0
601 2 0.0000000000000000e+00 4.2625770374269996e+00 2.6831260281615549e+01 0 0 0
603 2 1.2305000000000001e+00 4.9730065436648339e+00 2.6831260281615549e+01 0 0 0
618 2 1.2305000000000001e+00 6.3938655561404980e+00 2.6831260281615549e+01 0 0 0
620 2 2.4610000000000003e+00 7.1042950623783341e+00 2.6831260281615549e+01 0 0 0
622 2 2.4610000000000003e+00 4.2625770374269996e+00 2.6831260281615549e+01 0 0 0
624 2 3.6914999999999996e+00 4.9730065436648339e+00 2.6831260281615549e+01 0 0 0
647 2 3.6914999999999996e+00 6.3938655561404980e+00 2.6831260281615549e+01 0 0 0
649 2 4.9220000000000006e+00 7.1042950623783341e+00 2.6831260281615549e+01 0 0 0
651 2 4.9220000000000006e+00 4.2625770374269978e+00 2.6831260281615549e+01 0 0 0
653 2 6.1524999999999999e+00 4.9730065436648339e+00 2.6831260281615549e+01 0 0 0
684 2 6.1524999999999999e+00 6.3938655561404980e+00 2.6831260281615549e+01 0 0 0
686 2 7.3830000000000009e+00 7.1042950623783341e+00 2.6831260281615549e+01 0 0 0
688 2 7.3829999999999991e+00 4.2625770374269996e+00 2.6831260281615549e+01 0 0 0
690 2 8.6135000000000002e+00 4.9730065436648339e+00 2.6831260281615549e+01 0 0 0
729 2 8.6135000000000002e+00 6.3938655561404980e+00 2.6831260281615549e+01 0 0 0
731 2 9.8440000000000012e+00 7.1042950623783341e+00 2.6831260281615549e+01 0 0 0
733 2 9.8440000000000012e+00 4.2625770374270004e+00 2.6831260281615549e+01 0 0 0
735 2 1.1074500000000002e+01 4.9730065436648339e+00 2.6831260281615549e+01 0 0 0
776 2 1.1074500000000002e+01 6.3938655561404980e+00 2.6831260281615549e+01 0 0 0
612 2 0.0000000000000000e+00 1.1366872099805333e+01 2.6831260281615549e+01 0 0 0
614 2 0.0000000000000000e+00 8.5251540748539991e+00 2.6831260281615549e+01 0 0 0
616 2 1.2305000000000001e+00 9.2355835810918343e+00 2.6831260281615549e+01 0 0 0
639 2 1.2305000000000001e+00 1.0656442593567498e+01 2.6831260281615549e+01 0 0 0
641 2 2.4610000000000003e+00 1.1366872099805333e+01 2.6831260281615549e+01 0 0 0
643 2 2.4610000000000003e+00 8.5251540748539991e+00 2.6831260281615549e+01 0 0 0
645 2 3.6915000000000004e+00 9.2355835810918343e+00 2.6831260281615549e+01 0 0 0
676 2 3.6914999999999996e+00 1.0656442593567499e+01 2.6831260281615549e+01 0 0 0
1409 1 3.4315107832265892e+00 3.5128795342286940e+00 2.4565913730191646e+01 1 0 1
678 2 4.9220000000000006e+00 1.1366872099805333e+01 2.6831260281615549e+01 0 0 0
680 2 4.9220000000000006e+00 8.5251540748539991e+00 2.6831260281615549e+01 0 0 0
682 2 6.1524999999999999e+00 9.2355835810918343e+00 2.6831260281615549e+01 0 0 0
721 2 6.1524999999999999e+00 1.0656442593567499e+01 2.6831260281615549e+01 0 0 0
723 2 7.3829999999999991e+00 1.1366872099805333e+01 2.6831260281615549e+01 0 0 0
725 2 7.3830000000000009e+00 8.5251540748539991e+00 2.6831260281615549e+01 0 0 0
810 2 9.8440000000000012e+00 1.4208590124756663e+01 3.0031000000000518e+01 0 0 0
727 2 8.6134999999999984e+00 9.2355835810918343e+00 2.6831260281615549e+01 0 0 0
768 2 8.6134999999999984e+00 1.0656442593567498e+01 2.6831260281615549e+01 0 0 0
770 2 9.8440000000000012e+00 1.1366872099805333e+01 2.6831260281615549e+01 0 0 0
772 2 9.8440000000000012e+00 8.5251540748539956e+00 2.6831260281615549e+01 0 0 0
774 2 1.1074500000000002e+01 9.2355835810918343e+00 2.6831260281615549e+01 0 0 0
815 2 1.1074500000000002e+01 1.0656442593567498e+01 2.6831260281615549e+01 0 0 0
817 2 1.2304999999999998e+01 1.1366872099805333e+01 2.6831260281615549e+01 0 0 0
633 2 0.0000000000000000e+00 1.5629449137232333e+01 2.6831260281615549e+01 0 0 0
635 2 0.0000000000000000e+00 1.2787731112280996e+01 2.6831260281615549e+01 0 0 0
637 2 1.2305000000000001e+00 1.3498160618518829e+01 2.6831260281615549e+01 0 0 0
668 2 1.2305000000000001e+00 1.4919019630994494e+01 2.6831260281615549e+01 0 0 0
670 2 2.4610000000000003e+00 1.5629449137232328e+01 2.6831260281615549e+01 0 0 0
672 2 2.4610000000000003e+00 1.2787731112280996e+01 2.6831260281615549e+01 0 0 0
674 2 3.6915000000000004e+00 1.3498160618518829e+01 2.6831260281615549e+01 0 0 0
713 2 3.6915000000000004e+00 1.4919019630994494e+01 2.6831260281615549e+01 0 0 0
715 2 4.9220000000000006e+00 1.5629449137232333e+01 2.6831260281615549e+01 0 0 0
717 2 4.9220000000000006e+00 1.2787731112280996e+01 2.6831260281615549e+01 0 0 0
719 2 6.1524999999999990e+00 1.3498160618518829e+01 2.6831260281615549e+01 0 0 0
760 2 6.1524999999999990e+00 1.4919019630994494e+01 2.6831260281615549e+01 0 0 0
762 2 7.3829999999999991e+00 1.5629449137232333e+01 2.6831260281615549e+01 0 0 0
764 2 7.3829999999999991e+00 1.2787731112280996e+01 2.6831260281615549e+01 0 0 0
766 2 8.6135000000000002e+00 1.3498160618518835e+01 2.6831260281615549e+01 0 0 0
807 2 8.6135000000000002e+00 1.4919019630994494e+01 2.6831260281615549e+01 0 0 0
809 2 9.8440000000000012e+00 1.5629449137232328e+01 2.6831260281615549e+01 0 0 0
811 2 9.8440000000000012e+00 1.2787731112280996e+01 2.6831260281615549e+01 0 0 0
813 2 1.1074500000000002e+01 1.3498160618518829e+01 2.6831260281615549e+01 0 0 0
849 2 1.1074500000000002e+01 1.4919019630994494e+01 2.6831260281615549e+01 0 0 0
852 2 1.2304999999999998e+01 1.4208590124756658e+01 3.0031000000000518e+01 0 0 0
595 2 0.0000000000000000e+00 1.4208590124756650e+00 3.0031000000000518e+01 0 0 0
597 2 0.0000000000000000e+00 0.0000000000000000e+00 3.0031000000000518e+01 0 0 0
604 2 1.2305000000000001e+00 3.5521475311891644e+00 3.0031000000000518e+01 0 0 0
606 2 1.2305000000000001e+00 2.1312885187134998e+00 3.0031000000000518e+01 0 0 0
608 2 2.4610000000000003e+00 1.4208590124756650e+00 3.0031000000000518e+01 0 0 0
610 2 2.4610000000000003e+00 0.0000000000000000e+00 3.0031000000000518e+01 0 0 0
625 2 3.6914999999999996e+00 3.5521475311891644e+00 3.0031000000000518e+01 0 0 0
627 2 3.6914999999999996e+00 2.1312885187134998e+00 3.0031000000000518e+01 0 0 0
923 2 0.0000000000000000e+00 2.8417180249513345e+00 3.3230739718384939e+01 0 0 0
924 2 0.0000000000000000e+00 0.0000000000000000e+00 3.3230739718384939e+01 0 0 0
925 2 1.2305000000000001e+00 7.1042950623783474e-01 3.3230739718384939e+01 0 0 0
929 2 1.2305000000000001e+00 2.1312885187134998e+00 3.3230739718384939e+01 0 0 0
930 2 2.4610000000000003e+00 2.8417180249513345e+00 3.3230739718384939e+01 0 0 0
931 2 2.4610000000000003e+00 0.0000000000000000e+00 3.3230739718384939e+01 0 0 0
932 2 3.6915000000000004e+00 7.1042950623783474e-01 3.3230739718384939e+01 0 0 0
940 2 3.6914999999999996e+00 2.1312885187134998e+00 3.3230739718384939e+01 0 0 0
629 2 4.9220000000000006e+00 1.4208590124756650e+00 3.0031000000000518e+01 0 0 0
631 2 4.9220000000000006e+00 0.0000000000000000e+00 3.0031000000000518e+01 0 0 0
654 2 6.1524999999999999e+00 3.5521475311891644e+00 3.0031000000000518e+01 0 0 0
656 2 6.1524999999999999e+00 2.1312885187134989e+00 3.0031000000000518e+01 0 0 0
658 2 7.3829999999999991e+00 1.4208590124756659e+00 3.0031000000000518e+01 0 0 0
660 2 7.3829999999999991e+00 0.0000000000000000e+00 3.0031000000000518e+01 0 0 0
941 2 4.9220000000000006e+00 2.8417180249513332e+00 3.3230739718384939e+01 0 0 0
942 2 4.9220000000000006e+00 0.0000000000000000e+00 3.3230739718384939e+01 0 0 0
943 2 6.1524999999999999e+00 7.1042950623783407e-01 3.3230739718384939e+01 0 0 0
955 2 6.1524999999999999e+00 2.1312885187134989e+00 3.3230739718384939e+01 0 0 0
956 2 7.3829999999999991e+00 2.8417180249513345e+00 3.3230739718384939e+01 0 0 0
957 2 7.3829999999999991e+00 0.0000000000000000e+00 3.3230739718384939e+01 0 0 0
691 2 8.6134999999999984e+00 3.5521475311891657e+00 3.0031000000000518e+01 0 0 0
693 2 8.6134999999999984e+00 2.1312885187135002e+00 3.0031000000000518e+01 0 0 0
695 2 9.8440000000000012e+00 1.4208590124756659e+00 3.0031000000000518e+01 0 0 0
697 2 9.8440000000000012e+00 0.0000000000000000e+00 3.0031000000000518e+01 0 0 0
736 2 1.1074500000000002e+01 3.5521475311891644e+00 3.0031000000000518e+01 0 0 0
738 2 1.1074500000000002e+01 2.1312885187135002e+00 3.0031000000000518e+01 0 0 0
958 2 8.6134999999999984e+00 7.1042950623783407e-01 3.3230739718384939e+01 0 0 0
974 2 8.6134999999999984e+00 2.1312885187135002e+00 3.3230739718384939e+01 0 0 0
975 2 9.8440000000000012e+00 2.8417180249513332e+00 3.3230739718384939e+01 0 0 0
976 2 9.8440000000000012e+00 0.0000000000000000e+00 3.3230739718384939e+01 0 0 0
977 2 1.1074500000000002e+01 7.1042950623783330e-01 3.3230739718384939e+01 0 0 0
997 2 1.1074500000000002e+01 2.1312885187135002e+00 3.3230739718384939e+01 0 0 0
600 2 0.0000000000000000e+00 5.6834360499026637e+00 3.0031000000000518e+01 0 0 0
602 2 0.0000000000000000e+00 4.2625770374269996e+00 3.0031000000000518e+01 0 0 0
617 2 1.2305000000000001e+00 7.8147245686161639e+00 3.0031000000000518e+01 0 0 0
619 2 1.2305000000000001e+00 6.3938655561404980e+00 3.0031000000000518e+01 0 0 0
621 2 2.4610000000000003e+00 5.6834360499026637e+00 3.0031000000000518e+01 0 0 0
623 2 2.4610000000000003e+00 4.2625770374269996e+00 3.0031000000000518e+01 0 0 0
646 2 3.6914999999999996e+00 7.8147245686161639e+00 3.0031000000000518e+01 0 0 0
648 2 3.6914999999999996e+00 6.3938655561404980e+00 3.0031000000000518e+01 0 0 0
926 2 0.0000000000000000e+00 7.1042950623783341e+00 3.3230739718384939e+01 0 0 0
927 2 0.0000000000000000e+00 4.2625770374269996e+00 3.3230739718384939e+01 0 0 0
928 2 1.2305000000000001e+00 4.9730065436648339e+00 3.3230739718384939e+01 0 0 0
936 2 1.2305000000000001e+00 6.3938655561404980e+00 3.3230739718384939e+01 0 0 0
937 2 2.4610000000000003e+00 7.1042950623783341e+00 3.3230739718384939e+01 0 0 0
938 2 2.4610000000000003e+00 4.2625770374269996e+00 3.3230739718384939e+01 0 0 0
939 2 3.6914999999999996e+00 4.9730065436648339e+00 3.3230739718384939e+01 0 0 0
951 2 3.6914999999999996e+00 6.3938655561404980e+00 3.3230739718384939e+01 0 0 0
650 2 4.9220000000000006e+00 5.6834360499026637e+00 3.0031000000000518e+01 0 0 0
652 2 4.9220000000000006e+00 4.2625770374269978e+00 3.0031000000000518e+01 0 0 0
683 2 6.1524999999999999e+00 7.8147245686161639e+00 3.0031000000000518e+01 0 0 0
685 2 6.1524999999999999e+00 6.3938655561404980e+00 3.0031000000000518e+01 0 0 0
687 2 7.3829999999999991e+00 5.6834360499026637e+00 3.0031000000000518e+01 0 0 0
689 2 7.3829999999999991e+00 4.2625770374269996e+00 3.0031000000000518e+01 0 0 0
952 2 4.9220000000000006e+00 7.1042950623783341e+00 3.3230739718384939e+01 0 0 0
953 2 4.9220000000000006e+00 4.2625770374269978e+00 3.3230739718384939e+01 0 0 0
954 2 6.1524999999999999e+00 4.9730065436648339e+00 3.3230739718384939e+01 0 0 0
970 2 6.1524999999999999e+00 6.3938655561404980e+00 3.3230739718384939e+01 0 0 0
971 2 7.3830000000000009e+00 7.1042950623783341e+00 3.3230739718384939e+01 0 0 0
972 2 7.3829999999999991e+00 4.2625770374269996e+00 3.3230739718384939e+01 0 0 0
1033 2 8.6135000000000002e+00 1.4919019630994494e+01 3.3230739718384939e+01 0 0 0
728 2 8.6135000000000002e+00 7.8147245686161639e+00 3.0031000000000518e+01 0 0 0
730 2 8.6135000000000002e+00 6.3938655561404980e+00 3.0031000000000518e+01 0 0 0
732 2 9.8440000000000012e+00 5.6834360499026637e+00 3.0031000000000518e+01 0 0 0
734 2 9.8440000000000012e+00 4.2625770374270004e+00 3.0031000000000518e+01 0 0 0
775 2 1.1074500000000002e+01 7.8147245686161639e+00 3.0031000000000518e+01 0 0 0
777 2 1.1074500000000002e+01 6.3938655561404980e+00 3.0031000000000518e+01 0 0 0
973 2 8.6135000000000002e+00 4.9730065436648339e+00 3.3230739718384939e+01 0 0 0
993 2 8.6135000000000002e+00 6.3938655561404980e+00 3.3230739718384939e+01 0 0 0
994 2 9.8440000000000012e+00 7.1042950623783341e+00 3.3230739718384939e+01 0 0 0
995 2 9.8440000000000012e+00 4.2625770374270004e+00 3.3230739718384939e+01 0 0 0
996 2 1.1074500000000002e+01 4.9730065436648339e+00 3.3230739718384939e+01 0 0 0
1017 2 1.1074500000000002e+01 6.3938655561404980e+00 3.3230739718384939e+01 0 0 0
613 2 0.0000000000000000e+00 9.9460130873296642e+00 3.0031000000000518e+01 0 0 0
615 2 0.0000000000000000e+00 8.5251540748539991e+00 3.0031000000000518e+01 0 0 0
638 2 1.2305000000000001e+00 1.2077301606043163e+01 3.0031000000000518e+01 0 0 0
640 2 1.2305000000000001e+00 1.0656442593567498e+01 3.0031000000000518e+01 0 0 0
642 2 2.4610000000000003e+00 9.9460130873296642e+00 3.0031000000000518e+01 0 0 0
644 2 2.4610000000000003e+00 8.5251540748539991e+00 3.0031000000000518e+01 0 0 0
675 2 3.6914999999999996e+00 1.2077301606043163e+01 3.0031000000000518e+01 0 0 0
677 2 3.6914999999999996e+00 1.0656442593567499e+01 3.0031000000000518e+01 0 0 0
933 2 0.0000000000000000e+00 1.1366872099805333e+01 3.3230739718384939e+01 0 0 0
934 2 0.0000000000000000e+00 8.5251540748539991e+00 3.3230739718384939e+01 0 0 0
935 2 1.2305000000000001e+00 9.2355835810918343e+00 3.3230739718384939e+01 0 0 0
947 2 1.2305000000000001e+00 1.0656442593567498e+01 3.3230739718384939e+01 0 0 0
948 2 2.4610000000000003e+00 1.1366872099805333e+01 3.3230739718384939e+01 0 0 0
949 2 2.4610000000000003e+00 8.5251540748539991e+00 3.3230739718384939e+01 0 0 0
950 2 3.6915000000000004e+00 9.2355835810918343e+00 3.3230739718384939e+01 0 0 0
966 2 3.6914999999999996e+00 1.0656442593567499e+01 3.3230739718384939e+01 0 0 0
679 2 4.9220000000000006e+00 9.9460130873296642e+00 3.0031000000000518e+01 0 0 0
681 2 4.9220000000000006e+00 8.5251540748539991e+00 3.0031000000000518e+01 0 0 0
720 2 6.1524999999999999e+00 1.2077301606043163e+01 3.0031000000000518e+01 0 0 0
722 2 6.1524999999999999e+00 1.0656442593567499e+01 3.0031000000000518e+01 0 0 0
724 2 7.3830000000000009e+00 9.9460130873296642e+00 3.0031000000000518e+01 0 0 0
726 2 7.3830000000000009e+00 8.5251540748539991e+00 3.0031000000000518e+01 0 0 0
967 2 4.9220000000000006e+00 1.1366872099805333e+01 3.3230739718384939e+01 0 0 0
968 2 4.9220000000000006e+00 8.5251540748539991e+00 3.3230739718384939e+01 0 0 0
969 2 6.1524999999999999e+00 9.2355835810918343e+00 3.3230739718384939e+01 0 0 0
989 2 6.1524999999999999e+00 1.0656442593567499e+01 3.3230739718384939e+01 0 0 0
990 2 7.3829999999999991e+00 1.1366872099805333e+01 3.3230739718384939e+01 0 0 0
991 2 7.3830000000000009e+00 8.5251540748539991e+00 3.3230739718384939e+01 0 0 0
767 2 8.6135000000000002e+00 1.2077301606043163e+01 3.0031000000000518e+01 0 0 0
769 2 8.6134999999999984e+00 1.0656442593567498e+01 3.0031000000000518e+01 0 0 0
771 2 9.8440000000000012e+00 9.9460130873296642e+00 3.0031000000000518e+01 0 0 0
773 2 9.8440000000000012e+00 8.5251540748539956e+00 3.0031000000000518e+01 0 0 0
814 2 1.1074500000000002e+01 1.2077301606043163e+01 3.0031000000000518e+01 0 0 0
816 2 1.1074500000000002e+01 1.0656442593567498e+01 3.0031000000000518e+01 0 0 0
992 2 8.6134999999999984e+00 9.2355835810918343e+00 3.3230739718384939e+01 0 0 0
1013 2 8.6134999999999984e+00 1.0656442593567498e+01 3.3230739718384939e+01 0 0 0
1014 2 9.8440000000000012e+00 1.1366872099805333e+01 3.3230739718384939e+01 0 0 0
1015 2 9.8440000000000012e+00 8.5251540748539956e+00 3.3230739718384939e+01 0 0 0
1016 2 1.1074500000000002e+01 9.2355835810918343e+00 3.3230739718384939e+01 0 0 0
1037 2 1.1074500000000002e+01 1.0656442593567498e+01 3.3230739718384939e+01 0 0 0
1038 2 1.2304999999999998e+01 1.1366872099805333e+01 3.3230739718384939e+01 0 0 0
634 2 0.0000000000000000e+00 1.4208590124756663e+01 3.0031000000000518e+01 0 0 0