LAMMPS data file via write_data, version 16 Mar 2018, timestep = 6000000

6589 atoms
2 atom types

0.0000000000000000e+00 4.9219999999999999e+01 xlo xhi
0.0000000000000000e+00 4.9019635930410494e+01 ylo yhi
-5.8023659033153763e-02 6.0120023659041919e+01 zlo zhi

Masses

1 18.015
2 12.01

Atoms # atomic

3138 1 2.6859238382803787e+00 1.6232795562500439e+01 9.5042574384848333e+00 1 5 1
4608 1 3.1565481085681064e+00 2.4124884421542991e-01 2.0734497863036530e+00 2 -1 1
551 1 4.8913235975590998e+00 2.2030896957078929e+00 1.1631992792270467e+00 1 2 1
1498 1 7.5168368902248188e+00 1.4141565239141840e+00 2.0355399025787309e+00 -1 1 1
5469 1 9.4150496094606915e+00 3.3575638667065553e+00 1.1931130576272628e+00 -1 2 1
1899 1 1.1720111863269420e+01 2.5281282558326104e+00 2.2508153397424779e+00 0 2 0
5198 1 1.4870380361071693e+00 5.2867324607931625e+00 1.1303864470797327e+00 -2 1 0
361 1 5.8508501913921951e-01 7.6938741236126669e+00 2.0418062481052317e+00 4 0 0
2201 1 3.9975570393768436e+00 4.5948230757231316e+00 1.9687513037968758e+00 4 2 0
253 1 5.8994627700849351e+00 6.3181414949665804e+00 9.7928258124493617e-01 2 -1 0
5326 1 8.5884779461703058e+00 5.7329533607921208e+00 1.9519789186891465e+00 -2 2 0
4720 1 1.0339244653901837e+01 7.4462738990235078e+00 1.0994082406903505e+00 1 -1 1
6202 1 2.6538544299530153e+00 9.3133024021789108e+00 1.0156578424578853e+00 0 1 1
4687 1 5.1908984657245210e+00 8.8266958007930043e+00 2.0589068011554916e+00 -1 2 1
3155 1 7.0193462145042087e+00 1.0736594989194019e+01 1.4610674753287605e+00 2 -3 0
6381 1 9.5437178045975628e+00 9.9302362392427259e+00 2.2530396552621408e+00 -1 -1 1
1485 1 1.1275150649142761e+01 1.1742239616021731e+01 1.2296829801367986e+00 -1 3 1
5545 1 1.9181792824232704e+00 1.1847580009964108e+01 2.0731894511108213e+00 0 2 1
2931 1 3.7305089115638901e+00 1.3700953147171253e+01 1.3928024510738510e+00 0 -3 0
265 1 6.0318138663271839e+00 1.3236195116196825e+01 2.3353092417425652e+00 0 -2 0
3571 1 8.0539352974828056e+00 1.5073022407638343e+01 1.4397131176083489e+00 3 0 0
5393 1 1.0705858548101469e+01 1.4340093485671854e+01 2.1679599924361597e+00 0 0 0
1979 1 6.4341841590844118e-01 6.3496768920784341e-01 5.4761533399007813e+00 0 2 0
4853 1 7.9933960376871678e+00 1.5060082014689044e+01 8.4667415733005562e+00 -1 -2 1
5336 1 7.0259476720718628e-01 2.9446156121692399e+00 9.1930336728291824e+00 -1 1 0
3855 1 5.2049935927609416e+00 1.8372260359089545e+00 5.5144359945302126e+00 0 -1 1
5318 1 7.7054344075473056e+00 1.2169756648001777e+00 4.6849377591303716e+00 3 0 0
3593 1 1.1972743261829635e+01 2.5482887001875776e+00 4.9669527437730814e+00 -2 2 0
1405 1 9.4177210032611267e+00 3.1979085355478301e+00 5.6857069674552587e+00 -1 -2 1
1699 1 1.7772551146666886e+00 4.9454009027463686e+00 5.5757167570788004e+00 2 0 0
5439 1 1.3053728085463980e+00 7.5029935326458661e+00 4.7412408805612607e+00 1 1 0
1792 1 4.3548430038380630e+00 4.4672831733945877e+00 4.6770595999922069e+00 2 -3 0
158 1 6.2774871143172772e+00 6.2639427693921537e+00 5.7172882352274899e+00 -2 -1 0
6309 1 8.6600561332343524e+00 5.6378990600518293e+00 4.7572297638070502e+00 1 -2 1
224 1 1.0501007922711338e+01 7.3436860996001316e+00 5.7411458275771201e+00 1 1 1
6235 1 2.9006040504121606e+00 9.6222484066963130e+00 5.6538883903641066e+00 3 2 1
4683 1 2.0810754009671717e+00 1.1979805773134919e+01 4.9167017805118132e+00 1 1 1
5143 1 5.4240316719694643e+00 8.6603704129375529e+00 4.7877723164608499e+00 0 -3 0
1852 1 7.1100766879312474e+00 1.0328230584148413e+01 5.7994261632425843e+00 0 -2 0
3663 1 9.4086619047988886e+00 9.7318572213224499e+00 4.9521631512089055e+00 -2 -3 0
4995 1 1.1350744251347122e+01 1.1581659222426572e+01 5.6701492781649536e+00 1 -4 0
5176 1 3.8605781106223600e+00 1.3834753387486384e+01 5.9382990609988511e+00 -2 -1 0
6534 1 6.3409849203474664e+00 1.2955596838895939e+01 5.0435129589331895e+00 0 2 0
2092 1 8.1768457412833193e+00 1.5185040395417529e+01 5.8381035088421100e+00 2 1 0
3589 1 1.1027273461455543e+01 1.4346689024344666e+01 5.1259033471705315e+00 -2 0 0
6203 1 6.4327243981331108e+00 1.3078801974884813e+01 9.1323570946032806e+00 2 1 1
4651 1 1.1630145523200911e+01 1.1771058001207754e+01 8.2946931635130809e+00 1 -3 1
1944 1 5.0585737215880302e+00 1.5398957450983908e+00 8.2867313865836945e+00 3 1 1
4570 1 7.8039801248708542e+00 1.2150520532031797e+00 9.2772947656444096e+00 2 3 1
104 1 9.3133122880831909e-01 4.2765121302299358e-01 8.2821747191169806e+00 0 3 0
4659 1 9.9300401739705855e+00 9.9036934734517867e+00 9.2549128425655454e+00 0 -1 1
1811 1 4.6928510397233012e+00 3.7898131984890204e+00 1.1724845016446691e+01 0 4 0
1506 1 9.5564103513476404e+00 2.9629072482462511e+00 8.3935982134464471e+00 1 0 1
6492 1 1.0697288199404362e+01 1.4241641227538414e+01 9.1548259789303952e+00 3 0 0
3657 1 2.3050760013985419e+00 4.7339127435153632e+00 8.1420416053019746e+00 5 2 0
4943 1 1.7886636412744350e+00 7.3310653199906293e+00 9.1004528902999500e+00 3 -1 0
4688 1 4.6960901309084999e+00 4.1250004081501839e+00 8.9823239371049084e+00 -1 1 0
6582 1 6.5886772441683519e+00 6.1141760637454370e+00 8.4296174453045314e+00 2 2 1
526 1 1.0749331907561606e+01 7.3418307363414161e+00 8.2610945783333598e+00 0 -3 1
4952 1 8.9545428120096009e+00 5.4464883188838753e+00 9.2265288117918445e+00 -1 1 1
3432 1 3.7725841009944943e+00 1.3848442284126348e+01 8.7688410948093285e+00 -1 -2 1
368 1 3.3669133358058940e+00 9.5288901080909074e+00 8.4483102575979618e+00 -1 1 1
397 1 2.2783677387888104e+00 1.1691557934856135e+01 9.7729443856991818e+00 -4 -2 0
3131 1 5.7625273021403309e+00 8.6280888200560302e+00 9.2586041115256954e+00 1 6 1
3420 1 7.4249947103255955e+00 1.0718572821867523e+01 8.4875408675258548e+00 -3 0 0
3839 1 5.8155375613022320e-01 8.4626745567716577e-01 1.0049135173183834e+00 -1 1 0
5191 1 3.0939638661895019e+00 9.5923378739399823e-02 4.8899871743777075e+00 3 -2 0
5452 1 2.8174781651032159e+00 1.6238713257972638e+01 1.9802322776123567e+00 0 2 0
2247 1 1.0821328060087904e+01 1.4410509039610698e+01 1.1827062758105807e+01 -2 -1 1
5270 1 3.0749074330812234e+00 1.6245436198592490e+01 4.7955338643492293e+00 0 0 0
31 1 1.8847704174163966e+00 7.1059502784219752e+00 1.1950097719838995e+01 -1 3 0
3056 1 5.7438781859897980e-01 2.7470077956794787e+00 1.1874659919859164e+01 -1 1 1
378 1 9.7523548177801800e+00 9.9983881489791031e+00 1.1921672161427068e+01 2 1 0
4705 1 5.8282194522440784e+00 8.2358879144491954e+00 1.1903372671624133e+01 2 0 1
5290 1 3.0196414615702643e+00 1.8102159403242908e+00 1.2686410020156565e+01 1 0 0
1689 1 5.5371404812967806e-01 5.0777411508627033e+00 2.0341403531639664e+01 -1 2 0
1365 1 3.4150474944752407e+00 1.6118884060038920e+00 1.5485476740318759e+01 1 0 1
2944 1 7.1089576075085619e+00 3.2275101059943885e+00 1.2674469452275384e+01 1 -1 1
3849 1 7.6919562893529658e+00 3.0321283271328623e+00 1.5355171813498490e+01 -1 0 1
2043 1 4.4790359320023690e-02 7.6033010544272619e+00 1.9521623752986585e+01 -2 1 0
4614 1 6.4474472323594201e+00 1.5440717940268001e+01 2.3371378366063901e+01 0 1 1
440 1 1.1987767979433206e+01 1.1590748411663498e+01 1.9274645978694807e+01 -1 0 0
5028 1 1.0312795431313051e+01 6.3759683550235757e-01 1.2865931053150028e+01 0 1 1
212 1 4.5427872734525723e+00 6.2977219013568613e+00 1.5761220132703908e+01 -1 -2 0
3058 1 4.3245178092337140e+00 6.2543287473660492e+00 1.2821040935337868e+01 -2 -2 0
1321 1 8.2659337071065320e+00 7.7946771945369733e+00 1.2743877691638604e+01 -1 1 1
495 1 1.1755676389034521e+01 4.8485036251414870e+00 1.5428173150723190e+01 1 -2 1
2015 1 1.1492743047603671e+01 4.7589622904815414e+00 1.2551423947532896e+01 1 -1 0
5103 1 8.6583543261143632e+00 7.7686045672448234e+00 1.5565553164292346e+01 0 -2 0
3362 1 6.7877647861965418e-01 4.9239582562697111e+00 1.5711963693467434e+01 -4 -1 1
1295 1 1.2920045599548566e+00 9.3494137958614782e+00 1.3137542149340527e+01 0 -2 1
2151 1 1.7715068691993863e+00 9.1675882419367056e+00 1.5750055334334284e+01 -3 -1 1
1833 1 5.2927242871009179e+00 1.0738304737258458e+01 1.2946472989428482e+01 0 0 0
5038 1 5.5908974898847319e+00 1.0847686481984415e+01 1.5593960650885682e+01 3 5 0
3517 1 2.6490380745794058e+00 1.3779068160160151e+01 2.0632421919785273e+01 3 -3 0
1387 1 9.2949047332523840e+00 1.2333083819966355e+01 1.5452690081522858e+01 1 0 0
453 1 2.1275752271855422e+00 1.3811784648453125e+01 1.3410454666750208e+01 0 2 0
2912 1 3.7524576334615936e+00 1.6061879617391057e+01 2.3388463315005009e+01 2 -1 1
3678 1 5.7129420088294101e+00 1.5419117012489986e+01 1.3057334025714002e+01 2 -3 0
548 1 5.5662725713926910e+00 1.5497561249957743e+01 1.5886173890389786e+01 -1 -2 1
1549 1 9.0118088304582358e+00 1.2541403194922573e+01 1.2649427611385997e+01 0 -4 0
263 1 6.5413788521168366e+00 1.5103299678084985e+01 2.0663591390042640e+01 -1 4 0
291 1 5.5547648918130905e+00 1.0440128989605492e+01 2.0631070987854617e+01 -4 1 0
4910 1 2.4011653140996883e-01 4.7200364427547452e+00 2.3154801359226155e+01 0 2 1
3775 1 5.8912075733040616e+00 1.3229162761254567e+00 1.6490622139485229e+01 4 3 0
1459 1 5.9000038144283122e+00 1.3433836195310769e+00 1.9441433026654352e+01 5 1 1
238 1 1.0054974533722017e+01 2.6818910139289951e+00 1.6304572320247861e+01 -2 -1 1
1340 1 1.0198565074219013e+01 2.6379119356026717e+00 1.8914361984837132e+01 -4 -1 1
5021 1 3.1181390972612015e+00 4.0717528887759311e+00 1.6598018205252906e+01 1 -1 0
3358 1 3.0282956611972396e+00 4.2231628797591636e+00 1.9276479910649915e+01 -3 2 0
5466 1 7.0264534981781548e+00 5.5591269284258535e+00 1.6240645529771662e+01 2 1 1
241 1 7.3610993372683442e+00 5.8453283255148154e+00 1.8969872886615132e+01 1 0 0
4678 1 1.1091251904831401e+01 7.1534932848332060e+00 1.6769369822512392e+01 2 1 1
5051 1 1.1337548164661882e+01 6.9506402366200408e+00 1.9337656285817342e+01 3 -2 0
4839 1 7.8411723646859244e-01 1.2020612442162603e+01 1.9452627363287203e+01 -1 -2 0
1407 1 6.9472920503426261e-01 1.1656294119245560e+01 1.6785271667501938e+01 0 0 0
3475 1 4.1997540416233505e+00 8.9692471129793976e+00 1.6808294287696359e+01 0 3 1
3114 1 4.0380210367667360e+00 8.5361203659027023e+00 1.9443384217803025e+01 -2 -1 1
5303 1 7.9748482911483523e+00 1.0231218548707139e+01 1.6626199831769874e+01 2 1 0
6200 1 2.4020554112226469e+00 1.3713749941184407e+01 2.3341680197147468e+01 0 3 1
4931 1 7.8765372702551497e+00 1.0021627068429078e+01 1.9503057866394283e+01 -1 3 1
4625 1 5.5927858063703058e+00 1.0711488425211243e+01 2.3373893636126709e+01 1 -1 1
4913 1 1.8223198633138611e+00 1.3945192775144077e+01 1.6033868804086786e+01 2 -1 1
6457 1 1.2237979488232941e+01 9.3342025970800613e+00 1.2899216147142171e+01 1 1 0
36 1 2.3101888776869417e-01 5.0196735949541171e+00 1.2893661952185882e+01 -2 0 1
1717 1 5.0597004323745320e+00 1.2935029675291860e+01 1.9506052456430460e+01 0 4 1
3644 1 4.4735122999326711e+00 1.3199496063954422e+01 1.6946000762546873e+01 1 -1 0
557 1 8.3076467359512964e+00 1.4644432397967650e+01 1.6614305847731298e+01 4 2 1
3025 1 8.9791147738094086e+00 1.4432537961701543e+01 1.9237766073450924e+01 -2 1 1
6190 1 3.6083470633878543e+00 2.0154993946064113e+00 2.0471234642533609e+01 3 0 1
3312 1 3.7562171483298585e+00 1.7924112509369514e+00 2.3238262334296454e+01 3 -1 0
1797 1 7.7201131225951789e+00 3.2145796540958891e+00 2.0168301896653272e+01 0 0 0
92 1 8.1934506201925359e+00 3.1194926283458764e+00 2.3023436762420310e+01 -2 1 1
3418 1 9.5193490909823613e+00 1.2010310115161014e+01 2.0524298335888464e+01 2 2 1
3305 1 9.4101184410668939e+00 1.2134728208240691e+01 2.3276247937946444e+01 -1 3 1
3762 1 1.1681288902068291e+01 1.1551413988264388e+01 1.6554697910472292e+01 -3 0 1
3758 1 1.0578303765419388e+01 5.0808899724211272e-02 1.5500275895787357e+01 -1 -2 1
2962 1 1.1911299300623636e+01 4.6849502485390770e+00 2.2978105538762406e+01 -1 0 1
3538 1 4.8585458007435536e+00 5.8793277776673625e+00 2.0044728106438679e+01 -3 -1 0
6418 1 4.8575475654320401e+00 5.9894239936436087e+00 2.2798522918733649e+01 2 3 0
3062 1 2.0158592475086436e+00 1.6057547333420931e+01 1.9248067628142152e+01 -1 1 1
216 1 8.8641382115690170e+00 7.5543600550258807e+00 2.0258945735715514e+01 -2 2 0
546 1 8.6874060571663883e+00 7.5298299322001725e+00 2.2960510802235884e+01 -3 3 0
99 1 1.1878335756772445e+01 4.3986408083561459e+00 2.0248190482124631e+01 0 -1 1
6352 1 1.7214796381751771e+00 9.0022101638800152e+00 2.3328252641091620e+01 4 1 1
3727 1 1.4740211536809491e+00 9.7068121299571644e+00 2.0599367532779667e+01 -4 1 0
1476 1 1.4308336218884390e+00 1.3196620098412531e-01 1.6831407122771274e+01 1 -2 0
1546 1 2.7522611170490232e+00 1.1315226223978067e+01 1.2428734461545849e+01 3 -3 1
6383 1 1.0704358893530429e+01 4.8569746656478008e-03 2.0282508375795416e+01 2 0 1
1312 1 1.6310792033407191e+00 7.2228305766233528e-02 1.9711249670223786e+01 -1 1 1
1504 1 3.1577807784453786e+00 1.6076650750200461e+01 1.2126211395701585e+01 1 2 0
9 1 2.5370301780254412e-01 7.3523448222073622e+00 1.6817591499267206e+01 4 -1 0
151 1 5.7127342699781201e+00 3.6652138542825106e+00 2.3994621105487781e+01 1 1 1
2070 1 1.0847086923756535e+01 1.4403122003867438e+01 2.3918014440840171e+01 2 1 0
4970 1 1.0157728867367716e+01 9.4524269494828150e+00 2.3720118864925041e+01 4 0 0
6413 1 6.4171518407603116e+00 1.2999950204320001e+01 1.2007496329031964e+01 1 -1 1
3104 1 2.4097562299390685e+00 6.3444203438534563e+00 2.3736428531055207e+01 -1 1 0
2017 1 8.4519227643047969e+00 4.7845899582675128e-01 2.3857020650244095e+01 4 3 0
5141 1 6.3232218963779072e+00 8.2565039827231654e+00 2.3999897484811576e+01 -2 3 0
3534 1 7.9201725250143014e+00 7.9782164825099300e-01 1.1978461484885170e+01 2 -2 0
3867 1 8.9027495877632497e+00 5.3379463317978653e+00 1.2031272029943596e+01 2 -1 1
594 2 0.0000000000000000e+00 2.8417180249513345e+00 2.6653688543862476e+01 0 0 0
596 2 0.0000000000000000e+00 0.0000000000000000e+00 2.6653688543862476e+01 0 0 0
598 2 1.2305000000000001e+00 7.1042950623783474e-01 2.6653688543862476e+01 0 0 0
605 2 1.2305000000000001e+00 2.1312885187134998e+00 2.6653688543862476e+01 0 0 0
607 2 2.4610000000000003e+00 2.8417180249513345e+00 2.6653688543862476e+01 0 0 0
609 2 2.4610000000000003e+00 0.0000000000000000e+00 2.6653688543862476e+01 0 0 0
611 2 3.6915000000000004e+00 7.1042950623783474e-01 2.6653688543862476e+01 0 0 0
626 2 3.6914999999999996e+00 2.1312885187134998e+00 2.6653688543862476e+01 0 0 0
1582 1 1.2254677606839777e+00 2.4185441192652952e+00 2.4200145764569111e+01 2 0 1
628 2 4.9220000000000006e+00 2.8417180249513332e+00 2.6653688543862476e+01 0 0 0
630 2 4.9220000000000006e+00 0.0000000000000000e+00 2.6653688543862476e+01 0 0 0
632 2 6.1524999999999999e+00 7.1042950623783407e-01 2.6653688543862476e+01 0 0 0
655 2 6.1524999999999999e+00 2.1312885187134989e+00 2.6653688543862476e+01 0 0 0
657 2 7.3829999999999991e+00 2.8417180249513345e+00 2.6653688543862476e+01 0 0 0
659 2 7.3829999999999991e+00 0.0000000000000000e+00 2.6653688543862476e+01 0 0 0
661 2 8.6134999999999984e+00 7.1042950623783407e-01 2.6653688543862476e+01 0 0 0
692 2 8.6134999999999984e+00 2.1312885187135002e+00 2.6653688543862476e+01 0 0 0
694 2 9.8440000000000012e+00 2.8417180249513332e+00 2.6653688543862476e+01 0 0 0
696 2 9.8440000000000012e+00 0.0000000000000000e+00 2.6653688543862476e+01 0 0 0
698 2 1.1074500000000002e+01 7.1042950623783330e-01 2.6653688543862476e+01 0 0 0
737 2 1.1074500000000002e+01 2.1312885187135002e+00 2.6653688543862476e+01 0 0 0
1034 2 9.8440000000000012e+00 1.5629449137232328e+01 3.3408311456163382e+01 0 0 0
599 2 0.0000000000000000e+00 7.1042950623783341e+00 2.6653688543862476e+01 0 0 0
601 2 0.0000000000000000e+00 4.2625770374269996e+00 2.6653688543862476e+01 0 0 0
603 2 1.2305000000000001e+00 4.9730065436648339e+00 2.6653688543862476e+01 0 0 0
618 2 1.2305000000000001e+00 6.3938655561404980e+00 2.6653688543862476e+01 0 0 0
620 2 2.4610000000000003e+00 7.1042950623783341e+00 2.6653688543862476e+01 0 0 0
622 2 2.4610000000000003e+00 4.2625770374269996e+00 2.6653688543862476e+01 0 0 0
624 2 3.6914999999999996e+00 4.9730065436648339e+00 2.6653688543862476e+01 0 0 0
647 2 3.6914999999999996e+00 6.3938655561404980e+00 2.6653688543862476e+01 0 0 0
1054 2 1.1074500000000002e+01 1.4919019630994494e+01 3.3408311456163382e+01 0 0 0
649 2 4.9220000000000006e+00 7.1042950623783341e+00 2.6653688543862476e+01 0 0 0
651 2 4.9220000000000006e+00 4.2625770374269978e+00 2.6653688543862476e+01 0 0 0
653 2 6.1524999999999999e+00 4.9730065436648339e+00 2.6653688543862476e+01 0 0 0
684 2 6.1524999999999999e+00 6.3938655561404980e+00 2.6653688543862476e+01 0 0 0
686 2 7.3830000000000009e+00 7.1042950623783341e+00 2.6653688543862476e+01 0 0 0
688 2 7.3829999999999991e+00 4.2625770374269996e+00 2.6653688543862476e+01 0 0 0
690 2 8.6135000000000002e+00 4.9730065436648339e+00 2.6653688543862476e+01 0 0 0
729 2 8.6135000000000002e+00 6.3938655561404980e+00 2.6653688543862476e+01 0 0 0
731 2 9.8440000000000012e+00 7.1042950623783341e+00 2.6653688543862476e+01 0 0 0
733 2 9.8440000000000012e+00 4.2625770374270004e+00 2.6653688543862476e+01 0 0 0
735 2 1.1074500000000002e+01 4.9730065436648339e+00 2.6653688543862476e+01 0 0 0
776 2 1.1074500000000002e+01 6.3938655561404980e+00 2.6653688543862476e+01 0 0 0
988 2 6.1524999999999990e+00 1.3498160618518829e+01 3.3408311456163382e+01 0 0 0
612 2 0.0000000000000000e+00 1.1366872099805333e+01 2.6653688543862476e+01 0 0 0
614 2 0.0000000000000000e+00 8.5251540748539991e+00 2.6653688543862476e+01 0 0 0
616 2 1.2305000000000001e+00 9.2355835810918343e+00 2.6653688543862476e+01 0 0 0
639 2 1.2305000000000001e+00 1.0656442593567498e+01 2.6653688543862476e+01 0 0 0
641 2 2.4610000000000003e+00 1.1366872099805333e+01 2.6653688543862476e+01 0 0 0
643 2 2.4610000000000003e+00 8.5251540748539991e+00 2.6653688543862476e+01 0 0 0
645 2 3.6915000000000004e+00 9.2355835810918343e+00 2.6653688543862476e+01 0 0 0
676 2 3.6914999999999996e+00 1.0656442593567499e+01 2.6653688543862476e+01 0 0 0
1035 2 9.8440000000000012e+00 1.2787731112280996e+01 3.3408311456163382e+01 0 0 0
678 2 4.9220000000000006e+00 1.1366872099805333e+01 2.6653688543862476e+01 0 0 0
680 2 4.9220000000000006e+00 8.5251540748539991e+00 2.6653688543862476e+01 0 0 0
682 2 6.1524999999999999e+00 9.2355835810918343e+00 2.6653688543862476e+01 0 0 0
721 2 6.1524999999999999e+00 1.0656442593567499e+01 2.6653688543862476e+01 0 0 0
723 2 7.3829999999999991e+00 1.1366872099805333e+01 2.6653688543862476e+01 0 0 0
725 2 7.3830000000000009e+00 8.5251540748539991e+00 2.6653688543862476e+01 0 0 0
727 2 8.6134999999999984e+00 9.2355835810918343e+00 2.6653688543862476e+01 0 0 0
768 2 8.6134999999999984e+00 1.0656442593567498e+01 2.6653688543862476e+01 0 0 0
770 2 9.8440000000000012e+00 1.1366872099805333e+01 2.6653688543862476e+01 0 0 0
772 2 9.8440000000000012e+00 8.5251540748539956e+00 2.6653688543862476e+01 0 0 0
774 2 1.1074500000000002e+01 9.2355835810918343e+00 2.6653688543862476e+01 0 0 0
815 2 1.1074500000000002e+01 1.0656442593567498e+01 2.6653688543862476e+01 0 0 0
817 2 1.2304999999999998e+01 1.1366872099805333e+01 2.6653688543862476e+01 0 0 0
4898 1 7.1248547179107664e+00 1.2896254220433880e+01 2.4155829596469047e+01 -1 1 0
633 2 0.0000000000000000e+00 1.5629449137232333e+01 2.6653688543862476e+01 0 0 0
635 2 0.0000000000000000e+00 1.2787731112280996e+01 2.6653688543862476e+01 0 0 0
637 2 1.2305000000000001e+00 1.3498160618518829e+01 2.6653688543862476e+01 0 0 0
668 2 1.2305000000000001e+00 1.4919019630994494e+01 2.6653688543862476e+01 0 0 0
670 2 2.4610000000000003e+00 1.5629449137232328e+01 2.6653688543862476e+01 0 0 0
672 2 2.4610000000000003e+00 1.2787731112280996e+01 2.6653688543862476e+01 0 0 0
674 2 3.6915000000000004e+00 1.3498160618518829e+01 2.6653688543862476e+01 0 0 0
713 2 3.6915000000000004e+00 1.4919019630994494e+01 2.6653688543862476e+01 0 0 0
715 2 4.9220000000000006e+00 1.5629449137232333e+01 2.6653688543862476e+01 0 0 0
717 2 4.9220000000000006e+00 1.2787731112280996e+01 2.6653688543862476e+01 0 0 0
719 2 6.1524999999999990e+00 1.3498160618518829e+01 2.6653688543862476e+01 0 0 0
760 2 6.1524999999999990e+00 1.4919019630994494e+01 2.6653688543862476e+01 0 0 0
762 2 7.3829999999999991e+00 1.5629449137232333e+01 2.6653688543862476e+01 0 0 0
764 2 7.3829999999999991e+00 1.2787731112280996e+01 2.6653688543862476e+01 0 0 0
766 2 8.6135000000000002e+00 1.3498160618518835e+01 2.6653688543862476e+01 0 0 0
807 2 8.6135000000000002e+00 1.4919019630994494e+01 2.6653688543862476e+01 0 0 0
809 2 9.8440000000000012e+00 1.5629449137232328e+01 2.6653688543862476e+01 0 0 0
811 2 9.8440000000000012e+00 1.2787731112280996e+01 2.6653688543862476e+01 0 0 0
813 2 1.1074500000000002e+01 1.3498160618518829e+01 2.6653688543862476e+01 0 0 0
849 2 1.1074500000000002e+01 1.4919019630994494e+01 2.6653688543862476e+01 0 0 0
595 2 0.0000000000000000e+00 1.4208590124756650e+00 3.0031000000004411e+01 0 0 0
597 2 0.0000000000000000e+00 0.0000000000000000e+00 3.0031000000004411e+01 0 0 0
604 2 1.2305000000000001e+00 3.5521475311891644e+00 3.0031000000004411e+01 0 0 0
606 2 1.2305000000000001e+00 2.1312885187134998e+00 3.0031000000004411e+01 0 0 0
608 2 2.4610000000000003e+00 1.4208590124756650e+00 3.0031000000004411e+01 0 0 0
610 2 2.4610000000000003e+00 0.0000000000000000e+00 3.0031000000004411e+01 0 0 0
625 2 3.6914999999999996e+00 3.5521475311891644e+00 3.0031000000004411e+01 0 0 0
627 2 3.6914999999999996e+00 2.1312885187134998e+00 3.0031000000004411e+01 0 0 0
629 2 4.9220000000000006e+00 1.4208590124756650e+00 3.0031000000004411e+01 0 0 0
631 2 4.9220000000000006e+00 0.0000000000000000e+00 3.0031000000004411e+01 0 0 0
654 2 6.1524999999999999e+00 3.5521475311891644e+00 3.0031000000004411e+01 0 0 0
656 2 6.1524999999999999e+00 2.1312885187134989e+00 3.0031000000004411e+01 0 0 0
658 2 7.3829999999999991e+00 1.4208590124756659e+00 3.0031000000004411e+01 0 0 0
660 2 7.3829999999999991e+00 0.0000000000000000e+00 3.0031000000004411e+01 0 0 0
691 2 8.6134999999999984e+00 3.5521475311891657e+00 3.0031000000004411e+01 0 0 0
693 2 8.6134999999999984e+00 2.1312885187135002e+00 3.0031000000004411e+01 0 0 0
695 2 9.8440000000000012e+00 1.4208590124756659e+00 3.0031000000004411e+01 0 0 0
697 2 9.8440000000000012e+00 0.0000000000000000e+00 3.0031000000004411e+01 0 0 0
736 2 1.1074500000000002e+01 3.5521475311891644e+00 3.0031000000004411e+01 0 0 0
738 2 1.1074500000000002e+01 2.1312885187135002e+00 3.0031000000004411e+01 0 0 0
600 2 0.0000000000000000e+00 5.6834360499026637e+00 3.0031000000004411e+01 0 0 0
602 2 0.0000000000000000e+00 4.2625770374269996e+00 3.0031000000004411e+01 0 0 0
617 2 1.2305000000000001e+00 7.8147245686161639e+00 3.0031000000004411e+01 0 0 0
619 2 1.2305000000000001e+00 6.3938655561404980e+00 3.0031000000004411e+01 0 0 0
621 2 2.4610000000000003e+00 5.6834360499026637e+00 3.0031000000004411e+01 0 0 0
623 2 2.4610000000000003e+00 4.2625770374269996e+00 3.0031000000004411e+01 0 0 0
646 2 3.6914999999999996e+00 7.8147245686161639e+00 3.0031000000004411e+01 0 0 0
648 2 3.6914999999999996e+00 6.3938655561404980e+00 3.0031000000004411e+01 0 0 0
650 2 4.9220000000000006e+00 5.6834360499026637e+00 3.0031000000004411e+01 0 0 0
652 2 4.9220000000000006e+00 4.2625770374269978e+00 3.0031000000004411e+01 0 0 0
683 2 6.1524999999999999e+00 7.8147245686161639e+00 3.0031000000004411e+01 0 0 0
685 2 6.1524999999999999e+00 6.3938655561404980e+00 3.0031000000004411e+01 0 0 0
687 2 7.3829999999999991e+00 5.6834360499026637e+00 3.0031000000004411e+01 0 0 0
689 2 7.3829999999999991e+00 4.2625770374269996e+00 3.0031000000004411e+01 0 0 0
728 2 8.6135000000000002e+00 7.8147245686161639e+00 3.0031000000004411e+01 0 0 0
730 2 8.6135000000000002e+00 6.3938655561404980e+00 3.0031000000004411e+01 0 0 0
732 2 9.8440000000000012e+00 5.6834360499026637e+00 3.0031000000004411e+01 0 0 0
734 2 9.8440000000000012e+00 4.2625770374270004e+00 3.0031000000004411e+01 0 0 0
775 2 1.1074500000000002e+01 7.8147245686161639e+00 3.0031000000004411e+01 0 0 0
777 2 1.1074500000000002e+01 6.3938655561404980e+00 3.0031000000004411e+01 0 0 0
613 2 0.0000000000000000e+00 9.9460130873296642e+00 3.0031000000004411e+01 0 0 0
615 2 0.0000000000000000e+00 8.5251540748539991e+00 3.0031000000004411e+01 0 0 0
638 2 1.2305000000000001e+00 1.2077301606043163e+01 3.0031000000004411e+01 0 0 0
640 2 1.2305000000000001e+00 1.0656442593567498e+01 3.0031000000004411e+01 0 0 0
642 2 2.4610000000000003e+00 9.9460130873296642e+00 3.0031000000004411e+01 0 0 0
644 2 2.4610000000000003e+00 8.5251540748539991e+00 3.0031000000004411e+01 0 0 0
675 2 3.6914999999999996e+00 1.2077301606043163e+01 3.0031000000004411e+01 0 0 0
677 2 3.6914999999999996e+00 1.0656442593567499e+01 3.0031000000004411e+01 0 0 0
679 2 4.9220000000000006e+00 9.9460130873296642e+00 3.0031000000004411e+01 0 0 0
681 2 4.9220000000000006e+00 8.5251540748539991e+00 3.0031000000004411e+01 0 0 0
720 2 6.1524999999999999e+00 1.2077301606043163e+01 3.0031000000004411e+01 0 0 0
722 2 6.1524999999999999e+00 1.0656442593567499e+01 3.0031000000004411e+01 0 0 0
724 2 7.3830000000000009e+00 9.9460130873296642e+00 3.0031000000004411e+01 0 0 0
726 2 7.3830000000000009e+00 8.5251540748539991e+00 3.0031000000004411e+01 0 0 0
767 2 8.6135000000000002e+00 1.2077301606043163e+01 3.0031000000004411e+01 0 0 0
769 2 8.6134999999999984e+00 1.0656442593567498e+01 3.0031000000004411e+01 0 0 0
771 2 9.8440000000000012e+00 9.9460130873296642e+00 3.0031000000004411e+01 0 0 0
773 2 9.8440000000000012e+00 8.5251540748539956e+00 3.0031000000004411e+01 0 0 0
814 2 1.1074500000000002e+01 1.2077301606043163e+01 3.0031000000004411e+01 0 0 0
816 2 1.1074500000000002e+01 1.0656442593567498e+01 3.0031000000004411e+01 0 0 0
634 2 0.0000000000000000e+00 1.4208590124756663e+01 3.0031000000004411e+01 0 0 0
636 2 0.0000000000000000e+00 1.2787731112280996e+01 3.0031000000004411e+01 0 0 0
669 2 1.2305000000000001e+00 1.4919019630994494e+01 3.0031000000004411e+01 0 0 0
671 2 2.4610000000000003e+00 1.4208590124756663e+01 3.0031000000004411e+01 0 0 0
673 2 2.4610000000000003e+00 1.2787731112280996e+01 3.0031000000004411e+01 0 0 0
714 2 3.6915000000000004e+00 1.4919019630994494e+01 3.0031000000004411e+01 0 0 0
765 2 7.3829999999999991e+00 1.2787731112280996e+01 3.0031000000004411e+01 0 0 0
716 2 4.9220000000000006e+00 1.4208590124756663e+01 3.0031000000004411e+01 0 0 0
718 2 4.9220000000000006e+00 1.2787731112280996e+01 3.0031000000004411e+01 0 0 0
761 2 6.1524999999999990e+00 1.4919019630994494e+01 3.0031000000004411e+01 0 0 0
763 2 7.3830000000000009e+00 1.4208590124756663e+01 3.0031000000004411e+01 0 0 0
810 2 9.8440000000000012e+00 1.4208590124756663e+01 3.0031000000004411e+01 0 0 0
848 2 1.1074500000000002e+01 1.6339878643470161e+01 3.0031000000004411e+01 0 0 0
812 2 9.8440000000000012e+00 1.2787731112280996e+01 3.0031000000004411e+01 0 0 0
852 2 1.2304999999999998e+01 1.4208590124756658e+01 3.0031000000004411e+01 0 0 0
850 2 1.1074500000000002e+01 1.4919019630994494e+01 3.0031000000004411e+01 0 0 0
808 2 8.6135000000000002e+00 1.4919019630994494e+01 3.0031000000004411e+01 0 0 0
923 2 0.0000000000000000e+00 2.8417180249513345e+00 3.3408311456163382e+01 0 0 0
924 2 0.0000000000000000e+00 0.0000000000000000e+00 3.3408311456163382e+01 0 0 0
925 2 1.2305000000000001e+00 7.1042950623783474e-01 3.3408311456163382e+01 0 0 0
929 2 1.2305000000000001e+00 2.1312885187134998e+00 3.3408311456163382e+01 0 0 0
930 2 2.4610000000000003e+00 2.8417180249513345e+00 3.3408311456163382e+01 0 0 0
931 2 2.4610000000000003e+00 0.0000000000000000e+00 3.3408311456163382e+01 0 0 0
932 2 3.6915000000000004e+00 7.1042950623783474e-01 3.3408311456163382e+01 0 0 0
940 2 3.6914999999999996e+00 2.1312885187134998e+00 3.3408311456163382e+01 0 0 0
941 2 4.9220000000000006e+00 2.8417180249513332e+00 3.3408311456163382e+01 0 0 0
942 2 4.9220000000000006e+00 0.0000000000000000e+00 3.3408311456163382e+01 0 0 0
943 2 6.1524999999999999e+00 7.1042950623783407e-01 3.3408311456163382e+01 0 0 0
955 2 6.1524999999999999e+00 2.1312885187134989e+00 3.3408311456163382e+01 0 0 0
956 2 7.3829999999999991e+00 2.8417180249513345e+00 3.3408311456163382e+01 0 0 0
957 2 7.3829999999999991e+00 0.0000000000000000e+00 3.3408311456163382e+01 0 0 0
2032 1 9.4027666735031250e+00 1.0183716003195336e+01 3.5909079149483226e+01 -1 3 -1
958 2 8.6134999999999984e+00 7.1042950623783407e-01 3.3408311456163382e+01 0 0 0
974 2 8.6134999999999984e+00 2.1312885187135002e+00 3.3408311456163382e+01 0 0 0
975 2 9.8440000000000012e+00 2.8417180249513332e+00 3.3408311456163382e+01 0 0 0
976 2 9.8440000000000012e+00 0.0000000000000000e+00 3.3408311456163382e+01 0 0 0
977 2 1.1074500000000002e+01 7.1042950623783330e-01 3.3408311456163382e+01 0 0 0
997 2 1.1074500000000002e+01 2.1312885187135002e+00 3.3408311456163382e+01 0 0 0
926 2 0.0000000000000000e+00 7.1042950623783341e+00 3.3408311456163382e+01 0 0 0
927 2 0.0000000000000000e+00 4.2625770374269996e+00 3.3408311456163382e+01 0 0 0
928 2 1.2305000000000001e+00 4.9730065436648339e+00 3.3408311456163382e+01 0 0 0
936 2 1.2305000000000001e+00 6.3938655561404980e+00 3.3408311456163382e+01 0 0 0
937 2 2.4610000000000003e+00 7.1042950623783341e+00 3.3408311456163382e+01 0 0 0
938 2 2.4610000000000003e+00 4.2625770374269996e+00 3.3408311456163382e+01 0 0 0
939 2 3.6914999999999996e+00 4.9730065436648339e+00 3.3408311456163382e+01 0 0 0
951 2 3.6914999999999996e+00 6.3938655561404980e+00 3.3408311456163382e+01 0 0 0
1011 2 7.3829999999999991e+00 1.2787731112280996e+01 3.3408311456163382e+01 0 0 0
952 2 4.9220000000000006e+00 7.1042950623783341e+00 3.3408311456163382e+01 0 0 0
953 2 4.9220000000000006e+00 4.2625770374269978e+00 3.3408311456163382e+01 0 0 0
954 2 6.1524999999999999e+00 4.9730065436648339e+00 3.3408311456163382e+01 0 0 0
970 2 6.1524999999999999e+00 6.3938655561404980e+00 3.3408311456163382e+01 0 0 0
971 2 7.3830000000000009e+00 7.1042950623783341e+00 3.3408311456163382e+01 0 0 0
972 2 7.3829999999999991e+00 4.2625770374269996e+00 3.3408311456163382e+01 0 0 0
973 2 8.6135000000000002e+00 4.9730065436648339e+00 3.3408311456163382e+01 0 0 0
993 2 8.6135000000000002e+00 6.3938655561404980e+00 3.3408311456163382e+01 0 0 0