LAMMPS data file via write_data, version 16 Mar 2018, timestep = 8000000

6328 atoms
2 atom types

0.0000000000000000e+00 4.9219999999999999e+01 xlo xhi
0.0000000000000000e+00 4.9019635930410494e+01 ylo yhi
2.1114116111651491e+00 5.7950588388839861e+01 zlo zhi

Masses

1 18.015
2 12.01

Atoms # atomic

1269 1 5.4176824760346043e-01 3.4833691530560551e+00 5.6145918996101898e+00 -3 8 1
1403 1 1.0111081557800985e+00 3.4666651857441053e+00 2.8293830155766200e+00 -1 5 1
3256 1 3.0531279750953653e+00 4.1027943881007669e+00 6.7905201088729985e+00 2 -2 1
2859 1 2.6924996149600838e-01 9.7064780988235511e-01 6.6882813484384593e+00 0 -1 1
3123 1 5.0723668170156229e+00 2.8641881216245881e+00 2.9532517311937054e+00 1 3 1
3165 1 4.8725915746708814e+00 2.5311319166713560e+00 5.7780307996662437e+00 -3 0 1
1840 1 7.3283718097091359e+00 3.8533029898226538e+00 6.5573849433072660e+00 -1 2 0
1796 1 9.6152876635174263e+00 1.8650640003264809e+00 3.0630556393068216e+00 -1 -3 0
3187 1 9.4545269180128049e+00 2.1099589048427307e+00 5.8528004246320062e+00 3 3 0
5122 1 3.7750472908051842e+00 7.0084677644361992e+00 6.1561318025974314e+00 3 -4 1
4906 1 3.9366294987704227e+00 7.3378152692745502e+00 3.4430225261791243e+00 1 -2 0
2040 1 8.1829008438494615e+00 6.2753938657504476e+00 5.8447024287202947e+00 -2 0 0
6245 1 8.1677469366616098e+00 6.0565851147114538e+00 3.1520675375403080e+00 2 0 0
3577 1 6.1135333332650834e+00 8.0622477459859052e+00 6.8029227881650494e+00 1 3 0
3413 1 2.4562602967948157e+00 1.1272684247150890e+01 5.7384869966368388e+00 0 1 0
4410 1 2.4768320294328747e+00 1.1235911924892317e+01 3.0298529797095171e+00 0 1 0
1561 1 1.7544373103598849e+00 8.6847925358334468e+00 6.6489035495954898e+00 1 0 1
4469 1 7.5863098793605879e+00 1.6099399174248184e+01 6.3927705547937315e+00 -1 -1 1
2825 1 6.9760253029988046e+00 1.0780667804284349e+01 2.8203858777401587e+00 4 -1 1
151 1 6.7296826180868559e+00 1.0469110403130301e+01 5.6090675214329062e+00 1 0 0
4890 1 7.0967855514978959e+00 1.3382995125764410e+01 1.0189441901716435e+01 1 2 0
4802 1 1.0428490593418984e+00 1.5554760045146070e+01 2.8495324395926929e+00 5 1 0
3001 1 1.1780180289791058e+00 1.5764693503735288e+01 5.4886021103951101e+00 1 0 0
45 1 5.5658792440864657e-01 1.2744432544096178e+01 8.8159380350136658e+00 -2 3 0
3719 1 4.9214257008236011e+00 1.2314272054452665e+01 6.6626499970361621e+00 2 4 0
1396 1 5.0626835227002394e+00 1.5016912170833466e+01 3.0954276968970862e+00 1 -4 1
6293 1 5.2063652048372120e+00 1.4847460183189579e+01 5.7444055582200448e+00 0 1 0
5004 1 8.9980939031901954e+00 1.1545304144979523e+01 9.4567793717656521e+00 0 -4 0
4542 1 4.6817845243051561e+00 1.2140263471907970e+01 9.4417808531444400e+00 3 3 0
3163 1 7.7034367690369390e+00 1.6102549507243527e+01 9.2406885879720058e+00 2 -1 2
3013 1 6.1711620824985547e-01 1.3221516301969466e+01 6.0808537686988569e+00 6 4 1
4670 1 2.2625242528920217e-01 7.9392371024353592e-01 9.4226047511543420e+00 -1 3 0
4452 1 2.4916886092975479e+00 1.8140910924567812e+00 1.0183553420645556e+01 1 -2 1
1406 1 2.8505895349144645e+00 1.3982565482325835e+01 1.0268575779295308e+01 -1 1 1
1967 1 7.0667679452759415e+00 8.9369191452810748e-01 1.0191684461828505e+01 -1 0 0
3418 1 7.7931525333110141e+00 3.5456734727543084e+00 9.2123382237522584e+00 6 2 0
4446 1 3.2536173242890487e+00 4.2413995774024746e+00 9.2515498249781842e+00 0 -2 1
6024 1 1.5116519213201258e+00 6.0348002117726045e+00 1.0269602003893235e+01 -2 -1 0
4405 1 6.2126125369412364e+00 7.8615611916694021e+00 9.5174565333646015e+00 2 0 1
152 1 5.7871550093152848e+00 5.0514061302002862e+00 1.0178757456961552e+01 -1 0 0
1779 1 1.8660199067610608e+00 8.5784326570972649e+00 9.3937128345178280e+00 -3 3 1
1656 1 4.3195829725077823e+00 9.4650923354664371e+00 1.0395693597855287e+01 7 4 1
3499 1 8.7147259012325460e+00 8.9934711186228782e+00 1.0215095982295486e+01 -2 2 0
6267 1 9.0943943649915902e+00 1.2073933188757952e+01 6.7048430113063953e+00 3 -2 1
6072 1 9.4668419992748341e+00 1.4198645146498862e+01 3.0062436218558788e+00 -3 4 1
5195 1 7.0933137413149634e+00 1.0664236236969125e+00 2.2841083811873881e+00 3 4 0
4964 1 2.8481626603480050e+00 1.3572319837025297e+00 2.2743247134594484e+00 0 2 1
3209 1 4.7159685632466086e+00 1.4566306863907313e-01 9.3597197375896783e+00 0 -2 0
4474 1 9.4646326374682523e+00 1.4390767673838216e+01 5.5903552649021471e+00 -1 3 1
2954 1 1.9852043133365429e+00 6.0664377065177080e+00 2.1299621805067233e+00 4 5 1
3162 1 2.7251181588506568e+00 1.6888775521247641e+00 1.2912195761119603e+01 0 2 0
3652 1 3.4065537478029823e-01 7.7949966716356711e-01 1.3784157446911106e+01 2 5 0
405 1 7.1391826148529214e+00 1.0480566951670125e+00 1.3120514500896594e+01 -4 2 0
3649 1 7.8073475271821184e+00 3.4739764675320535e+00 1.3669772619329764e+01 -2 -2 0
6093 1 7.1506730914568282e+00 1.0171374212873805e+00 2.0215536705931974e+01 1 3 1
3574 1 3.4738546068296947e+00 4.2225081752348528e+00 1.3746117612013954e+01 2 0 0
1674 1 1.3449076679847347e+00 6.0132848961395764e+00 1.2993322958599311e+01 5 2 0
5096 1 5.8873627673841566e+00 5.1920714209891408e+00 1.2992839760112965e+01 2 3 0
3234 1 6.0364066061757464e+00 7.8818330138113906e+00 1.4189525019689581e+01 -4 5 0
6122 1 1.7856635403086401e+00 8.6437683898257323e+00 1.4005736042370946e+01 1 3 1
3271 1 4.3064068301637421e+00 9.3207268731260449e+00 1.3075908892674384e+01 0 0 1
4916 1 8.2927820315512299e+00 9.1935014943760827e+00 1.3221431524385324e+01 -4 -2 1
5146 1 8.9962142031867192e+00 1.1754101636994834e+01 1.3893243159749256e+01 2 -1 0
3287 1 5.0036975873127769e+00 1.1869781800546557e+01 1.3609341612584148e+01 1 -2 0
5305 1 2.6696688821373358e+00 1.3989893214090605e+01 1.2891133852523486e+01 -2 -1 1
6131 1 4.6236013217133021e-01 1.3196722146441294e+01 1.3762219167560318e+01 3 -1 1
6186 1 7.8629097221974931e+00 1.6203764674730767e+01 1.3991561337597830e+01 0 5 0
1282 1 7.1598968288296394e+00 1.3358461091567069e+01 1.2914745254014107e+01 -2 2 1
4550 1 4.4109821236860164e-01 5.4142747051983098e-01 1.6485072239222703e+01 -3 3 1
72 1 2.7710532455055086e+00 1.7739287814375089e+00 1.7236012074341527e+01 1 -2 0
327 1 8.9872548185285108e+00 1.1796118223909993e+01 1.6876994647785189e+01 3 3 0
1940 1 7.2240253389315106e+00 9.8610630993577941e-01 1.7276187806065955e+01 2 3 0
2893 1 7.9380513557412424e+00 3.4079714935043497e+00 1.6242780315436484e+01 -5 5 1
3077 1 8.8759503099063874e-01 1.3039097179651476e+01 1.6525843200262042e+01 1 -1 1
4839 1 7.1675101420412242e+00 1.3206522185994908e+01 2.0611100490754467e+01 2 -3 1
1820 1 3.3394678398923552e+00 4.5008558750689653e+00 1.6637245980257443e+01 2 -1 1
4976 1 1.7141824276700590e+00 6.3274998584392721e+00 1.7487766151571876e+01 1 3 0
3318 1 8.8175859640329417e+00 8.8663291959832922e+00 2.0297527100946876e+01 3 0 0
5246 1 5.8861930432076344e+00 5.4142148915625663e+00 2.0230809881046842e+01 3 4 1
81 1 6.0898722924157260e+00 5.0098241406769848e+00 1.7387798846953302e+01 -3 -3 -1
3516 1 6.4695567843307487e+00 7.7526441999437923e+00 1.7071387373445297e+01 1 1 0
1499 1 7.1027391982645511e+00 1.3363756516930570e+01 1.7833887880519512e+01 0 1 0
3651 1 4.8971360135587796e+00 1.3738288908204341e-01 1.6307758650412602e+01 2 -3 1
3491 1 1.8491621045856612e+00 8.9812236565446035e+00 1.6655946408917039e+01 0 -2 0
1513 1 4.3215722308663871e+00 9.7660819507424925e+00 1.7520244181470474e+01 1 5 1
4526 1 5.0608947708636842e+00 1.2161044347860919e+01 1.6443554458308963e+01 0 0 1
4791 1 1.5766045854249096e+00 6.1665230379405020e+00 2.0245593457782579e+01 2 5 0
6234 1 8.8046196224761655e+00 9.1794888332305167e+00 1.7572603720322512e+01 3 -2 1
3396 1 8.2728961518640412e-02 1.0338635016594072e+01 2.0299644469052300e+01 5 3 0
1383 1 3.1884819109519595e+00 1.4057908453197392e+01 2.0248383360856618e+01 3 -1 1
1846 1 3.1863257692427691e+00 1.3957165450452102e+01 1.7442690466039185e+01 2 0 0
1802 1 2.7743683547702660e+00 2.3014808920094709e+00 2.0034365693687789e+01 3 4 0
1489 1 7.7898800880967665e+00 1.5738755940180026e+01 1.6709841593378890e+01 3 4 0
2012 1 4.3532758778903693e+00 9.5514910839804585e+00 2.0349729948075510e+01 4 2 0
1834 1 8.6189916592276894e-01 1.1250724600291981e+00 2.3550916106904939e+01 -1 -1 0
1884 1 1.4000319925462998e+00 3.8823686084259954e+00 2.4171523831226775e+01 1 -1 0
765 2 8.6135000000000002e+00 1.4919019630994494e+01 2.6698788534891367e+01 0 0 0
5169 1 6.4963645079901662e+00 3.1257610768953481e+00 2.4203589546246036e+01 0 3 0
3592 1 7.7223948777180444e+00 3.6288362252684032e+00 2.1219320437386489e+01 -3 -1 0
3455 1 5.6715427260833637e+00 4.2172275695219502e-01 2.4071501960399651e+01 2 2 0
1746 1 2.1358269120104665e+00 8.6024871939359731e+00 2.1301694031744283e+01 3 3 0
3213 1 4.0918587668549158e+00 4.6134760683230693e+00 2.3998816426380355e+01 -1 3 1
4895 1 4.9579783509873945e+00 7.2205786955874940e+00 2.4151753744342400e+01 2 1 0
3326 1 9.2362138337901385e+00 1.1442794703634936e+01 2.1141178582883391e+01 1 -4 0
5258 1 6.2499272508302512e+00 7.8725904093003685e+00 2.1261402453369474e+01 2 -3 1
5236 1 9.0935576406821781e+00 4.3282977426888136e+00 2.3713069049100582e+01 -1 -3 0
5157 1 4.8151467747501977e+00 1.1954650856863417e+01 2.1130445014435367e+01 -2 2 0
356 1 2.5405131869415456e+00 8.6524151773580513e+00 2.3969529509779345e+01 5 0 1
397 1 2.8480033431307739e+00 1.1345197669209323e+01 2.3799872817967035e+01 -2 2 1
673 2 4.9220000000000006e+00 1.5629449137232333e+01 2.6698788534891367e+01 0 0 0
523 1 7.5725447923969940e+00 8.4400829674095981e+00 2.4079520176857919e+01 1 1 1
4571 1 8.0232154373707516e+00 1.1231825913359408e+01 2.3744314764254131e+01 0 2 1
3288 1 3.6653137091732266e+00 4.4053054451986711e+00 2.1306612711872653e+01 2 1 0
1905 1 4.8115061531452175e-01 1.3095316128028546e+01 2.1023721761488073e+01 0 -1 0
6278 1 1.0459805569354206e+00 1.3287487860506891e+01 2.3631929268430468e+01 3 4 1
5997 1 1.4041449745452641e+00 1.5888093695332666e+01 2.4362348717752312e+01 -1 1 1
6117 1 5.6809225837847750e+00 1.2442317315921139e+01 2.4185106836344687e+01 0 0 1
65 1 6.1428824725285480e+00 1.5191828595422752e+01 2.3796457144957810e+01 -4 -3 0
2838 1 4.2553845040028665e-01 9.9885157722027695e-01 2.0784526897156951e+01 0 -1 1
552 2 0.0000000000000000e+00 2.8417180249513345e+00 2.6698788534891367e+01 0 0 0
554 2 0.0000000000000000e+00 0.0000000000000000e+00 2.6698788534891367e+01 0 0 0
556 2 1.2305000000000001e+00 7.1042950623783474e-01 2.6698788534891367e+01 0 0 0
563 2 1.2305000000000001e+00 2.1312885187134998e+00 2.6698788534891367e+01 0 0 0
565 2 2.4610000000000003e+00 2.8417180249513345e+00 2.6698788534891367e+01 0 0 0
567 2 2.4610000000000003e+00 0.0000000000000000e+00 2.6698788534891367e+01 0 0 0
569 2 3.6915000000000004e+00 7.1042950623783474e-01 2.6698788534891367e+01 0 0 0
584 2 3.6914999999999996e+00 2.1312885187134998e+00 2.6698788534891367e+01 0 0 0
586 2 4.9220000000000006e+00 2.8417180249513332e+00 2.6698788534891367e+01 0 0 0
588 2 4.9220000000000006e+00 0.0000000000000000e+00 2.6698788534891367e+01 0 0 0
590 2 6.1524999999999999e+00 7.1042950623783407e-01 2.6698788534891367e+01 0 0 0
613 2 6.1524999999999999e+00 2.1312885187134989e+00 2.6698788534891367e+01 0 0 0
615 2 7.3829999999999991e+00 2.8417180249513345e+00 2.6698788534891367e+01 0 0 0
617 2 7.3829999999999991e+00 0.0000000000000000e+00 2.6698788534891367e+01 0 0 0
619 2 8.6134999999999984e+00 7.1042950623783407e-01 2.6698788534891367e+01 0 0 0
650 2 8.6134999999999984e+00 2.1312885187135002e+00 2.6698788534891367e+01 0 0 0
559 2 0.0000000000000000e+00 4.2625770374269996e+00 2.6698788534891367e+01 0 0 0
561 2 1.2305000000000001e+00 4.9730065436648339e+00 2.6698788534891367e+01 0 0 0
576 2 1.2305000000000001e+00 6.3938655561404980e+00 2.6698788534891367e+01 0 0 0
580 2 2.4610000000000003e+00 4.2625770374269996e+00 2.6698788534891367e+01 0 0 0
582 2 3.6914999999999996e+00 4.9730065436648339e+00 2.6698788534891367e+01 0 0 0
605 2 3.6914999999999996e+00 6.3938655561404980e+00 2.6698788534891367e+01 0 0 0
557 2 0.0000000000000000e+00 7.1042950623783341e+00 2.6698788534891367e+01 0 0 0
578 2 2.4610000000000003e+00 7.1042950623783341e+00 2.6698788534891367e+01 0 0 0
609 2 4.9220000000000006e+00 4.2625770374269978e+00 2.6698788534891367e+01 0 0 0
611 2 6.1524999999999999e+00 4.9730065436648339e+00 2.6698788534891367e+01 0 0 0
642 2 6.1524999999999999e+00 6.3938655561404980e+00 2.6698788534891367e+01 0 0 0
646 2 7.3829999999999991e+00 4.2625770374269996e+00 2.6698788534891367e+01 0 0 0
648 2 8.6135000000000002e+00 4.9730065436648339e+00 2.6698788534891367e+01 0 0 0
687 2 8.6135000000000002e+00 6.3938655561404980e+00 2.6698788534891367e+01 0 0 0
607 2 4.9220000000000006e+00 7.1042950623783341e+00 2.6698788534891367e+01 0 0 0
644 2 7.3830000000000009e+00 7.1042950623783341e+00 2.6698788534891367e+01 0 0 0
572 2 0.0000000000000000e+00 8.5251540748539991e+00 2.6698788534891367e+01 0 0 0
574 2 1.2305000000000001e+00 9.2355835810918343e+00 2.6698788534891367e+01 0 0 0
601 2 2.4610000000000003e+00 8.5251540748539991e+00 2.6698788534891367e+01 0 0 0
603 2 3.6915000000000004e+00 9.2355835810918343e+00 2.6698788534891367e+01 0 0 0
570 2 0.0000000000000000e+00 1.1366872099805333e+01 2.6698788534891367e+01 0 0 0
597 2 1.2305000000000001e+00 1.0656442593567498e+01 2.6698788534891367e+01 0 0 0
599 2 2.4610000000000003e+00 1.1366872099805333e+01 2.6698788534891367e+01 0 0 0
634 2 3.6914999999999996e+00 1.0656442593567499e+01 2.6698788534891367e+01 0 0 0
726 2 8.6134999999999984e+00 1.0656442593567498e+01 2.6698788534891367e+01 0 0 0
638 2 4.9220000000000006e+00 8.5251540748539991e+00 2.6698788534891367e+01 0 0 0
640 2 6.1524999999999999e+00 9.2355835810918343e+00 2.6698788534891367e+01 0 0 0
683 2 7.3830000000000009e+00 8.5251540748539991e+00 2.6698788534891367e+01 0 0 0
685 2 8.6134999999999984e+00 9.2355835810918343e+00 2.6698788534891367e+01 0 0 0
636 2 4.9220000000000006e+00 1.1366872099805333e+01 2.6698788534891367e+01 0 0 0
679 2 6.1524999999999999e+00 1.0656442593567499e+01 2.6698788534891367e+01 0 0 0
681 2 7.3829999999999991e+00 1.1366872099805333e+01 2.6698788534891367e+01 0 0 0
626 2 1.2305000000000001e+00 1.4919019630994494e+01 2.6698788534891367e+01 0 0 0
632 2 3.6915000000000004e+00 1.3498160618518829e+01 2.6698788534891367e+01 0 0 0
595 2 1.2305000000000001e+00 1.3498160618518829e+01 2.6698788534891367e+01 0 0 0
591 2 0.0000000000000000e+00 1.5629449137232333e+01 2.6698788534891367e+01 0 0 0
593 2 0.0000000000000000e+00 1.2787731112280996e+01 2.6698788534891367e+01 0 0 0
671 2 3.6915000000000004e+00 1.4919019630994494e+01 2.6698788534891367e+01 0 0 0
630 2 2.4610000000000003e+00 1.2787731112280996e+01 2.6698788534891367e+01 0 0 0
628 2 2.4610000000000003e+00 1.5629449137232328e+01 2.6698788534891367e+01 0 0 0
675 2 4.9220000000000006e+00 1.2787731112280996e+01 2.6698788534891367e+01 0 0 0
724 2 8.6135000000000002e+00 1.3498160618518835e+01 2.6698788534891367e+01 0 0 0
718 2 6.1524999999999990e+00 1.4919019630994494e+01 2.6698788534891367e+01 0 0 0
720 2 7.3829999999999991e+00 1.5629449137232333e+01 2.6698788534891367e+01 0 0 0
677 2 6.1524999999999990e+00 1.3498160618518829e+01 2.6698788534891367e+01 0 0 0
722 2 7.3829999999999991e+00 1.2787731112280996e+01 2.6698788534891367e+01 0 0 0
1783 1 7.5503631343395039e+00 1.5807155476281348e+01 2.1246506310071950e+01 1 -3 0
6079 1 4.6130764166203733e+00 2.0269542810035407e-01 2.1280169645078978e+01 1 1 1
3494 1 9.0651845002055040e+00 1.6262695704269401e+01 2.4026825876147218e+01 1 -3 0
553 2 0.0000000000000000e+00 1.4208590124756650e+00 3.0031000000002560e+01 0 0 0
555 2 0.0000000000000000e+00 0.0000000000000000e+00 3.0031000000002560e+01 0 0 0
564 2 1.2305000000000001e+00 2.1312885187134998e+00 3.0031000000002560e+01 0 0 0
566 2 2.4610000000000003e+00 1.4208590124756650e+00 3.0031000000002560e+01 0 0 0
568 2 2.4610000000000003e+00 0.0000000000000000e+00 3.0031000000002560e+01 0 0 0
585 2 3.6914999999999996e+00 2.1312885187134998e+00 3.0031000000002560e+01 0 0 0
562 2 1.2305000000000001e+00 3.5521475311891644e+00 3.0031000000002560e+01 0 0 0
583 2 3.6914999999999996e+00 3.5521475311891644e+00 3.0031000000002560e+01 0 0 0
881 2 0.0000000000000000e+00 2.8417180249513345e+00 3.3363211465091588e+01 0 0 0
882 2 0.0000000000000000e+00 0.0000000000000000e+00 3.3363211465091588e+01 0 0 0
883 2 1.2305000000000001e+00 7.1042950623783474e-01 3.3363211465091588e+01 0 0 0
887 2 1.2305000000000001e+00 2.1312885187134998e+00 3.3363211465091588e+01 0 0 0
888 2 2.4610000000000003e+00 2.8417180249513345e+00 3.3363211465091588e+01 0 0 0
889 2 2.4610000000000003e+00 0.0000000000000000e+00 3.3363211465091588e+01 0 0 0
890 2 3.6915000000000004e+00 7.1042950623783474e-01 3.3363211465091588e+01 0 0 0
898 2 3.6914999999999996e+00 2.1312885187134998e+00 3.3363211465091588e+01 0 0 0
587 2 4.9220000000000006e+00 1.4208590124756650e+00 3.0031000000002560e+01 0 0 0
589 2 4.9220000000000006e+00 0.0000000000000000e+00 3.0031000000002560e+01 0 0 0
614 2 6.1524999999999999e+00 2.1312885187134989e+00 3.0031000000002560e+01 0 0 0
616 2 7.3829999999999991e+00 1.4208590124756659e+00 3.0031000000002560e+01 0 0 0
618 2 7.3829999999999991e+00 0.0000000000000000e+00 3.0031000000002560e+01 0 0 0
651 2 8.6134999999999984e+00 2.1312885187135002e+00 3.0031000000002560e+01 0 0 0
612 2 6.1524999999999999e+00 3.5521475311891644e+00 3.0031000000002560e+01 0 0 0
649 2 8.6134999999999984e+00 3.5521475311891657e+00 3.0031000000002560e+01 0 0 0
899 2 4.9220000000000006e+00 2.8417180249513332e+00 3.3363211465091588e+01 0 0 0
900 2 4.9220000000000006e+00 0.0000000000000000e+00 3.3363211465091588e+01 0 0 0
901 2 6.1524999999999999e+00 7.1042950623783407e-01 3.3363211465091588e+01 0 0 0
913 2 6.1524999999999999e+00 2.1312885187134989e+00 3.3363211465091588e+01 0 0 0
914 2 7.3829999999999991e+00 2.8417180249513345e+00 3.3363211465091588e+01 0 0 0
915 2 7.3829999999999991e+00 0.0000000000000000e+00 3.3363211465091588e+01 0 0 0
916 2 8.6134999999999984e+00 7.1042950623783407e-01 3.3363211465091588e+01 0 0 0
932 2 8.6134999999999984e+00 2.1312885187135002e+00 3.3363211465091588e+01 0 0 0
558 2 0.0000000000000000e+00 5.6834360499026637e+00 3.0031000000002560e+01 0 0 0
560 2 0.0000000000000000e+00 4.2625770374269996e+00 3.0031000000002560e+01 0 0 0
577 2 1.2305000000000001e+00 6.3938655561404980e+00 3.0031000000002560e+01 0 0 0
579 2 2.4610000000000003e+00 5.6834360499026637e+00 3.0031000000002560e+01 0 0 0
581 2 2.4610000000000003e+00 4.2625770374269996e+00 3.0031000000002560e+01 0 0 0
606 2 3.6914999999999996e+00 6.3938655561404980e+00 3.0031000000002560e+01 0 0 0
575 2 1.2305000000000001e+00 7.8147245686161639e+00 3.0031000000002560e+01 0 0 0
604 2 3.6914999999999996e+00 7.8147245686161639e+00 3.0031000000002560e+01 0 0 0
885 2 0.0000000000000000e+00 4.2625770374269996e+00 3.3363211465091588e+01 0 0 0
886 2 1.2305000000000001e+00 4.9730065436648339e+00 3.3363211465091588e+01 0 0 0
894 2 1.2305000000000001e+00 6.3938655561404980e+00 3.3363211465091588e+01 0 0 0
896 2 2.4610000000000003e+00 4.2625770374269996e+00 3.3363211465091588e+01 0 0 0
897 2 3.6914999999999996e+00 4.9730065436648339e+00 3.3363211465091588e+01 0 0 0
909 2 3.6914999999999996e+00 6.3938655561404980e+00 3.3363211465091588e+01 0 0 0
884 2 0.0000000000000000e+00 7.1042950623783341e+00 3.3363211465091588e+01 0 0 0
895 2 2.4610000000000003e+00 7.1042950623783341e+00 3.3363211465091588e+01 0 0 0
608 2 4.9220000000000006e+00 5.6834360499026637e+00 3.0031000000002560e+01 0 0 0
610 2 4.9220000000000006e+00 4.2625770374269978e+00 3.0031000000002560e+01 0 0 0
643 2 6.1524999999999999e+00 6.3938655561404980e+00 3.0031000000002560e+01 0 0 0
645 2 7.3829999999999991e+00 5.6834360499026637e+00 3.0031000000002560e+01 0 0 0
647 2 7.3829999999999991e+00 4.2625770374269996e+00 3.0031000000002560e+01 0 0 0
688 2 8.6135000000000002e+00 6.3938655561404980e+00 3.0031000000002560e+01 0 0 0
641 2 6.1524999999999999e+00 7.8147245686161639e+00 3.0031000000002560e+01 0 0 0
686 2 8.6135000000000002e+00 7.8147245686161639e+00 3.0031000000002560e+01 0 0 0
911 2 4.9220000000000006e+00 4.2625770374269978e+00 3.3363211465091588e+01 0 0 0
912 2 6.1524999999999999e+00 4.9730065436648339e+00 3.3363211465091588e+01 0 0 0
928 2 6.1524999999999999e+00 6.3938655561404980e+00 3.3363211465091588e+01 0 0 0
930 2 7.3829999999999991e+00 4.2625770374269996e+00 3.3363211465091588e+01 0 0 0
931 2 8.6135000000000002e+00 4.9730065436648339e+00 3.3363211465091588e+01 0 0 0
951 2 8.6135000000000002e+00 6.3938655561404980e+00 3.3363211465091588e+01 0 0 0
910 2 4.9220000000000006e+00 7.1042950623783341e+00 3.3363211465091588e+01 0 0 0
929 2 7.3830000000000009e+00 7.1042950623783341e+00 3.3363211465091588e+01 0 0 0
571 2 0.0000000000000000e+00 9.9460130873296642e+00 3.0031000000002560e+01 0 0 0
573 2 0.0000000000000000e+00 8.5251540748539991e+00 3.0031000000002560e+01 0 0 0
600 2 2.4610000000000003e+00 9.9460130873296642e+00 3.0031000000002560e+01 0 0 0
602 2 2.4610000000000003e+00 8.5251540748539991e+00 3.0031000000002560e+01 0 0 0
596 2 1.2305000000000001e+00 1.2077301606043163e+01 3.0031000000002560e+01 0 0 0
598 2 1.2305000000000001e+00 1.0656442593567498e+01 3.0031000000002560e+01 0 0 0
633 2 3.6914999999999996e+00 1.2077301606043163e+01 3.0031000000002560e+01 0 0 0
635 2 3.6914999999999996e+00 1.0656442593567499e+01 3.0031000000002560e+01 0 0 0
892 2 0.0000000000000000e+00 8.5251540748539991e+00 3.3363211465091588e+01 0 0 0
893 2 1.2305000000000001e+00 9.2355835810918343e+00 3.3363211465091588e+01 0 0 0
907 2 2.4610000000000003e+00 8.5251540748539991e+00 3.3363211465091588e+01 0 0 0
908 2 3.6915000000000004e+00 9.2355835810918343e+00 3.3363211465091588e+01 0 0 0
891 2 0.0000000000000000e+00 1.1366872099805333e+01 3.3363211465091588e+01 0 0 0
905 2 1.2305000000000001e+00 1.0656442593567498e+01 3.3363211465091588e+01 0 0 0
906 2 2.4610000000000003e+00 1.1366872099805333e+01 3.3363211465091588e+01 0 0 0
924 2 3.6914999999999996e+00 1.0656442593567499e+01 3.3363211465091588e+01 0 0 0
637 2 4.9220000000000006e+00 9.9460130873296642e+00 3.0031000000002560e+01 0 0 0
639 2 4.9220000000000006e+00 8.5251540748539991e+00 3.0031000000002560e+01 0 0 0
682 2 7.3830000000000009e+00 9.9460130873296642e+00 3.0031000000002560e+01 0 0 0
684 2 7.3830000000000009e+00 8.5251540748539991e+00 3.0031000000002560e+01 0 0 0
678 2 6.1524999999999999e+00 1.2077301606043163e+01 3.0031000000002560e+01 0 0 0
680 2 6.1524999999999999e+00 1.0656442593567499e+01 3.0031000000002560e+01 0 0 0
725 2 8.6135000000000002e+00 1.2077301606043163e+01 3.0031000000002560e+01 0 0 0
727 2 8.6134999999999984e+00 1.0656442593567498e+01 3.0031000000002560e+01 0 0 0
926 2 4.9220000000000006e+00 8.5251540748539991e+00 3.3363211465091588e+01 0 0 0
927 2 6.1524999999999999e+00 9.2355835810918343e+00 3.3363211465091588e+01 0 0 0
949 2 7.3830000000000009e+00 8.5251540748539991e+00 3.3363211465091588e+01 0 0 0
950 2 8.6134999999999984e+00 9.2355835810918343e+00 3.3363211465091588e+01 0 0 0
925 2 4.9220000000000006e+00 1.1366872099805333e+01 3.3363211465091588e+01 0 0 0
947 2 6.1524999999999999e+00 1.0656442593567499e+01 3.3363211465091588e+01 0 0 0
948 2 7.3829999999999991e+00 1.1366872099805333e+01 3.3363211465091588e+01 0 0 0
971 2 8.6134999999999984e+00 1.0656442593567498e+01 3.3363211465091588e+01 0 0 0
594 2 0.0000000000000000e+00 1.2787731112280996e+01 3.0031000000002560e+01 0 0 0
631 2 2.4610000000000003e+00 1.2787731112280996e+01 3.0031000000002560e+01 0 0 0
592 2 0.0000000000000000e+00 1.4208590124756663e+01 3.0031000000002560e+01 0 0 0
627 2 1.2305000000000001e+00 1.4919019630994494e+01 3.0031000000002560e+01 0 0 0
629 2 2.4610000000000003e+00 1.4208590124756663e+01 3.0031000000002560e+01 0 0 0
672 2 3.6915000000000004e+00 1.4919019630994494e+01 3.0031000000002560e+01 0 0 0
903 2 0.0000000000000000e+00 1.2787731112280996e+01 3.3363211465091588e+01 0 0 0
904 2 1.2305000000000001e+00 1.3498160618518829e+01 3.3363211465091588e+01 0 0 0
922 2 2.4610000000000003e+00 1.2787731112280996e+01 3.3363211465091588e+01 0 0 0
923 2 3.6915000000000004e+00 1.3498160618518829e+01 3.3363211465091588e+01 0 0 0
902 2 0.0000000000000000e+00 1.5629449137232333e+01 3.3363211465091588e+01 0 0 0
920 2 1.2305000000000001e+00 1.4919019630994494e+01 3.3363211465091588e+01 0 0 0
921 2 2.4610000000000003e+00 1.5629449137232328e+01 3.3363211465091588e+01 0 0 0
943 2 3.6915000000000004e+00 1.4919019630994494e+01 3.3363211465091588e+01 0 0 0
676 2 4.9220000000000006e+00 1.2787731112280996e+01 3.0031000000002560e+01 0 0 0
723 2 7.3829999999999991e+00 1.2787731112280996e+01 3.0031000000002560e+01 0 0 0
674 2 4.9220000000000006e+00 1.4208590124756663e+01 3.0031000000002560e+01 0 0 0
719 2 6.1524999999999990e+00 1.4919019630994494e+01 3.0031000000002560e+01 0 0 0
721 2 7.3830000000000009e+00 1.4208590124756663e+01 3.0031000000002560e+01 0 0 0
766 2 8.6135000000000002e+00 1.4919019630994494e+01 3.0031000000002560e+01 0 0 0
945 2 4.9220000000000006e+00 1.2787731112280996e+01 3.3363211465091588e+01 0 0 0
946 2 6.1524999999999990e+00 1.3498160618518829e+01 3.3363211465091588e+01 0 0 0
969 2 7.3829999999999991e+00 1.2787731112280996e+01 3.3363211465091588e+01 0 0 0
970 2 8.6135000000000002e+00 1.3498160618518835e+01 3.3363211465091588e+01 0 0 0
944 2 4.9220000000000006e+00 1.5629449137232333e+01 3.3363211465091588e+01 0 0 0
967 2 6.1524999999999990e+00 1.4919019630994494e+01 3.3363211465091588e+01 0 0 0
968 2 7.3829999999999991e+00 1.5629449137232333e+01 3.3363211465091588e+01 0 0 0
991 2 8.6135000000000002e+00 1.4919019630994494e+01 3.3363211465091588e+01 0 0 0
3169 1 3.1640787503411940e+00 1.4302783569831075e+00 3.6448698657021467e+01 -3 0 0
4994 1 9.1029533004402019e-01 3.3604071744737762e-01 3.5824012857037118e+01 -2 1 0
5252 1 4.1761055214094966e+00 1.6251925752806695e+01 3.8713540474988960e+01 1 6 0
78 1 3.4077958912102759e+00 1.6140100405489488e+01 3.6140718926580888e+01 1 -2 0
1391 1 8.0152000221839756e+00 3.0884570064689671e+00 3.5773166718405506e+01 -1 3 0
1346 1 7.4152551416444030e+00 5.9823070530045752e-01 3.6638928405941684e+01 -1 1 0
6111 1 3.5248050649781324e+00 4.1056243503406664e+00 3.5865774966758167e+01 5 -5 0
99 1 1.5627803998320249e+00 5.9827978038513514e+00 3.6366836761552179e+01 -4 1 -1
3099 1 6.2251054409441862e+00 4.9356327378865723e+00 3.6541610540194483e+01 0 2 0
6200 1 6.2773164026569237e+00 7.6414209635584616e+00 3.5569363702169909e+01 0 0 0
4815 1 2.0400500139545965e+00 8.4126099984869960e+00 3.5602543209489326e+01 4 6 -1
1960 1 4.5404169287528813e+00 9.2508439149673745e+00 3.6651509708719033e+01 0 -1 -1
2071 1 4.8794134686706840e+00 1.1794135819701820e+01 3.6261635755087127e+01 -1 1 0
116 1 9.5566420358447211e+00 1.1274303052765458e+01 3.5878710489225881e+01 0 0 0
1895 1 8.8322440519604317e+00 8.5038464854864646e+00 3.6166819373475903e+01 -1 1 -1
1752 1 2.4124685099752469e-01 1.2682474428996111e+01 3.5767222053380735e+01 0 0 -1
4609 1 2.7184403777938115e+00 1.3479495062634575e+01 3.6825543619390444e+01 -1 -3 -1
3500 1 7.3996533907617890e+00 1.2608130949257102e+01 3.6133618359946396e+01 -2 2 -1
5132 1 8.1805550274347336e+00 1.5443659230119430e+01 3.6099021708089282e+01 0 -2 0
3657 1 2.0991371116934374e-02 1.0021825218884848e+01 3.6495335461477779e+01 -1 5 -1
1708 1 8.8281486065628005e+00 8.3308825957043258e+00 3.9113542956512788e+01 -2 1 -1
4507 1 9.1967008363980121e+00 1.5393993597789677e+01 3.8798256176937358e+01 -1 3 0
3525 1 5.8429005002836778e+00 5.1420393960901336e+00 3.9203496555353681e+01 -1 3 -1
5954 1 6.9767878751414658e+00 1.2614596877547442e+01 3.9000062941883940e+01 3 1 0
3347 1 1.3678831308648587e+00 5.8327694827948431e+00 3.9129830446386876e+01 -1 3 -1
1735 1 3.0754142617494105e+00 1.6884961724543586e+00 3.9299480069470988e+01 2 -1 -1
4559 1 9.4138327026980551e-01 3.0780953583362041e+00 4.2873279815937053e+01 1 -1 0
1567 1 1.1874455880690684e+00 3.3308767323983588e+00 4.0239866720050685e+01 -2 2 -1
3251 1 5.1568979544007512e+00 2.4693959237994392e+00 4.3033675170338995e+01 -1 1 0
6173 1 5.2847994231765796e+00 2.4336037217212474e+00 4.0134389647689872e+01 2 0 0
4513 1 7.2888689769320587e+00 3.4688725532892626e+00 4.3936789763921482e+01 1 2 -1
5124 1 8.9854888222655784e+00 1.0706149165536575e+01 4.6658294361366842e+01 0 -4 -1
5087 1 2.6127765438341028e+00 1.3397768088622316e+01 4.7789593116363676e+01 -1 2 -1
3186 1 4.0412602740325418e+00 6.3613829919844465e+00 4.2988140018511743e+01 1 -3 -1
4432 1 3.8078823399431143e+00 6.5787983124159561e+00 4.0141047788725189e+01 6 -2 0
3003 1 7.4400093332772279e+00 1.4800193587643353e+01 4.6627120931951964e+01 2 2 -1
3293 1 2.9770970559852956e+00 1.5948505492177851e+01 4.6771852046851151e+01 1 1 -1
525 1 8.5042600858597925e+00 5.9060443121086852e+00 4.0172733182341190e+01 1 1 0
270 1 8.1573183829408880e+00 6.1086123245735102e+00 4.2719179344005994e+01 -3 -2 0
3714 1 2.1284399156586717e+00 1.0571221454862266e+01 4.0527039897811648e+01 2 5 -1
5321 1 2.2149112080048496e+00 1.0459481752855266e+01 4.3172178357949235e+01 -1 0 0
4576 1 2.0063437824651920e+00 7.9418725313743970e+00 4.3833190520375013e+01 -1 4 0
6108 1 2.6864409537374956e-01 1.4733253299050730e+01 4.2860381753115931e+01 -1 -2 0
5977 1 6.4486103099797223e+00 1.0201011608323665e+01 4.2895005473866973e+01 3 -3 0
1985 1 6.6931040122278684e+00 9.8438587241438640e+00 4.0184389472479040e+01 0 -1 -1
1468 1 8.8294328661082009e+00 1.0709476537267683e+01 4.3982246409859854e+01 5 2 0
5101 1 7.0674040797463169e+00 1.2523897078030462e+01 4.7719918350803496e+01 0 -1 0
2808 1 4.8487049056568017e+00 1.4092322602505547e+01 4.3076435048575476e+01 -1 2 0
1581 1 1.3970524905508364e-01 1.2376930769941268e+01 4.6975477395650842e+01 0 -4 -1
113 1 7.4257645901245182e+00 1.4515647635508000e+01 4.4027193954316317e+01 -1 3 0
5213 1 4.8498812152791677e+00 1.3891707875309638e+01 4.0096062489181989e+01 -1 1 -1
4861 1 9.3524343784412807e+00 1.3152736178062195e+01 4.2797775261777716e+01 -2 -1 -1
1944 1 9.3434663166681489e+00 1.3165126405559928e+01 4.0187638939967130e+01 2 -3 -1
2060 1 7.6923446069830508e+00 8.0351408372385225e-01 3.9510223963429794e+01 1 1 0