LAMMPS data file via write_data, version 16 Mar 2018, timestep = 100000

6328 atoms
2 atom types

0.0000000000000000e+00 4.9219999999999999e+01 xlo xhi
0.0000000000000000e+00 4.9019635930410494e+01 ylo yhi
3.6244716971647577e+00 5.6437528302834806e+01 zlo zhi

Masses

1 18.015
2 12.01

Atoms # atomic

332 1 3.3618535613387812e+00 1.3695521212958084e+00 4.6458570996881372e+00 0 1 0
1738 1 1.5760339098222766e+00 5.6832880423078302e-01 7.0976633895475345e+00 1 0 0
4740 1 7.6274711524345129e+00 1.4652804386437019e+00 6.1590053819566943e+00 1 0 0
3082 1 4.9930894640041528e+00 3.5143279124149117e-03 6.6662350767408469e+00 0 1 0
4931 1 6.2420452501371999e+00 6.8189993320305051e+00 4.1649670981028635e+00 0 0 1
2939 1 4.6733367416197780e+00 3.9754118444355031e+00 4.6750681833063013e+00 0 1 0
4804 1 2.4267338512109546e+00 1.5909775981136862e+01 1.0420127644053359e+01 0 1 1
249 1 6.3267978298438088e-01 8.6147870227371168e+00 9.0352896169575345e+00 1 0 0
4478 1 6.3930785399716568e+00 6.8182136770417721e+00 7.8008551909493766e+00 1 0 0
1537 1 9.4158790211300634e+00 4.6700485415237072e+00 7.7238659494043302e+00 1 1 1
1590 1 6.6937478719487942e+00 1.6664340018672990e+00 1.1275368801982212e+01 0 0 0
1944 1 5.2688069507856650e+00 1.5625662910746145e+01 9.9012411099945616e+00 1 0 0
5316 1 6.6013607376531471e+00 1.0688087242993124e+01 8.0645812997987480e+00 1 1 1
6008 1 2.9869045650965820e+00 9.8986894018691611e+00 1.1731770050413202e+01 1 0 0
5246 1 2.1043278880732310e+00 5.4551832639525060e+00 1.2150442944142526e+01 0 1 1
1333 1 7.3695690439841472e+00 8.6776632827598394e+00 5.9883760477616184e+00 2 0 1
1799 1 8.0811475754082434e+00 9.9798170522981593e+00 1.0449607618445025e+01 0 0 0
4417 1 3.1538621460919734e+00 1.3564931629023979e+01 6.7937602901130631e+00 1 1 1
1350 1 1.1722625739083468e+00 1.3810725677664376e+01 8.7931104158814009e+00 0 -2 0
1377 1 8.8904609180505236e+00 1.2195116022212501e+01 5.1171951180686444e+00 0 0 1
4430 1 8.6077315590082755e+00 5.2589839892350021e+00 4.9479674444322512e+00 1 -1 1
3153 1 7.6662704504410693e+00 1.3008060765917573e+01 7.6286090588553899e+00 0 0 1
6264 1 9.7481468219914529e+00 1.4492171199542815e+01 8.7803603652091553e+00 0 0 1
58 1 9.0912128592720431e-01 7.8413778932193692e+00 5.9731094336660844e+00 0 0 0
2085 1 7.4919907356078079e+00 1.4499349370250700e+01 3.9896993773469003e+00 0 0 1
3583 1 2.0799116098251815e+00 2.1066098585346658e+00 9.7823286875989215e+00 1 1 1
201 1 4.8383259859449970e+00 1.0545929099562004e+01 3.9891294079032313e+00 0 0 0
4405 1 5.0368152518045424e+00 1.2077748714709295e+00 9.3924590205671592e+00 -1 1 1
6009 1 7.7140317823504096e+00 4.6575849578979067e+00 1.0200177815658900e+01 1 1 0
5044 1 2.0449439824197841e+00 1.5088683576204986e+01 4.4685286130884663e+00 0 0 0
5995 1 3.3818107903288399e+00 6.7478372636296164e+00 7.6767463025248821e+00 -1 0 1
3566 1 1.9694167623271339e+00 5.0793202243067368e+00 9.3209064528054277e+00 1 -1 0
2803 1 6.4810054257112970e+00 3.8789635537492364e+00 6.9063347082764945e+00 1 0 0
4992 1 5.6557016994647480e+00 1.4870447048855489e+01 7.0955778398483380e+00 1 0 1
3361 1 4.7126775435601278e+00 4.1963726862530661e+00 9.5183803721348035e+00 0 0 0
4669 1 1.3805056003828498e+00 1.0520981381322843e+01 6.5791054266858175e+00 0 0 1
6061 1 3.5623293495668085e+00 9.2586480992933229e+00 8.9163979220333971e+00 0 1 0
6195 1 4.2784250129567436e+00 1.1001761209450116e+01 6.5398464293759062e+00 0 0 1
1644 1 5.8336373628405562e+00 8.0404109256279011e+00 1.0274686938098277e+01 0 1 0
1373 1 1.5045722158171060e-01 1.2468303293759291e+01 1.1312453878357442e+01 0 1 1
6225 1 3.0023816420486305e+00 6.3127436963350005e+00 4.4404699694101870e+00 0 0 0
3014 1 9.3709880630971494e+00 2.4671523888692017e+00 1.0409232101734917e+01 0 1 1
4747 1 8.5316405414410568e+00 1.4517764481467347e+01 1.1542566629603183e+01 -1 1 1
3551 1 4.5878035172042214e-01 1.1193246687270520e+01 4.1908320530613308e+00 1 1 0
6227 1 7.3240255248108053e+00 1.0290907179643145e+01 3.6679449366965802e+00 1 0 1
4530 1 2.6860661741225256e-01 1.5510487548138782e+01 1.5364033736195323e+01 1 1 1
1700 1 9.7452679652242384e+00 9.2817649357337242e+00 1.6065108520025802e+01 1 -1 1
185 1 9.2842210787300150e+00 2.4234005411824082e+00 1.5330485283702057e+01 -1 1 0
1764 1 6.9199857481954181e+00 1.1016684305712628e+01 1.2807408475855633e+01 -1 1 0
6175 1 5.0027647938513571e+00 2.1622219009008012e+00 1.3653750899549928e+01 0 0 1
5972 1 1.5838021332135059e+00 8.0096247856926084e+00 1.3112928524126248e+01 1 0 1
1654 1 7.7818830667541956e+00 7.9198088458476139e+00 1.9718397440523745e+01 1 0 0
4567 1 7.6983737100074900e-01 4.0841289313258793e+00 1.3957410222495341e+01 1 1 1
6062 1 6.5591751767399771e+00 6.7471957216886906e+00 1.2943275779869275e+01 1 1 0
5092 1 6.7951440657687048e+00 6.4078439078900464e+00 1.5863659021784606e+01 1 1 -1
296 1 8.7634273588005254e+00 1.3790805889806350e+01 1.6497592159587519e+01 1 0 1
3530 1 6.9917541608044065e+00 1.1935802033502028e+00 1.5223307566260690e+01 0 0 0
5306 1 4.8496375277163368e+00 6.2979102736561190e+00 1.7895119507409980e+01 1 0 1
4744 1 1.5185900145695996e+00 7.8716197794886060e+00 1.5814301439362012e+01 0 1 1
101 1 4.2310013748815196e+00 8.8548714002364921e+00 1.6025959748007956e+01 1 -1 0
20 1 7.3396250007568273e+00 8.7396776241306657e+00 1.7108848426124695e+01 0 0 0
4837 1 2.2098768658860548e+00 1.2436487133502393e+01 1.2908388313760547e+01 -1 0 0
5045 1 6.9553016271938688e+00 1.2205950735297076e+01 2.0686857297386410e+01 1 0 0
4665 1 2.0370507388502230e+00 1.3282670588434549e+01 1.8999003908044635e+01 0 1 0
3425 1 1.2589051077333553e+00 1.2792430630821274e+01 1.5671101719721040e+01 0 -1 0
6081 1 8.9193717844591394e+00 1.5727175678201446e+01 1.9599075951530633e+01 1 0 1
4673 1 7.2728575540857446e-02 1.4986984757654409e+00 1.3464290816777305e+01 0 0 1
342 1 7.1196234634391189e+00 2.1455559804692812e+00 1.9530010409310790e+01 0 0 0
4834 1 5.1804125704556743e+00 9.2065332725406144e+00 1.3344444431947588e+01 0 1 0
1404 1 4.5347789407641992e+00 1.2992507587264585e+01 1.6675032652983511e+01 2 0 0
6323 1 6.5525883795337911e+00 1.3392925423617367e+01 1.4569368305349530e+01 0 0 1
4687 1 5.4596495863033807e+00 9.2855777645800719e-01 1.7605950696979310e+01 -1 0 1
1346 1 3.1886210954648138e+00 1.8584849372423982e+00 1.6269369538813301e+01 1 1 1
420 1 6.6563654802585255e+00 1.3753312519365709e+01 1.8351284150596921e+01 -1 0 0
6240 1 3.1480197590217958e+00 1.0824605033950824e+01 1.7228477579742048e+01 1 1 1
6238 1 3.5375134293063044e+00 1.4787496594612637e+01 1.3204582845446801e+01 1 0 1
6262 1 7.5980728526630408e+00 5.0081158910442163e+00 1.8983478484168362e+01 1 0 0
3528 1 9.6430179101623850e+00 1.4734397187886175e+00 1.8056291200273787e+01 1 -1 0
43 1 1.2381352223650417e+00 8.7203754327646266e-02 1.7030789230708468e+01 0 0 0
1520 1 1.2120731633419033e+00 5.2636456329052148e+00 1.6633755581847900e+01 0 1 1
6005 1 3.2191250883491320e+00 4.0904292321003632e+00 1.7932515154899939e+01 0 1 1
484 1 5.0754479465976585e+00 7.8205794953251537e+00 2.0303149691722062e+01 0 1 1
2827 1 9.5956689286687027e+00 1.0448414323510214e+01 1.3615969894675336e+01 1 1 0
138 1 9.3190527571540702e+00 1.0759540004207420e+01 1.9585631869432987e+01 -1 1 1
5162 1 3.3301907046079546e+00 9.7660822335365651e+00 1.9778226031093546e+01 0 0 0
6190 1 2.1716353964536967e+00 2.3917221278581522e+00 2.0239963742757720e+01 1 1 0
5133 1 2.8476866236417231e+00 1.6034001168175248e+01 1.8930369121978089e+01 1 1 0
2934 1 9.5218435535718573e+00 5.2194894328597430e+00 1.5207635934942306e+01 0 0 1
5093 1 3.1109528649368823e+00 1.5415506869374761e+01 1.6236226187924245e+01 1 0 1
1804 1 4.7612511812632341e-01 3.3339185231450202e-01 1.9566942829065688e+01 1 0 0
2050 1 6.1562355159760935e+00 1.5765160499442407e+01 1.2737855186677059e+01 0 1 0
2098 1 8.9063421569823154e-01 8.9701357520981482e+00 2.1085297143902093e+01 0 1 0
6010 1 4.0211000916770372e+00 1.2107878945720460e+01 2.0925875799165272e+01 0 1 1
4444 1 9.4847547415286453e+00 5.7666871144577847e+00 1.2526301884154499e+01 1 0 1
6258 1 4.8730040496818585e+00 4.7600143354965470e+00 1.2434228576874089e+01 0 0 0
1769 1 8.7978978270583585e+00 3.8097446656629579e+00 2.4341003311650447e+01 0 -1 0
4998 1 7.1313368340734327e+00 1.5161689794204605e+01 2.1838050526059813e+01 -1 1 0
765 2 8.6135000000000002e+00 1.4919019630994494e+01 2.6879372721725566e+01 0 0 0
724 2 8.6135000000000002e+00 1.3498160618518835e+01 2.6879372721725566e+01 0 0 0
3216 1 7.1700555479571264e+00 7.1336889345049661e+00 2.3965370462631888e+01 1 0 0
6181 1 5.9034989645886053e+00 3.9146043104861947e+00 2.4797326202135970e+01 -1 0 1
720 2 7.3829999999999991e+00 1.5629449137232333e+01 2.6879372721725566e+01 0 0 0
5038 1 5.0146567041882388e+00 1.2175811284824229e+00 2.3950309328910574e+01 1 0 0
4821 1 1.2188762093140817e+00 4.8074390557971682e+00 2.1500965620081427e+01 1 1 1
134 1 1.4183195370452670e+00 5.7485857215684195e+00 2.4142520121496545e+01 2 -1 1
673 2 4.9220000000000006e+00 1.5629449137232333e+01 2.6879372721725566e+01 0 0 0
1345 1 4.2366739804391411e+00 6.2506507972894090e+00 2.4362002620451424e+01 0 0 1
3507 1 8.0212001679885176e+00 5.3555334100239333e+00 2.2062869568312621e+01 1 1 0
1297 1 4.0180294239223908e+00 5.4139858862356176e+00 2.1659175324586318e+01 0 0 1
537 1 1.1495849314554389e+00 8.3338908851308524e+00 2.3805275071612822e+01 0 1 1
1561 1 6.2853259942462305e+00 9.2396643202785942e+00 2.2571203577040642e+01 1 1 1
3469 1 3.6400397387923733e+00 9.4425850554271662e+00 2.4451749058231201e+01 -1 0 0
2927 1 9.8347438452149962e+00 1.1295233485947474e+01 2.4280077847405103e+01 0 0 1
282 1 1.3440837687578195e+00 1.3605833626770814e+01 2.4165544791596655e+01 0 1 0
5059 1 3.6451426636740991e+00 1.2157266692776744e+01 2.3800496754164566e+01 0 1 0
1945 1 2.6549798283276909e+00 1.4792668402482994e+01 2.1846097453684216e+01 0 0 0
677 2 6.1524999999999990e+00 1.3498160618518829e+01 2.6879372721725566e+01 0 0 0
3225 1 8.6589114659936257e+00 1.5625571525447599e+01 2.4268721775847833e+01 0 0 0
1765 1 7.2114270607438407e+00 1.1890571861637172e+01 2.3630762526419467e+01 0 1 0
395 1 5.9478133257697277e+00 1.4263211166895395e+01 2.4381681429587186e+01 1 0 0
552 2 0.0000000000000000e+00 2.8417180249513345e+00 2.6879372721725566e+01 0 0 0
554 2 0.0000000000000000e+00 0.0000000000000000e+00 2.6879372721725566e+01 0 0 0
556 2 1.2305000000000001e+00 7.1042950623783474e-01 2.6879372721725566e+01 0 0 0
563 2 1.2305000000000001e+00 2.1312885187134998e+00 2.6879372721725566e+01 0 0 0
565 2 2.4610000000000003e+00 2.8417180249513345e+00 2.6879372721725566e+01 0 0 0
567 2 2.4610000000000003e+00 0.0000000000000000e+00 2.6879372721725566e+01 0 0 0
569 2 3.6915000000000004e+00 7.1042950623783474e-01 2.6879372721725566e+01 0 0 0
584 2 3.6914999999999996e+00 2.1312885187134998e+00 2.6879372721725566e+01 0 0 0
586 2 4.9220000000000006e+00 2.8417180249513332e+00 2.6879372721725566e+01 0 0 0
588 2 4.9220000000000006e+00 0.0000000000000000e+00 2.6879372721725566e+01 0 0 0
590 2 6.1524999999999999e+00 7.1042950623783407e-01 2.6879372721725566e+01 0 0 0
613 2 6.1524999999999999e+00 2.1312885187134989e+00 2.6879372721725566e+01 0 0 0
615 2 7.3829999999999991e+00 2.8417180249513345e+00 2.6879372721725566e+01 0 0 0
617 2 7.3829999999999991e+00 0.0000000000000000e+00 2.6879372721725566e+01 0 0 0
619 2 8.6134999999999984e+00 7.1042950623783407e-01 2.6879372721725566e+01 0 0 0
650 2 8.6134999999999984e+00 2.1312885187135002e+00 2.6879372721725566e+01 0 0 0
559 2 0.0000000000000000e+00 4.2625770374269996e+00 2.6879372721725566e+01 0 0 0
561 2 1.2305000000000001e+00 4.9730065436648339e+00 2.6879372721725566e+01 0 0 0
576 2 1.2305000000000001e+00 6.3938655561404980e+00 2.6879372721725566e+01 0 0 0
580 2 2.4610000000000003e+00 4.2625770374269996e+00 2.6879372721725566e+01 0 0 0
582 2 3.6914999999999996e+00 4.9730065436648339e+00 2.6879372721725566e+01 0 0 0
605 2 3.6914999999999996e+00 6.3938655561404980e+00 2.6879372721725566e+01 0 0 0
557 2 0.0000000000000000e+00 7.1042950623783341e+00 2.6879372721725566e+01 0 0 0
578 2 2.4610000000000003e+00 7.1042950623783341e+00 2.6879372721725566e+01 0 0 0
609 2 4.9220000000000006e+00 4.2625770374269978e+00 2.6879372721725566e+01 0 0 0
611 2 6.1524999999999999e+00 4.9730065436648339e+00 2.6879372721725566e+01 0 0 0
642 2 6.1524999999999999e+00 6.3938655561404980e+00 2.6879372721725566e+01 0 0 0
646 2 7.3829999999999991e+00 4.2625770374269996e+00 2.6879372721725566e+01 0 0 0
648 2 8.6135000000000002e+00 4.9730065436648339e+00 2.6879372721725566e+01 0 0 0
687 2 8.6135000000000002e+00 6.3938655561404980e+00 2.6879372721725566e+01 0 0 0
607 2 4.9220000000000006e+00 7.1042950623783341e+00 2.6879372721725566e+01 0 0 0
644 2 7.3830000000000009e+00 7.1042950623783341e+00 2.6879372721725566e+01 0 0 0
572 2 0.0000000000000000e+00 8.5251540748539991e+00 2.6879372721725566e+01 0 0 0
574 2 1.2305000000000001e+00 9.2355835810918343e+00 2.6879372721725566e+01 0 0 0
601 2 2.4610000000000003e+00 8.5251540748539991e+00 2.6879372721725566e+01 0 0 0
603 2 3.6915000000000004e+00 9.2355835810918343e+00 2.6879372721725566e+01 0 0 0
570 2 0.0000000000000000e+00 1.1366872099805333e+01 2.6879372721725566e+01 0 0 0
597 2 1.2305000000000001e+00 1.0656442593567498e+01 2.6879372721725566e+01 0 0 0
599 2 2.4610000000000003e+00 1.1366872099805333e+01 2.6879372721725566e+01 0 0 0
634 2 3.6914999999999996e+00 1.0656442593567499e+01 2.6879372721725566e+01 0 0 0
638 2 4.9220000000000006e+00 8.5251540748539991e+00 2.6879372721725566e+01 0 0 0
640 2 6.1524999999999999e+00 9.2355835810918343e+00 2.6879372721725566e+01 0 0 0
683 2 7.3830000000000009e+00 8.5251540748539991e+00 2.6879372721725566e+01 0 0 0
685 2 8.6134999999999984e+00 9.2355835810918343e+00 2.6879372721725566e+01 0 0 0
636 2 4.9220000000000006e+00 1.1366872099805333e+01 2.6879372721725566e+01 0 0 0
679 2 6.1524999999999999e+00 1.0656442593567499e+01 2.6879372721725566e+01 0 0 0
681 2 7.3829999999999991e+00 1.1366872099805333e+01 2.6879372721725566e+01 0 0 0
726 2 8.6134999999999984e+00 1.0656442593567498e+01 2.6879372721725566e+01 0 0 0
630 2 2.4610000000000003e+00 1.2787731112280996e+01 2.6879372721725566e+01 0 0 0
632 2 3.6915000000000004e+00 1.3498160618518829e+01 2.6879372721725566e+01 0 0 0
671 2 3.6915000000000004e+00 1.4919019630994494e+01 2.6879372721725566e+01 0 0 0
628 2 2.4610000000000003e+00 1.5629449137232328e+01 2.6879372721725566e+01 0 0 0
626 2 1.2305000000000001e+00 1.4919019630994494e+01 2.6879372721725566e+01 0 0 0
591 2 0.0000000000000000e+00 1.5629449137232333e+01 2.6879372721725566e+01 0 0 0
593 2 0.0000000000000000e+00 1.2787731112280996e+01 2.6879372721725566e+01 0 0 0
595 2 1.2305000000000001e+00 1.3498160618518829e+01 2.6879372721725566e+01 0 0 0
722 2 7.3829999999999991e+00 1.2787731112280996e+01 2.6879372721725566e+01 0 0 0
718 2 6.1524999999999990e+00 1.4919019630994494e+01 2.6879372721725566e+01 0 0 0
675 2 4.9220000000000006e+00 1.2787731112280996e+01 2.6879372721725566e+01 0 0 0
3144 1 5.8736134555278072e+00 3.2881332432353774e+00 2.1678315928646928e+01 1 0 1
4993 1 9.6697389219788903e+00 1.2818329906519097e+00 2.3994589117863768e+01 0 0 0
114 1 9.8278053376654793e+00 8.6164831663369112e-01 2.1310035964992341e+01 2 0 0
553 2 0.0000000000000000e+00 1.4208590124756650e+00 3.0030999999999835e+01 0 0 0
555 2 0.0000000000000000e+00 0.0000000000000000e+00 3.0030999999999835e+01 0 0 0
564 2 1.2305000000000001e+00 2.1312885187134998e+00 3.0030999999999835e+01 0 0 0
566 2 2.4610000000000003e+00 1.4208590124756650e+00 3.0030999999999835e+01 0 0 0
568 2 2.4610000000000003e+00 0.0000000000000000e+00 3.0030999999999835e+01 0 0 0
585 2 3.6914999999999996e+00 2.1312885187134998e+00 3.0030999999999835e+01 0 0 0
562 2 1.2305000000000001e+00 3.5521475311891644e+00 3.0030999999999835e+01 0 0 0
583 2 3.6914999999999996e+00 3.5521475311891644e+00 3.0030999999999835e+01 0 0 0
881 2 0.0000000000000000e+00 2.8417180249513345e+00 3.3182627278271724e+01 0 0 0
882 2 0.0000000000000000e+00 0.0000000000000000e+00 3.3182627278271724e+01 0 0 0
883 2 1.2305000000000001e+00 7.1042950623783474e-01 3.3182627278271724e+01 0 0 0
887 2 1.2305000000000001e+00 2.1312885187134998e+00 3.3182627278271724e+01 0 0 0
888 2 2.4610000000000003e+00 2.8417180249513345e+00 3.3182627278271724e+01 0 0 0
889 2 2.4610000000000003e+00 0.0000000000000000e+00 3.3182627278271724e+01 0 0 0
890 2 3.6915000000000004e+00 7.1042950623783474e-01 3.3182627278271724e+01 0 0 0
898 2 3.6914999999999996e+00 2.1312885187134998e+00 3.3182627278271724e+01 0 0 0
587 2 4.9220000000000006e+00 1.4208590124756650e+00 3.0030999999999835e+01 0 0 0
589 2 4.9220000000000006e+00 0.0000000000000000e+00 3.0030999999999835e+01 0 0 0
614 2 6.1524999999999999e+00 2.1312885187134989e+00 3.0030999999999835e+01 0 0 0
616 2 7.3829999999999991e+00 1.4208590124756659e+00 3.0030999999999835e+01 0 0 0
618 2 7.3829999999999991e+00 0.0000000000000000e+00 3.0030999999999835e+01 0 0 0
651 2 8.6134999999999984e+00 2.1312885187135002e+00 3.0030999999999835e+01 0 0 0
612 2 6.1524999999999999e+00 3.5521475311891644e+00 3.0030999999999835e+01 0 0 0
649 2 8.6134999999999984e+00 3.5521475311891657e+00 3.0030999999999835e+01 0 0 0
899 2 4.9220000000000006e+00 2.8417180249513332e+00 3.3182627278271724e+01 0 0 0
900 2 4.9220000000000006e+00 0.0000000000000000e+00 3.3182627278271724e+01 0 0 0
901 2 6.1524999999999999e+00 7.1042950623783407e-01 3.3182627278271724e+01 0 0 0
913 2 6.1524999999999999e+00 2.1312885187134989e+00 3.3182627278271724e+01 0 0 0
914 2 7.3829999999999991e+00 2.8417180249513345e+00 3.3182627278271724e+01 0 0 0
915 2 7.3829999999999991e+00 0.0000000000000000e+00 3.3182627278271724e+01 0 0 0
916 2 8.6134999999999984e+00 7.1042950623783407e-01 3.3182627278271724e+01 0 0 0
932 2 8.6134999999999984e+00 2.1312885187135002e+00 3.3182627278271724e+01 0 0 0
558 2 0.0000000000000000e+00 5.6834360499026637e+00 3.0030999999999835e+01 0 0 0
560 2 0.0000000000000000e+00 4.2625770374269996e+00 3.0030999999999835e+01 0 0 0
577 2 1.2305000000000001e+00 6.3938655561404980e+00 3.0030999999999835e+01 0 0 0
579 2 2.4610000000000003e+00 5.6834360499026637e+00 3.0030999999999835e+01 0 0 0
581 2 2.4610000000000003e+00 4.2625770374269996e+00 3.0030999999999835e+01 0 0 0
606 2 3.6914999999999996e+00 6.3938655561404980e+00 3.0030999999999835e+01 0 0 0
575 2 1.2305000000000001e+00 7.8147245686161639e+00 3.0030999999999835e+01 0 0 0
604 2 3.6914999999999996e+00 7.8147245686161639e+00 3.0030999999999835e+01 0 0 0
885 2 0.0000000000000000e+00 4.2625770374269996e+00 3.3182627278271724e+01 0 0 0
886 2 1.2305000000000001e+00 4.9730065436648339e+00 3.3182627278271724e+01 0 0 0
894 2 1.2305000000000001e+00 6.3938655561404980e+00 3.3182627278271724e+01 0 0 0
896 2 2.4610000000000003e+00 4.2625770374269996e+00 3.3182627278271724e+01 0 0 0
897 2 3.6914999999999996e+00 4.9730065436648339e+00 3.3182627278271724e+01 0 0 0
909 2 3.6914999999999996e+00 6.3938655561404980e+00 3.3182627278271724e+01 0 0 0
884 2 0.0000000000000000e+00 7.1042950623783341e+00 3.3182627278271724e+01 0 0 0
895 2 2.4610000000000003e+00 7.1042950623783341e+00 3.3182627278271724e+01 0 0 0
608 2 4.9220000000000006e+00 5.6834360499026637e+00 3.0030999999999835e+01 0 0 0
610 2 4.9220000000000006e+00 4.2625770374269978e+00 3.0030999999999835e+01 0 0 0
643 2 6.1524999999999999e+00 6.3938655561404980e+00 3.0030999999999835e+01 0 0 0
645 2 7.3829999999999991e+00 5.6834360499026637e+00 3.0030999999999835e+01 0 0 0
647 2 7.3829999999999991e+00 4.2625770374269996e+00 3.0030999999999835e+01 0 0 0
688 2 8.6135000000000002e+00 6.3938655561404980e+00 3.0030999999999835e+01 0 0 0
641 2 6.1524999999999999e+00 7.8147245686161639e+00 3.0030999999999835e+01 0 0 0
686 2 8.6135000000000002e+00 7.8147245686161639e+00 3.0030999999999835e+01 0 0 0
911 2 4.9220000000000006e+00 4.2625770374269978e+00 3.3182627278271724e+01 0 0 0
912 2 6.1524999999999999e+00 4.9730065436648339e+00 3.3182627278271724e+01 0 0 0
928 2 6.1524999999999999e+00 6.3938655561404980e+00 3.3182627278271724e+01 0 0 0
930 2 7.3829999999999991e+00 4.2625770374269996e+00 3.3182627278271724e+01 0 0 0
931 2 8.6135000000000002e+00 4.9730065436648339e+00 3.3182627278271724e+01 0 0 0
951 2 8.6135000000000002e+00 6.3938655561404980e+00 3.3182627278271724e+01 0 0 0
910 2 4.9220000000000006e+00 7.1042950623783341e+00 3.3182627278271724e+01 0 0 0
929 2 7.3830000000000009e+00 7.1042950623783341e+00 3.3182627278271724e+01 0 0 0
571 2 0.0000000000000000e+00 9.9460130873296642e+00 3.0030999999999835e+01 0 0 0
573 2 0.0000000000000000e+00 8.5251540748539991e+00 3.0030999999999835e+01 0 0 0
600 2 2.4610000000000003e+00 9.9460130873296642e+00 3.0030999999999835e+01 0 0 0
602 2 2.4610000000000003e+00 8.5251540748539991e+00 3.0030999999999835e+01 0 0 0
596 2 1.2305000000000001e+00 1.2077301606043163e+01 3.0030999999999835e+01 0 0 0
598 2 1.2305000000000001e+00 1.0656442593567498e+01 3.0030999999999835e+01 0 0 0
633 2 3.6914999999999996e+00 1.2077301606043163e+01 3.0030999999999835e+01 0 0 0
635 2 3.6914999999999996e+00 1.0656442593567499e+01 3.0030999999999835e+01 0 0 0
892 2 0.0000000000000000e+00 8.5251540748539991e+00 3.3182627278271724e+01 0 0 0
893 2 1.2305000000000001e+00 9.2355835810918343e+00 3.3182627278271724e+01 0 0 0
907 2 2.4610000000000003e+00 8.5251540748539991e+00 3.3182627278271724e+01 0 0 0
908 2 3.6915000000000004e+00 9.2355835810918343e+00 3.3182627278271724e+01 0 0 0
891 2 0.0000000000000000e+00 1.1366872099805333e+01 3.3182627278271724e+01 0 0 0
905 2 1.2305000000000001e+00 1.0656442593567498e+01 3.3182627278271724e+01 0 0 0
906 2 2.4610000000000003e+00 1.1366872099805333e+01 3.3182627278271724e+01 0 0 0
924 2 3.6914999999999996e+00 1.0656442593567499e+01 3.3182627278271724e+01 0 0 0
637 2 4.9220000000000006e+00 9.9460130873296642e+00 3.0030999999999835e+01 0 0 0
639 2 4.9220000000000006e+00 8.5251540748539991e+00 3.0030999999999835e+01 0 0 0
682 2 7.3830000000000009e+00 9.9460130873296642e+00 3.0030999999999835e+01 0 0 0
684 2 7.3830000000000009e+00 8.5251540748539991e+00 3.0030999999999835e+01 0 0 0
678 2 6.1524999999999999e+00 1.2077301606043163e+01 3.0030999999999835e+01 0 0 0
680 2 6.1524999999999999e+00 1.0656442593567499e+01 3.0030999999999835e+01 0 0 0
725 2 8.6135000000000002e+00 1.2077301606043163e+01 3.0030999999999835e+01 0 0 0
727 2 8.6134999999999984e+00 1.0656442593567498e+01 3.0030999999999835e+01 0 0 0
926 2 4.9220000000000006e+00 8.5251540748539991e+00 3.3182627278271724e+01 0 0 0
927 2 6.1524999999999999e+00 9.2355835810918343e+00 3.3182627278271724e+01 0 0 0
949 2 7.3830000000000009e+00 8.5251540748539991e+00 3.3182627278271724e+01 0 0 0
950 2 8.6134999999999984e+00 9.2355835810918343e+00 3.3182627278271724e+01 0 0 0
925 2 4.9220000000000006e+00 1.1366872099805333e+01 3.3182627278271724e+01 0 0 0
947 2 6.1524999999999999e+00 1.0656442593567499e+01 3.3182627278271724e+01 0 0 0
948 2 7.3829999999999991e+00 1.1366872099805333e+01 3.3182627278271724e+01 0 0 0
971 2 8.6134999999999984e+00 1.0656442593567498e+01 3.3182627278271724e+01 0 0 0
594 2 0.0000000000000000e+00 1.2787731112280996e+01 3.0030999999999835e+01 0 0 0
631 2 2.4610000000000003e+00 1.2787731112280996e+01 3.0030999999999835e+01 0 0 0
592 2 0.0000000000000000e+00 1.4208590124756663e+01 3.0030999999999835e+01 0 0 0
627 2 1.2305000000000001e+00 1.4919019630994494e+01 3.0030999999999835e+01 0 0 0
629 2 2.4610000000000003e+00 1.4208590124756663e+01 3.0030999999999835e+01 0 0 0
672 2 3.6915000000000004e+00 1.4919019630994494e+01 3.0030999999999835e+01 0 0 0
903 2 0.0000000000000000e+00 1.2787731112280996e+01 3.3182627278271724e+01 0 0 0
904 2 1.2305000000000001e+00 1.3498160618518829e+01 3.3182627278271724e+01 0 0 0
922 2 2.4610000000000003e+00 1.2787731112280996e+01 3.3182627278271724e+01 0 0 0
923 2 3.6915000000000004e+00 1.3498160618518829e+01 3.3182627278271724e+01 0 0 0
902 2 0.0000000000000000e+00 1.5629449137232333e+01 3.3182627278271724e+01 0 0 0
920 2 1.2305000000000001e+00 1.4919019630994494e+01 3.3182627278271724e+01 0 0 0
921 2 2.4610000000000003e+00 1.5629449137232328e+01 3.3182627278271724e+01 0 0 0
943 2 3.6915000000000004e+00 1.4919019630994494e+01 3.3182627278271724e+01 0 0 0
676 2 4.9220000000000006e+00 1.2787731112280996e+01 3.0030999999999835e+01 0 0 0
723 2 7.3829999999999991e+00 1.2787731112280996e+01 3.0030999999999835e+01 0 0 0
674 2 4.9220000000000006e+00 1.4208590124756663e+01 3.0030999999999835e+01 0 0 0
719 2 6.1524999999999990e+00 1.4919019630994494e+01 3.0030999999999835e+01 0 0 0
721 2 7.3830000000000009e+00 1.4208590124756663e+01 3.0030999999999835e+01 0 0 0
766 2 8.6135000000000002e+00 1.4919019630994494e+01 3.0030999999999835e+01 0 0 0
945 2 4.9220000000000006e+00 1.2787731112280996e+01 3.3182627278271724e+01 0 0 0
946 2 6.1524999999999990e+00 1.3498160618518829e+01 3.3182627278271724e+01 0 0 0
969 2 7.3829999999999991e+00 1.2787731112280996e+01 3.3182627278271724e+01 0 0 0
970 2 8.6135000000000002e+00 1.3498160618518835e+01 3.3182627278271724e+01 0 0 0
944 2 4.9220000000000006e+00 1.5629449137232333e+01 3.3182627278271724e+01 0 0 0
967 2 6.1524999999999990e+00 1.4919019630994494e+01 3.3182627278271724e+01 0 0 0
968 2 7.3829999999999991e+00 1.5629449137232333e+01 3.3182627278271724e+01 0 0 0
991 2 8.6135000000000002e+00 1.4919019630994494e+01 3.3182627278271724e+01 0 0 0
6056 1 5.5308941308465247e+00 3.2245307771206959e+00 3.5892149055286367e+01 2 0 0
4657 1 6.9971834016310828e+00 8.1437919650006094e+00 3.8831518856507230e+01 0 1 0
3028 1 8.6400761728993434e+00 1.1702915940613060e+01 3.6234266977020113e+01 1 -1 -1
3115 1 7.9087816066363512e+00 1.6372863961801143e+00 3.6229928323759609e+01 0 1 0
3010 1 6.5123205481642676e+00 1.3993032981199757e+01 3.8398578403956471e+01 1 1 0
324 1 2.6402680796148332e+00 4.5172335338978238e+00 3.6262057035809065e+01 -1 0 -1
2852 1 6.6585898584403997e+00 1.3627802889963339e+01 3.5565027041324001e+01 -1 0 0
6073 1 3.1324876764133509e+00 7.5862911052071365e+00 3.5651619186353820e+01 2 1 -1
5203 1 2.9805030755862960e+00 1.5318379319699529e+00 3.5693939551696197e+01 1 1 0
3654 1 7.1999451477799594e+00 5.7804456089914833e+00 3.5783060049187092e+01 -1 1 0
4723 1 3.9287387531515363e+00 1.3030691720429909e+01 3.5706401403736685e+01 0 1 0
6124 1 8.5061562795227310e+00 9.1521735828608932e+00 3.5242149502081745e+01 -1 0 0
1642 1 1.4635559252705028e+00 1.0854928928372917e+01 3.8483798293776154e+01 0 0 0
4597 1 2.6026348035003064e+00 1.0405454571740101e+01 3.5849114429308706e+01 0 2 -1
1440 1 5.5553081868348793e+00 1.0803851939048167e+01 3.7024816343092219e+01 1 0 0
3146 1 5.5654132189054906e-02 1.7410589077464029e+00 3.5938557320811555e+01 0 0 -1
3618 1 5.9411047907382342e+00 8.2875892882811417e+00 3.5996382667511007e+01 0 0 -1
70 1 1.4361087241319845e+00 1.4674693415839400e+01 3.5931458471189366e+01 1 0 0
1468 1 8.4451959863112016e+00 1.5835733738654675e+01 3.6427925860768383e+01 0 0 0
3163 1 2.9406880747683797e+00 8.2164100151307118e-01 3.8417527301153200e+01 2 1 1
3041 1 3.8213501966075318e+00 7.3041571662084106e+00 3.8760286698060639e+01 1 0 0
168 1 9.5181535331382516e-01 7.8606005695470529e+00 3.8417441641217899e+01 0 0 0
6287 1 8.6473017521409883e+00 1.1618927272764799e+01 3.9029969406086693e+01 1 1 -1
2805 1 2.8167396036321142e+00 2.5634122766244269e+00 4.3924390671537459e+01 1 1 0
1 1 3.4952378329573958e-01 1.0876928772961067e+01 4.4366086126334721e+01 0 0 -1
1904 1 6.7344091986218855e+00 3.7000498687763689e-01 4.1841117155020839e+01 0 0 0
1340 1 5.9695163160345697e+00 6.2861714090231968e-01 3.8948962216366844e+01 2 -1 0
1257 1 9.0221087930737980e+00 2.0094281472830655e+00 4.1990955415903386e+01 0 0 0
4880 1 3.6978497370914547e+00 1.0698643551544762e+01 4.7046846352004970e+01 1 0 0
5046 1 5.4052344466772304e+00 1.0632120785377023e+01 4.4323208725532410e+01 1 1 0
5223 1 4.2857405084754348e+00 8.2100008934096973e+00 4.4503713709317537e+01 1 0 0
3554 1 3.8699937719908464e+00 4.8201484019154393e+00 4.2277198497288609e+01 1 0 -1
3624 1 8.5933447752284557e+00 4.9530938285900561e+00 4.1680879940071520e+01 -1 0 0
3330 1 7.8806776947681518e+00 9.4505352076678033e+00 4.3465760603375408e+01 1 0 0
1883 1 9.7284244610661137e+00 9.1451344927803735e+00 3.9128063971708819e+01 0 1 -1
1516 1 4.3088931034791456e+00 2.0060527863625777e+00 4.6186575414357364e+01 1 0 0
1835 1 3.5465782231969994e-01 1.4213132928760485e+01 4.1186530684750942e+01 0 0 0
551 1 5.9413065989125045e+00 6.6704617042969376e+00 4.2791007482153134e+01 0 0 -1
4872 1 7.4273643906376927e+00 1.3844405745939518e+01 4.7178445316578937e+01 0 0 -1
3004 1 5.5691630374957271e+00 8.9875006770007424e+00 4.1092294715180238e+01 0 0 -1
1979 1 2.9924208079183741e+00 9.4513846636037719e+00 4.0664441929724511e+01 1 0 0
4414 1 1.5013021034038339e+00 8.5577853382265161e+00 4.2912081048099779e+01 0 0 -1
2004 1 6.9853061360554412e+00 1.1069117104139572e+01 4.0981825925674784e+01 0 1 0
3020 1 1.3687485924173870e+00 3.0484199258637856e-01 4.5301301273361652e+01 1 1 0
1828 1 9.3886867631490158e+00 3.3340430304714026e+00 4.7509514183784646e+01 0 0 -1
1397 1 3.2610916765319247e+00 4.5008819484140101e+00 3.9494468044304867e+01 0 0 -1
3711 1 4.3138875426738039e+00 1.2299482585345844e+01 4.2220110079622309e+01 1 0 0
47 1 5.1885198617416117e+00 1.4916939308863823e+01 4.2680043223535534e+01 0 0 0
4545 1 1.8259662360386886e+00 1.3035264438349616e+01 4.3310773431314999e+01 0 0 0
1400 1 9.0995623399424908e+00 7.7106903402753852e+00 4.1526768305207895e+01 1 0 -1
5 1 3.7400894061820642e+00 1.6711991709499237e+00 4.1034549098634614e+01 1 0 -1
3433 1 5.5411846115026062e+00 1.5852867778944130e+01 4.0208527413135819e+01 1 0 0
3015 1 1.1159989030082713e+00 1.2071103735916164e+01 4.7063337885812359e+01 0 1 0
3304 1 4.4331656883404804e+00 1.2068885492087635e+01 3.9358306485172577e+01 0 0 0
1850 1 8.3830258959037507e-01 1.4712238252674776e+00 4.1673713723428925e+01 0 0 -1
2969 1 1.6763316384062315e+00 1.4761818297847036e+01 4.5488643655321574e+01 0 0 0
4929 1 7.7550486190895453e+00 7.4389073860044492e+00 4.5256677221563322e+01 0 1 -1
2797 1 1.7999521298872458e+00 5.6444228206065121e+00 4.3858672268577521e+01 0 0 0