LAMMPS data file via write_data, version 16 Mar 2018, timestep = 6000000

6736 atoms
2 atom types

1.3701993722596839e-01 4.9082980062776386e+01 xlo xhi
1.3646215843132481e-01 4.8883173771959832e+01 ylo yhi
1.2755741005303989e-01 5.9934442589948119e+01 zlo zhi

Masses

1 18.015
2 12.01

Atoms # atomic

5388 1 1.2057913416020967e+00 2.3625473892518332e+00 2.5421041022494562e+00 3 3 0
295 1 3.8590826204837150e+00 2.2248166377230163e+00 1.3792243591022029e+00 -1 -2 0
5845 1 7.8266884770005385e+00 3.8806275382505939e+00 1.3423502898734319e+00 -2 0 0
397 1 1.2016538842594443e+01 2.3369306812796715e+01 2.3784759921965550e+00 -1 -3 0
4493 1 8.9067815058055260e+00 1.5427175899124925e+00 2.3644496242901458e+00 -2 1 0
459 1 1.1428882756221054e+01 1.0607749373293349e+00 1.6328923674267892e+00 -8 -2 0
5576 1 2.2506792292252848e+00 6.9413344842823355e+00 2.1798638804380421e+00 -2 -1 0
4480 1 5.7940570298090599e-01 5.1026805427523794e+00 6.1242963129198857e+00 -1 -2 1
1153 1 5.3419786826859532e+00 4.2002550476998968e+00 2.3575210476034574e+00 -1 4 1
2604 1 4.6881342283165965e+00 6.3894143960453293e+00 1.3599708306500833e+00 0 -2 1
4595 1 8.4967572484855669e+00 8.2152366278238507e+00 1.5011138279101868e+00 5 1 0
2901 1 9.5274045717858389e+00 5.6481075327693491e+00 2.4588452631287314e+00 3 1 1
3756 1 5.2993612197722264e+00 2.2099424748286314e+01 1.0008069032666736e+01 1 1 0
5908 1 1.1967428853914368e+00 9.1014295540850636e+00 9.9509290201540790e-01 1 4 0
4544 1 2.5738716435960489e+00 1.1158446483248772e+01 2.1051514173952786e+00 1 3 1
4471 1 5.9438981394463140e+00 8.6830386998329168e+00 2.2766689128658029e+00 -1 0 1
5117 1 5.0872585091622833e+00 1.0863743000569039e+01 1.2146034345382046e+00 4 -1 0
3660 1 9.9790643500024601e+00 1.0375796091782734e+01 2.2962588571288727e+00 -1 -1 0
904 1 9.4176236378922553e+00 2.3823142478840982e+01 9.8535985733248239e+00 5 -1 0
5305 1 1.9727229310039680e+00 1.3670633816406157e+01 1.2952298599559768e+00 -3 -2 0
958 1 3.2947311712990346e+00 1.5731598285260185e+01 2.4411523024099675e+00 -3 2 1
1916 1 6.7465608015803911e+00 1.2968212668720975e+01 2.2774428246662168e+00 0 1 0
5959 1 5.8305207138316835e+00 1.5374340303293993e+01 1.4846560455561744e+00 2 -1 1
5872 1 9.0487342417374812e+00 1.2665042368010429e+01 1.2249643158155139e+00 0 -1 0
1239 1 1.0511004773287919e+01 1.4509540348764427e+01 2.4430239327238579e+00 4 3 1
3776 1 2.7053200178523986e+00 1.8122960191738215e+01 1.4757990795921045e+00 -2 2 0
5380 1 4.2855129518550381e+00 1.9797010770341760e+01 2.3814746334480095e+00 2 1 1
798 1 7.2085638989927370e+00 1.7356088532056003e+01 2.5385554437690128e+00 1 0 0
3634 1 6.6049127980162066e+00 1.9541847646833077e+01 1.3929557620345931e+00 2 1 0
6040 1 9.7720489400465524e+00 1.6882949123925741e+01 1.6041806419632365e+00 -4 -1 1
3755 1 1.1439132681255821e+01 1.9075174987445017e+01 2.1766669017209730e+00 -2 1 0
1948 1 3.5175348308055194e+00 2.2349766044901738e+01 1.5356883356945434e+00 -2 -1 0
1216 1 6.4296683349767081e-01 4.9775146936548769e+00 8.8163556301288697e+00 1 5 0
3520 1 7.4107979465342422e-01 2.2576545661069737e+01 2.0853901836097046e+00 -3 -1 0
300 1 7.2663342602677305e+00 2.3982190055378201e+01 1.6004311621114586e+00 3 1 0
5175 1 7.9971704235721361e+00 2.1418132822925894e+01 2.4890265722292275e+00 -1 0 0
4610 1 1.0432735329657792e+01 2.1290245492906656e+01 1.3710047026105563e+00 3 0 1
4417 1 1.1772915168746763e+01 5.8064900916609155e+00 1.3617518270630056e+00 0 -2 1
2024 1 1.1547888807886573e+00 2.6676433438972742e+00 5.4867021848030291e+00 -1 2 1
3649 1 3.9166734792693694e+00 2.2360971218725512e+00 6.3199233371994259e+00 2 -2 0
4116 1 7.6164203380172211e+00 3.7638338037575489e+00 5.9352973527887922e+00 -4 0 1
6307 1 8.5917893603699991e+00 1.4943502985166353e+00 5.0912564028357066e+00 0 1 0
2761 1 1.1227169614864309e+01 1.2813578718185141e+00 6.1394571681043590e+00 0 4 1
4406 1 2.1068497981518393e+00 7.0784735563778050e+00 5.0142866511510915e+00 2 3 1
1161 1 6.9544679648118075e+00 2.4100098383715306e+01 9.0461974401797143e+00 4 2 0
3855 1 5.2948412140408978e+00 4.1294998612922384e+00 5.0141709808813850e+00 -1 0 0
4601 1 4.8375602261037374e+00 6.7260038912665356e+00 5.8903477246187217e+00 2 1 1
1902 1 9.2220034628975860e+00 5.9685920265237371e+00 4.9394785889131203e+00 3 3 1
1830 1 2.0220032426982710e+00 2.4457436694298497e+01 9.7164663002295981e+00 0 1 1
1804 1 1.4597820802650701e+00 9.5619689437253648e+00 6.0630292833499508e+00 -2 0 0
5822 1 3.0204390269465704e+00 1.1525696883718146e+01 4.8092930098544766e+00 0 -1 1
5494 1 5.9332812773154862e+00 8.7843667155611342e+00 4.8748678981570759e+00 2 0 0
6165 1 5.5428293746763844e+00 1.1067255390133973e+01 5.9720040456252228e+00 1 3 1
2473 1 8.5507395731758127e+00 8.4469970311898734e+00 5.5893538719041898e+00 1 -5 1
5889 1 9.8408026776232376e+00 1.0514117164708338e+01 5.0375058118825295e+00 -1 0 1
329 1 1.7099225185804547e+00 1.3762390080112660e+01 6.0874621740207164e+00 -2 2 0
6002 1 3.1558290395397051e+00 1.6097186963674837e+01 4.9557907329252524e+00 3 -1 1
5887 1 5.3794999468848470e+00 1.5474387157932705e+01 5.7803053452914490e+00 2 -3 1
5337 1 6.4803440258376437e+00 1.3306818325034509e+01 4.8583411891399058e+00 -1 1 1
4317 1 8.9766242365425377e+00 1.2967942421306061e+01 5.9584208394309366e+00 -3 -2 1
131 1 1.0841311026045119e+01 1.4839029040942677e+01 5.3070828336993570e+00 -1 1 0
2097 1 2.1800790546296969e+00 1.8039371984611439e+01 5.9136506768733339e+00 4 -3 0
6010 1 4.3539348243472524e+00 1.9922552779587690e+01 5.0203275440017805e+00 -2 -3 1
3534 1 7.6917902585926816e+00 1.7136553794325806e+01 5.2750013741668882e+00 -3 -4 1
4354 1 6.7494542871206500e+00 1.9616702005010030e+01 6.0877850529240662e+00 -1 2 1
917 1 1.1442731507655134e+01 1.9199770752386364e+01 5.1266760011676142e+00 0 0 1
994 1 1.0024547177468909e+01 1.7192383727923442e+01 6.3436310407737988e+00 0 -1 0
3680 1 2.9581405644486951e+00 2.2192453716956468e+01 5.8922718315578200e+00 4 1 0
5578 1 4.6703245271225100e+00 2.4408187029469243e+01 2.4460576187114156e+00 -1 0 0
2691 1 4.4880212410746534e+00 2.4141173986114371e+01 5.0467754071280080e+00 3 -1 1
182 1 6.8237531939222418e+00 2.3936429102148558e+01 6.1437035357199479e+00 -2 -1 0
5249 1 8.1071209980221646e+00 2.1657541609894025e+01 5.0795122458984014e+00 0 -1 1
843 1 1.0558162331219414e+01 2.1495117192799523e+01 5.9221896955628583e+00 3 -2 0
1751 1 1.1972507648614277e+01 2.3685726129274261e+01 5.0328858318148981e+00 1 1 0
5988 1 1.0313197118208883e+01 2.1425770773588404e+01 8.5787119178845170e+00 2 3 1
1144 1 3.8248277183147521e+00 2.3590672775252357e+00 8.9431427631175158e+00 -1 2 1
5443 1 3.1588027665403495e+00 4.6271152396011157e+00 9.8934833252459242e+00 0 -4 0
858 1 6.2115656404128892e+00 2.0465041162289141e+00 9.9441882492189517e+00 2 -1 1
2686 1 7.8709883046752056e+00 4.1014179060763158e+00 8.5600745980527009e+00 -2 3 1
981 1 1.1229660528152193e+01 1.1652945010891329e+00 8.8406561826615420e+00 2 -1 1
4311 1 1.0495138993225686e+01 3.6840392933041723e+00 9.3967460863364209e+00 -1 3 1
4180 1 4.6378411709198124e+00 6.5284341202796581e+00 8.8328963034042491e+00 0 -2 1
2747 1 7.2360464220680605e+00 6.3827863798304714e+00 9.8577228668150436e+00 -3 -2 1
264 1 1.2141093613241033e+01 5.3890715904429927e+00 8.3779988828728396e+00 1 0 0
5084 1 1.0777385798446570e+01 7.8984815434378461e+00 9.5079523242654496e+00 1 -1 0
5396 1 8.4952882124953923e+00 8.3295237356616205e+00 8.5608948638373388e+00 0 0 0
3703 1 3.0036353949381001e+00 2.2173465513525869e+01 8.6556373979004970e+00 -1 -1 0
1875 1 9.6281445900281426e-01 9.4867523108997958e+00 8.7718668173685579e+00 -2 -1 0
2511 1 3.6641204936829750e+00 8.8989893238459103e+00 9.6511422679753345e+00 3 4 1
2679 1 5.2092397137095592e+00 1.0945445683796075e+01 8.9599850554895912e+00 2 1 1
5143 1 7.6670587273636164e+00 1.0692240456438363e+01 9.9771438184395933e+00 -1 2 0
4518 1 1.6063331266825620e+00 1.3738332320398433e+01 8.7491355700560600e+00 2 2 1
3507 1 8.2120738120598535e-01 1.6246478229651728e+01 9.4986250190569823e+00 2 3 0
3774 1 4.0157246014849708e+00 1.3333630765913949e+01 9.6195774611449050e+00 -2 1 0
2611 1 5.7670333989824716e+00 1.5351853864507506e+01 8.5812429263351451e+00 2 4 1
5104 1 8.1671077731290804e+00 1.5070031476768248e+01 9.6060504651719985e+00 4 1 0
2819 1 1.1330244851616351e+01 1.2250134191689094e+01 9.7746367831362058e+00 3 0 1
6228 1 8.9389379691251900e+00 1.2662851762493514e+01 8.5203516042049010e+00 4 1 1
3808 1 2.5002456777457889e+00 1.8021201198113364e+01 8.5382491657055013e+00 0 0 0
6220 1 1.5173963131486179e+00 2.0182883817194831e+01 9.4989548367214098e+00 3 1 1
1906 1 6.2872338749841701e+00 1.9902081897610959e+01 8.8725622874977521e+00 0 1 0
6306 1 4.8528944572700015e+00 1.7896484962177521e+01 9.8128414351650406e+00 2 -1 1
3551 1 8.8587086843784117e+00 1.9555456283788118e+01 9.5886033819081575e+00 2 -3 1
5951 1 9.7835088305351299e+00 1.7009870836708195e+01 9.0470633470063344e+00 -2 1 1
2930 1 6.6581210968804627e-01 4.9318174646993276e+00 1.7722390996403938e+00 0 1 1
5991 1 1.1684900674513500e+01 5.7831751293578399e+00 5.7158486669723567e+00 1 4 1
5978 1 2.3239602175907423e+00 2.7532061499483562e-01 1.0025791230851532e+01 0 -1 1
5538 1 3.9559427459858026e-01 2.2652147044719364e+01 4.7023884108757210e+00 2 2 0
4593 1 1.2323930016666989e+01 1.0167924697190523e+01 6.3284524148127721e+00 0 -2 1
3778 1 1.2366339400531222e+01 1.6588922518315059e+01 9.7126291204513180e+00 1 -2 0
817 1 3.8619551235706044e+00 2.6814126352220482e+00 1.3760605989143388e+01 1 -2 1
2634 1 3.0767968873110769e+00 4.7259447891286328e+00 1.2484962015349033e+01 2 2 1
373 1 1.0049764746209268e+01 6.0573598306793004e+00 2.3272415077558392e+01 0 2 0
5489 1 8.0304973595338787e+00 4.0871025260452649e+00 1.3610033917065827e+01 2 6 0
3376 1 8.1503133608207836e+00 4.1597710244735753e+00 1.6390277861978081e+01 0 -4 0
758 1 1.0795172883996930e+01 1.7127634099807718e+00 1.3319263313914362e+01 0 1 0
839 1 5.6813984963745634e+00 2.2179625856083273e+01 1.2602400722469355e+01 1 3 0
6152 1 9.8951267779141239e-01 1.6070206648066993e+01 1.2373502751140318e+01 1 0 1
905 1 8.3226233286499856e+00 2.1106105058314341e+01 2.3475413791980767e+01 -5 -1 0
312 1 2.3535144155069712e+00 2.4407492829661503e+01 1.2463790870976968e+01 1 4 0
1776 1 4.7639903543666833e+00 6.7287125358020239e+00 1.3323748016061812e+01 4 1 0
2847 1 7.2726894208635819e+00 6.4568890802632932e+00 1.2549972576764386e+01 -2 0 1
3672 1 1.2243845792995655e+01 5.6605640088595113e+00 1.3306428668502964e+01 2 -1 0
5547 1 8.8245759111991973e+00 1.9745357111136649e+01 1.2166448030297447e+01 0 0 0
3714 1 1.2864214109975176e+00 9.0160939546091132e+00 1.3814958131627396e+01 -2 2 0
1060 1 1.1448118222530413e+01 1.2563181936793592e+01 1.2440603025582899e+01 1 -1 1
919 1 5.2658838563098742e-01 4.9381198038261180e+00 1.3458479945181889e+01 0 3 1
2684 1 5.2745951075119919e+00 1.1225678711715473e+01 1.3246793914546807e+01 0 1 1
4573 1 7.6726241199898801e+00 1.0897026400775534e+01 1.2477799140496298e+01 3 2 1
6098 1 8.8319844377356738e+00 8.4226244643942678e+00 1.3435531306454173e+01 0 5 1
136 1 1.9856031504536154e+00 1.3654362831616922e+01 1.3278815378796649e+01 2 -1 0
2065 1 7.5404199430443315e+00 1.7208494149825523e+01 2.0733754912552275e+01 2 -2 0
2480 1 4.5370532559121868e+00 1.3636612122869728e+01 1.2237697285102790e+01 5 -2 1
3721 1 5.8756015247230851e+00 1.5595694167652608e+01 1.3288406541622793e+01 -4 -2 0
5360 1 5.8945147417183774e+00 1.5494230343389715e+01 1.6046628833145238e+01 2 3 0
6173 1 1.3105355472598850e+00 2.2499747999726250e+01 2.1099430977577057e+01 2 1 1
2177 1 2.6314357388559984e-01 2.1374159164297168e+01 2.3798358261135430e+01 3 1 0
1210 1 9.2555483079451335e+00 1.2871091732950060e+01 1.3401793303489081e+01 0 2 1
1726 1 8.9609210175586647e+00 1.2820345455765773e+01 1.6256278286030572e+01 -4 -1 0
5915 1 1.1030676865961738e+01 8.1698089350663601e+00 1.2237041112056978e+01 1 -1 1
4387 1 2.5141519130543379e+00 1.8136334694032524e+01 1.3763133118673123e+01 3 3 1
6064 1 2.1459063350723269e+00 1.7951932344466361e+01 1.6370353495622915e+01 3 5 1
2032 1 6.5265267164301974e+00 1.9557439858111067e+01 1.3538610752672533e+01 -2 -1 0
737 1 5.4960446647968704e+00 2.3409197252840620e+01 2.3957004319717797e+01 0 1 0
6172 1 9.9816781869244320e+00 1.7483933374402248e+01 1.2993278324570262e+01 2 0 1
1249 1 9.9732843798177644e+00 1.7045837454433723e+01 1.5721983601697747e+01 -1 1 0
1779 1 3.7006735160150410e+00 8.9450672906058184e+00 1.2253003747654169e+01 -2 0 1
6000 1 2.8854253600196684e+00 2.3735784803061911e+01 2.3744608661798704e+01 3 -5 1
1982 1 3.1168870787358722e+00 2.2225924180731134e+01 1.3609228925653891e+01 0 4 0
3574 1 3.0459481503921646e+00 2.2258426693077574e+01 1.6192585454400856e+01 -3 -1 0
4118 1 7.4327669229872457e+00 2.3966261727502722e+01 1.3207985425179700e+01 -2 0 1
4128 1 5.4975526124992591e+00 2.4079434935080634e+01 2.1160301691374801e+01 0 -1 0
5855 1 4.2285282317015724e+00 1.9880359237049429e+01 2.1177588867840605e+01 2 0 0
6030 1 1.0457870630564267e+01 2.1357976751011211e+01 1.3278194558599926e+01 2 0 1
4323 1 4.0219253518048059e-01 1.1543200967825813e+01 1.9438455372420517e+01 -2 2 1
1962 1 6.3527371307327014e+00 2.3861220446657621e+00 1.2745397612652182e+01 3 -1 1
3545 1 4.1024512764964598e+00 2.6139789928586379e+00 1.6416745901258018e+01 1 -2 0
748 1 6.8073636549837504e+00 2.1733047184415630e+00 1.7463880259647411e+01 0 1 1
6151 1 6.8328711718528750e+00 1.8065055212324321e+00 2.0415877360410587e+01 -1 3 1
5563 1 1.1273154723648776e+01 1.5009468175942930e+00 1.5909282946559467e+01 -3 4 0
1974 1 1.0315013275460457e+01 3.7240691757898712e+00 1.7255427877405406e+01 3 0 0
5077 1 1.0562473694580467e+01 3.5255338498538378e+00 1.9994176771310041e+01 -1 0 0
2123 1 3.1153278334179406e+00 4.9000006831862795e+00 1.7302437869917473e+01 -1 4 0
6044 1 4.6867826231606280e+00 6.7018180872902686e+00 1.6052313049223436e+01 1 -3 1
870 1 7.1430419737484137e+00 6.5240825268760574e+00 1.7208800741510103e+01 -2 4 1
3618 1 7.3555370914218896e+00 6.4104218515149247e+00 1.9987786516650310e+01 -4 2 0
4211 1 1.1174538732904296e+01 7.9793322340213919e+00 1.7072995033345489e+01 -2 -5 1
2682 1 8.6611788281983557e+00 8.5161381952443111e+00 1.6285514099195748e+01 0 2 1
5962 1 1.1098521447840490e+01 8.2141880402445384e+00 1.9790523813969390e+01 -1 -1 1
4275 1 9.8336423827766453e+00 2.3725941239326549e+01 1.2243171218189117e+01 -1 -1 1
1914 1 8.5132126719155075e+00 2.1826966404130300e+01 2.0776126001537140e+01 2 1 0
4523 1 4.9048422135821559e+00 1.7835765261273959e+01 1.2430090836310203e+01 0 -1 1
1028 1 1.3426419002263601e+00 9.5866963558883835e+00 1.6453628973947009e+01 4 1 1
6042 1 3.7566882446770169e+00 9.0948424302311199e+00 1.7072690366726487e+01 0 2 1
30 1 3.5784833480938421e+00 9.2042088646739817e+00 1.9642333177635567e+01 3 0 0
2733 1 5.1380428777411025e+00 1.1204805737166557e+01 1.5816622261813794e+01 -4 3 1
6253 1 7.4619190173260996e+00 1.0833797843094224e+01 1.6905818858372701e+01 0 0 1
778 1 7.7723803367898245e+00 1.0518811346610125e+01 1.9522972358991044e+01 -3 0 1
989 1 1.1420306798428481e+01 1.2375754984163915e+01 1.7229325350666588e+01 0 4 1
2073 1 1.7809721691718761e+00 1.3715242997661498e+01 1.5839147246917310e+01 2 1 0
1146 1 7.2522460101139130e-01 4.9434410157260489e+00 1.6310858673650785e+01 1 -1 1
2048 1 1.1581936343057058e+00 1.6126306564188333e+01 1.9637638663081539e+01 1 2 0
5150 1 4.4144948321719806e+00 1.3331802373186164e+01 1.6812624627857357e+01 -1 3 0
5474 1 8.2870440222859099e+00 1.5251458043594353e+01 1.6981818380787157e+01 1 -1 0
1992 1 4.2588123151350175e+00 1.3252163118228738e+01 1.9374632583493941e+01 -2 6 0
45 1 8.5738328410418330e+00 1.5032417958006034e+01 1.9713570154697727e+01 2 1 1
2542 1 1.1833190270349904e+01 1.2335850537197949e+01 1.9818446267506889e+01 1 3 1
1961 1 1.5921213916802632e+00 2.0134831824447648e+01 1.7445951780006762e+01 1 0 0
2914 1 1.8576808003329197e+00 2.0346505308060888e+01 1.9930154834422392e+01 4 3 0
328 1 6.4609170158136715e+00 1.9692579078565338e+01 1.6456045354357588e+01 3 1 0
5544 1 4.6651708900026527e+00 1.7594426173121821e+01 1.7221254714089142e+01 -3 1 0
1056 1 5.1847189685715964e+00 1.7828233734057395e+01 2.0012517738574523e+01 1 2 1
242 1 1.6304481553028531e+00 2.0455579156333673e+01 1.2357404513389145e+01 3 0 0
2723 1 9.0483485574569205e+00 1.9304804583113562e+01 1.7277935817740765e+01 1 2 1
3611 1 9.2530683676274954e+00 1.9213024889908599e+01 2.0001449964132263e+01 2 2 0
5540 1 9.8836484176126280e+00 2.3450451009219559e+01 1.9587484185012549e+01 6 1 0
3664 1 7.7340888269548822e+00 1.6821879864981749e+01 2.3757974367834485e+01 0 5 0
6003 1 2.0709979769539579e+00 6.9265472299881585e+00 2.3177428273489614e+01 2 0 1
1089 1 2.9278330726852446e+00 2.4241317319472973e+01 2.0222384345438748e+01 4 3 1
5178 1 5.9200363169512258e+00 2.1795397252068685e+01 2.0021499446601329e+01 -6 1 0
1064 1 7.1276453756348870e+00 2.3969609515129058e+01 1.5873395646365239e+01 4 -4 1
1935 1 5.6421079408209627e+00 2.2141730389611613e+01 1.7266668224524942e+01 3 0 0
5190 1 1.0661300367013636e+01 2.0916021565550597e+01 1.5897060619539051e+01 1 -1 1
4497 1 9.5489053870846181e+00 2.3423751324162261e+01 1.6941154301974432e+01 1 -2 1
3461 1 1.5352948765798338e+00 2.7920629120029106e+00 2.0489807567028979e+01 -1 1 0
6016 1 1.5205671792807014e+00 2.7431372917634049e+00 2.3396997135664087e+01 0 -6 1
6091 1 5.8453112641735725e+00 4.3235819319345872e+00 2.1045153457023641e+01 -1 0 1
3561 1 9.6922676212413261e+00 1.3923006983055666e+00 2.3767095771764883e+01 2 2 0
1040 1 9.4746281633505127e+00 1.4011473316670868e+00 2.0892442828752610e+01 1 -1 1
1976 1 3.2829560055777423e+00 4.6369874468355192e+00 2.0031236514075463e+01 0 1 0
2476 1 1.0730808939300063e+01 1.0246915464971162e+01 2.3911431274270331e+01 1 2 1
5189 1 2.0434387930968381e+00 6.8307289497131629e+00 2.0541244372355159e+01 2 -1 0
5186 1 1.0228324879696652e+01 2.3305474505823504e+01 2.3793880656544399e+01 6 -1 0
5476 1 1.2044395739801045e+01 1.8817732353161475e+01 2.0353182459770327e+01 -1 -2 0
4370 1 6.0416514296380353e+00 8.7898210770472680e+00 2.0646563512008761e+01 -2 -3 1
5436 1 1.1934007462121745e+01 5.4780196028672616e+00 1.5981740813206398e+01 0 3 0
4506 1 9.8027070283914775e+00 5.9881757417270016e+00 2.0655251942175489e+01 3 2 1
5208 1 1.1443582413610555e+01 1.4382803013640014e+01 2.3269679510307554e+01 5 2 1
5412 1 2.8174574308985716e+00 1.1554959462155088e+01 2.3211031866457457e+01 2 7 0
3780 1 2.7492090110151635e+00 1.1299497909966110e+01 2.0547997142594554e+01 1 0 0
5435 1 1.2296601709015928e+01 1.6405936785742291e+01 1.9238654464209915e+01 -1 0 0
6231 1 7.6431396672769747e-01 1.5757287555621046e+01 1.6988464628511807e+01 1 3 1
5120 1 1.0149991318112567e+01 1.0349576770504026e+01 2.1094159175857538e+01 2 0 0
2005 1 1.0974179572116633e+01 3.7079299563616845e+00 2.3823689593874946e+01 2 1 0
4314 1 6.1880104164067724e+00 8.9545507884420594e+00 2.3358304974694956e+01 -1 0 1
1035 1 3.5950028004096732e+00 1.5661211248752636e+01 2.0389163910283326e+01 2 1 1
232 1 6.9741796712346602e+00 1.3032452380512336e+01 2.0395335929344586e+01 -3 -1 1
157 1 6.7850540250787876e+00 1.2957605038618654e+01 2.3191191833249682e+01 2 -1 0
5219 1 1.0930071519209152e+01 1.4592965195938687e+01 2.0804334042391144e+01 2 -4 0
3464 1 1.0392136012435667e+01 4.1694189521372360e+00 1.2164364604051688e+01 -3 3 0
5831 1 3.4557051339564477e+00 1.5641261044916327e+01 2.3281007063776578e+01 -1 -1 1
2190 1 8.3041791702856607e+00 1.5159186808140676e+01 1.2412876389527584e+01 -1 0 0
2171 1 5.5411687568160941e+00 2.0546857146127461e+01 2.3720311469860448e+01 3 0 1
2625 1 5.5795918332681076e+00 4.5693565201680251e+00 2.3743005242975318e+01 0 2 1
1005 1 6.8910500644657882e+00 2.1218858778024710e+00 2.3677665717934467e+01 1 2 1
1197 1 2.5597654856042058e+00 3.8610500054118668e-01 1.9937010003846147e+01 2 2 1
3449 1 7.7791644195647294e+00 1.0956708444805127e+01 2.4049109415449458e+01 0 -4 0
4484 1 1.2081330559461231e+01 1.8626266225910779e+01 2.3145938138423212e+01 -2 6 1
920 1 5.3544498156661313e-01 1.1590891509547713e+01 1.2536819691079332e+01 3 0 1
4157 1 2.4728658237102836e+00 5.7893031516836935e-01 1.2727515463694532e+01 0 -2 1
366 1 2.4500223074707921e+00 4.8812680925125324e-01 1.7259995969600840e+01 -5 1 0
320 1 7.3559717013783761e+00 6.5698927581808055e+00 2.3907637674850317e+01 -1 1 0
511 2 1.3701993722596839e-01 2.9623584838519772e+00 2.6734970311920673e+01 0 0 0
512 2 1.3701993722596839e-01 1.3646215843132481e-01 2.6734970311920673e+01 0 0 0
513 2 1.3606689403648828e+00 8.4293623978702026e-01 2.6734970311920673e+01 0 0 0
517 2 1.3606689403648828e+00 2.2558844024974021e+00 2.6734970311920673e+01 0 0 0
518 2 2.5843179435037973e+00 2.9623584838519772e+00 2.6734970311920673e+01 0 0 0
519 2 2.5843179435037973e+00 1.3646215843132481e-01 2.6734970311920673e+01 0 0 0
520 2 3.8079669466430697e+00 8.4293623978702026e-01 2.6734970311920673e+01 0 0 0
528 2 3.8079669466430697e+00 2.2558844024974021e+00 2.6734970311920673e+01 0 0 0
529 2 5.0316159497816262e+00 2.9623584838519772e+00 2.6734970311920673e+01 0 0 0
530 2 5.0316159497816262e+00 1.3646215843132481e-01 2.6734970311920673e+01 0 0 0
531 2 6.2552649529197684e+00 8.4293623978702026e-01 2.6734970311920673e+01 0 0 0
543 2 6.2552649529197684e+00 2.2558844024974021e+00 2.6734970311920673e+01 0 0 0
544 2 7.4789139560601710e+00 2.9623584838519772e+00 2.6734970311920673e+01 0 0 0
545 2 7.4789139560601710e+00 1.3646215843132481e-01 2.6734970311920673e+01 0 0 0
2622 1 2.8599058588158450e+00 4.7556581900380737e+00 2.4103812044620533e+01 2 2 1
546 2 8.7025629591934131e+00 8.4293623978702026e-01 2.6734970311920673e+01 0 0 0
562 2 8.7025629591934131e+00 2.2558844024974021e+00 2.6734970311920673e+01 0 0 0
563 2 9.9262119623372840e+00 2.9623584838519772e+00 2.6734970311920673e+01 0 0 0
564 2 9.9262119623372840e+00 1.3646215843132481e-01 2.6734970311920673e+01 0 0 0
565 2 1.1149860965472682e+01 8.4293623978702026e-01 2.6734970311920673e+01 0 0 0
585 2 1.1149860965472682e+01 2.2558844024974021e+00 2.6734970311920673e+01 0 0 0
586 2 1.2373509968613568e+01 2.9623584838519772e+00 2.6734970311920673e+01 0 0 0
587 2 1.2373509968613568e+01 1.3646215843132481e-01 2.6734970311920673e+01 0 0 0
3557 1 1.1881791673182862e+01 7.7436070222097975e+00 2.4535233524138825e+01 -2 1 0
514 2 1.3701993722596839e-01 7.2012029719863744e+00 2.6734970311920673e+01 0 0 0
515 2 1.3701993722596839e-01 4.3753066465634793e+00 2.6734970311920673e+01 0 0 0
516 2 1.3606689403648828e+00 5.0817807279175202e+00 2.6734970311920673e+01 0 0 0
524 2 1.3606689403648828e+00 6.4947288906314524e+00 2.6734970311920673e+01 0 0 0
525 2 2.5843179435037973e+00 7.2012029719863744e+00 2.6734970311920673e+01 0 0 0
526 2 2.5843179435037973e+00 4.3753066465634793e+00 2.6734970311920673e+01 0 0 0
527 2 3.8079669466430697e+00 5.0817807279175202e+00 2.6734970311920673e+01 0 0 0
539 2 3.8079669466430697e+00 6.4947288906314524e+00 2.6734970311920673e+01 0 0 0
540 2 5.0316159497816262e+00 7.2012029719863744e+00 2.6734970311920673e+01 0 0 0
541 2 5.0316159497816262e+00 4.3753066465634793e+00 2.6734970311920673e+01 0 0 0
542 2 6.2552649529197684e+00 5.0817807279175202e+00 2.6734970311920673e+01 0 0 0
558 2 6.2552649529197684e+00 6.4947288906314524e+00 2.6734970311920673e+01 0 0 0
559 2 7.4789139560601710e+00 7.2012029719863744e+00 2.6734970311920673e+01 0 0 0
560 2 7.4789139560601710e+00 4.3753066465634793e+00 2.6734970311920673e+01 0 0 0
561 2 8.7025629591934131e+00 5.0817807279175202e+00 2.6734970311920673e+01 0 0 0
581 2 8.7025629591934131e+00 6.4947288906314524e+00 2.6734970311920673e+01 0 0 0
582 2 9.9262119623372840e+00 7.2012029719863744e+00 2.6734970311920673e+01 0 0 0
583 2 9.9262119623372840e+00 4.3753066465634793e+00 2.6734970311920673e+01 0 0 0
584 2 1.1149860965472682e+01 5.0817807279175202e+00 2.6734970311920673e+01 0 0 0
605 2 1.1149860965472682e+01 6.4947288906314524e+00 2.6734970311920673e+01 0 0 0
606 2 1.2373509968613568e+01 7.2012029719863744e+00 2.6734970311920673e+01 0 0 0
607 2 1.2373509968613568e+01 4.3753066465634793e+00 2.6734970311920673e+01 0 0 0
404 1 9.6599119589383697e+00 1.8567015210005607e+01 2.4124907162852615e+01 4 -3 0
521 2 1.3701993722596839e-01 1.1440047460113934e+01 2.6734970311920673e+01 0 0 0
522 2 1.3701993722596839e-01 8.6141511346956339e+00 2.6734970311920673e+01 0 0 0
523 2 1.3606689403648828e+00 9.3206252160497947e+00 2.6734970311920673e+01 0 0 0
535 2 1.3606689403648828e+00 1.0733573378761408e+01 2.6734970311920673e+01 0 0 0
536 2 2.5843179435037973e+00 1.1440047460113934e+01 2.6734970311920673e+01 0 0 0
537 2 2.5843179435037973e+00 8.6141511346956339e+00 2.6734970311920673e+01 0 0 0
538 2 3.8079669466430697e+00 9.3206252160497947e+00 2.6734970311920673e+01 0 0 0
554 2 3.8079669466430697e+00 1.0733573378761408e+01 2.6734970311920673e+01 0 0 0
1564 2 1.1149860965472682e+01 2.3450106843155883e+01 3.3327029688067171e+01 0 0 0
2657 1 8.9189338032705354e+00 7.7081257084930952e+00 3.5842284293926099e+01 0 -2 0
555 2 5.0316159497816262e+00 1.1440047460113934e+01 2.6734970311920673e+01 0 0 0
556 2 5.0316159497816262e+00 8.6141511346956339e+00 2.6734970311920673e+01 0 0 0
557 2 6.2552649529197684e+00 9.3206252160497947e+00 2.6734970311920673e+01 0 0 0
577 2 6.2552649529197684e+00 1.0733573378761408e+01 2.6734970311920673e+01 0 0 0
578 2 7.4789139560601710e+00 1.1440047460113934e+01 2.6734970311920673e+01 0 0 0
579 2 7.4789139560601710e+00 8.6141511346956339e+00 2.6734970311920673e+01 0 0 0
1813 1 5.2726327542996980e+00 1.7724283605971959e+01 2.4204960161893759e+01 1 1 0
580 2 8.7025629591934131e+00 9.3206252160497947e+00 2.6734970311920673e+01 0 0 0
601 2 8.7025629591934131e+00 1.0733573378761408e+01 2.6734970311920673e+01 0 0 0
602 2 9.9262119623372840e+00 1.1440047460113934e+01 2.6734970311920673e+01 0 0 0
603 2 9.9262119623372840e+00 8.6141511346956339e+00 2.6734970311920673e+01 0 0 0
604 2 1.1149860965472682e+01 9.3206252160497947e+00 2.6734970311920673e+01 0 0 0
625 2 1.1149860965472682e+01 1.0733573378761408e+01 2.6734970311920673e+01 0 0 0
626 2 1.2373509968613568e+01 1.1440047460113934e+01 2.6734970311920673e+01 0 0 0
627 2 1.2373509968613568e+01 8.6141511346956339e+00 2.6734970311920673e+01 0 0 0
532 2 1.3701993722596839e-01 1.5678891948248104e+01 2.6734970311920673e+01 0 0 0
533 2 1.3701993722596839e-01 1.2852995622831580e+01 2.6734970311920673e+01 0 0 0
534 2 1.3606689403648828e+00 1.3559469704182179e+01 2.6734970311920673e+01 0 0 0
550 2 1.3606689403648828e+00 1.4972417866893560e+01 2.6734970311920673e+01 0 0 0
551 2 2.5843179435037973e+00 1.5678891948248104e+01 2.6734970311920673e+01 0 0 0
552 2 2.5843179435037973e+00 1.2852995622831580e+01 2.6734970311920673e+01 0 0 0
553 2 3.8079669466430697e+00 1.3559469704182179e+01 2.6734970311920673e+01 0 0 0
573 2 3.8079669466430697e+00 1.4972417866893560e+01 2.6734970311920673e+01 0 0 0
574 2 5.0316159497816262e+00 1.5678891948248104e+01 2.6734970311920673e+01 0 0 0
575 2 5.0316159497816262e+00 1.2852995622831580e+01 2.6734970311920673e+01 0 0 0
576 2 6.2552649529197684e+00 1.3559469704182179e+01 2.6734970311920673e+01 0 0 0
597 2 6.2552649529197684e+00 1.4972417866893560e+01 2.6734970311920673e+01 0 0 0
598 2 7.4789139560601710e+00 1.5678891948248104e+01 2.6734970311920673e+01 0 0 0
599 2 7.4789139560601710e+00 1.2852995622831580e+01 2.6734970311920673e+01 0 0 0
1566 2 1.2373509968613568e+01 2.1330684599091491e+01 3.3327029688067171e+01 0 0 0
600 2 8.7025629591934131e+00 1.3559469704182179e+01 2.6734970311920673e+01 0 0 0
621 2 8.7025629591934131e+00 1.4972417866893560e+01 2.6734970311920673e+01 0 0 0
622 2 9.9262119623372840e+00 1.5678891948248104e+01 2.6734970311920673e+01 0 0 0
623 2 9.9262119623372840e+00 1.2852995622831580e+01 2.6734970311920673e+01 0 0 0
624 2 1.1149860965472682e+01 1.3559469704182179e+01 2.6734970311920673e+01 0 0 0
642 2 1.1149860965472682e+01 1.4972417866893560e+01 2.6734970311920673e+01 0 0 0
643 2 1.2373509968613568e+01 1.5678891948248104e+01 2.6734970311920673e+01 0 0 0
644 2 1.2373509968613568e+01 1.2852995622831580e+01 2.6734970311920673e+01 0 0 0
547 2 1.3701993722596839e-01 1.9917736436376106e+01 2.6734970311920673e+01 0 0 0
548 2 1.3701993722596839e-01 1.7091840110959943e+01 2.6734970311920673e+01 0 0 0
549 2 1.3606689403648828e+00 1.7798314192317140e+01 2.6734970311920673e+01 0 0 0
569 2 1.3606689403648828e+00 1.9211262355024797e+01 2.6734970311920673e+01 0 0 0
570 2 2.5843179435037973e+00 1.9917736436376106e+01 2.6734970311920673e+01 0 0 0
571 2 2.5843179435037973e+00 1.7091840110959943e+01 2.6734970311920673e+01 0 0 0
572 2 3.8079669466430697e+00 1.7798314192317140e+01 2.6734970311920673e+01 0 0 0
593 2 3.8079669466430697e+00 1.9211262355024797e+01 2.6734970311920673e+01 0 0 0
1554 2 1.1149860965472682e+01 2.2037158680449295e+01 3.3327029688067171e+01 0 0 0
594 2 5.0316159497816262e+00 1.9917736436376106e+01 2.6734970311920673e+01 0 0 0
595 2 5.0316159497816262e+00 1.7091840110959943e+01 2.6734970311920673e+01 0 0 0
596 2 6.2552649529197684e+00 1.7798314192317140e+01 2.6734970311920673e+01 0 0 0
617 2 6.2552649529197684e+00 1.9211262355024797e+01 2.6734970311920673e+01 0 0 0
618 2 7.4789139560601710e+00 1.9917736436376106e+01 2.6734970311920673e+01 0 0 0
619 2 7.4789139560601710e+00 1.7091840110959943e+01 2.6734970311920673e+01 0 0 0
1537 2 8.7025629591934131e+00 2.2037158680449295e+01 3.3327029688067171e+01 0 0 0
620 2 8.7025629591934131e+00 1.7798314192317140e+01 2.6734970311920673e+01 0 0 0
638 2 8.7025629591934131e+00 1.9211262355024797e+01 2.6734970311920673e+01 0 0 0
639 2 9.9262119623372840e+00 1.9917736436376106e+01 2.6734970311920673e+01 0 0 0
640 2 9.9262119623372840e+00 1.7091840110959943e+01 2.6734970311920673e+01 0 0 0
641 2 1.1149860965472682e+01 1.7798314192317140e+01 2.6734970311920673e+01 0 0 0
655 2 1.1149860965472682e+01 1.9211262355024797e+01 2.6734970311920673e+01 0 0 0
657 2 1.2373509968613568e+01 1.7091840110959943e+01 2.6734970311920673e+01 0 0 0
613 2 3.8079669466430697e+00 2.3450106843155883e+01 2.6734970311920673e+01 0 0 0