
# Create simulation box and atoms

read_data data.graphite_substrate
  orthogonal box = (0 0 -0.0398667) to (49.22 49.0196 60.1019)
  4 by 2 by 5 MPI processor grid
  reading atoms ...
  6736 atoms
  reading velocities ...
  6736 velocities
group water type 1
3976 atoms in group water
group graphite type 2
2760 atoms in group graphite

# Define potential

pair_style sw
pair_coeff * * mWC.sw mW C
Reading potential file mWC.sw with DATE: 2019-02-27


# Fix graphite atoms in place

fix 5 graphite setforce 0.0 0.0 0.0
velocity graphite set 0.0 0.0 0.0


# Equilibration of molecular water

# Add velocity/set timestep

velocity	    water create ${TEMP} ${SEED} rot yes dist gaussian
velocity	    water create 225 ${SEED} rot yes dist gaussian
velocity	    water create 225 13901 rot yes dist gaussian
timestep	    5.0

# Define output

compute			1 water msd
compute			3 water temp
thermo	    	50
thermo_style	custom step temp press vol etotal ke pe c_1[4] c_3

# Neighbor lists

neigh_modify    delay 0 every 1 check yes

# Set fixes

fix             1 water momentum 10 linear 1 1 1 rescale
fix             2 water nve
fix             3 water temp/csvr ${TEMP} ${TEMP} 500.0 ${SEED}
fix             3 water temp/csvr 225 ${TEMP} 500.0 ${SEED}
fix             3 water temp/csvr 225 225 500.0 ${SEED}
fix             3 water temp/csvr 225 225 500.0 13901
fix             4 water press/berendsen iso ${PRES} ${PRES} 1000.0 modulus 20000
fix             4 water press/berendsen iso 1 ${PRES} 1000.0 modulus 20000
fix             4 water press/berendsen iso 1 1 1000.0 modulus 20000

# Run 0.5 ns equilibration

dump		    1 all atom 2000 ${DIR}/eq.${NAME}-${TEMP}.dump
dump		    1 all atom 2000 run_3/eq.${NAME}-${TEMP}.dump
dump		    1 all atom 2000 run_3/eq.het_freeze_3-${TEMP}.dump
dump		    1 all atom 2000 run_3/eq.het_freeze_3-225.dump

reset_timestep  0

run	            100000
Neighbor list info ...
  update every 1 steps, delay 0 steps, check yes
  max neighbors/atom: 2000, page size: 100000
  master list distance cutoff = 7.76
  ghost atom cutoff = 7.76
  binsize = 3.88, bins = 13 13 16
  1 neighbor lists, perpetual/occasional/extra = 1 0 0
  (1) pair sw, perpetual
      attributes: full, newton on
      pair build: full/bin/atomonly
      stencil: full/bin/3d
      bin: standard
Per MPI rank memory allocation (min/avg/max) = 4.107 | 4.218 | 4.541 Mbytes
Step Temp Press Volume TotEng KinEng PotEng c_1[4] c_3 
       0     132.7951   -1147.9579    145106.76   -36018.829     2665.962   -38684.791            0          225 
      50    173.00202    -344.0733    143615.85   -36387.628    3473.1462   -39860.774   0.89560737    293.12417 
     100    166.88071   -386.61854    142780.73   -36806.966    3350.2563   -40157.222    2.0148171    282.75259 
     150    163.32828   -263.87834     142195.7   -37102.088    3278.9386   -40381.026    2.9209703    276.73357 
     200    159.16065   -411.22189    141661.71   -37358.249    3195.2704   -40553.519    3.7627485     269.6722 
     250    155.63611   -398.72083     141010.2   -37599.866    3124.5126   -40724.379    4.5012133    263.70043 
     300    151.80731   -232.87346    140399.34   -37774.487    3047.6465   -40822.133     5.218311    257.21315 
     350    147.67142   -103.16059    140116.19   -38025.876    2964.6154   -40990.492    5.8042171    250.20554 
     400    147.74639   -4.0217153    139743.43   -38192.705    2966.1204   -41158.826    6.3646621    250.33256 
     450    146.21977   -23.431225    139689.84   -38323.289    2935.4723   -41258.762    6.8692648    247.74595 
     500    147.01124   -82.327262    139664.86   -38426.133    2951.3618   -41377.495    7.2975705    249.08697 
     550    142.33889   -97.334241    139682.93   -38491.941    2857.5609   -41349.502    7.7630634    241.17043 
     600    143.41723    -271.6544    139386.55   -38604.916    2879.2092   -41484.125    8.2704068    242.99749 
     650    140.47357   -136.78849    139294.17   -38693.172    2820.1131   -41513.286    8.6824416    238.00994 
     700    140.60433   -110.93263    139328.47   -38726.827    2822.7383   -41549.566    8.9843617     238.2315 
     750    139.39976   -220.36453    138958.69   -38770.565    2798.5556    -41569.12    9.4858361    236.19054 
     800    134.78896    21.986356    138858.14   -38839.766    2705.9902   -41545.756    9.9520724    228.37827 
     850    137.34837   -24.658311    138832.21   -38839.788    2757.3722    -41597.16    10.361241    232.71478 
     900    138.49544    91.501004     138829.4   -38864.633    2780.4006   -41645.034    10.780283    234.65831 
     950     136.7087    23.024758    138912.64   -38906.037    2744.5305   -41650.567    11.027666    231.63097 
    1000    135.88272   -95.764727    138910.51   -38918.757    2727.9483   -41646.705    11.361137    230.23147 
    1050     136.2351    114.90867    138847.58   -38980.819    2735.0226   -41715.841     11.65585    230.82853 
    1100    136.83257    30.989414     138933.1   -38984.807    2747.0173   -41731.824    11.964649    231.84085 
    1150     135.5854   -27.104889     138882.1   -39048.131    2721.9794   -41770.111    12.452661    229.72772 
    1200    134.90445   -28.975845    138848.93   -39079.487    2708.3089   -41787.796    12.789984    228.57396 
    1250    134.85904   -124.54705    138862.94   -39077.501    2707.3971   -41784.899    13.045617    228.49701 
    1300    136.27032   -156.61265    138882.46   -39149.452    2735.7297   -41885.182    13.317508    230.88821 
    1350    132.60162    44.921579    138853.01   -39116.126    2662.0778   -41778.204    13.609086    224.67218 
    1400    131.81371   -71.016042    138860.88   -39150.444    2646.2599   -41796.704    14.026059     223.3372 
    1450    135.82245   -114.91945    138776.63   -39165.923    2726.7383   -41892.661    14.319218    230.12935 
    1500    133.05534    30.915583    138718.74   -39201.409    2671.1865   -41872.596    14.504523    225.44093 
    1550    131.07365    20.840758    138642.96   -39196.822    2631.4027   -41828.225    14.828133    222.08329 
    1600    134.30626   -80.572556    138790.04   -39190.154    2696.2996   -41886.453    15.069943    227.56041 
    1650    130.04609    157.01586    138819.56   -39229.704    2610.7735   -41840.477    15.383472    220.34224 
    1700    132.49216   -60.391767    138953.76   -39184.497    2659.8801   -41844.377    15.681351    224.48671 
    1750     135.0296    17.734524    138768.17    -39213.96    2710.8212   -41924.781    16.124215    228.78599 
    1800    133.91953   -27.067043    138788.88   -39205.764    2688.5358     -41894.3    16.379143    226.90517 
    1850    134.64968    50.425022    138909.51   -39186.092    2703.1941   -41889.286    16.695522    228.14229 
    1900    134.71334   -12.244314    138939.79   -39118.317    2704.4722   -41822.789    16.961793    228.25016 
    1950    135.94746    121.68446    138901.41   -39159.127     2729.248   -41888.375    17.310401    230.34117 
    2000    135.02729     129.3034    139071.83   -39140.492    2710.7748   -41851.266    17.455414    228.78208 
    2050    134.82373    93.066694     139214.9   -39138.425    2706.6883   -41845.114    17.651691    228.43719 
    2100    135.70794     238.8247    139278.13   -39087.624    2724.4394   -41812.063    18.035782    229.93534 
    2150    138.10484    60.850783    139426.85   -39091.423    2772.5591   -41863.982    18.352483    233.99651 
    2200    135.23971   -96.398432    139410.79    -39158.01    2715.0395   -41873.049    18.760327    229.14201 
    2250    135.84044    96.851793       139403   -39119.652    2727.0994   -41846.751    19.171506    230.15984 
    2300    135.39678    44.629151    139446.23   -39154.489    2718.1928   -41872.682    19.608457    229.40814 
    2350    133.29867   -134.21897    139435.44   -39174.298    2676.0714    -41850.37    20.016549    225.85321 
    2400    129.96982   -75.000845    139480.45   -39235.714    2609.2424   -41844.956     20.37415    220.21302 
    2450    133.05203   -41.153215    139332.47    -39251.18      2671.12     -41922.3    20.649853    225.43532 
    2500    133.48556    52.059764    139234.06   -39299.763    2679.8234   -41979.586    20.942709    226.16987 
    2550    133.42417    97.255482    139263.27   -39266.857     2678.591   -41945.448    21.282958    226.06586 
    2600    133.16087   -85.268192    139228.82   -39212.884    2673.3052   -41886.189    21.482058    225.61974 
    2650    136.65892   -61.514744    139069.24   -39165.501    2743.5312   -41909.032    21.757161    231.54663 
    2700    134.26119    14.950565    139126.83    -39220.87    2695.3949   -41916.265    22.134749    227.48406 
    2750    129.86849     101.4988    139098.94   -39288.025    2607.2082   -41895.233    22.412971    220.04134 
    2800    133.53931   -9.8485437    139136.37   -39273.045    2680.9026   -41953.948    22.775788    226.26095 
    2850    129.85699    -15.13359    139089.76    -39303.09    2606.9771   -41910.068    22.947432    220.02184 
    2900    129.88886   -110.80192     138989.4   -39297.853    2607.6171    -41905.47    23.217562    220.07585 
    2950    129.99528   -239.87918    138811.31   -39317.507    2609.7536   -41927.261    23.490337    220.25616 
    3000    131.28631    99.387907     138726.8   -39341.876     2635.672   -41977.548    23.818091     222.4436 
    3050    134.40773   -36.803421    138712.62   -39334.873    2698.3367   -42033.209    24.059764    227.73234 
    3100     133.0954    244.92991    138787.99   -39316.249    2671.9908   -41988.239    24.358381    225.50881 
    3150    134.47071    4.0562174    138874.42   -39278.837    2699.6012   -41978.439    24.578199    227.83906 
    3200    133.35723    10.673096    138892.83   -39310.916    2677.2471   -41988.163    24.896505    225.95244 
    3250    133.72375     63.33113    139115.15   -39288.241    2684.6053   -41972.847    24.969028    226.57345 
    3300    130.62617     43.03528       139229   -39285.779    2622.4192   -41908.198    25.292206     221.3251 
    3350    135.31167    90.835602    139235.06   -39268.322     2716.484   -41984.806    25.503018    229.26392 
    3400    133.91533   -32.202246    139322.53    -39304.83    2688.4514   -41993.281     25.56347    226.89805 
    3450    133.75131   -79.325256    139408.08   -39375.192    2685.1586   -42060.351    25.787281    226.62014 
    3500    131.26265    79.472206    139486.32   -39440.956    2635.1968   -42076.153    26.102392     222.4035 
    3550    134.99927    52.583817    139547.46   -39374.915    2710.2123   -42085.127    26.288016    228.73461 
    3600    133.14937    71.459668    139587.77   -39366.251    2673.0742   -42039.325      26.4821    225.60025 
    3650    131.74112   0.41653058    139620.55   -39399.367    2644.8025    -42044.17     26.65801     223.2142 
    3700    132.50992     128.3881    139869.95     -39399.2    2660.2367   -42059.436    26.681661     224.5168 
    3750    134.42738    7.8136659    139725.29    -39412.44    2698.7312   -42111.171    26.821968    227.76563 
    3800    133.30373    53.003955    139823.98   -39437.877    2676.1731    -42114.05    27.049286    225.86179 
    3850    132.93611   -116.58059    140036.67    -39418.44    2668.7929   -42087.233    27.128362    225.23892 
    3900    132.42077    33.789198    139989.63   -39390.674     2658.447   -42049.121    27.344849    224.36575 
    3950    131.23588   -33.427903    140041.07   -39398.463    2634.6595   -42033.122    27.782846    222.35816 
    4000     130.8953    10.402894    140067.39   -39390.828    2627.8221    -42018.65    28.059685    221.78109 
    4050    130.59755   -8.3409944     139916.9   -39409.084    2621.8444   -42030.929    28.376694     221.2766 
    4100      130.564   -8.9760115    139884.47   -39400.324    2621.1709   -42021.495    28.782509    221.21976 
    4150    133.13022   -50.061924    139894.21   -39350.782    2672.6898   -42023.472    28.999857    225.56781 
    4200    131.20282   -83.053136    139749.92   -39375.615    2633.9957    -42009.61    29.335838    222.30213 
    4250    132.06099    119.65266    139794.37   -39324.444    2651.2242   -41975.668    29.603421    223.75617 
    4300     135.0444    70.389275    139870.42   -39303.289    2711.1184   -42014.407    29.820983    228.81108 
    4350    133.35206   -54.241269     139853.6   -39323.628    2677.1433   -42000.772    30.058276    225.94368 
    4400    132.31496    -127.3265    139706.01   -39327.561    2656.3227   -41983.884    30.305524    224.18647 
    4450    135.89892   -142.32283    139551.06   -39284.393    2728.2735   -42012.667    30.740869    230.25892 
    4500     134.9165   -131.69708    139496.75   -39314.533    2708.5507   -42023.084    30.997886    228.59438 
    4550    134.16047   -55.105652    139593.49   -39341.358    2693.3728   -42034.731    31.060492     227.3134 
    4600    133.45501   -86.625503    139704.07   -39338.589    2679.2102   -42017.799    31.282495    226.11812 
    4650    134.58168   -138.83225    139656.49   -39354.309     2701.829   -42056.138     31.60182    228.02708 
    4700    134.62565   -60.998814    139497.04   -39365.699    2702.7116    -42068.41    32.050245    228.10157 
    4750    134.00073    22.319067    139550.46   -39391.516     2690.166   -42081.682    32.304949    227.04275 
    4800    133.09702   -127.90535    139490.36   -39406.933    2672.0233   -42078.956    32.453031    225.51156 
    4850    132.65088    141.18871    139483.63   -39411.665    2663.0667   -42074.732    32.770481    224.75565 
    4900    131.77486    54.246945     139604.6   -39356.439      2645.48   -42001.919    32.950908    223.27137 
    4950    134.29847   -127.44107    139471.42   -39334.604    2696.1433   -42030.748    33.321777    227.54722 
    5000    131.99517    43.945455    139320.86   -39377.224    2649.9028   -42027.127    33.684382    223.64465 
    5050    132.50153    227.65074    139537.42    -39400.84    2660.0683   -42060.908    33.863304    224.50259 
    5100    130.73276    133.05974    139683.05    -39394.23     2624.559   -42018.789    33.962257     221.5057 
    5150    132.57941   -174.72211    139590.28   -39386.506    2661.6317   -42048.138    34.217675    224.63454 
    5200    136.18658    59.362468    139523.13   -39379.313    2734.0485   -42113.362    34.422238    230.74632 
    5250    131.53828    75.304525    139634.75   -39398.807    2640.7303   -42039.537    34.592474    222.87052 
    5300    132.23077   -23.882535    139691.04   -39437.318    2654.6326   -42091.951    34.749443    224.04383 
    5350     133.0529    162.19623     139850.3   -39426.394    2671.1375   -42097.531    34.833398     225.4368 
    5400    132.70472    9.6823406     139786.7   -39418.808    2664.1475   -42082.955    35.142281    224.84686 
    5450    131.88862    52.319043    139791.87   -39397.366    2647.7637   -42045.129     35.43436    223.46412 
    5500    132.41368   -27.536058    139793.89   -39422.401    2658.3048   -42080.706      35.6802    224.35375 
    5550     129.0293   -108.85009    139609.77   -39447.482    2590.3607   -42037.843    35.910535    218.61945 
    5600    130.88837    91.861466    139647.61   -39420.159     2627.683   -42047.842    36.081102    221.76936 
    5650    130.32543     65.62949    139609.68   -39439.744    2616.3815   -42056.125    36.366837    220.81554 
    5700    131.88933   -44.180082    139706.71   -39484.902    2647.7779    -42132.68    36.613208    223.46532 
    5750    130.27928    30.906348    139704.86    -39520.12     2615.455   -42135.575    36.884077    220.73735 
    5800    133.92838    35.975857    139806.86   -39476.537    2688.7135    -42165.25    37.249312    226.92016 
    5850    130.59139   -55.621221    139658.23    -39559.55    2621.7208   -42181.271    37.633483    221.26617 
    5900    130.51341    116.02339    139770.05   -39563.318    2620.1554   -42183.474    37.908866    221.13405 
    5950    132.19921   -33.185323    139668.81    -39555.86    2653.9991   -42209.859    38.249078    223.99037 
    6000    131.36886    -57.31102    139826.08   -39485.369    2637.3291   -42122.698    38.672253    222.58346 
    6050    133.83304    38.755381    139856.64   -39425.917    2686.7993   -42112.717    38.798257    226.75861 
    6100    131.10116    3.2929714    139746.74   -39439.073    2631.9549   -42071.028    39.011198     222.1299 
    6150    133.40633    37.223531    139660.61   -39433.144    2678.2329   -42111.377    39.211901    226.03563 
    6200    131.34945   -5.8014842    139654.93   -39461.242    2636.9395   -42098.181    39.312452    222.55058 
    6250    130.16996    8.2044792    139512.47    -39472.06    2613.2603    -42085.32    39.422289    220.55212 
    6300    128.80138   -69.723169    139483.29   -39494.111    2585.7849   -42079.896    39.725857    218.23327 
    6350    129.22087     133.8044     139436.2   -39490.742    2594.2066   -42084.949    39.744306    218.94404 
    6400     128.9371   -231.07525     139510.2   -39470.413    2588.5097   -42058.922    39.994376    218.46324 
    6450    133.41703    61.883526    139503.49   -39401.337    2678.4478   -42079.785    40.187206    226.05377 
    6500    131.50604   -114.23891     139462.4   -39427.214    2640.0831   -42067.297    40.494359    222.81589 
    6550    133.00405   -49.136039    139435.53   -39431.116    2670.1567   -42101.273    40.764059    225.35402 
    6600    133.04824   -61.050258    139360.21   -39430.539    2671.0439   -42101.583    41.103155     225.4289 
    6650    133.30646   -59.046875    139433.93   -39418.605    2676.2278   -42094.833    41.255859    225.86641 
    6700    130.17862   -7.4505131    139363.65   -39435.154    2613.4342   -42048.588    41.400235     220.5668 
    6750     133.6679   -77.489475    139309.45   -39411.666    2683.4842    -42095.15    41.670828    226.47883 
    6800    132.06428     122.6747    139230.95   -39432.006    2651.2903   -42083.297    41.863963    223.76175 
    6850    132.61896    -47.04863    139269.35   -39452.348    2662.4258   -42114.774    42.019586    224.70156 
    6900    129.48661    10.458452    139286.07   -39490.522    2599.5416   -42090.064    42.292973     219.3943 
    6950    132.62496   -109.51513    139333.69   -39481.791    2662.5463   -42144.337    42.413056    224.71172 
    7000    130.14361    19.972949    139216.72   -39473.035    2612.7314   -42085.767    42.642913    220.50748 
    7050    130.30395   -158.64239     139193.4   -39452.748    2615.9503   -42068.698    42.796419    220.77915 
    7100    129.62244   -54.864764    139071.28   -39411.295    2602.2684   -42013.564    43.229514    219.62443 
    7150    132.62506    147.59338    139037.75   -39400.646    2662.5482   -42063.194    43.428408    224.71189 
    7200    133.25446   -81.832174     139366.8   -39348.879     2675.184   -42024.063    43.759582    225.77832 
    7250    132.43385   -121.46156     139437.2    -39409.93    2658.7096   -42068.639    43.961004    224.38791 
    7300    132.25419    20.355997    139313.78   -39394.778    2655.1029   -42049.881     44.16199    224.08352 
    7350    131.32237    33.546456    139412.44   -39425.772    2636.3958   -42062.167    44.286225     222.5047 
    7400    130.38988   -42.957091    139307.26    -39433.29    2617.6753   -42050.965    44.428968    220.92473 
    7450    131.36587   -139.71876    139200.26   -39482.816     2637.269   -42120.085    44.529333    222.57839 
    7500    131.83652    197.41737    139199.01   -39496.769    2646.7177   -42143.487    44.691966    223.37583 
    7550    132.80928   -20.478563       139457   -39464.692    2666.2467   -42130.939    44.891628    225.02403 
    7600    131.26128   -29.298495     139492.6   -39442.754    2635.1694   -42077.923    45.202952    222.40119 
    7650    131.08543   -129.06679    139515.77   -39439.236    2631.6391   -42070.875    45.548701    222.10324 
    7700    130.34176    18.728979    139480.42   -39428.168    2616.7093   -42044.877    45.749774     220.8432 
    7750     132.1912    87.214497    139395.38   -39384.395    2653.8381   -42038.233    45.868034    223.97678 
    7800    134.20792    24.755125    139498.82   -39336.723    2694.3253   -42031.048    45.942432    227.39379 
    7850    132.90177    143.28356    139634.06    -39394.29    2668.1034   -42062.393    46.163794    225.18073 
    7900    131.50053   -162.39878    139628.06   -39405.424    2639.9725   -42045.397    46.193503    222.80656 
    7950    131.26583   -44.255503    139552.16   -39424.025    2635.2606   -42059.285    46.556282    222.40889 
    8000    131.73279   -68.521213    139600.21   -39457.868    2644.6352   -42102.504    46.897232    223.20008 
    8050      130.222    145.38548     139617.4   -39493.294     2614.305   -42107.599    47.118986    220.64029 
    8100    131.43079   -176.91803    139631.82   -39514.131    2638.5723   -42152.704    47.430405    222.68839 
    8150    133.13028    22.125091    139471.67   -39471.217    2672.6911   -42143.908    47.567268    225.56792 
    8200    132.29613    23.983905    139584.51    -39471.25    2655.9447   -42127.195    47.709855    224.15457 
    8250    132.04163   -227.79693    139561.25   -39510.276    2650.8355   -42161.111    48.000951    223.72336 
    8300    132.99151    11.291391    139380.84   -39514.312     2669.905   -42184.217    48.125998    225.33278 
    8350    129.53376    70.130182    139540.54   -39499.479    2600.4882   -42099.967    48.425681    219.47419 
    8400    131.61945    44.996715    139590.85   -39516.542    2642.3599   -42158.902    48.703076    223.00805 
    8450    132.54764   -100.84759       139670   -39540.999     2660.994   -42201.993    48.999882    224.58071 
    8500    128.73365    64.717824    139642.34   -39537.636    2584.4252   -42122.061    49.130984    218.11852 
    8550     133.2953     13.56818    139505.38   -39483.311     2676.004   -42159.315    49.322023    225.84751 
    8600    132.86442    85.713098    139621.92   -39475.156    2667.3537   -42142.509     49.71931    225.11746 
    8650    132.00816   -102.29362    139800.53   -39467.308    2650.1636   -42117.472    49.722895    223.66666 
    8700    131.48225    75.778999    139763.73   -39453.026    2639.6056   -42092.631    50.172644    222.77559 
    8750    132.75331    36.130167    139765.95   -39481.497    2665.1231    -42146.62    50.451372     224.9292 
    8800    133.18472   -34.717613    139750.98   -39507.979    2673.7839   -42181.763    50.585688    225.66015 
    8850    132.22614    37.660347    139614.98   -39478.858    2654.5397   -42133.398    50.706623    224.03599 
    8900     130.0248    157.59592    139806.18   -39502.246    2610.3461   -42112.592    50.879889    220.30617 
    8950    131.11967   -72.977603    139695.61   -39518.656    2632.3264   -42150.983     50.91705    222.16125 
    9000    130.12418   -11.189143    139648.25   -39500.108    2612.3412   -42112.449    51.198277    220.47455 
    9050    134.15448    84.951077     139737.8   -39486.085    2693.2527   -42179.338    51.423796    227.30326 
    9100    131.34618   -23.121432    139734.15   -39425.271    2636.8739   -42062.145    51.678585    222.54505 
    9150     131.2369     75.03161    139659.87   -39424.737    2634.6799   -42059.417    52.069579    222.35987 
    9200    131.24537    122.29788    139834.54   -39403.856      2634.85   -42038.706    52.400809    222.37423 
    9250    132.13443   -92.092837    139647.93   -39433.417    2652.6985   -42086.115    52.675529     223.8806 
    9300    130.60196    25.336252    139643.11   -39444.106    2621.9331   -42066.039    52.808781    221.28408 
    9350    129.27046   -133.91845    139664.67   -39495.595    2595.2023   -42090.797    53.210857    219.02807 
    9400    130.94556    84.332321     139567.5   -39482.081    2628.8311   -42110.912    53.605406    221.86625 
    9450    135.13593   -107.10658    139521.03   -39464.709    2712.9559   -42177.665    53.877404    228.96616 
    9500    134.05639    46.557086    139596.03   -39393.635    2691.2834   -42084.918    54.023661    227.13706 
    9550    129.89001   -1.4753251    139659.24    -39430.49      2607.64    -42038.13    54.207436    220.07779 
    9600    131.22694    25.727246    139644.12   -39379.263      2634.48   -42013.743    54.465181    222.34301 
    9650     133.1274    25.689687    139665.05   -39427.613    2672.6331   -42100.247     54.78908    225.56303 
    9700    132.38564   -55.346509    139591.45   -39469.836    2657.7417   -42127.578    55.125271    224.30623 
    9750    132.24171    126.18469    139617.87    -39454.83    2654.8523   -42109.682    55.217156    224.06237 
    9800    134.07255    76.395503    139651.95   -39433.343    2691.6077   -42124.951    55.328054    227.16443 
    9850    132.85689   -25.396272    139493.21   -39446.435    2667.2024   -42113.637     55.61127    225.10469 
    9900    132.18077   -17.084017    139358.95   -39480.172    2653.6289   -42133.801    55.729837    223.95912 
    9950    133.13106    175.05557    139467.19   -39397.699    2672.7066   -42070.405    55.764664    225.56923 
   10000    131.90163   -77.985077    139445.73   -39372.473    2648.0249   -42020.498    55.755653    223.48616 
   10050    130.69194   -68.412477    139362.39   -39405.071    2623.7394    -42028.81    55.964068    221.43653 
   10100    128.10783    153.76312    139374.67   -39424.044    2571.8616   -41995.906    56.190967    217.05818 
   10150    131.92346   -182.32774    139344.27    -39409.94    2648.4631   -42058.403     56.56931    223.52314 
   10200    132.56987   -34.710173    139365.46   -39430.154    2661.4403   -42091.594     56.87722    224.61838 
   10250    128.92941    9.5864913    139292.28    -39460.71    2588.3553   -42049.065    56.973274     218.4502 
   10300     134.9229    123.18015    139568.67   -39414.124    2708.6791   -42122.803    57.171417    228.60521 
   10350    132.43237   -181.47986    139563.65    -39432.99    2658.6799    -42091.67    57.570852    224.38541 
   10400    132.76315   -30.694619    139386.27   -39436.798    2665.3206   -42102.119     57.73955    224.94587 
   10450    131.69811    10.880038    139412.43   -39413.617    2643.9391   -42057.556     57.94417    223.14133 
   10500    134.96451   -160.55536    139350.18   -39410.809    2709.5146   -42120.323    58.181625    228.67572 
   10550    129.80052   -28.828309    139433.24     -39418.9    2605.8435   -42024.744    58.383089    219.92616 
   10600    132.98052    112.66927    139551.03   -39412.945    2669.6845    -42082.63    58.532529    225.31417 
   10650    134.72944    11.165598    139619.74   -39388.374    2704.7954   -42093.169    58.633689    228.27744 
   10700    132.91388   -150.22263     139628.6   -39372.368    2668.3466   -42040.715    58.921882    225.20126 
   10750     133.3006   -175.67071     139536.7   -39367.774    2676.1103   -42043.885    59.104567    225.85649 
   10800    133.79578    63.474295    139455.52   -39373.987    2686.0513   -42060.039    59.274379    226.69549 
   10850    130.41067    52.497478    139571.98   -39388.381    2618.0928   -42006.474    59.807065    220.95997 
   10900    129.81499   -33.392019    139562.45   -39428.348     2606.134   -42034.482    59.900996    219.95068 
   10950    132.54119   -180.69151    139353.11   -39413.814    2660.8645   -42074.679    60.174728    224.56979 
   11000     131.1629    2.0706332    139408.19   -39343.202    2633.1944   -41976.397    60.282882     222.2345 
   11050    133.82256    1.5314139    139496.34    -39348.56    2686.5891    -42035.15    60.450506    226.74087 
   11100    130.94267    6.9471686    139532.15   -39397.384    2628.7731   -42026.157    60.652176    221.86135 
   11150    132.05652   -16.224436    139552.77     -39369.7    2651.1345   -42020.835    60.689066     223.7486 
   11200    133.99977   -19.697201    139576.82   -39333.885    2690.1466   -42024.031    61.018055    227.04111 
   11250    133.21047   -107.55718    139479.74   -39400.704    2674.3008   -42075.005    61.248403    225.70377 
   11300     131.8767   -216.48816    139372.38   -39411.464    2647.5244   -42058.989    61.167397    223.44391 
   11350    134.02504    151.85353    139326.14   -39409.645    2690.6539   -42100.299    61.445939    227.08393 
   11400    132.68316   -80.533066    139333.96   -39367.712    2663.7147   -42031.426    61.623191    224.81034 
   11450    133.24367   -86.027866    139273.65   -39379.359    2674.9674   -42054.327     61.71328    225.76004 
   11500    133.61718    43.372953    139287.35   -39337.968    2682.4658   -42020.434    61.836836    226.39287 
   11550    133.20918    65.245716     139417.8   -39278.739    2674.2749   -41953.014    62.023771    225.70159 
   11600    135.65123    49.002945    139291.08   -39298.624     2723.301   -42021.925    62.312711    229.83926 
   11650    134.21505    71.687723    139250.59    -39291.67    2694.4685   -41986.138    62.667912    227.40588 
   11700    133.83212   -52.296945    139250.32   -39331.139     2686.781    -42017.92    62.877134    226.75707 
   11750    132.84279    84.750226    139440.54    -39322.97    2666.9194    -41989.89    63.187485     225.0808 
   11800    135.56723   -65.927947    139414.77   -39312.036    2721.6147    -42033.65    63.699796    229.69694 
   11850    133.70933     176.7566    139422.94   -39341.318    2684.3159   -42025.633    63.825045    226.54902 
   11900     130.7626   -36.032072    139579.02   -39384.468     2625.158   -42009.626    64.053847    221.55625 
   11950    132.62198    85.742329    139608.67   -39396.169    2662.4864   -42058.656    64.436741    224.70667 
   12000     131.6664    184.52659    139704.18   -39385.374    2643.3025   -42028.676    64.926981     223.0876 
   12050    135.83803   -169.52309    139713.87   -39379.144    2727.0512   -42106.195    64.964552    230.15576 
   12100    134.65852   -194.61763    139701.37   -39379.017    2703.3716   -42082.389    65.066695    228.15727 
   12150    132.82358    73.839091    139690.59   -39391.424    2666.5337   -42057.957    65.219385    225.04825 
   12200    134.56904    85.169436    139826.78   -39372.635    2701.5752    -42074.21    65.374933    228.00566 
   12250    136.34384   -80.516416    139902.66   -39356.813    2737.2056   -42094.019    65.819636    231.01277 
   12300    135.64365    43.431711    139872.75   -39359.465    2723.1489   -42082.614     65.96266    229.82642 
   12350    133.23926    146.50257    139985.19    -39368.28    2674.8788   -42043.159    66.223662    225.75256 
   12400    132.37701   -76.729852    140052.39   -39388.388    2657.5686   -42045.957    66.574171    224.29162 
   12450      135.144    25.810573    139941.52   -39322.457    2713.1179   -42035.575    66.792876    228.97983 
   12500    133.32696   -34.856968    139864.35   -39302.835    2676.6396   -41979.474     66.85438    225.90116 
   12550    134.83222   -59.119744    139784.46   -39275.071    2706.8586    -41981.93    66.933847    228.45157 
   12600    133.31886     115.6255    139844.27   -39259.821    2676.4768   -41936.298    67.155541    225.88742 
   12650    134.14735    13.340814    139946.35   -39293.235    2693.1095   -41986.345    67.374791    227.29118 
   12700    137.38786    107.84276    139966.93    -39289.03    2758.1651   -42047.195    67.648499    232.78169 
   12750    136.14091    47.860292    140128.68   -39274.408    2733.1317    -42007.54    68.071501    230.66894 
   12800     131.3335   -83.345301     140107.5   -39356.872    2636.6193   -41993.491    68.379036    222.52356 
   12850    131.83639   -184.77616    139970.07   -39364.951    2646.7151   -42011.666    68.607815    223.37561 
   12900    132.76451   -29.375767    139915.66    -39343.28    2665.3479   -42008.628     68.97992    224.94817 
   12950    134.40832   -143.47585    139772.41   -39332.754    2698.3485   -42031.103    69.257259    227.73334 
   13000    131.65183   -56.163853    139692.77   -39389.739    2643.0099   -42032.749    69.501254    223.06291 
   13050    132.53433   -198.02272       139493    -39371.38    2660.7269   -42032.107    69.773655    224.55817 
   13100    134.74419   -174.08311    139569.16   -39397.782    2705.0914   -42102.873    69.882224    228.30242 
   13150    130.55732   -208.20099    139536.65   -39435.557     2621.037   -42056.594     70.09274    221.20845 
   13200    131.08606   -2.7215975    139462.76   -39431.223    2631.6518   -42062.875    70.284737    222.10431 
   13250    130.52197      98.6001    139480.56    -39386.63    2620.3271   -42006.958     70.42085    221.14854 
   13300    132.96244   -19.679221     139555.5   -39375.913    2669.3214   -42045.234    70.501932    225.28352 
   13350    130.63304   -205.64948    139396.48   -39360.023     2622.557    -41982.58    70.908292    221.33674 
   13400    131.43003     126.4349    139374.14   -39375.752    2638.5573    -42014.31    71.131497    222.68712 
   13450    132.70241    25.297692     139420.6   -39421.717    2664.1012   -42085.819    71.302237    224.84296 
   13500    134.22391   -56.014283    139468.85    -39387.64    2694.6463   -42082.287    71.621721    227.42088 
   13550    132.64326   -72.185648    139463.76   -39397.776    2662.9136   -42060.689     71.79375    224.74272 
   13600    133.51957   -15.569232    139332.44   -39394.915    2680.5063   -42075.422    71.881778     226.2275 
   13650    132.19008    127.63558    139430.06    -39387.27    2653.8158   -42041.086    72.060704    223.97489 
   13700    133.01103   -51.965475    139446.34     -39364.9     2670.297   -42035.197    72.343116    225.36586 
   13750    131.84443   -68.518393    139429.27   -39418.703    2646.8766    -42065.58    72.556556    223.38924 
   13800    133.10787    -170.4972    139260.01   -39380.208    2672.2411   -42052.449    72.606856    225.52994 
   13850    130.86921   -35.277955    139243.17   -39388.417    2627.2982   -42015.715    72.639823    221.73688 
   13900    133.71185   -34.295315    139202.09   -39385.734    2684.3664     -42070.1    72.519208    226.55329 
   13950    132.56792       133.89    139320.05   -39327.458    2661.4011   -41988.859    72.732984    224.61507 
   14000    135.16891   -32.750298    139412.69   -39334.298     2713.618   -42047.916    73.113991    229.02204 
   14050    131.19614    49.036547    139428.95   -39374.611    2633.8616   -42008.473    73.585527    222.29081 
   14100    133.40558    104.53922     139520.6   -39352.554    2678.2179   -42030.772    73.566912    226.03436 
   14150    133.02493   -46.955398    139520.69    -39403.22     2670.576   -42073.796     73.89424    225.38941 
   14200    133.29802   -74.629171       139463    -39427.17    2676.0586   -42103.228     74.22745    225.85212 
   14250    131.88601    127.37801    139573.56   -39419.245    2647.7114   -42066.956    74.486657     223.4597 
   14300    131.78804   -94.821819    139600.69    -39413.36    2645.7445   -42059.104    74.754194     223.2937 
   14350    130.73804   -9.1979186    139591.23   -39470.522     2624.665   -42095.187    74.865638    221.51464 
   14400    130.04654    51.550584    139705.44   -39423.188    2610.7825   -42033.971    75.135004      220.343 
   14450    132.50589    39.548899    139798.93   -39417.455    2660.1559   -42077.611     75.31355    224.50998 
   14500    134.95543     5.309258    139894.66   -39387.812    2709.3322   -42097.144    75.714313    228.66033 
   14550    133.78274   -179.93087    139681.88   -39401.747    2685.7896   -42087.537    75.857566     226.6734 
   14600    131.48896    16.358049     139634.9   -39401.767    2639.7402   -42041.507    76.284621    222.78695 
   14650    130.04873    -129.2132     139573.1   -39420.405    2610.8265   -42031.231    76.344878    220.34672 
   14700    130.06117   -10.775806    139404.14    -39387.19    2611.0764   -41998.267    76.525227     220.3678 
   14750     132.3712   -49.457147    139513.78   -39390.148    2657.4518   -42047.599    76.548371    224.28176 
   14800    135.84689    45.132829    139514.97    -39386.76     2727.229   -42113.989    76.836238    230.17077 
   14850    130.92167    16.829277    139514.01   -39453.294    2628.3514   -42081.645    77.103498    221.82577 
   14900    131.35409   -67.213499    139576.99   -39483.669    2637.0326   -42120.702    77.222813    222.55843 
   14950    130.97121    140.00634    139623.57    -39447.38    2629.3461   -42076.726    77.176091    221.90972 
   15000    131.11652    118.44117    139687.84   -39420.368    2632.2633   -42052.632    77.321739    222.15592 
   15050    133.33622    77.614883     139777.1   -39384.716    2676.8254   -42061.541     77.52746    225.91684 
   15100    133.17122    178.42774    139761.15   -39351.699    2673.5129   -42025.212    77.921893    225.63728 
   15150    129.11615    -153.2265    139758.35   -39391.832    2592.1042   -41983.936    78.097335     218.7666 
   15200    133.12083   -40.832327    139599.12   -39416.922    2672.5012   -42089.424    78.230209    225.55189 
   15250    135.07841    112.24006    139796.05     -39341.9    2711.8012   -42053.701    78.508551     228.8687 
   15300    133.74619   -167.70271    139784.97    -39301.53    2685.0559   -41986.586    78.867176    226.61147 
   15350    134.40759   -102.67639    139799.74   -39297.109    2698.3339   -41995.443    79.240011     227.7321 
   15400    133.91158   -42.541751    139656.82   -39262.373    2688.3762   -41950.749    79.487662     226.8917 
   15450    132.22936   -5.7171231    139539.65   -39286.206    2654.6043    -41940.81    79.456371    224.04144 
   15500    133.17364   -73.265446    139469.46    -39321.02    2673.5614   -41994.582    79.511274    225.64137 
   15550     136.4355    15.146455    139521.01   -39284.338    2739.0457   -42023.384    79.704141    231.16807 
   15600    132.38112   -5.5177936    139547.03   -39347.906    2657.6511   -42005.557    79.894138    224.29858 
   15650    133.14605     3.511686    139634.03    -39340.62    2673.0076   -42013.627    80.102361    225.59463 
   15700    130.96456   -12.586507    139604.99   -39348.381    2629.2124   -41977.593    80.277535    221.89844 
   15750     133.5859    80.857257    139574.83   -39316.945    2681.8379   -41998.783    80.730742    226.33989 
   15800    133.95553    47.048499    139693.45   -39259.708    2689.2585   -41948.967    80.977261    226.96616 
   15850    133.16129    22.382129    139631.08   -39256.032    2673.3136   -41929.346    81.246703    225.62046 
   15900    134.36447    30.266122    139623.18   -39244.381    2697.4682    -41941.85    81.503085    227.65904 
   15950     134.5226   -49.527712    139544.36   -39264.787    2700.6428    -41965.43    81.807826    227.92697 
   16000     136.2004   -257.41999    139356.12   -39291.721     2734.326   -42026.047    81.955874    230.76974 
   16050    132.30207     86.34254    139294.01   -39300.906     2656.064    -41956.97    82.333669    224.16464 
   16100    136.76016    2.1367766    139248.92   -39272.478    2745.5636   -42018.041    82.544549    231.71816 
   16150    132.68884   -155.07544    139200.56   -39279.142    2663.8288   -41942.971    82.772101    224.81996 
   16200     133.4643    46.106376    139228.58   -39276.474    2679.3968   -41955.871    82.926878    226.13386 
   16250    134.55828    -89.14032    139263.33   -39250.857    2701.3592   -41952.216    83.392587    227.98743 
   16300    134.93998   -44.839791    139246.88   -39276.605     2709.022   -41985.627     83.68804    228.63415 
   16350    133.49203    38.179399    139110.68   -39239.311    2679.9533   -41919.264    83.992472    226.18083 
   16400     133.9766   -48.659164    139058.04   -39278.727    2689.6816   -41968.408    84.506816    227.00187 
   16450    134.69979    32.526459    139007.52   -39258.285    2704.2001   -41962.485    84.839016    228.22719 
   16500    136.38108   -4.9324551    139093.58   -39248.555    2737.9532   -41986.508     84.84648    231.07587 
   16550    132.42559     157.1942    139182.26   -39288.939    2658.5438   -41947.483    85.270428    224.37392 
   16600    133.51318    116.65752    139320.34    -39266.69     2680.378   -41947.068    85.470365    226.21667 
   16650    132.52946   -83.539022    139249.11   -39275.281    2660.6291   -41935.911    85.672841    224.54992 
   16700    137.15359    30.642885    139257.75   -39273.289     2753.462   -42026.751    85.813197    232.38477 
   16750    132.68578   -88.637082    139178.39   -39306.417    2663.7672   -41970.184    86.358729    224.81477 
   16800    130.78331    15.532866    139250.53   -39352.912    2625.5738   -41978.486    86.517518    221.59134 
   16850    134.00593    109.19915    139314.73   -39340.688    2690.2703   -42030.958    86.527621    227.05156 
   16900    134.56143    125.57469    139538.43   -39380.678    2701.4224     -42082.1    86.801733    227.99277 
   16950    136.06957   -87.690314     139513.5    -39364.15    2731.6994    -42095.85    86.986664    230.54806 
   17000    132.73409   -17.762562     139484.6    -39367.86    2664.7372   -42032.598    87.373563    224.89663 
   17050    131.92265    135.67629     139405.2   -39362.082    2648.4469   -42010.529    87.580677    223.52177 
   17100    133.13123   -40.108783    139523.87   -39346.902    2672.7101   -42019.612    87.871614    225.56952 
   17150    135.44221    24.073809    139489.35   -39335.832    2719.1047   -42054.937     88.28104     229.4851 
   17200    135.14732   -2.0421613    139555.03   -39286.304    2713.1845   -41999.488    88.595396    228.98545 
   17250    136.66062    14.757306    139567.73   -39273.487    2743.5653   -42017.052    88.942927    231.54951 
   17300    132.08291    90.999684    139636.89   -39289.134    2651.6643   -41940.799    89.306527    223.79331 
   17350    134.92234    41.997211    139632.15   -39307.932    2708.6679     -42016.6    89.363722    228.60426 
   17400    133.44916    239.38573    139797.17   -39274.377    2679.0928    -41953.47     89.45831     226.1082 
   17450    134.18703     -232.123    139742.84   -39345.193     2693.906   -42039.099    89.695245     227.3584 
   17500    133.89489    49.797151    139708.42   -39412.847     2688.041   -42100.888    89.636164    226.86341 
   17550    131.94683    68.863378    139806.49   -39438.299    2648.9324   -42087.232    89.925413    223.56275 
   17600    134.02197    48.477117    139886.94   -39394.058    2690.5922    -42084.65    90.094869    227.07873 
   17650    132.30279    84.650337    139807.59   -39378.751    2656.0785   -42034.829    90.295971    224.16586 
   17700    130.52334   -80.303029     139777.4   -39366.873    2620.3547   -41987.228    90.638394    221.15087 
   17750    133.32203    18.116826    139858.49   -39351.372    2676.5404   -42027.912    90.790259    225.89279 
   17800    132.85507   -141.80488    139768.16   -39354.559    2667.1658   -42021.725     90.81278     225.1016 
   17850    134.11066    4.9383593    139888.88   -39322.154    2692.3729   -42014.527     90.91535    227.22901 
   17900    134.72916    192.32595    139912.03   -39325.163    2704.7898   -42029.953    91.454009    228.27696 
   17950    135.07703     97.18039    139996.82   -39324.118    2711.7735   -42035.892    91.833204    228.86637 
   18000    133.39788   -1.3854644    140201.95   -39350.711    2678.0633   -42028.775    92.194156    226.02132 
   18050    131.94498   -58.163521    140160.65   -39355.097    2648.8952   -42003.992    92.580192    223.55961 
   18100    134.01549   -39.945884    139957.57   -39327.591    2690.4623   -42018.053    92.679543    227.06776 
   18150    134.18736   -60.843446    139864.07   -39343.411    2693.9127   -42037.324    92.901105    227.35897 
   18200    132.20371    38.490026    139633.13   -39347.772    2654.0894   -42001.861    92.965428    223.99798 
   18250    133.37409    95.296248    139835.95   -39394.689    2677.5856   -42072.274    93.039168      225.981 
   18300    134.24487    -89.93687    139795.07   -39399.149    2695.0672   -42094.216    93.220037     227.4564 
   18350    130.35642   -78.119919    139727.47   -39394.162    2617.0037   -42011.166    93.562374    220.86805 
   18400    130.94867   -26.458775    139603.91   -39393.452    2628.8936   -42022.345    93.620057    221.87153 
   18450    133.06872   -105.05967    139529.45   -39376.144    2671.4552   -42047.599    93.912155    225.46361 
   18500    133.59063    8.9903162    139426.11   -39354.262    2681.9329   -42036.195    94.286329     226.3479 
   18550    135.62966   -44.044734    139544.72   -39328.507     2722.868   -42051.375    94.249067    229.80271 
   18600     131.4825    124.74093    139715.83   -39328.256    2639.6106   -41967.867    94.707313    222.77601 
   18650    134.93502    35.407768    139738.78   -39348.491    2708.9225   -42057.413    94.857979    228.62575 
   18700    132.41797    59.543827     139951.8   -39340.114    2658.3909   -41998.505    95.005547    224.36102 
   18750    132.98495    -113.8108    139895.63     -39325.6    2669.7733   -41995.373    95.622304    225.32167 
   18800    133.75659   -110.28752    139858.03   -39330.707    2685.2647   -42015.972    95.765481    226.62909 
   18850    133.39247    13.430452    139862.92   -39338.351    2677.9546   -42016.306    95.967913    226.01215 
   18900    132.85185    36.374883    139915.82   -39337.822    2667.1012   -42004.923    96.372489    225.09615 
   18950    131.40375   -47.832965     139997.8   -39350.127    2638.0295   -41988.157    96.496255    222.64258 
   19000    129.56665    39.751625    139911.17   -39368.978    2601.1483   -41970.126    96.689797     219.5299 
   19050    131.65777    -108.1838    139702.42   -39379.547    2643.1292   -42022.676    96.845011    223.07297 
   19100    132.11933   -63.055637    139548.07   -39398.458    2652.3955   -42050.853    97.204978    223.85502 
   19150    133.02373   -21.794135    139538.91   -39391.307    2670.5519   -42061.859    97.156086    225.38738 
   19200    131.04936     144.8102    139608.91   -39375.062     2630.915   -42005.977    97.127758    222.04213 
   19250    133.76678    295.13311    139702.84   -39300.671    2685.4692    -41986.14    97.447285    226.64635 
   19300     131.9394    3.4376089    139783.94   -39344.685    2648.7831   -41993.468    97.587769    223.55015 
   19350    132.85506   -31.239836    139726.08   -39378.207    2667.1657   -42045.373    97.515874    225.10159 
   19400    132.35734   -66.757737    139681.53   -39379.148    2657.1736   -42036.322     97.71215    224.25828 
   19450     132.2915    110.19837    139642.77     -39373.8    2655.8518   -42029.652    98.161415    224.14673 
   19500    132.45934   -163.37555    139681.08   -39339.859    2659.2214   -41999.081    98.431232    224.43112 
   19550    135.07807    3.9784091     139549.8   -39344.797    2711.7943   -42056.592    98.498788    228.86813 
   19600     131.8555   -33.632602    139585.95   -39401.255    2647.0988   -42048.354    98.767299      223.408 
   19650    133.64146    40.571128    139636.98   -39393.051    2682.9532   -42076.005    98.886939    226.43401 
   19700    132.79178   -157.52008    139551.03   -39394.942    2665.8953   -42060.837    99.095757    224.99437 
   19750    134.16292    30.992898    139630.21   -39366.887    2693.4221   -42060.309    99.355544    227.31756 
   19800     131.9977   -46.445704    139558.99   -39391.361    2649.9535   -42041.314    99.618105    223.64893 
   19850    130.99874    39.545509    139558.72   -39393.509    2629.8986   -42023.408    99.640929    221.95635 
   19900    135.90054    39.087685    139644.92    -39399.94    2728.3061   -42128.246    99.942545    230.26168 
   19950    131.90778   -104.20122    139664.58   -39354.703    2648.1484   -42002.852    100.39769    223.49658 
   20000    132.63206    136.84107    139807.94    -39330.85    2662.6888   -41993.538    100.50354    224.72375 
   20050    133.18352   -126.99948    139808.77   -39404.876    2673.7598   -42078.636    100.72441    225.65811 
   20100    135.96586   -138.26624    139634.97   -39403.684    2729.6174   -42133.302    100.98086    230.37234 
   20150    129.35482    -13.42933    139657.93   -39435.322    2596.8957   -42032.217    101.14779    219.17099 
   20200    131.09008     114.3943    139630.04   -39434.216    2631.7324   -42065.948     101.3524    222.11112 
   20250    130.21402   -101.92219    139574.15   -39440.467    2614.1449   -42054.612    101.47822    220.62678 
   20300    131.40332    100.55423    139713.48    -39449.54     2638.021   -42087.561    101.63846    222.64185 
   20350     129.4921   -21.525071     139809.2   -39482.801    2599.6518   -42082.453    101.80648     219.4036 
   20400    132.82176     66.63673    139904.12   -39479.638    2666.4971   -42146.135    101.94007    225.04516 
   20450    129.72406   -35.468766    139805.66    -39462.16    2604.3086   -42066.469    102.19285    219.79662 
   20500    132.37975   -88.197677    139664.55   -39495.981    2657.6235   -42153.604    102.51094    224.29625 
   20550     131.1177    75.351851     139671.9   -39490.869     2632.287   -42123.156    102.99267    222.15792 
   20600    130.26399    17.103677     139626.7   -39505.674    2615.1481   -42120.822    103.02167    220.71145 
   20650    133.46261   -28.022562    139810.43   -39494.075    2679.3627   -42173.437    103.26076    226.13099 
   20700    133.80674   -67.214904    139838.88   -39494.649    2686.2715    -42180.92    103.63482    226.71407 
   20750    133.18416    75.613743    139914.32   -39481.079    2673.7727   -42154.852    104.00861    225.65921 
   20800     129.3155    2.0189705    139968.02   -39509.162    2596.1064   -42105.268    104.36005    219.10438 
   20850    132.32733   -112.96657    139853.71   -39499.087    2656.5712   -42155.658    104.58097    224.20744 
   20900    130.84304    44.748513    139760.76   -39478.878     2626.773   -42105.651    104.63797    221.69255 
   20950    133.01886   -33.103679    139698.46   -39459.031    2670.4542   -42129.486    104.88409    225.37913 
   21000    132.44398    58.266661    139723.81   -39440.522    2658.9129   -42099.435    105.35626    224.40508 
   21050    134.71552    72.057787    139806.31   -39458.678     2704.516   -42163.194    105.56321    228.25385 
   21100    132.29304    7.4006469    139729.14   -39492.884    2655.8828   -42148.767    105.81045    224.14934 
   21150    130.99153    108.33986    139744.55   -39489.232    2629.7539   -42118.986    106.07332    221.94414 
   21200    132.71561    56.044661    139792.27    -39501.15    2664.3662   -42165.516     106.2295    224.86532 
   21250    133.63905   -80.794492    139626.85   -39510.625    2682.9049    -42193.53    106.37562    226.42994 
   21300    128.97641     18.42261    139543.47   -39547.465    2589.2988   -42136.764    106.16369    218.52984 
   21350     131.4506   -61.809015    139507.14   -39506.822    2638.9701   -42145.792    106.41502    222.72196 
   21400    130.73242    23.118314    139386.94   -39529.315    2624.5522   -42153.867     106.4476    221.50513 
   21450    130.34595    133.86253    139535.23   -39542.895    2616.7935   -42159.689    106.60643    220.85032 
   21500    131.46934   -25.118994     139576.2   -39492.623    2639.3463   -42131.969    106.86397     222.7537 
   21550      131.165       29.385    139654.65   -39540.396    2633.2366   -42173.633    107.00506    222.23806 
   21600    131.00036   -49.826475     139597.1   -39564.141    2629.9312   -42194.073    107.04174     221.9591 
   21650    133.43716    -132.8947    139531.48   -39534.988    2678.8519    -42213.84    107.37021    226.08787 
   21700    131.02319   -75.061214     139501.7   -39525.957    2630.3896   -42156.346    107.80613    221.99779 
   21750    133.34164    54.847136    139501.59   -39421.351    2676.9342   -42098.285    107.98918    225.92603 
   21800    136.40532    13.793814    139430.78   -39410.226    2738.4398   -42148.666    108.09678    231.11693 
   21850        133.7    313.89482    139706.76   -39395.981    2684.1285   -42080.109    108.44236     226.5332 
   21900    135.53092   -27.677688    139745.32   -39435.455    2720.8857   -42156.341    108.50303    229.63541 
   21950    134.33724    235.57424    139810.74   -39429.022    2696.9215   -42125.944    108.68624     227.6129 
   22000    134.02605   -53.454038    139872.05   -39408.834    2690.6743   -42099.508    108.85725    227.08565 
   22050    131.57334   -174.68928    139870.84   -39488.478    2641.4343   -42129.913     108.9542    222.92993 
   22100    133.35584    54.303442    139922.64   -39477.277    2677.2192   -42154.496    109.11672    225.95008 
   22150    133.02575    83.718826    140085.15   -39451.697    2670.5925    -42122.29     109.1443     225.3908 
   22200    134.79275   -113.62094    140228.25    -39457.88    2706.0664   -42163.947    109.51803     228.3847 
   22250    134.94479    66.390375    140232.73   -39447.391    2709.1185    -42156.51    110.01955     228.6423 
   22300    135.03945    21.108895    140302.94   -39439.483    2711.0189   -42150.502    110.22771    228.80268 
   22350    131.35361    123.05924    140452.67    -39462.57     2637.023   -42099.593    110.51207    222.55762 
   22400    131.34353   -63.389949    140542.59   -39492.344    2636.8207   -42129.164    110.73258    222.54055 
   22450    134.23752    53.697196    140494.95   -39497.278    2694.9196   -42192.198    111.14538    227.44394 
   22500    132.57699    53.590231    140424.21   -39486.987    2661.5832    -42148.57    111.26046    224.63045 
   22550    131.63316   -38.895555    140279.72   -39469.716    2642.6352   -42112.351    111.38811    223.03128 
   22600    131.55853    87.015176    140320.09   -39462.553    2641.1369    -42103.69    111.39766    222.90483 
   22650    135.35283   -57.503492    140336.98   -39451.304    2717.3104   -42168.614    111.53795    229.33367 
   22700    133.72746    43.960289    140178.98    -39441.72    2684.6798     -42126.4    111.90672    226.57973 
   22750    134.37584    237.32596     140326.7   -39419.943    2697.6965   -42117.639    112.29865    227.67831 
   22800    134.37927    11.669999    140330.95   -39355.329    2697.7654   -42053.094    112.32936    227.68412 
   22850     133.1871   -37.912861    140194.41   -39355.273    2673.8316   -42029.105    112.66286    225.66418 
   22900    133.30077    30.815413    140034.21   -39383.152    2676.1136   -42059.265    112.54475    225.85677 
   22950    135.23223    63.044093    140183.08   -39370.026    2714.8891   -42084.915    112.64712    229.12932 
   23000    137.54896   -66.638233     140149.7   -39317.895    2761.3993   -42079.294    112.94481    233.05466 
   23050    132.70392   -39.992938     140200.4   -39352.262    2664.1316   -42016.393    113.16547    224.84552 
   23100    136.32609   -40.941487    140243.61   -39297.868    2736.8492   -42034.717    113.26697    230.98269 
   23150    135.13387    -48.25834    140101.52   -39315.304    2712.9145   -42028.219    113.58966    228.96267 
   23200     133.0021    109.78546    140097.25   -39361.688    2670.1177   -42031.806    113.84022    225.35073 
   23250    137.81775    119.13074    140209.25   -39305.785    2766.7956   -42072.581    114.00715    233.51008 
   23300    133.88766   -163.08595    140173.64   -39307.308     2687.896   -41995.204    114.34276    226.85117 
   23350     135.2668   -78.114102    140060.45   -39258.342    2715.5832   -41973.925    114.47356    229.18789 
   23400    137.33464    83.085467    140075.86   -39250.169    2757.0968   -42007.265    114.35182    232.69153 
   23450    134.24533   -60.039082    140089.31   -39261.814    2695.0764    -41956.89    114.64132    227.45718 
   23500    135.65772    -35.83796    140177.14   -39265.351    2723.4312   -41988.782    114.86345    229.85025 
   23550     134.2825   -14.577198     140268.6   -39302.933    2695.8227   -41998.756    115.14167    227.52016 
   23600    135.66656    92.404914    140158.04   -39298.177    2723.6087   -42021.785    115.57479    229.86522 
   23650    135.27831    -251.0863    140044.48   -39284.192    2715.8143   -42000.007    115.98927     229.2074 
   23700    134.27893    -85.75161    139889.83   -39316.535    2695.7509   -42012.286    116.09984    227.51411 
   23750    135.39875   -22.896768     139881.9   -39346.122    2718.2323   -42064.354     116.3288    229.41147 
   23800    135.52639   -130.80842     139825.4   -39340.885    2720.7947    -42061.68    116.52588    229.62774 
   23850    133.46284   -88.652858     139794.7   -39349.964    2679.3673   -42029.331    116.77219    226.13137 
   23900    134.44939     98.31561    139797.76   -39292.874    2699.1731   -41992.047    116.83647    227.80293 
   23950    133.80501   -20.490601    139986.39   -39311.435    2686.2367   -41997.672    116.97969    226.71113 
   24000    135.64177   -86.675379    139871.97    -39291.03    2723.1111   -42014.141    117.30871    229.82323 
   24050    134.91791   -157.03636    139688.22   -39348.533    2708.5791   -42057.112    117.50367    228.59677 
   24100    136.18622    127.18076    139706.85   -39314.012    2734.0414   -42048.053    117.74138    230.74572 
   24150    130.62331     45.85661     139786.1   -39399.276    2622.3617   -42021.638    117.94324    221.32026 
   24200    132.70365    92.230937    139693.35   -39353.826     2664.126   -42017.952    118.27747    224.84505 
   24250    133.90525    -102.1279    139691.76   -39368.354    2688.2492   -42056.604    118.35815    226.88098 
   24300    130.59297    36.449357    139733.99   -39429.445    2621.7526   -42051.198    118.40078    221.26884 
   24350    132.51099   -15.325423    139775.73    -39448.86    2660.2582   -42109.118    118.43604    224.51861 
   24400    131.61448   -104.47266    139681.77   -39470.849    2642.2601   -42113.109    118.63866    222.99963 
   24450    133.13772    33.341447    139652.13   -39480.135    2672.8402   -42152.975    118.83796    225.58051 
   24500    131.98151     140.7192    139642.88   -39475.784    2649.6285   -42125.412    119.09072     223.6215 
   24550    131.84564    56.391851    139688.89   -39452.205    2646.9008   -42099.106    119.46327    223.39129 
   24600    128.85898   -118.21558    139737.18   -39454.565    2586.9415   -42041.506    119.68756    218.33088 
   24650      131.251    45.894554    139674.33   -39462.012     2634.963   -42096.975    119.56805    222.38377 
   24700    131.30424    117.68229    139837.23   -39427.021    2636.0317   -42063.053    119.63586    222.47397 
   24750    133.32979    72.479969    139905.56   -39379.406    2676.6964   -42056.102    119.83694    225.90595 
   24800    133.81203    2.1098253     139947.5   -39367.162    2686.3776    -42053.54    119.97811    226.72302 
   24850    131.41803    -145.0325    139810.68   -39370.335    2638.3162   -42008.651    120.14208    222.66677 
   24900    130.50914    -72.24473    139676.55   -39414.733    2620.0697   -42034.803    120.42164    221.12681 
   24950    131.85546    35.125108    139569.62    -39427.73    2647.0981   -42074.828    120.68971    223.40794 
   25000    131.19678    166.79766    139688.49   -39465.652    2633.8744   -42099.526    121.06454    222.29189 
   25050    132.64234    61.299805    139793.68   -39483.495    2662.8951    -42146.39    121.43758    224.74117 
   25100    132.19565   -15.355771    139902.58   -39469.238    2653.9276   -42123.166     121.8075    223.98433 
   25150    133.83185   -59.851866    139920.07    -39467.53    2686.7756   -42154.306    122.16793    226.75661 
   25200     131.0057   -29.546075    139833.87   -39488.469    2630.0385   -42118.508     122.5787    221.96815 
   25250    130.69509     61.79284    139908.16   -39479.042    2623.8027   -42102.844    122.81521    221.44187 
   25300    132.43174   -23.529058    139964.34    -39489.54    2658.6673   -42148.207     123.1432    224.38435 
   25350    133.04802   -53.180211    140095.11   -39454.833    2671.0396   -42125.872    123.53221    225.42854 
   25400    131.44513    51.473797    140075.76   -39479.846    2638.8603   -42118.706    123.93333    222.71269 
   25450    131.53709   -133.50978    140024.47   -39437.179    2640.7065   -42077.885    124.17748    222.86851 
   25500    129.81918   -90.825517    139914.64   -39485.312    2606.2181    -42091.53    124.29411    219.95778 
   25550    130.34456   -123.68762    139868.02   -39457.284    2616.7655    -42074.05    124.42411    220.84795 
   25600    132.66176   -128.56856    139764.26       -39420     2663.285   -42083.285    124.86733    224.77407 
   25650    132.00104   -128.83605    139644.97   -39366.208    2650.0206   -42016.229    125.30862    223.65459 
   25700    135.14704   -26.148351     139627.8   -39341.222     2713.179   -42054.401    125.56016    228.98499 
   25750    132.02146   -49.291216    139606.28   -39403.386    2650.4305   -42053.816    125.65837    223.68918 
   25800    131.76111     52.04241    139611.54   -39414.971    2645.2039   -42060.175    125.94303    223.24807 
   25850    135.20863   -27.570953    139605.76   -39366.043    2714.4154   -42080.459    126.01223    229.08934 
   25900    132.18952   -16.230991    139495.22   -39349.137    2653.8045   -42002.942    126.31077    223.97394 
   25950    137.31955    20.375969    139452.66   -39321.086    2756.7937    -42077.88    126.31605    232.66596 
   26000    134.63599    41.684511    139457.43   -39345.337    2702.9193   -42048.257    126.32422     228.1191 
   26050    135.42811   -63.320602    139396.71   -39369.158    2718.8217    -42087.98    126.80638    229.46121 
   26100    131.82236   -85.274166    139344.26   -39358.945    2646.4336   -42005.379    127.35594    223.35185 
   26150    135.23664   -81.978304    139319.29   -39341.234    2714.9777   -42056.212    127.77425     229.1368 
   26200    134.07066   -63.490514    139244.03   -39323.542    2691.5697   -42015.112    127.94536    227.16122 
   26250    132.95474     74.96943    139264.26    -39317.32    2669.1669   -41986.487    128.44477    225.27049 
   26300    134.82605    34.810865    139316.55   -39356.064    2706.7349   -42062.799     128.9123    228.44113 
   26350    136.26685   -155.17675    139287.05   -39308.526    2735.6599   -42044.186    129.16504    230.88232 
   26400     132.8499   -89.228754    139228.69   -39291.987     2667.062   -41959.049    129.15614    225.09284 
   26450    132.19937   -114.76748    139226.65   -39333.083    2654.0022   -41987.085    129.32449    223.99062 
   26500    135.71941    63.169219    139270.16   -39315.917    2724.6696   -42040.587    129.42267    229.95477 
   26550    132.63247     271.5224    139477.31   -39343.067    2662.6971   -42005.764    129.49254    224.72445 
   26600    133.22969    93.202797    139655.79   -39333.788    2674.6867   -42008.475    130.02393    225.73634 
   26650    134.24157    99.361831    139930.37   -39351.705     2695.001   -42046.707    130.49304    227.45082 
   26700    131.73239    6.5908316    139769.55   -39419.531    2644.6274   -42064.158    130.62974    223.19941 
   26750    133.26358    25.352726    139779.03   -39398.949    2675.3672   -42074.316    130.43686    225.79377 
   26800    131.66695   -110.34226    139870.39   -39437.789    2643.3135   -42081.102    130.61687    223.08853 
   26850    130.99306    36.490441    139830.19   -39437.279    2629.7847   -42067.064    130.83068    221.94673 
   26900    133.95842   -28.189684    139729.94   -39457.163    2689.3165    -42146.48    131.03031    226.97106 
   26950    132.55308   -151.97147    139657.51   -39444.239    2661.1032   -42105.342      131.343    224.58993 
   27000    130.48781   -6.9593632     139644.3   -39453.737    2619.6413   -42073.378     131.7229    221.09066 
   27050    131.58146    41.167469    139746.78   -39487.291    2641.5972   -42128.888    131.86343    222.94368 
   27100    128.27724   -217.39936    139643.34    -39532.43    2575.2626   -42107.693    132.01453    217.34522 
   27150    130.64651   -126.25372    139525.12   -39502.181    2622.8274   -42125.009    132.05203    221.35956 
   27200    132.37247   -3.6482717    139466.14   -39521.876    2657.4773   -42179.354    132.13384    224.28392 
   27250    130.38617    8.1926277    139498.36   -39544.062    2617.6008   -42161.663    132.36754    220.91845 
   27300    131.87329    2.4734729    139521.88   -39501.102     2647.456   -42148.558    132.48216    223.43814 
   27350    133.12039    121.78671     139530.7   -39445.728    2672.4925   -42118.221    132.65911    225.55116 
   27400    132.66634   -51.954038    139715.72   -39419.655    2663.3771   -42083.032    133.21622    224.78184 
   27450    135.99655    -70.20366    139704.85   -39366.607    2730.2336   -42096.841    133.46836    230.42435 
   27500    133.13526    116.56513     139633.8   -39333.445     2672.791   -42006.236    133.49088    225.57635 
   27550    132.86123   -24.128783    139667.91   -39383.506    2667.2896   -42050.796    133.56254    225.11204 
   27600    132.41457    87.413998    139698.05   -39380.201    2658.3226   -42038.524    133.82572    224.35526 
   27650    130.73161    48.670426    139740.89   -39394.871    2624.5359   -42019.407    133.83895    221.50375 
   27700    132.09923     -26.3829    139841.63   -39414.422     2651.992   -42066.414    134.02247    223.82097 
   27750    131.78877    -191.4812    139686.79   -39441.635    2645.7592   -42087.394    134.56516    223.29494 
   27800    133.18401    -51.00107    139579.37   -39419.553    2673.7697   -42093.323    134.77846    225.65895 
   27850     133.8759   -2.0399336    139613.89   -39396.679    2687.6598   -42084.339    135.19188    226.83124 
   27900    133.10661    -14.77168    139423.66   -39415.547    2672.2159   -42087.763    135.09485    225.52781 
   27950    130.30127    47.615472    139473.23   -39448.203    2615.8964     -42064.1     135.4132     220.7746 
   28000    130.86524   -73.364092    139243.34   -39485.164    2627.2186   -42112.383    135.79503    221.73016 
   28050    130.71286    17.575923    139202.28   -39455.617    2624.1595   -42079.777     135.8289    221.47198 
   28100    131.59238    -13.38469    139246.51    -39460.03    2641.8166   -42101.846    136.04396    222.96219 
   28150    133.16868    103.35432     139310.8   -39392.482    2673.4619   -42065.944    136.44175    225.63297 
   28200    134.44531   -92.915987    139354.39   -39380.156    2699.0912   -42079.247    136.57922    227.79602 
   28250     131.0537   -16.765674    139282.82   -39402.659    2631.0021   -42033.661    136.62759    222.04948 
   28300    132.14117   -19.632535    139311.17    -39413.63    2652.8338   -42066.464    136.99472    223.89202 
   28350    134.30286    258.08009    139366.88   -39418.849    2696.2315   -42115.081    137.20269    227.55466 
   28400    133.01418   -38.792461    139518.48   -39410.833    2670.3602   -42081.193    137.89661    225.37119 
   28450     134.5416   -156.20863    139427.22   -39352.134    2701.0242   -42053.159    138.04241    227.95916 
   28500    136.26908   -105.40645    139310.99   -39301.186    2735.7047   -42036.891    138.20457     230.8861 
   28550    131.87786    108.43658     139309.1   -39324.087    2647.5476   -41971.635     138.4939    223.44588 
   28600    132.84797   -74.997139    139263.45   -39375.804    2667.0234   -42042.827    138.51764    225.08958 
   28650    132.02641    51.888676    139278.21   -39375.559      2650.53   -42026.089    138.67134    223.69758 
   28700    130.69656    27.049995    139335.32    -39363.16    2623.8322   -41986.992    139.18916    221.44436 
   28750    135.83873     158.0229    139510.99   -39343.194    2727.0651   -42070.259    139.89286    230.15694 
   28800    132.23143    -63.35402    139551.22   -39438.065    2654.6458   -42092.711    140.25191    224.04495 
   28850    131.02671     66.96315    139756.05   -39404.837    2630.4603   -42035.297    140.74018    222.00375 
   28900    130.98491    56.931294    139810.51   -39426.975    2629.6211   -42056.596    140.77517    221.93292 
   28950    132.86971   -59.935539    139763.14   -39414.733    2667.4598   -42082.192    140.95817    225.12641 
   29000    131.86882    61.334938    139818.74   -39381.596    2647.3662   -42028.962    141.24067    223.43056 
   29050    133.64682   -35.105473    139873.82   -39413.966    2683.0609   -42097.027     141.6433     226.4431 
   29100    130.52491    46.864823    139929.72   -39428.149    2620.3862   -42048.536    142.13847    221.15353 
   29150    132.86256    19.896664     139898.4    -39456.58    2667.3164   -42123.896    142.32832    225.11431 
   29200    129.59104    10.765622    139929.74   -39482.431     2601.638   -42084.069    142.03668    219.57123 
   29250    131.64643    20.179728    139913.26   -39473.367    2642.9015   -42116.269    142.25287    223.05376 
   29300    132.60323   -121.56451    139934.96    -39451.85    2662.1101    -42113.96    142.45032    224.67491 
   29350    134.16204   -64.679655    139878.47   -39445.273    2693.4044   -42138.677    142.69809    227.31607 
   29400    131.60461    116.86926    139892.45   -39486.466    2642.0619   -42128.528    143.18285     222.9829 
   29450    126.70405    27.703353    139945.07   -39551.306    2543.6796   -42094.985    143.74064    214.67969 
   29500    131.95918    39.961777     139843.1   -39519.235    2649.1802   -42168.415    144.03374    223.58366 
   29550    129.52006    123.07779    140120.77   -39458.674     2600.213   -42058.887    144.26187    219.45096 
   29600    132.38025    22.983937    140099.16    -39460.19    2657.6336   -42117.823    144.18639    224.29711 
   29650    132.95017    115.10481    140152.51   -39442.061    2669.0751   -42111.136     144.3164    225.26273 
   29700      132.405   -120.50384    140202.68   -39464.213    2658.1305   -42122.344    144.55424    224.33905 
   29750    131.92365   -179.67858    139954.54   -39441.437    2648.4669   -42089.904    144.67435    223.52346 
   29800    134.54387   -151.23796    139885.09   -39389.895    2701.0698   -42090.964    144.78825    227.96301 
   29850    132.23335    72.778289    140018.71   -39448.966    2654.6844    -42103.65    144.90897    224.04821 
   29900    132.80611   -93.700016    140080.03   -39414.043    2666.1831   -42080.227    145.06943    225.01866 
   29950    134.98205   -7.5043009    139924.64   -39444.035    2709.8666   -42153.901     145.4451    228.70543 
   30000    133.96388   -17.917659    139946.52   -39475.576    2689.4262   -42165.002    145.84428    226.98031 
   30050    133.22356    106.82456    139960.47   -39475.661    2674.5637   -42150.225    146.00885    225.72596 
   30100    133.90906    -18.17257    139986.27   -39466.018    2688.3255   -42154.343    146.30639    226.88742 
   30150    131.96313    40.715277    139891.38   -39482.857    2649.2597   -42132.117    146.31566    223.59037 
   30200    131.30431    83.775679    139965.47   -39517.113    2636.0333   -42153.146    146.44532     222.4741 
   30250    131.17436    174.07937    139929.93   -39468.936    2633.4245    -42102.36    146.54542    222.25392 
   30300    133.90838   -32.500112    139880.86   -39455.864    2688.3119   -42144.176    146.51076    226.88627 
   30350    132.24477    51.966692    139987.12   -39503.057    2654.9137   -42157.971    146.59516    224.06755 
   30400    130.11549   -143.53921    140032.75   -39533.053    2612.1669    -42145.22     146.6589    220.45984 
   30450    131.13581   -27.677722    140065.21   -39495.228    2632.6506   -42127.879     146.9701     222.1886 
   30500    131.05609    18.934964    140090.28   -39480.442    2631.0501   -42111.492    147.03271    222.05353 
   30550    130.80373    34.122787    140082.17   -39480.962    2625.9836   -42106.946    147.09723    221.62594 
   30600    129.25944    278.74536    140090.88   -39445.419     2594.981     -42040.4    147.32554    219.00939 
   30650     132.8346   -110.21072    140075.56   -39485.648    2666.7551   -42152.403    147.55603    225.06693 
   30700    130.69698   -87.901303     140001.9   -39450.154    2623.8406   -42073.995    147.76928    221.44507 
   30750    135.57535   -200.19803    139791.36   -39416.151    2721.7777   -42137.928    147.98766    229.71069 
   30800    134.27378   -154.24085    139659.94   -39366.908    2695.6476   -42062.556    148.42372    227.50538 
   30850    133.55634    183.23753     139746.7   -39372.806    2681.2445    -42054.05    148.45469     226.2898 
   30900    132.53617   -69.222914    139843.33   -39413.878    2660.7639   -42074.642    148.57741    224.56129 
   30950    130.32554   -200.55438    139750.13   -39388.249    2616.3838   -42004.633    149.05483    220.81573 
   31000    133.03826     58.00968    139632.34   -39379.753    2670.8436   -42050.597    148.81778      225.412 
   31050    132.73232   -69.034799    139705.14   -39378.607    2664.7016   -42043.308     148.6201    224.89362 
   31100    134.44907    21.968082    139720.15   -39336.268    2699.1667   -42035.435    148.84911    227.80239 
   31150    134.01565     79.13727    139503.91   -39376.066    2690.4655   -42066.531    149.06887    227.06803 
   31200    132.41619    134.10215     139574.4   -39378.215    2658.3552   -42036.571    149.08072      224.358 
   31250     132.6026    76.894633    139681.94    -39393.18    2662.0974   -42055.278     149.3021    224.67384 
   31300    133.92761    71.041418    139662.83    -39387.88     2688.698   -42076.578    149.49273    226.91885 
   31350    130.83808      20.3959    139611.65   -39407.449    2626.6734   -42034.123    150.05472    221.68415 
   31400    130.79502   -142.94686    139600.69   -39444.268    2625.8088   -42070.077    150.30602    221.61118 
   31450    132.62387   -92.016831    139500.57   -39390.682    2662.5244   -42053.206    150.64841    224.70987 
   31500    132.22212    14.332063    139501.72   -39362.144    2654.4589   -42016.603    151.18111    224.02917 
   31550    133.18756   -66.329554    139358.12   -39376.519    2673.8409    -42050.36    151.37638    225.66496 
   31600    133.74721    164.16373    139439.73   -39355.359    2685.0763   -42040.435     151.5434     226.6132 
   31650    132.59696    32.840911    139584.32     -39357.8    2661.9841   -42019.784    151.65517    224.66428 
   31700    132.37397    28.712594    139577.02   -39373.798    2657.5074   -42031.305    151.95349    224.28646 
   31750    132.22836   -39.768104    139626.34   -39374.621    2654.5842   -42029.206    152.26561    224.03974 
   31800    131.88675   -5.4715726    139614.36   -39409.889    2647.7261   -42057.615    152.80017    223.46094 
   31850    132.38802    54.915842    139657.68   -39363.889    2657.7896   -42021.679    152.49727    224.31028 
   31900    131.87259      75.8732    139683.65   -39381.847     2647.442   -42029.289    152.38615    223.43696 
   31950    132.26411   -142.38596    139759.27   -39396.514     2655.302   -42051.816    152.79601    224.10033 
   32000    135.18222    54.664835    139751.55   -39377.324    2713.8852   -42091.209    153.21972    229.04459 
   32050     130.5534   -13.682842    139755.55   -39456.333    2620.9581   -42077.291    153.45915    221.20179 
   32100    132.79229   -45.699488    139739.43   -39471.359    2665.9055   -42137.265    153.55429    224.99524 
   32150    131.12981    57.483991    139736.89   -39457.002    2632.5301   -42089.532     153.7122    222.17844 
   32200    130.40804    98.954887    139915.43   -39491.276    2618.0399   -42109.316    153.96975     220.9555 
   32250    129.70363   -43.532301    139947.12   -39514.616    2603.8983   -42118.514    154.23776    219.76199 
   32300    132.70494    -225.8094    139775.56   -39447.991     2664.152   -42112.143    154.25019    224.84725 
   32350     134.3442   -67.358884    139676.01   -39452.778    2697.0612    -42149.84    154.30178    227.62469 
   32400     132.8484    144.03342     139684.4   -39481.314     2667.032   -42148.345    154.34731     225.0903 
   32450    135.66628    118.66067    139846.41   -39484.895    2723.6031   -42208.498    154.70604    229.86475 
   32500    132.90781     124.2536    139993.54   -39506.501    2668.2248   -42174.726    154.85292    225.19098 
   32550    129.73211   -33.970854    140092.06   -39547.156    2604.4702   -42151.626    154.78562    219.81026 
   32600     131.8774   -68.423225    140004.16   -39488.264    2647.5385   -42135.802    154.71189    223.44511 
   32650    130.24596   -66.739204    139996.84   -39448.826    2614.7861   -42063.612    154.93948    220.68089 
   32700    132.67378   -99.734525    139897.53   -39447.937    2663.5264   -42111.463     155.2038    224.79444 
   32750    131.09382   -134.68823    139892.26   -39487.446    2631.8074   -42119.253    155.37719    222.11745 
   32800    131.44322     -61.4102    139868.92   -39463.364     2638.822   -42102.186    155.50615    222.70946 
   32850    132.62698    154.29222    139879.53    -39475.22    2662.5869   -42137.807    155.70456    224.71515 
   32900    132.31942   -93.202649    139909.94    -39497.32    2656.4124   -42153.732    155.78753    224.19404 
   32950     132.5167   -151.28836    139870.41    -39480.28    2660.3728   -42140.653    155.84272    224.52829 
   33000    132.44591   -54.141485    139881.15   -39503.836    2658.9518   -42162.788    155.89199    224.40836 
   33050    132.18809   -43.863126    139800.08   -39532.479    2653.7757   -42186.255    155.48394    223.97151 
   33100    133.93602     22.28366    139830.22   -39525.516    2688.8669   -42214.383    155.67925    226.93311 
   33150    131.18189   -110.05278    139633.34   -39515.337    2633.5755   -42148.912    155.84006    222.26667 
   33200    131.75429   -134.26111    139588.83   -39505.083    2645.0669    -42150.15     155.4888    223.23651 
   33250     130.5492    33.421363       139559   -39494.445    2620.8739   -42115.319    155.69983    221.19468 
   33300    130.44954   -46.855566    139604.13    -39455.27    2618.8731   -42074.143     156.0086    221.02582 
   33350    133.78363     80.30267    139521.09   -39476.583    2685.8076   -42162.391    156.18684    226.67491 
   33400    133.94462    115.01014    139553.62   -39471.909    2689.0394   -42160.949    156.18018    226.94767 
   33450    128.67543    33.105572    139615.23   -39471.443    2583.2566   -42054.699    156.52356    218.01989 
   33500    132.83436    106.21609    139632.92   -39465.582    2666.7502   -42132.332    156.81463    225.06652 
   33550    132.59864   -151.75172    139643.21   -39489.254    2662.0179   -42151.271    156.93978    224.66713 
   33600    130.61522   -9.4832506    139564.24   -39545.117    2622.1993   -42167.316    157.29169    221.30655 
   33650    131.34608   -91.914815    139480.31   -39503.129    2636.8717       -42140     157.5548    222.54486 
   33700    130.56782     27.83374    139492.97    -39521.49    2621.2476   -42142.737    157.67622    221.22622 
   33750    130.13678     39.94368    139476.49   -39549.903    2612.5942   -42162.497    158.01522     220.4959 
   33800    129.58829   -9.7402956    139559.17    -39585.24    2601.5829   -42186.823    157.95614    219.56658 
   33850      130.777    35.264381    139596.35   -39536.721     2625.447   -42162.168    158.11991    221.58064 
   33900    130.49056    48.669779    139567.76   -39525.829    2619.6966   -42145.525    158.37116    221.09533 
   33950    135.37747   -93.424484    139356.64   -39486.933    2717.8051   -42204.739    158.84169    229.37542 
[...]
   92000    132.82755   -231.22703    139785.06   -39482.655    2666.6134   -42149.269    411.66909    225.05498 
   92050    131.84787    179.61546    139618.06    -39482.71    2646.9457   -42129.656    411.73204    223.39507 
   92100    130.87628     52.00838    139804.03   -39524.266    2627.4403   -42151.706    412.37963    221.74887 
   92150    132.15108   -20.556579    139821.95   -39505.605    2653.0327   -42158.638    412.54432    223.90881 
   92200    131.60243    119.49155    139805.26   -39492.197    2642.0183   -42134.215      412.696    222.97922 
   92250    130.58762   -5.5273408    139701.96   -39462.423    2621.6452   -42084.068    412.89986    221.25979 
   92300    130.07889   -90.426193    139539.67   -39471.859    2611.4319   -42083.291    412.93369    220.39781 
   92350    131.75325    11.936776    139419.59   -39459.594    2645.0461   -42104.641    413.35769    223.23476 
   92400    130.70458    43.317063    139515.74   -39426.858    2623.9932   -42050.851    413.20685    221.45795 
   92450    133.15286    124.17928     139557.1    -39372.03    2673.1443   -42045.174    413.63118    225.60617 
   92500    132.97281    80.631412    139633.81   -39406.269    2669.5297   -42075.799    414.29598     225.3011 
   92550    131.92001       40.142    139637.19   -39411.038    2648.3939   -42059.432    414.72197     223.5173 
   92600    131.53729    187.89901    139722.04   -39405.235    2640.7104   -42045.945    414.90314    222.86883 
   92650    134.29758    152.44062    139700.79    -39376.75    2696.1254   -42072.876    415.20288    227.54571 
   92700    135.17114   -88.950065    139738.14   -39403.208    2713.6628    -42116.87    415.24014    229.02582 
   92750    134.72205   -109.78892    139548.18   -39410.953    2704.6469     -42115.6     415.2844     228.2649 
   92800     133.4101    75.771127    139647.49   -39366.932    2678.3086   -42045.241     415.7055    226.04202 
   92850     132.6752   -133.98389    139683.59   -39343.371    2663.5549   -42006.926    416.44043    224.79685 
   92900    135.75097    126.54781     139534.6    -39333.03    2725.3034   -42058.333    416.73935    230.00825 
   92950    135.61885    -67.77428    139482.66   -39298.005    2722.6509   -42020.656    416.96294    229.78439 
   93000    137.11605    43.636239     139391.7   -39315.144    2752.7083   -42067.852    416.36806    232.32116 
   93050    136.51497    211.18402    139439.35   -39364.462    2740.6412   -42105.103    416.87262    231.30272 
   93100    131.87796    44.575983    139453.98   -39473.644    2647.5496   -42121.194    417.48951    223.44605 
   93150    132.96143    142.16104    139558.67   -39457.998    2669.3012     -42127.3    418.23448    225.28182 
   93200    133.44188    24.442755    139703.45   -39522.588    2678.9466   -42201.534    419.06688    226.09587 
   93250    131.81697   -73.116174    139657.25   -39525.227    2646.3253   -42171.552    419.20911    223.34271 
   93300    133.24075    16.440147    139688.03   -39499.671    2674.9088    -42174.58    419.93565    225.75509 
   93350    135.33411    46.355305    139705.87   -39529.019    2716.9346   -42245.953     419.9357    229.30195 
   93400    132.79179    33.216126    139819.21   -39514.846    2665.8955   -42180.742    420.64302    224.99439 
   93450    135.90296    35.382693    139839.01   -39464.984    2728.3545   -42193.339    420.73058    230.26576 
   93500     130.5531   -131.41713    139810.61   -39517.343    2620.9522   -42138.296    420.27824     221.2013 
   93550    129.97801   -103.85474    139736.59   -39575.715    2609.4068   -42185.122    420.39149     220.2269 
   93600    132.55821   -21.562968    139626.61   -39539.286    2661.2063   -42200.493    419.96698    224.59864 
   93650    131.74697   -86.016732    139520.18   -39542.806      2644.92   -42187.726    419.64771    223.22411 
   93700    132.12819    64.497106    139690.11   -39521.005    2652.5733   -42173.578    420.08724    223.87003 
   93750    135.67339    134.85402    139736.45   -39428.504    2723.7458    -42152.25    420.20931     229.8768 
   93800    133.34339   -3.9374975    139817.68   -39410.503    2676.9693   -42087.473    420.76241    225.92899 
   93850     135.4203   -125.15592    139636.33   -39370.467    2718.6648   -42089.132    421.22457    229.44797 
   93900    132.66722   -22.894885    139599.42    -39387.42    2663.3947   -42050.815    421.69935    224.78333 
   93950    133.62625   -92.939321    139550.37   -39365.978    2682.6479   -42048.626    421.98141    226.40824 
   94000    133.28457   -59.529948    139607.41   -39380.184    2675.7884   -42055.973    422.27451    225.82932 
   94050     133.8679   -8.9066134    139594.15   -39366.064    2687.4992   -42053.563    422.00011    226.81769 
   94100    133.91005   -20.367043    139562.13   -39358.817    2688.3454   -42047.162    422.44868     226.8891 
   94150    135.77926     84.19942    139681.65   -39356.866    2725.8712   -42082.737    423.03703    230.05617 
   94200    132.62486    2.1601237       139811   -39390.168    2662.5442   -42052.712    423.41126    224.71155 
   94250    133.64241   -97.668154    139776.06   -39404.623    2682.9723   -42087.595    423.77759    226.43562 
   94300    135.32179    46.906339    139833.91   -39350.279    2716.6872   -42066.966    423.76877    229.28107 
   94350    132.61286    105.72257    139802.15   -39379.642    2662.3034   -42041.945    423.87031    224.69123 
   94400    134.95147   -90.065566    139879.47   -39357.809    2709.2528   -42067.061    424.45002    228.65363 
   94450    134.57593     -180.606    139730.98   -39358.939    2701.7136   -42060.653     424.3716    228.01734 
   94500    134.47541   -105.69657    139453.27   -39386.702    2699.6955   -42086.398    424.30584    227.84701 
   94550    134.15575    159.13541    139518.77   -39420.344    2693.2781   -42113.622    424.98713     227.3054 
   94600     133.8986   -100.22361    139457.06   -39418.315    2688.1156   -42106.431    425.03921     226.8697 
   94650    131.14297    6.5798066    139445.81   -39450.942    2632.7942   -42083.737    425.40123    222.20073 
   94700     128.9914    -30.62765    139277.05   -39499.681    2589.5998   -42089.281    426.06582    218.55524 
   94750    131.95073    42.873631     139304.4   -39503.607    2649.0107   -42152.617    426.14433    223.56936 
   94800    132.17618    115.11557     139278.8   -39487.562    2653.5367   -42141.099    426.07448    223.95134 
   94850    129.51499    46.206774    139287.84    -39495.82    2600.1114   -42095.931    426.79451    219.44238 
   94900     132.6442    124.38677    139318.99   -39484.082    2662.9326   -42147.014    426.80728    224.74433 
   94950    131.95147    149.71901    139459.55   -39454.198    2649.0255   -42103.223    426.62274    223.57061 
   95000    132.18475   -23.837901    139470.36   -39493.938    2653.7088   -42147.647    427.21979    223.96586 
   95050    133.14775    44.468999    139418.46   -39493.645    2673.0416   -42166.687    427.68923     225.5975 
   95100    128.58964    64.150001    139314.08   -39525.336    2581.5342    -42106.87    428.13926    217.87452 
   95150    129.60286    180.47902    139400.95   -39542.483    2601.8754   -42144.359    428.47264    219.59126 
   95200    132.79499    38.030092    139430.71   -39547.865    2665.9598   -42213.824    428.35547    224.99981 
   95250    135.62241    91.178297    139572.45   -39498.469    2722.7224   -42221.191    428.25255    229.79042 
   95300    131.83505    146.67336    139592.83    -39484.25    2646.6883   -42130.938    428.28708    223.37336 
   95350    131.73074   -135.23708    139702.69   -39487.261    2644.5942   -42131.855    428.43337    223.19662 
   95400    131.87303    15.436848    139714.58   -39467.564    2647.4508   -42115.014    428.86125     223.4377 
   95450    133.77652   -63.746827    139745.98    -39431.97    2685.6648   -42117.635    429.68584    226.66286 
   95500    133.24904    37.006291    139674.23   -39446.603    2675.0752   -42121.679    429.51172    225.76913 
   95550     132.3052    116.68694    139742.76   -39453.325    2656.1268   -42109.452    430.07129    224.16994 
   95600    136.25464    95.702929       139841   -39424.705    2735.4148    -42160.12    430.32111    230.86163 
   95650    133.31886   -73.418881    139960.76   -39422.063    2676.4768   -42098.539    430.45064    225.88743 
   95700    130.62285    52.259307    140011.36    -39388.02    2622.3525   -42010.372    430.69146    221.31948 
   95750    132.88891     -4.96698    139929.08   -39401.353    2667.8453   -42069.199    430.74683    225.15894 
   95800    131.73109    20.564844    139804.23     -39433.3    2644.6013   -42077.901    431.05601    223.19721 
   95850     132.1587   -79.913324    139640.45   -39408.532    2653.1858   -42061.718    431.13647    223.92172 
   95900    133.27865   -49.019221    139567.89   -39424.941    2675.6696   -42100.611     430.8281     225.8193 
   95950    131.34415    106.02086    139677.88   -39443.314    2636.8331   -42080.147     431.7735     222.5416 
   96000    130.25319    3.4243607    139667.56   -39489.549    2614.9313    -42104.48    432.03387    220.69315 
   96050    132.31323   -54.726335    139725.08   -39514.233    2656.2881   -42170.521    432.84379    224.18355 
   96100    132.31353     100.4608    139783.39   -39469.051     2656.294   -42125.345    433.05835    224.18405 
   96150    132.78128    49.135208    139857.86   -39451.917    2665.6845   -42117.602    433.51902    224.97658 
   96200    131.12652    62.877784    139990.18   -39465.267     2632.464   -42097.731    433.64363    222.17286 
   96250    131.96013    9.3320905    140041.85   -39426.487    2649.1993   -42075.687    434.35342    223.58528 
   96300    131.09545   -56.035879    140020.75   -39454.502    2631.8402   -42086.343    434.41499    222.12021 
   96350    129.03035   -105.24205    139845.63   -39481.405    2590.3817   -42071.787    433.91746    218.62123 
   96400    130.49296   -156.99305    139781.65   -39504.042    2619.7447   -42123.787    433.99104    221.09939 
   96450    130.45378   -56.319931    139668.36   -39507.738    2618.9582   -42126.697    434.19389    221.03301 
   96500    131.98848   -19.611332    139683.44   -39539.944    2649.7684   -42189.712    434.48614    223.63331 
   96550     132.5858    7.9416042    139563.61   -39482.856      2661.76   -42144.616    434.29017    224.64537 
   96600    131.54435   -56.039576    139453.98   -39438.609    2640.8523   -42079.462    434.12471    222.88081 
   96650    133.31405     -175.107    139396.03   -39434.179    2676.3804   -42110.559    434.09336    225.87928 
   96700    131.93266   -90.321275    139383.95   -39424.135    2648.6478   -42072.782    434.17549    223.53873 
   96750     131.6695    95.035662       139300   -39393.008    2643.3647   -42036.373    434.02506    223.09285 
   96800    131.97545    73.814694    139339.87   -39410.406     2649.507   -42059.913     434.4336    223.61124 
   96850    130.47466   -157.60694    139365.01   -39457.111    2619.3773   -42076.488    434.30094    221.06838 
   96900    132.81538    25.368245    139358.33    -39474.82    2666.3691   -42141.189    434.39125    225.03436 
   96950    131.39315    30.870706    139357.41   -39507.433    2637.8168    -42145.25    434.75059    222.62462 
   97000    131.18182     42.37536    139391.13   -39536.677    2633.5741   -42170.251    434.65624    222.26655 
   97050    131.52324   -23.792124    139464.28   -39524.333    2640.4285   -42164.762    434.99951    222.84504 
   97100     132.3106    205.05338     139500.3    -39483.24    2656.2352   -42139.475    435.53095    224.17909 
   97150    132.10025    61.085429    139627.51   -39468.055    2652.0123   -42120.067    435.33787    223.82269 
   97200    132.94584   -46.190394    139718.07   -39459.792    2668.9882    -42128.78    435.72663     225.2554 
   97250    131.60507   -34.007938    139674.14   -39446.907    2642.0712   -42088.978    435.97592    222.98368 
   97300    129.88159    96.751297    139865.68   -39435.478    2607.4711   -42042.949    436.44317    220.06352 
   97350    132.70147    16.918508    139885.48   -39411.324    2664.0823   -42075.406    436.60895    224.84136 
   97400    132.47947    16.218608       139921   -39427.033    2659.6256   -42086.658    436.79086    224.46522 
   97450    132.13921    263.40685    140014.41   -39367.085    2652.7945    -42019.88    436.85712     223.8887 
   97500    130.95805   -69.459945    140088.02   -39379.641    2629.0819   -42008.723     437.0124    221.88742 
   97550    132.99697    -89.80638     139862.8   -39392.706    2670.0147   -42062.721    437.13919    225.34204 
   97600    132.71124   -49.889147    139841.13   -39346.784    2664.2785   -42011.062     437.1494    224.85792 
   97650     131.9986   -28.882186    139804.42   -39323.993    2649.9715   -41973.964    437.23427    223.65045 
   97700    131.62426    37.257262    139809.77   -39332.026    2642.4565   -41974.482    437.64696     223.0162 
   97750    131.11199    46.421541    139796.84   -39330.657    2632.1724   -41962.829    437.24945    222.14825 
   97800     133.6912   -2.3859571    139840.52   -39365.492    2683.9518   -42049.444    437.36124    226.51829 
   97850    131.69291    208.32283    140005.68   -39348.022    2643.8346   -41991.857    437.76798    223.13251 
   97900    131.92373   -133.12183    140055.61   -39330.982    2648.4687   -41979.451    438.02828    223.52361 
   97950    131.21982    42.799515    139885.37   -39363.919    2634.3371   -41998.256    438.33516    222.33095 
   98000    132.50048   -52.472738    139759.44    -39379.43    2660.0473   -42039.477     438.6493    224.50082 
   98050    131.27763   -150.64348    139620.55   -39369.316    2635.4975   -42004.814     438.7483    222.42888 
   98100    133.24609    59.399896    139589.71   -39354.047     2675.016   -42029.063    438.88639    225.76413 
   98150    134.80564    67.749199    139629.26   -39376.413    2706.3251   -42082.738    439.34765    228.40654 
   98200    133.90318   -56.547596    139713.36   -39361.194    2688.2075   -42049.402    440.10688    226.87746 
   98250    130.02521    93.914437    139724.08   -39444.738    2610.3544   -42055.093    440.32944    220.30687 
   98300    132.94799   -82.656972    139611.31    -39390.71    2669.0314   -42059.741    439.80926    225.25905 
   98350     131.3304    32.508812    139572.69   -39387.064     2636.557   -42023.621    440.30069     222.5183 
   98400     134.4309   -40.191429    139572.04   -39356.913     2698.802   -42055.715    440.35336    227.77161 
   98450    135.74836    4.3817506     139677.2   -39404.171    2725.2508   -42129.422    440.54199    230.00382 
   98500    132.21819    -93.11387    139776.99   -39374.249    2654.3801   -42028.629    440.26444    224.02252 
   98550    134.59059   -88.461246     139659.8   -39331.601    2702.0079   -42033.609    440.81262    228.04218 
   98600    134.27868     -8.80569    139771.14    -39380.12     2695.746   -42075.866    440.71339    227.51369 
   98650    132.14576   -93.655479    139792.32   -39414.968    2652.9261   -42067.894    441.06601     223.8998 
   98700    133.98167   -50.140415    139874.61   -39375.146    2689.7834    -42064.93     441.2635    227.01046 
   98750    132.10545   -19.511255    139862.02   -39373.278    2652.1167   -42025.395    442.07889    223.83149 
   98800    133.51447    9.0280441    139841.23   -39339.255     2680.404   -42019.659      442.264    226.21886 
   98850    137.63197    22.976689    139831.24   -39297.434    2763.0659     -42060.5    442.59161    233.19531 
   98900    134.53292   -23.993765    139898.51   -39299.139    2700.8501   -41999.989    442.39661    227.94446 
   98950    134.99673   -25.051898    139938.62   -39304.903    2710.1614   -42015.064    442.44187    228.73031 
   99000    132.87591    61.069024    139869.75   -39304.933    2667.5844   -41972.518    442.76946    225.13693 
   99050    133.18124    29.010498    139874.36   -39307.558    2673.7141   -41981.272    443.18628    225.65426 
   99100    129.98605   -27.424066    139839.13   -39328.149    2609.5681   -41937.717    443.35346    220.24051 
   99150    132.78673   -136.83264    139628.85   -39382.137    2665.7939    -42047.93    444.05339    224.98581 
   99200    134.74051   -24.288882    139600.18   -39389.965    2705.0175   -42094.982    443.77883    228.29618 
   99250     132.1587   -131.90032     139567.2   -39406.038    2653.1858   -42059.224    444.01537    223.92173 
   99300    130.99981    34.003188    139482.68   -39470.597    2629.9202   -42100.517    444.61646    221.95817 
   99350    131.51589   -192.14803    139318.14   -39485.425    2640.2808   -42125.706     444.2579    222.83258 
   99400    129.67694    -130.5963     139111.8   -39440.996    2603.3625   -42044.358     444.6552    219.71677 
   99450    130.76735   -16.690803     139031.9   -39452.766    2625.2534   -42078.019    444.86461     221.5643 
   99500     130.9529    178.43584    139309.41   -39407.753    2628.9784   -42036.731    446.04703    221.87869 
   99550      131.123   -69.481963    139368.44   -39403.013    2632.3934   -42035.406    446.36342     222.1669 
   99600    133.55152    74.962597    139440.61   -39371.993    2681.1477   -42053.141    446.61933    226.28163 
   99650    131.59428   -10.000101    139382.91   -39392.505    2641.8547    -42034.36    446.82459    222.96541 
   99700     130.5357    164.23589    139509.44    -39378.08    2620.6029   -41998.683    447.45779    221.17182 
   99750    132.08704   -55.176286    139504.99   -39367.334    2651.7472   -42019.081    447.47939    223.80031 
   99800    133.49814    93.853224    139526.64   -39370.254    2680.0761    -42050.33    447.44355     226.1912 
   99850    136.12196   -88.284549    139540.34   -39346.572    2732.7513   -42079.323    446.98372    230.63684 
   99900    133.13699   -46.156265    139555.47   -39388.629    2672.8257   -42061.455    447.35734    225.57928 
   99950    134.08098   -15.841088     139624.9   -39331.146    2691.7771   -42022.923    447.85974    227.17872 
  100000    130.79344   -14.221202    139568.56   -39296.449    2625.7772   -41922.226    448.33131    221.60851 
Loop time of 325.414 on 40 procs for 100000 steps with 6736 atoms

Performance: 132.754 ns/day, 0.181 hours/ns, 307.301 timesteps/s
99.6% CPU use with 40 MPI tasks x no OpenMP threads

MPI task timing breakdown:
Section |  min time  |  avg time  |  max time  |%varavg| %total
---------------------------------------------------------------
Pair    | 57.529     | 150.27     | 270.73     | 628.1 | 46.18
Neigh   | 1.9533     | 4.1482     | 12.285     | 166.6 |  1.27
Comm    | 31.827     | 121.28     | 161.59     | 368.3 | 37.27
Output  | 0.20932    | 0.21616    | 0.22891    |   1.1 |  0.07
Modify  | 7.953      | 48.019     | 104.2      | 636.9 | 14.76
Other   |            | 1.478      |            |       |  0.45

Nlocal:    168.4 ave 411 max 112 min
Histogram: 32 0 0 0 0 0 1 1 4 2
Nghost:    1293.17 ave 1680 max 873 min
Histogram: 16 0 0 0 0 0 0 0 17 7
Neighs:    0 ave 0 max 0 min
Histogram: 40 0 0 0 0 0 0 0 0 0
FullNghs:  20445 ave 75583 max 7190 min
Histogram: 32 0 0 0 0 0 0 1 5 2

Total # of neighbors = 817800
Ave neighs/atom = 121.407
Neighbor list builds = 6143
Dangerous builds = 0

write_data		${DIR}/data.eq-${NAME}-${TEMP}
write_data		run_3/data.eq-${NAME}-${TEMP}
write_data		run_3/data.eq-het_freeze_3-${TEMP}
write_data		run_3/data.eq-het_freeze_3-225
undump          1

reset_timestep  0

unfix           2
unfix           3
unfix           4


################################################
#######         Run Simulation         #########
################################################

log				${DIR}/log.run_${NAME}
log				run_3/log.run_${NAME}
log				run_3/log.run_het_freeze_3
