LAMMPS data file via write_data, version 16 Mar 2018, timestep = 6000000

6489 atoms
2 atom types

0.0000000000000000e+00 4.9219999999999999e+01 xlo xhi
0.0000000000000000e+00 4.9019635930410494e+01 ylo yhi
6.1609067725429867e-01 5.9445909322756350e+01 zlo zhi

Masses

1 18.015
2 12.01

Atoms # atomic

1539 1 3.3165681716359612e+00 1.3149547083242790e+00 3.2061978094607677e+00 0 0 1
54 1 2.8749758874642204e+00 3.7873612277260666e+00 2.2467594736902581e+00 1 -1 1
2955 1 1.0547072216052987e+01 9.3048820777028300e+00 7.0905100803953554e+00 -1 -1 1
4747 1 7.9993944634067509e+00 5.3143254299077680e-01 3.3419646414868955e+00 1 0 0
5445 1 7.9071764957460902e+00 3.2140278982972714e+00 2.6163647458877612e+00 1 1 0
1640 1 7.2444776030192959e-01 5.2129071773433973e+00 3.7534163400516221e+00 0 1 0
175 1 8.6838732482027370e-01 7.7740984854933988e+00 2.8913211148718463e+00 2 2 0
4820 1 5.3449196802007739e+00 4.5162171740723345e+00 3.2178978288119233e+00 -1 -2 0
508 1 5.9276811928547257e+00 7.3501196203883818e+00 2.9083482483969876e+00 0 1 1
1938 1 1.0363305719940136e+01 4.4161259521970093e+00 3.2944098447690937e+00 0 0 0
1524 1 1.0581359507935209e+01 6.9709339038832798e+00 2.5866210328023045e+00 1 0 1
5218 1 3.5547436568272528e+00 8.4321556576619230e+00 3.5743710519139191e+00 0 0 0
3143 1 3.7294827057231288e+00 1.1055664758528188e+01 2.4617130209831375e+00 1 1 0
1953 1 6.1813210145214601e+00 9.6737714526230896e+00 6.9239273001723811e+00 0 0 0
1802 1 8.3050823513653587e+00 8.5381344608944936e+00 3.7116152902760704e+00 0 0 1
410 1 8.5627110471391710e+00 1.0902349462594284e+01 2.5416106619549339e+00 0 -1 0
4808 1 9.1754911869169353e-01 2.4532984027727101e+00 7.0047870025121579e+00 -1 1 0
4675 1 3.0588486964032291e+00 9.5598814550867528e-01 5.9957365714254589e+00 1 1 1
1952 1 5.3323318186767485e+00 2.0172850856148177e+00 7.0931408755612599e+00 0 0 0
3176 1 7.6120491497551006e+00 8.3682704127786978e-01 6.1333650923597638e+00 -1 2 1
6159 1 8.2176281168329197e+00 8.2497660169707459e+00 6.2621177437693163e+00 1 0 1
212 1 1.0170460307166861e+01 1.6990235937741773e+00 7.0266609980065624e+00 1 0 0
368 1 1.0877182592506975e+00 5.1531317900410487e+00 6.4735352894163745e+00 0 0 0
5036 1 3.2897953179957447e+00 5.9685842481065832e+00 7.3489334818206444e+00 0 0 0
140 1 5.6444741292418135e+00 4.7759278814314126e+00 6.2100384651287692e+00 1 1 1
6181 1 8.1814566147502106e+00 5.6855036367359100e+00 7.2139695038652327e+00 -3 -1 1
6364 1 1.0559244003317072e+01 4.1877282850285669e+00 6.0130229650271749e+00 0 -1 1
252 1 1.7006692636385792e+00 1.0265121979658774e+01 6.9092924456117855e+00 1 0 0
4835 1 3.7280153045976547e+00 8.5646767804114354e+00 6.2339142068343492e+00 -1 1 0
3353 1 1.0752369534487448e+01 1.2107876173006401e+01 3.4557394505089598e+00 2 -1 1
2015 1 7.1202679286779269e-01 2.2730015419853825e-01 2.3249019808869402e+00 2 0 0
4582 1 6.0134372955817224e+00 1.2016513277100042e+01 3.5045355091880066e+00 0 2 1
1966 1 1.0547539247151388e+01 1.2123980423180182e+01 6.2071128341127650e+00 -1 2 0
3735 1 8.9556214290697178e-01 2.6247022021726698e+00 9.6993906760226007e+00 0 0 0
6196 1 3.3244398683964413e+00 3.4818603724963686e+00 1.0584908781166616e+01 -1 2 1
3260 1 5.6197329951885511e+00 2.0563462193313420e+00 1.0021842695220879e+01 1 -1 0
4536 1 7.9787690539808480e+00 3.3474356421208085e+00 1.0711633751876677e+01 1 1 1
4513 1 1.0111840099153968e+01 1.6704804374138105e+00 9.8011593103153434e+00 0 1 1
2131 1 3.2943497765906682e+00 6.0969810315328488e+00 1.0286171326343245e+01 0 0 1
1577 1 1.0789758629792141e+00 7.7976834276653317e+00 1.0603588765500630e+01 2 2 0
1501 1 5.5835347561315087e+00 7.4447726024693806e+00 1.0793608928961580e+01 0 2 1
5145 1 7.9157268464409762e+00 5.9698693519300905e+00 1.0012697267012658e+01 0 1 0
129 1 1.0358099431306009e+01 6.9102591680085590e+00 1.1029562563837862e+01 1 0 0
57 1 1.6281694505272781e+00 1.0471839829105360e+01 9.8807284061052894e+00 -1 0 1
2012 1 4.0124062358118406e+00 1.1389737800363687e+01 1.0878605328200436e+01 1 1 0
1890 1 6.1025568966953712e+00 1.0013688957478285e+01 9.7994140173165398e+00 -1 0 0
1843 1 8.6830965128261983e+00 1.1036385261147810e+01 1.0284647149115459e+01 0 0 0
488 1 1.0828512113019656e+01 9.1325302850805894e+00 9.7079973449091757e+00 1 -1 0
2019 1 5.9794240508464291e-01 2.3907093556909378e+00 1.4181376988139720e+01 1 -1 0
3104 1 2.7978784227228637e+00 3.4887570623921467e+00 1.3227255305243391e+01 1 -1 1
4952 1 5.0691302691943987e+00 2.0759913340068397e+00 1.4262262756033055e+01 0 2 1
4578 1 7.7197006085066198e+00 3.0633358334882845e+00 1.3717055009901696e+01 0 2 0
4792 1 9.9898227164078115e+00 1.6183592953205430e+00 1.4259316306503898e+01 2 1 1
3041 1 3.1749174962220459e+00 5.9522529674698896e+00 1.4371254000984788e+01 -1 0 1
1831 1 1.2458402793314187e+00 7.7160772084324174e+00 1.3400133148245406e+01 2 -1 0
4693 1 5.7116135113154742e+00 7.0764864779368013e+00 1.3565091023565493e+01 1 0 1
4619 1 8.0613762161078224e+00 5.8420472860016437e+00 1.4366524909118725e+01 0 3 1
4499 1 1.0614717048594422e+01 6.9902772782015576e+00 1.3731963696705241e+01 0 0 1
1418 1 1.6861219136118892e+00 1.0336367112922391e+01 1.4231981828110584e+01 0 -1 1
6337 1 3.9465632753512550e+00 1.1481169382001193e+01 1.3450537243706153e+01 -1 -1 1
1396 1 6.3021351846776916e+00 1.0053006719426616e+01 1.4507817320606881e+01 1 0 1
76 1 1.0934643611308751e+01 9.9714111154891505e+00 1.4225250277739825e+01 0 0 0
41 1 8.7713387404469874e+00 1.1096482016586528e+01 1.3246493080288712e+01 -1 1 1
6486 1 6.3719919347974996e-01 2.8634678816215651e+00 1.7066933226088775e+01 0 0 0
6395 1 2.6392372206887651e+00 1.1462605363433884e+00 1.8073634010036212e+01 1 2 1
3544 1 5.1143700995907739e+00 2.1188992601562662e+00 1.7376405959511708e+01 0 -1 0
4620 1 7.4529480507284287e+00 3.8231430280531609e-01 1.7727998016732194e+01 -2 -1 1
2885 1 9.7990196651243338e+00 1.8717445192694580e+00 1.6896278686060917e+01 1 0 1
5285 1 8.8508140629835896e-01 5.3581269833675966e+00 1.7608920277354510e+01 -1 0 0
3099 1 3.6455763809062405e+00 6.5867547171379570e+00 1.6910589064921883e+01 1 -1 1
3416 1 5.6158228958605072e+00 4.9671178359005808e+00 1.7805559834540524e+01 2 0 1
82 1 8.2270858241467195e+00 6.0086201861411768e+00 1.7216137225015036e+01 0 -2 1
5110 1 1.0353925579659526e+01 4.3794192569083528e+00 1.7816452862636069e+01 0 0 1
6204 1 1.7404550551293998e+00 1.0640760527085840e+01 1.6892473008571795e+01 -1 1 0
1984 1 3.9363904397634939e+00 9.3015845009679285e+00 1.7797755022632678e+01 0 2 0
2177 1 6.3587123911433912e+00 1.0283828264713698e+01 1.7176751823387658e+01 -1 0 1
1373 1 8.7362097027276224e+00 8.7650157734480736e+00 1.7604715035068800e+01 0 1 1
239 1 1.1073086506807801e+01 9.7999421196780965e+00 1.6932805285270199e+01 -1 -2 0
559 1 2.9414164770934854e+00 9.2629659874769610e-01 2.0707770287592091e+01 1 0 1
5094 1 3.3158641779311346e+00 3.7387241318152760e+00 2.1134547887521791e+01 0 1 0
1866 1 8.7561626581889147e+00 1.1455666990658125e+01 2.1043448772560495e+01 1 1 0
5356 1 8.2330665891220765e+00 3.4824239523132188e+00 2.0696876558317395e+01 -1 0 1
1998 1 1.1398182916111357e+00 5.4150352483894730e+00 2.0578387254912560e+01 1 1 0
3728 1 1.2257902302273522e+00 8.5611653563270398e+00 2.1319639674344685e+01 -1 2 1
3514 1 6.0786596725122140e+00 7.7260805997018300e+00 2.1076300629924713e+01 0 -2 0
3440 1 5.7543061365366031e+00 5.1324590008218109e+00 2.0446544028905858e+01 0 1 1
190 1 1.0466191479805687e+01 4.6204027344580769e+00 2.0469462827857509e+01 -1 -1 0
5052 1 1.0625877586932871e+01 7.4660401240849481e+00 2.0905416226795307e+01 0 2 0
5115 1 3.7779795024011702e+00 8.9819621434460988e+00 2.0306352796573524e+01 0 2 0
333 1 7.8092604942872432e+00 4.7665619435603468e-01 2.0533651084628580e+01 0 -1 0
1911 1 8.3550399914849809e+00 8.8723160804230332e+00 2.0298075561546646e+01 0 -1 0
6240 1 4.1179082315360285e+00 1.1679394641454909e+01 2.1203607572910567e+01 -1 0 1
1530 1 1.2120857326580515e+01 4.0349900622766566e-01 2.0534198008340852e+01 0 -2 1
4950 1 1.2196215940069452e+01 6.7210231417917043e-02 1.7575139459877345e+01 0 -1 0
199 1 2.8718706678988668e+00 9.0231431271475560e-01 2.4212449915566147e+01 2 -1 0
402 1 3.2282235478144541e+00 3.6536233828457019e+00 2.3648292396728035e+01 1 1 0
795 2 1.2304999999999998e+01 1.1366872099805333e+01 2.6717937006931610e+01 0 0 0
4788 1 8.0258854668208244e+00 3.4016326551273224e+00 2.3438158299848833e+01 1 2 0
3395 1 1.2059731299050520e+00 5.2323381966144940e+00 2.3961611211652158e+01 1 1 0
3278 1 5.6456508631391182e+00 4.7824821846377477e+00 2.4070969693495055e+01 1 1 0
3058 1 5.9952128908173252e+00 7.6934587040567566e+00 2.3694414037549794e+01 -1 -3 0
2006 1 1.0288950850046032e+01 4.6841017426716469e+00 2.4136232281368475e+01 1 1 0
1477 1 1.0745006263216428e+01 7.4484037934975618e+00 2.3538074792647436e+01 -1 1 1
245 1 1.1665480555963008e+00 7.9100135411416579e+00 2.4062601901390444e+01 0 -2 0
3482 1 3.8152628343289199e+00 9.0630670316549153e+00 2.4203553905901380e+01 0 0 0
466 1 7.7125543752354764e+00 7.0958612001891963e-01 2.4290052980019706e+01 0 2 1
2146 1 8.4582085900639878e+00 8.8703751569121110e+00 2.3810952399503261e+01 1 1 1
1391 1 8.6636669224146186e+00 1.1612302835527995e+01 2.3680498274805675e+01 -2 1 1
572 2 0.0000000000000000e+00 2.8417180249513345e+00 2.6717937006931610e+01 0 0 0
574 2 0.0000000000000000e+00 0.0000000000000000e+00 2.6717937006931610e+01 0 0 0
576 2 1.2305000000000001e+00 7.1042950623783474e-01 2.6717937006931610e+01 0 0 0
583 2 1.2305000000000001e+00 2.1312885187134998e+00 2.6717937006931610e+01 0 0 0
585 2 2.4610000000000003e+00 2.8417180249513345e+00 2.6717937006931610e+01 0 0 0
587 2 2.4610000000000003e+00 0.0000000000000000e+00 2.6717937006931610e+01 0 0 0
589 2 3.6915000000000004e+00 7.1042950623783474e-01 2.6717937006931610e+01 0 0 0
604 2 3.6914999999999996e+00 2.1312885187134998e+00 2.6717937006931610e+01 0 0 0
606 2 4.9220000000000006e+00 2.8417180249513332e+00 2.6717937006931610e+01 0 0 0
608 2 4.9220000000000006e+00 0.0000000000000000e+00 2.6717937006931610e+01 0 0 0
610 2 6.1524999999999999e+00 7.1042950623783407e-01 2.6717937006931610e+01 0 0 0
633 2 6.1524999999999999e+00 2.1312885187134989e+00 2.6717937006931610e+01 0 0 0
635 2 7.3829999999999991e+00 2.8417180249513345e+00 2.6717937006931610e+01 0 0 0
637 2 7.3829999999999991e+00 0.0000000000000000e+00 2.6717937006931610e+01 0 0 0
639 2 8.6134999999999984e+00 7.1042950623783407e-01 2.6717937006931610e+01 0 0 0
670 2 8.6134999999999984e+00 2.1312885187135002e+00 2.6717937006931610e+01 0 0 0
672 2 9.8440000000000012e+00 2.8417180249513332e+00 2.6717937006931610e+01 0 0 0
674 2 9.8440000000000012e+00 0.0000000000000000e+00 2.6717937006931610e+01 0 0 0
676 2 1.1074500000000002e+01 7.1042950623783330e-01 2.6717937006931610e+01 0 0 0
715 2 1.1074500000000002e+01 2.1312885187135002e+00 2.6717937006931610e+01 0 0 0
579 2 0.0000000000000000e+00 4.2625770374269996e+00 2.6717937006931610e+01 0 0 0
581 2 1.2305000000000001e+00 4.9730065436648339e+00 2.6717937006931610e+01 0 0 0
596 2 1.2305000000000001e+00 6.3938655561404980e+00 2.6717937006931610e+01 0 0 0
600 2 2.4610000000000003e+00 4.2625770374269996e+00 2.6717937006931610e+01 0 0 0
602 2 3.6914999999999996e+00 4.9730065436648339e+00 2.6717937006931610e+01 0 0 0
625 2 3.6914999999999996e+00 6.3938655561404980e+00 2.6717937006931610e+01 0 0 0
577 2 0.0000000000000000e+00 7.1042950623783341e+00 2.6717937006931610e+01 0 0 0
598 2 2.4610000000000003e+00 7.1042950623783341e+00 2.6717937006931610e+01 0 0 0
629 2 4.9220000000000006e+00 4.2625770374269978e+00 2.6717937006931610e+01 0 0 0
631 2 6.1524999999999999e+00 4.9730065436648339e+00 2.6717937006931610e+01 0 0 0
662 2 6.1524999999999999e+00 6.3938655561404980e+00 2.6717937006931610e+01 0 0 0
666 2 7.3829999999999991e+00 4.2625770374269996e+00 2.6717937006931610e+01 0 0 0
627 2 4.9220000000000006e+00 7.1042950623783341e+00 2.6717937006931610e+01 0 0 0
664 2 7.3830000000000009e+00 7.1042950623783341e+00 2.6717937006931610e+01 0 0 0
668 2 8.6135000000000002e+00 4.9730065436648339e+00 2.6717937006931610e+01 0 0 0
707 2 8.6135000000000002e+00 6.3938655561404980e+00 2.6717937006931610e+01 0 0 0
711 2 9.8440000000000012e+00 4.2625770374270004e+00 2.6717937006931610e+01 0 0 0
713 2 1.1074500000000002e+01 4.9730065436648339e+00 2.6717937006931610e+01 0 0 0
754 2 1.1074500000000002e+01 6.3938655561404980e+00 2.6717937006931610e+01 0 0 0
709 2 9.8440000000000012e+00 7.1042950623783341e+00 2.6717937006931610e+01 0 0 0
592 2 0.0000000000000000e+00 8.5251540748539991e+00 2.6717937006931610e+01 0 0 0
594 2 1.2305000000000001e+00 9.2355835810918343e+00 2.6717937006931610e+01 0 0 0
621 2 2.4610000000000003e+00 8.5251540748539991e+00 2.6717937006931610e+01 0 0 0
623 2 3.6915000000000004e+00 9.2355835810918343e+00 2.6717937006931610e+01 0 0 0
590 2 0.0000000000000000e+00 1.1366872099805333e+01 2.6717937006931610e+01 0 0 0
617 2 1.2305000000000001e+00 1.0656442593567498e+01 2.6717937006931610e+01 0 0 0
619 2 2.4610000000000003e+00 1.1366872099805333e+01 2.6717937006931610e+01 0 0 0
654 2 3.6914999999999996e+00 1.0656442593567499e+01 2.6717937006931610e+01 0 0 0
703 2 7.3830000000000009e+00 8.5251540748539991e+00 2.6717937006931610e+01 0 0 0
699 2 6.1524999999999999e+00 1.0656442593567499e+01 2.6717937006931610e+01 0 0 0
656 2 4.9220000000000006e+00 1.1366872099805333e+01 2.6717937006931610e+01 0 0 0
701 2 7.3829999999999991e+00 1.1366872099805333e+01 2.6717937006931610e+01 0 0 0
658 2 4.9220000000000006e+00 8.5251540748539991e+00 2.6717937006931610e+01 0 0 0
660 2 6.1524999999999999e+00 9.2355835810918343e+00 2.6717937006931610e+01 0 0 0
705 2 8.6134999999999984e+00 9.2355835810918343e+00 2.6717937006931610e+01 0 0 0
752 2 1.1074500000000002e+01 9.2355835810918343e+00 2.6717937006931610e+01 0 0 0
750 2 9.8440000000000012e+00 8.5251540748539956e+00 2.6717937006931610e+01 0 0 0
793 2 1.1074500000000002e+01 1.0656442593567498e+01 2.6717937006931610e+01 0 0 0
746 2 8.6134999999999984e+00 1.0656442593567498e+01 2.6717937006931610e+01 0 0 0
748 2 9.8440000000000012e+00 1.1366872099805333e+01 2.6717937006931610e+01 0 0 0
1711 1 3.9931693486956479e+00 1.1850359801745231e+01 2.3996532274952802e+01 -1 0 0
573 2 0.0000000000000000e+00 1.4208590124756650e+00 3.0031000000005744e+01 0 0 0
575 2 0.0000000000000000e+00 0.0000000000000000e+00 3.0031000000005744e+01 0 0 0
584 2 1.2305000000000001e+00 2.1312885187134998e+00 3.0031000000005744e+01 0 0 0
586 2 2.4610000000000003e+00 1.4208590124756650e+00 3.0031000000005744e+01 0 0 0
588 2 2.4610000000000003e+00 0.0000000000000000e+00 3.0031000000005744e+01 0 0 0
605 2 3.6914999999999996e+00 2.1312885187134998e+00 3.0031000000005744e+01 0 0 0
582 2 1.2305000000000001e+00 3.5521475311891644e+00 3.0031000000005744e+01 0 0 0
603 2 3.6914999999999996e+00 3.5521475311891644e+00 3.0031000000005744e+01 0 0 0
901 2 0.0000000000000000e+00 2.8417180249513345e+00 3.3344062993059445e+01 0 0 0
902 2 0.0000000000000000e+00 0.0000000000000000e+00 3.3344062993059445e+01 0 0 0
903 2 1.2305000000000001e+00 7.1042950623783474e-01 3.3344062993059445e+01 0 0 0
907 2 1.2305000000000001e+00 2.1312885187134998e+00 3.3344062993059445e+01 0 0 0
908 2 2.4610000000000003e+00 2.8417180249513345e+00 3.3344062993059445e+01 0 0 0
909 2 2.4610000000000003e+00 0.0000000000000000e+00 3.3344062993059445e+01 0 0 0
910 2 3.6915000000000004e+00 7.1042950623783474e-01 3.3344062993059445e+01 0 0 0
918 2 3.6914999999999996e+00 2.1312885187134998e+00 3.3344062993059445e+01 0 0 0
607 2 4.9220000000000006e+00 1.4208590124756650e+00 3.0031000000005744e+01 0 0 0
609 2 4.9220000000000006e+00 0.0000000000000000e+00 3.0031000000005744e+01 0 0 0
634 2 6.1524999999999999e+00 2.1312885187134989e+00 3.0031000000005744e+01 0 0 0
636 2 7.3829999999999991e+00 1.4208590124756659e+00 3.0031000000005744e+01 0 0 0
638 2 7.3829999999999991e+00 0.0000000000000000e+00 3.0031000000005744e+01 0 0 0
632 2 6.1524999999999999e+00 3.5521475311891644e+00 3.0031000000005744e+01 0 0 0
919 2 4.9220000000000006e+00 2.8417180249513332e+00 3.3344062993059445e+01 0 0 0
920 2 4.9220000000000006e+00 0.0000000000000000e+00 3.3344062993059445e+01 0 0 0
921 2 6.1524999999999999e+00 7.1042950623783407e-01 3.3344062993059445e+01 0 0 0
933 2 6.1524999999999999e+00 2.1312885187134989e+00 3.3344062993059445e+01 0 0 0
934 2 7.3829999999999991e+00 2.8417180249513345e+00 3.3344062993059445e+01 0 0 0
935 2 7.3829999999999991e+00 0.0000000000000000e+00 3.3344062993059445e+01 0 0 0
671 2 8.6134999999999984e+00 2.1312885187135002e+00 3.0031000000005744e+01 0 0 0
673 2 9.8440000000000012e+00 1.4208590124756659e+00 3.0031000000005744e+01 0 0 0
675 2 9.8440000000000012e+00 0.0000000000000000e+00 3.0031000000005744e+01 0 0 0
716 2 1.1074500000000002e+01 2.1312885187135002e+00 3.0031000000005744e+01 0 0 0
669 2 8.6134999999999984e+00 3.5521475311891657e+00 3.0031000000005744e+01 0 0 0
714 2 1.1074500000000002e+01 3.5521475311891644e+00 3.0031000000005744e+01 0 0 0
936 2 8.6134999999999984e+00 7.1042950623783407e-01 3.3344062993059445e+01 0 0 0
952 2 8.6134999999999984e+00 2.1312885187135002e+00 3.3344062993059445e+01 0 0 0
953 2 9.8440000000000012e+00 2.8417180249513332e+00 3.3344062993059445e+01 0 0 0
954 2 9.8440000000000012e+00 0.0000000000000000e+00 3.3344062993059445e+01 0 0 0
955 2 1.1074500000000002e+01 7.1042950623783330e-01 3.3344062993059445e+01 0 0 0
975 2 1.1074500000000002e+01 2.1312885187135002e+00 3.3344062993059445e+01 0 0 0
578 2 0.0000000000000000e+00 5.6834360499026637e+00 3.0031000000005744e+01 0 0 0
580 2 0.0000000000000000e+00 4.2625770374269996e+00 3.0031000000005744e+01 0 0 0
597 2 1.2305000000000001e+00 6.3938655561404980e+00 3.0031000000005744e+01 0 0 0
599 2 2.4610000000000003e+00 5.6834360499026637e+00 3.0031000000005744e+01 0 0 0
601 2 2.4610000000000003e+00 4.2625770374269996e+00 3.0031000000005744e+01 0 0 0
626 2 3.6914999999999996e+00 6.3938655561404980e+00 3.0031000000005744e+01 0 0 0
595 2 1.2305000000000001e+00 7.8147245686161639e+00 3.0031000000005744e+01 0 0 0
624 2 3.6914999999999996e+00 7.8147245686161639e+00 3.0031000000005744e+01 0 0 0
905 2 0.0000000000000000e+00 4.2625770374269996e+00 3.3344062993059445e+01 0 0 0
906 2 1.2305000000000001e+00 4.9730065436648339e+00 3.3344062993059445e+01 0 0 0
914 2 1.2305000000000001e+00 6.3938655561404980e+00 3.3344062993059445e+01 0 0 0
916 2 2.4610000000000003e+00 4.2625770374269996e+00 3.3344062993059445e+01 0 0 0
917 2 3.6914999999999996e+00 4.9730065436648339e+00 3.3344062993059445e+01 0 0 0
929 2 3.6914999999999996e+00 6.3938655561404980e+00 3.3344062993059445e+01 0 0 0
904 2 0.0000000000000000e+00 7.1042950623783341e+00 3.3344062993059445e+01 0 0 0
915 2 2.4610000000000003e+00 7.1042950623783341e+00 3.3344062993059445e+01 0 0 0
628 2 4.9220000000000006e+00 5.6834360499026637e+00 3.0031000000005744e+01 0 0 0
630 2 4.9220000000000006e+00 4.2625770374269978e+00 3.0031000000005744e+01 0 0 0
663 2 6.1524999999999999e+00 6.3938655561404980e+00 3.0031000000005744e+01 0 0 0
665 2 7.3829999999999991e+00 5.6834360499026637e+00 3.0031000000005744e+01 0 0 0
667 2 7.3829999999999991e+00 4.2625770374269996e+00 3.0031000000005744e+01 0 0 0
661 2 6.1524999999999999e+00 7.8147245686161639e+00 3.0031000000005744e+01 0 0 0
931 2 4.9220000000000006e+00 4.2625770374269978e+00 3.3344062993059445e+01 0 0 0
932 2 6.1524999999999999e+00 4.9730065436648339e+00 3.3344062993059445e+01 0 0 0
948 2 6.1524999999999999e+00 6.3938655561404980e+00 3.3344062993059445e+01 0 0 0
950 2 7.3829999999999991e+00 4.2625770374269996e+00 3.3344062993059445e+01 0 0 0
930 2 4.9220000000000006e+00 7.1042950623783341e+00 3.3344062993059445e+01 0 0 0
949 2 7.3830000000000009e+00 7.1042950623783341e+00 3.3344062993059445e+01 0 0 0
708 2 8.6135000000000002e+00 6.3938655561404980e+00 3.0031000000005744e+01 0 0 0
710 2 9.8440000000000012e+00 5.6834360499026637e+00 3.0031000000005744e+01 0 0 0
712 2 9.8440000000000012e+00 4.2625770374270004e+00 3.0031000000005744e+01 0 0 0
755 2 1.1074500000000002e+01 6.3938655561404980e+00 3.0031000000005744e+01 0 0 0
706 2 8.6135000000000002e+00 7.8147245686161639e+00 3.0031000000005744e+01 0 0 0
753 2 1.1074500000000002e+01 7.8147245686161639e+00 3.0031000000005744e+01 0 0 0
951 2 8.6135000000000002e+00 4.9730065436648339e+00 3.3344062993059445e+01 0 0 0
971 2 8.6135000000000002e+00 6.3938655561404980e+00 3.3344062993059445e+01 0 0 0
973 2 9.8440000000000012e+00 4.2625770374270004e+00 3.3344062993059445e+01 0 0 0
974 2 1.1074500000000002e+01 4.9730065436648339e+00 3.3344062993059445e+01 0 0 0
995 2 1.1074500000000002e+01 6.3938655561404980e+00 3.3344062993059445e+01 0 0 0
972 2 9.8440000000000012e+00 7.1042950623783341e+00 3.3344062993059445e+01 0 0 0
591 2 0.0000000000000000e+00 9.9460130873296642e+00 3.0031000000005744e+01 0 0 0
593 2 0.0000000000000000e+00 8.5251540748539991e+00 3.0031000000005744e+01 0 0 0
620 2 2.4610000000000003e+00 9.9460130873296642e+00 3.0031000000005744e+01 0 0 0
622 2 2.4610000000000003e+00 8.5251540748539991e+00 3.0031000000005744e+01 0 0 0
616 2 1.2305000000000001e+00 1.2077301606043163e+01 3.0031000000005744e+01 0 0 0
618 2 1.2305000000000001e+00 1.0656442593567498e+01 3.0031000000005744e+01 0 0 0
653 2 3.6914999999999996e+00 1.2077301606043163e+01 3.0031000000005744e+01 0 0 0
655 2 3.6914999999999996e+00 1.0656442593567499e+01 3.0031000000005744e+01 0 0 0
912 2 0.0000000000000000e+00 8.5251540748539991e+00 3.3344062993059445e+01 0 0 0
913 2 1.2305000000000001e+00 9.2355835810918343e+00 3.3344062993059445e+01 0 0 0
927 2 2.4610000000000003e+00 8.5251540748539991e+00 3.3344062993059445e+01 0 0 0
928 2 3.6915000000000004e+00 9.2355835810918343e+00 3.3344062993059445e+01 0 0 0
911 2 0.0000000000000000e+00 1.1366872099805333e+01 3.3344062993059445e+01 0 0 0
925 2 1.2305000000000001e+00 1.0656442593567498e+01 3.3344062993059445e+01 0 0 0
926 2 2.4610000000000003e+00 1.1366872099805333e+01 3.3344062993059445e+01 0 0 0
944 2 3.6914999999999996e+00 1.0656442593567499e+01 3.3344062993059445e+01 0 0 0
657 2 4.9220000000000006e+00 9.9460130873296642e+00 3.0031000000005744e+01 0 0 0
659 2 4.9220000000000006e+00 8.5251540748539991e+00 3.0031000000005744e+01 0 0 0
702 2 7.3830000000000009e+00 9.9460130873296642e+00 3.0031000000005744e+01 0 0 0
704 2 7.3830000000000009e+00 8.5251540748539991e+00 3.0031000000005744e+01 0 0 0
698 2 6.1524999999999999e+00 1.2077301606043163e+01 3.0031000000005744e+01 0 0 0
700 2 6.1524999999999999e+00 1.0656442593567499e+01 3.0031000000005744e+01 0 0 0
946 2 4.9220000000000006e+00 8.5251540748539991e+00 3.3344062993059445e+01 0 0 0
947 2 6.1524999999999999e+00 9.2355835810918343e+00 3.3344062993059445e+01 0 0 0
969 2 7.3830000000000009e+00 8.5251540748539991e+00 3.3344062993059445e+01 0 0 0
945 2 4.9220000000000006e+00 1.1366872099805333e+01 3.3344062993059445e+01 0 0 0
967 2 6.1524999999999999e+00 1.0656442593567499e+01 3.3344062993059445e+01 0 0 0
968 2 7.3829999999999991e+00 1.1366872099805333e+01 3.3344062993059445e+01 0 0 0
749 2 9.8440000000000012e+00 9.9460130873296642e+00 3.0031000000005744e+01 0 0 0
751 2 9.8440000000000012e+00 8.5251540748539956e+00 3.0031000000005744e+01 0 0 0
745 2 8.6135000000000002e+00 1.2077301606043163e+01 3.0031000000005744e+01 0 0 0
747 2 8.6134999999999984e+00 1.0656442593567498e+01 3.0031000000005744e+01 0 0 0
792 2 1.1074500000000002e+01 1.2077301606043163e+01 3.0031000000005744e+01 0 0 0
794 2 1.1074500000000002e+01 1.0656442593567498e+01 3.0031000000005744e+01 0 0 0
970 2 8.6134999999999984e+00 9.2355835810918343e+00 3.3344062993059445e+01 0 0 0
993 2 9.8440000000000012e+00 8.5251540748539956e+00 3.3344062993059445e+01 0 0 0
994 2 1.1074500000000002e+01 9.2355835810918343e+00 3.3344062993059445e+01 0 0 0
991 2 8.6134999999999984e+00 1.0656442593567498e+01 3.3344062993059445e+01 0 0 0
992 2 9.8440000000000012e+00 1.1366872099805333e+01 3.3344062993059445e+01 0 0 0
1015 2 1.1074500000000002e+01 1.0656442593567498e+01 3.3344062993059445e+01 0 0 0
1016 2 1.2304999999999998e+01 1.1366872099805333e+01 3.3344062993059445e+01 0 0 0
4505 1 2.8948422424868507e+00 1.0525909133217384e+00 3.6128962794743259e+01 0 0 0
55 1 1.0255623589787302e+00 2.8085367381200306e+00 3.6609128678530759e+01 0 1 -1
3155 1 5.3429017186555949e+00 2.4764524091903106e+00 3.6494280853099347e+01 1 2 -1
1344 1 7.7043409531756364e+00 1.1043751345795689e+00 3.5609580854142799e+01 0 1 0
1517 1 1.0009929763383722e+01 2.1135081047433264e+00 3.6515661268127396e+01 0 0 -1
4760 1 6.4391515268333044e-01 5.5280799090393682e+00 3.5878648647509145e+01 0 1 0
5215 1 3.0448304919048774e+00 6.4134270931711050e+00 3.6565287845397741e+01 2 2 -1
4865 1 5.6472089598545816e+00 4.9846794977875479e+00 3.5756228036776299e+01 0 3 0
5292 1 8.0029198171559059e+00 5.9210510675375767e+00 3.6495146288086225e+01 1 0 -1
154 1 1.0414004031314063e+01 4.4405195355307274e+00 3.5590965369274393e+01 -1 1 -1
3021 1 3.3672447777274437e+00 9.2040586303428942e+00 3.6094800583138444e+01 -1 0 -1
4566 1 1.1610877982051895e+00 1.0342260090038712e+01 3.6809868870480003e+01 0 2 0
5371 1 5.7975143265645981e+00 1.0298292050987605e+01 3.6806347724894465e+01 0 1 -1
4586 1 7.7768462146027213e+00 8.5638928170376420e+00 3.5913030870805351e+01 -1 -2 0
1933 1 1.0420647806141039e+01 9.6418613597013341e+00 3.6648033140191792e+01 0 -1 -1
6399 1 1.0362748281627717e+01 1.2179792609239511e+01 3.5689801410392349e+01 -1 1 0
3572 1 1.2087355140714680e+01 2.5202662298421641e-01 3.5945908786059150e+01 -1 -1 -1
6116 1 1.0347039183318631e+00 3.0300482651752549e+00 3.9372997714040032e+01 1 2 0
2879 1 3.5109255403999704e+00 3.8244353480395854e+00 4.0485088236572118e+01 -1 2 0
5159 1 4.8545311431451288e-01 9.4103453925946864e-02 4.3044208244535135e+01 1 0 -1
1583 1 5.4664969684180313e+00 2.4934929805757253e+00 3.9320608592502687e+01 -1 -1 0
1714 1 8.0753264127922684e+00 3.5504833207177260e+00 4.0194404047271547e+01 3 0 0
4906 1 1.0339722862365747e+01 1.6270556271046213e+00 3.9362894193360020e+01 0 0 -1
4751 1 3.3480055404278342e+00 6.5088758417151720e+00 3.9265407777053511e+01 2 1 0
1916 1 8.7409130231728804e-01 7.6167614954481131e+00 3.9934073960010323e+01 -1 1 -1
6454 1 5.8592997692331421e+00 7.2373753941438306e+00 3.9938718069162569e+01 1 0 -1
286 1 8.1465782677079037e+00 6.0209465971684075e+00 3.9192559141549779e+01 -1 -1 -1
1769 1 1.0445839248442201e+01 6.8822919487606971e+00 4.0179325751902034e+01 -1 1 -1
4963 1 9.1110201315253936e-01 1.0337818902924518e+01 3.9399360232176441e+01 -2 2 0
1299 1 3.3185729441523275e+00 1.1358671504816490e+01 4.0354717147876030e+01 1 -2 0
3377 1 5.6994303421619019e+00 9.9498483870629446e+00 3.9595059306711576e+01 -1 -2 -1
1645 1 8.3069664539413530e+00 1.1083157416074920e+01 4.0144362737012365e+01 -1 2 0
1353 1 1.0450342971196759e+01 9.5933475883777675e+00 3.9415545055025099e+01 -1 1 0
6368 1 2.5628888501182998e+00 1.1786256834242890e+00 4.4249112508621209e+01 -1 1 0
4915 1 3.1285862528945851e+00 3.6554304504153876e+00 4.3265363609349656e+01 2 -1 -1
1378 1 8.4353978849137441e+00 1.1101084030104689e+01 4.2849880681752630e+01 1 2 0
2922 1 7.6059454816471890e+00 9.1196789177709847e-01 4.3793067646959507e+01 -1 1 0
3017 1 7.5177229488465942e+00 3.4471022397536237e+00 4.2824291272669711e+01 -2 1 -1
6489 1 9.3505079704235394e-01 5.1872955470314581e+00 4.3689940448506036e+01 1 -1 0
2873 1 1.0843705537179722e+00 7.5494708337271952e+00 4.2713626582967365e+01 0 -1 0
5079 1 5.9322955760366796e+00 7.3148671824820504e+00 4.2784951547510097e+01 0 2 0
1580 1 5.6632470528550556e+00 4.8810844000169942e+00 4.4104557029413485e+01 1 0 -1
1333 1 1.0012325047052045e+01 4.6100231605738262e+00 4.3952204824088021e+01 0 -1 0
1593 1 1.0515741541510248e+01 7.2652077765374612e+00 4.2976385638194373e+01 0 1 0
1522 1 3.4603271582239157e+00 1.1165344894322883e+01 4.3211816377958783e+01 0 1 0
2010 1 3.5705406316018489e+00 8.2849718527114788e+00 4.3616480199389812e+01 0 0 -1
6134 1 8.1234027325685894e+00 8.7114754925239861e+00 4.4015265100939999e+01 0 -1 0
1706 1 5.6106144669914482e-01 4.2321199646055430e-01 4.0167139314244722e+01 0 -1 -1
2986 1 5.9204355274420690e+00 1.2141580348915047e+01 4.4008334668361620e+01 0 -1 0
5341 1 1.2221955102748995e+01 3.1889833044263578e+00 4.3179321149632329e+01 1 -1 -1
5131 1 1.0741269559113585e+01 1.1951696002274804e+01 4.3847238145499809e+01 -1 1 -1
3172 1 9.3743481533827588e-01 2.7615534376226036e+00 4.7696169424387747e+01 2 1 -1
3169 1 3.1282050200024738e+00 1.4164368871321196e+00 4.6927042582374980e+01 0 0 -1
3706 1 5.5376373830687644e+00 2.5890154787694888e+00 4.7688571717891996e+01 1 1 0
336 1 7.8417667519177643e+00 1.1351814408741925e+00 4.6613717245430287e+01 0 0 -1
244 1 1.0265803712999361e+01 1.6976519269985961e+00 4.7484322318314653e+01 1 0 -1
5274 1 7.2676153327854576e-01 5.3169270880643467e+00 4.6538332526810215e+01 2 1 -1
5002 1 3.0667599569529660e+00 5.8464611008644267e+00 4.7741172585993397e+01 1 -1 -1
6362 1 5.7528702731158141e+00 5.2397201443539716e+00 4.6695487682117097e+01 0 0 0
3439 1 8.4433446763098647e+00 5.7788364590678141e+00 4.7602955088951923e+01 3 -1 -1
346 1 1.0378442146448341e+01 4.3591582615300730e+00 4.6521985526416721e+01 2 1 -1
2 1 1.0574347233449798e+01 9.3350720289295701e+00 5.0305445915764096e+01 2 0 0
1853 1 1.0716337197057491e+00 1.0166430980210507e+01 4.7403089315962788e+01 0 1 -1
3639 1 3.2509308939936776e+00 8.5527723426669677e+00 4.6427984353803566e+01 3 -1 -1
3560 1 5.7122968271755346e+00 9.6526340512906099e+00 4.7669564776927956e+01 -1 -1 -1
1880 1 8.0947211571039830e+00 8.3753048837496173e+00 4.6806706391241114e+01 3 -3 -1
4643 1 1.0253860022184146e+01 9.4937558044938868e+00 4.7657489092035291e+01 0 2 -1
2059 1 5.7248130662584602e+00 9.4200356363206161e+00 5.0409683304159891e+01 -1 0 -1
6340 1 8.8409965815995106e-01 2.6091285984172199e+00 5.0371659734031411e+01 2 1 0
1621 1 3.0839773781912903e+00 8.8779257003366807e-01 5.1221520348886244e+01 -1 -1 0
6236 1 5.4574397269803407e+00 2.0327599021643672e+00 5.0353018320785516e+01 -1 -1 0
2950 1 7.7566306977307464e+00 6.7768268484611238e-01 5.1388701533988836e+01 1 -2 0
6108 1 1.0237016240330043e+01 1.6551655854701806e+00 5.0188885424940224e+01 -1 0 0