LAMMPS data file via write_data, version 16 Mar 2018, timestep = 100000

5021 atoms
2 atom types

0.0000000000000000e+00 4.9219999999999999e+01 xlo xhi
0.0000000000000000e+00 4.9019635930410494e+01 ylo yhi
1.5782313191183803e+00 3.8421768680882991e+01 zlo zhi

Masses

1 18.015
2 12.01

Atoms # atomic

201 2 0.0000000000000000e+00 2.8417180249513345e+00 3.2522921316710223e+00 0 0 0
203 2 0.0000000000000000e+00 0.0000000000000000e+00 3.2522921316710223e+00 0 0 0
205 2 1.2305000000000001e+00 7.1042950623783474e-01 3.2522921316710223e+00 0 0 0
212 2 1.2305000000000001e+00 2.1312885187134998e+00 3.2522921316710223e+00 0 0 0
214 2 2.4610000000000003e+00 2.8417180249513345e+00 3.2522921316710223e+00 0 0 0
216 2 2.4610000000000003e+00 0.0000000000000000e+00 3.2522921316710223e+00 0 0 0
218 2 3.6915000000000004e+00 7.1042950623783474e-01 3.2522921316710223e+00 0 0 0
233 2 3.6914999999999996e+00 2.1312885187134998e+00 3.2522921316710223e+00 0 0 0
235 2 4.9220000000000006e+00 2.8417180249513332e+00 3.2522921316710223e+00 0 0 0
237 2 4.9220000000000006e+00 0.0000000000000000e+00 3.2522921316710223e+00 0 0 0
239 2 6.1524999999999999e+00 7.1042950623783407e-01 3.2522921316710223e+00 0 0 0
262 2 6.1524999999999999e+00 2.1312885187134989e+00 3.2522921316710223e+00 0 0 0
264 2 7.3829999999999991e+00 2.8417180249513345e+00 3.2522921316710223e+00 0 0 0
266 2 7.3829999999999991e+00 0.0000000000000000e+00 3.2522921316710223e+00 0 0 0
268 2 8.6134999999999984e+00 7.1042950623783407e-01 3.2522921316710223e+00 0 0 0
299 2 8.6134999999999984e+00 2.1312885187135002e+00 3.2522921316710223e+00 0 0 0
208 2 0.0000000000000000e+00 4.2625770374269996e+00 3.2522921316710223e+00 0 0 0
210 2 1.2305000000000001e+00 4.9730065436648339e+00 3.2522921316710223e+00 0 0 0
225 2 1.2305000000000001e+00 6.3938655561404980e+00 3.2522921316710223e+00 0 0 0
229 2 2.4610000000000003e+00 4.2625770374269996e+00 3.2522921316710223e+00 0 0 0
231 2 3.6914999999999996e+00 4.9730065436648339e+00 3.2522921316710223e+00 0 0 0
254 2 3.6914999999999996e+00 6.3938655561404980e+00 3.2522921316710223e+00 0 0 0
206 2 0.0000000000000000e+00 7.1042950623783341e+00 3.2522921316710223e+00 0 0 0
227 2 2.4610000000000003e+00 7.1042950623783341e+00 3.2522921316710223e+00 0 0 0
258 2 4.9220000000000006e+00 4.2625770374269978e+00 3.2522921316710223e+00 0 0 0
260 2 6.1524999999999999e+00 4.9730065436648339e+00 3.2522921316710223e+00 0 0 0
291 2 6.1524999999999999e+00 6.3938655561404980e+00 3.2522921316710223e+00 0 0 0
295 2 7.3829999999999991e+00 4.2625770374269996e+00 3.2522921316710223e+00 0 0 0
297 2 8.6135000000000002e+00 4.9730065436648339e+00 3.2522921316710223e+00 0 0 0
336 2 8.6135000000000002e+00 6.3938655561404980e+00 3.2522921316710223e+00 0 0 0
256 2 4.9220000000000006e+00 7.1042950623783341e+00 3.2522921316710223e+00 0 0 0
293 2 7.3830000000000009e+00 7.1042950623783341e+00 3.2522921316710223e+00 0 0 0
221 2 0.0000000000000000e+00 8.5251540748539991e+00 3.2522921316710223e+00 0 0 0
223 2 1.2305000000000001e+00 9.2355835810918343e+00 3.2522921316710223e+00 0 0 0
250 2 2.4610000000000003e+00 8.5251540748539991e+00 3.2522921316710223e+00 0 0 0
252 2 3.6915000000000004e+00 9.2355835810918343e+00 3.2522921316710223e+00 0 0 0
219 2 0.0000000000000000e+00 1.1366872099805333e+01 3.2522921316710223e+00 0 0 0
246 2 1.2305000000000001e+00 1.0656442593567498e+01 3.2522921316710223e+00 0 0 0
248 2 2.4610000000000003e+00 1.1366872099805333e+01 3.2522921316710223e+00 0 0 0
283 2 3.6914999999999996e+00 1.0656442593567499e+01 3.2522921316710223e+00 0 0 0
287 2 4.9220000000000006e+00 8.5251540748539991e+00 3.2522921316710223e+00 0 0 0
289 2 6.1524999999999999e+00 9.2355835810918343e+00 3.2522921316710223e+00 0 0 0
332 2 7.3830000000000009e+00 8.5251540748539991e+00 3.2522921316710223e+00 0 0 0
334 2 8.6134999999999984e+00 9.2355835810918343e+00 3.2522921316710223e+00 0 0 0
285 2 4.9220000000000006e+00 1.1366872099805333e+01 3.2522921316710223e+00 0 0 0
328 2 6.1524999999999999e+00 1.0656442593567499e+01 3.2522921316710223e+00 0 0 0
330 2 7.3829999999999991e+00 1.1366872099805333e+01 3.2522921316710223e+00 0 0 0
375 2 8.6134999999999984e+00 1.0656442593567498e+01 3.2522921316710223e+00 0 0 0
202 2 0.0000000000000000e+00 1.4208590124756650e+00 6.3179370692017986e+00 0 0 0
204 2 0.0000000000000000e+00 0.0000000000000000e+00 6.3179370692017986e+00 0 0 0
213 2 1.2305000000000001e+00 2.1312885187134998e+00 6.3179370692017986e+00 0 0 0
215 2 2.4610000000000003e+00 1.4208590124756650e+00 6.3179370692017986e+00 0 0 0
217 2 2.4610000000000003e+00 0.0000000000000000e+00 6.3179370692017986e+00 0 0 0
234 2 3.6914999999999996e+00 2.1312885187134998e+00 6.3179370692017986e+00 0 0 0
211 2 1.2305000000000001e+00 3.5521475311891644e+00 6.3179370692017986e+00 0 0 0
232 2 3.6914999999999996e+00 3.5521475311891644e+00 6.3179370692017986e+00 0 0 0
530 2 0.0000000000000000e+00 2.8417180249513345e+00 9.3835820067317641e+00 0 0 0
531 2 0.0000000000000000e+00 0.0000000000000000e+00 9.3835820067317641e+00 0 0 0
532 2 1.2305000000000001e+00 7.1042950623783474e-01 9.3835820067317641e+00 0 0 0
536 2 1.2305000000000001e+00 2.1312885187134998e+00 9.3835820067317641e+00 0 0 0
537 2 2.4610000000000003e+00 2.8417180249513345e+00 9.3835820067317641e+00 0 0 0
538 2 2.4610000000000003e+00 0.0000000000000000e+00 9.3835820067317641e+00 0 0 0
539 2 3.6915000000000004e+00 7.1042950623783474e-01 9.3835820067317641e+00 0 0 0
547 2 3.6914999999999996e+00 2.1312885187134998e+00 9.3835820067317641e+00 0 0 0
236 2 4.9220000000000006e+00 1.4208590124756650e+00 6.3179370692017986e+00 0 0 0
238 2 4.9220000000000006e+00 0.0000000000000000e+00 6.3179370692017986e+00 0 0 0
263 2 6.1524999999999999e+00 2.1312885187134989e+00 6.3179370692017986e+00 0 0 0
265 2 7.3829999999999991e+00 1.4208590124756659e+00 6.3179370692017986e+00 0 0 0
267 2 7.3829999999999991e+00 0.0000000000000000e+00 6.3179370692017986e+00 0 0 0
300 2 8.6134999999999984e+00 2.1312885187135002e+00 6.3179370692017986e+00 0 0 0
261 2 6.1524999999999999e+00 3.5521475311891644e+00 6.3179370692017986e+00 0 0 0
298 2 8.6134999999999984e+00 3.5521475311891657e+00 6.3179370692017986e+00 0 0 0
548 2 4.9220000000000006e+00 2.8417180249513332e+00 9.3835820067317641e+00 0 0 0
549 2 4.9220000000000006e+00 0.0000000000000000e+00 9.3835820067317641e+00 0 0 0
550 2 6.1524999999999999e+00 7.1042950623783407e-01 9.3835820067317641e+00 0 0 0
562 2 6.1524999999999999e+00 2.1312885187134989e+00 9.3835820067317641e+00 0 0 0
563 2 7.3829999999999991e+00 2.8417180249513345e+00 9.3835820067317641e+00 0 0 0
564 2 7.3829999999999991e+00 0.0000000000000000e+00 9.3835820067317641e+00 0 0 0
565 2 8.6134999999999984e+00 7.1042950623783407e-01 9.3835820067317641e+00 0 0 0
581 2 8.6134999999999984e+00 2.1312885187135002e+00 9.3835820067317641e+00 0 0 0
207 2 0.0000000000000000e+00 5.6834360499026637e+00 6.3179370692017986e+00 0 0 0
209 2 0.0000000000000000e+00 4.2625770374269996e+00 6.3179370692017986e+00 0 0 0
226 2 1.2305000000000001e+00 6.3938655561404980e+00 6.3179370692017986e+00 0 0 0
228 2 2.4610000000000003e+00 5.6834360499026637e+00 6.3179370692017986e+00 0 0 0
230 2 2.4610000000000003e+00 4.2625770374269996e+00 6.3179370692017986e+00 0 0 0
255 2 3.6914999999999996e+00 6.3938655561404980e+00 6.3179370692017986e+00 0 0 0
224 2 1.2305000000000001e+00 7.8147245686161639e+00 6.3179370692017986e+00 0 0 0
253 2 3.6914999999999996e+00 7.8147245686161639e+00 6.3179370692017986e+00 0 0 0
534 2 0.0000000000000000e+00 4.2625770374269996e+00 9.3835820067317641e+00 0 0 0
535 2 1.2305000000000001e+00 4.9730065436648339e+00 9.3835820067317641e+00 0 0 0
543 2 1.2305000000000001e+00 6.3938655561404980e+00 9.3835820067317641e+00 0 0 0
545 2 2.4610000000000003e+00 4.2625770374269996e+00 9.3835820067317641e+00 0 0 0
546 2 3.6914999999999996e+00 4.9730065436648339e+00 9.3835820067317641e+00 0 0 0
558 2 3.6914999999999996e+00 6.3938655561404980e+00 9.3835820067317641e+00 0 0 0
533 2 0.0000000000000000e+00 7.1042950623783341e+00 9.3835820067317641e+00 0 0 0
544 2 2.4610000000000003e+00 7.1042950623783341e+00 9.3835820067317641e+00 0 0 0
257 2 4.9220000000000006e+00 5.6834360499026637e+00 6.3179370692017986e+00 0 0 0
259 2 4.9220000000000006e+00 4.2625770374269978e+00 6.3179370692017986e+00 0 0 0
292 2 6.1524999999999999e+00 6.3938655561404980e+00 6.3179370692017986e+00 0 0 0
294 2 7.3829999999999991e+00 5.6834360499026637e+00 6.3179370692017986e+00 0 0 0
296 2 7.3829999999999991e+00 4.2625770374269996e+00 6.3179370692017986e+00 0 0 0
337 2 8.6135000000000002e+00 6.3938655561404980e+00 6.3179370692017986e+00 0 0 0
290 2 6.1524999999999999e+00 7.8147245686161639e+00 6.3179370692017986e+00 0 0 0
335 2 8.6135000000000002e+00 7.8147245686161639e+00 6.3179370692017986e+00 0 0 0
560 2 4.9220000000000006e+00 4.2625770374269978e+00 9.3835820067317641e+00 0 0 0
561 2 6.1524999999999999e+00 4.9730065436648339e+00 9.3835820067317641e+00 0 0 0
577 2 6.1524999999999999e+00 6.3938655561404980e+00 9.3835820067317641e+00 0 0 0
579 2 7.3829999999999991e+00 4.2625770374269996e+00 9.3835820067317641e+00 0 0 0
580 2 8.6135000000000002e+00 4.9730065436648339e+00 9.3835820067317641e+00 0 0 0
600 2 8.6135000000000002e+00 6.3938655561404980e+00 9.3835820067317641e+00 0 0 0
559 2 4.9220000000000006e+00 7.1042950623783341e+00 9.3835820067317641e+00 0 0 0
578 2 7.3830000000000009e+00 7.1042950623783341e+00 9.3835820067317641e+00 0 0 0
220 2 0.0000000000000000e+00 9.9460130873296642e+00 6.3179370692017986e+00 0 0 0
222 2 0.0000000000000000e+00 8.5251540748539991e+00 6.3179370692017986e+00 0 0 0
249 2 2.4610000000000003e+00 9.9460130873296642e+00 6.3179370692017986e+00 0 0 0
251 2 2.4610000000000003e+00 8.5251540748539991e+00 6.3179370692017986e+00 0 0 0
245 2 1.2305000000000001e+00 1.2077301606043163e+01 6.3179370692017986e+00 0 0 0
247 2 1.2305000000000001e+00 1.0656442593567498e+01 6.3179370692017986e+00 0 0 0
282 2 3.6914999999999996e+00 1.2077301606043163e+01 6.3179370692017986e+00 0 0 0
284 2 3.6914999999999996e+00 1.0656442593567499e+01 6.3179370692017986e+00 0 0 0
541 2 0.0000000000000000e+00 8.5251540748539991e+00 9.3835820067317641e+00 0 0 0
542 2 1.2305000000000001e+00 9.2355835810918343e+00 9.3835820067317641e+00 0 0 0
556 2 2.4610000000000003e+00 8.5251540748539991e+00 9.3835820067317641e+00 0 0 0
557 2 3.6915000000000004e+00 9.2355835810918343e+00 9.3835820067317641e+00 0 0 0
540 2 0.0000000000000000e+00 1.1366872099805333e+01 9.3835820067317641e+00 0 0 0
554 2 1.2305000000000001e+00 1.0656442593567498e+01 9.3835820067317641e+00 0 0 0
555 2 2.4610000000000003e+00 1.1366872099805333e+01 9.3835820067317641e+00 0 0 0
573 2 3.6914999999999996e+00 1.0656442593567499e+01 9.3835820067317641e+00 0 0 0
286 2 4.9220000000000006e+00 9.9460130873296642e+00 6.3179370692017986e+00 0 0 0
288 2 4.9220000000000006e+00 8.5251540748539991e+00 6.3179370692017986e+00 0 0 0
331 2 7.3830000000000009e+00 9.9460130873296642e+00 6.3179370692017986e+00 0 0 0
333 2 7.3830000000000009e+00 8.5251540748539991e+00 6.3179370692017986e+00 0 0 0
327 2 6.1524999999999999e+00 1.2077301606043163e+01 6.3179370692017986e+00 0 0 0
329 2 6.1524999999999999e+00 1.0656442593567499e+01 6.3179370692017986e+00 0 0 0
374 2 8.6135000000000002e+00 1.2077301606043163e+01 6.3179370692017986e+00 0 0 0
376 2 8.6134999999999984e+00 1.0656442593567498e+01 6.3179370692017986e+00 0 0 0
575 2 4.9220000000000006e+00 8.5251540748539991e+00 9.3835820067317641e+00 0 0 0
576 2 6.1524999999999999e+00 9.2355835810918343e+00 9.3835820067317641e+00 0 0 0
598 2 7.3830000000000009e+00 8.5251540748539991e+00 9.3835820067317641e+00 0 0 0
599 2 8.6134999999999984e+00 9.2355835810918343e+00 9.3835820067317641e+00 0 0 0
574 2 4.9220000000000006e+00 1.1366872099805333e+01 9.3835820067317641e+00 0 0 0
596 2 6.1524999999999999e+00 1.0656442593567499e+01 9.3835820067317641e+00 0 0 0
597 2 7.3829999999999991e+00 1.1366872099805333e+01 9.3835820067317641e+00 0 0 0
620 2 8.6134999999999984e+00 1.0656442593567498e+01 9.3835820067317641e+00 0 0 0
3910 1 5.1671363257983991e+00 5.6013000267534361e+00 1.9871307945955810e+01 1 1 0
3571 1 7.0061301469912891e+00 9.4607589265790430e+00 1.8137203057101210e+01 0 0 0
43 1 4.7164033248975956e+00 7.9019320051585407e+00 1.8704541457042062e+01 0 0 0
1103 1 2.3673525574032808e+00 1.3330563604954435e+00 1.4910200664238648e+01 0 0 0
3610 1 3.4151966570575936e+00 3.1106401757408024e+00 1.1651410700276468e+01 0 0 -1
23 1 8.9282360179306863e+00 6.5986877063375067e+00 1.5808696407262039e+01 1 2 1
3786 1 6.1311524682815444e+00 2.8599557295098728e+00 1.2461179710903879e+01 1 1 0
1209 1 1.8842109585897358e+00 5.1004565586918860e+00 1.2930163746867557e+01 2 0 0
3822 1 3.3870700127938909e+00 4.0195265472686508e+00 1.5445590237801682e+01 0 1 0
157 1 3.6470979832679582e+00 7.5760339689065752e+00 1.5973031749203395e+01 1 0 1
1370 1 3.1742845989501745e+00 7.1791080473182367e+00 1.1597399542956964e+01 0 1 0
1144 1 2.8648521322003234e-01 9.1294549392054094e+00 1.9025135438146048e+01 1 0 -1
2531 1 7.7975880941478097e+00 5.1356580821927169e+00 1.1863602426534118e+01 0 1 0
2360 1 6.0374323682045885e+00 4.2182932666449773e+00 1.4711388556842524e+01 0 0 0
946 1 5.9575461238324827e+00 7.1490443348613413e+00 1.2143943464564117e+01 1 1 -1
1357 1 2.1688207463588345e+00 6.9659552105419109e-01 1.2249162795753035e+01 0 0 0
172 1 2.5713970261239525e+00 9.7998868987494223e+00 1.2224568546887676e+01 1 1 1
2175 1 2.3721786684293797e+00 9.8963048692956423e+00 1.5028130117080579e+01 0 1 0
4729 1 4.4401660479045306e+00 1.1306223514939225e+01 1.8372432911805046e+01 -1 1 0
2157 1 4.5331477260345432e+00 1.1247852696062356e+01 1.5570835969189671e+01 0 -1 0
3468 1 7.3539764338515710e+00 9.6949225765115727e+00 1.2404479743389304e+01 0 0 0
941 1 7.0594333131402349e+00 9.8788008256874189e+00 1.5254252273342084e+01 0 0 0
2485 1 2.2326094679979334e+00 1.8523080653222526e+00 1.9052975352694936e+01 -1 1 0
4819 1 8.2373435605601895e+00 1.1580518401648499e+01 1.9519943211493096e+01 0 2 0
2408 1 6.3228552872606825e+00 7.4400391014805489e-01 1.7274366315175026e+01 0 0 0
3723 1 7.6696697717752125e+00 3.2539320188573453e+00 1.6902964536409815e+01 0 1 0
3789 1 3.6024225609444951e+00 9.6133822115069018e-02 1.7374602758180142e+01 1 0 1
1301 1 1.5157688521775894e+00 6.8980726487636570e+00 1.7578580013777117e+01 1 1 0
3658 1 3.1989091025968706e+00 4.4707312341505032e+00 1.8267474747584505e+01 1 0 0
3887 1 4.9448144435682462e+00 1.1309776170463010e+01 1.2176244206281906e+01 1 1 0
1035 1 6.0211248631008569e+00 6.9543931827573404e+00 1.4686604678426082e+01 -1 0 0
1405 1 7.6235480796714636e+00 4.6779928336817109e+00 1.9243045401991804e+01 1 1 0
160 1 8.5970672389939047e+00 7.2082538980235560e+00 1.8760919234771123e+01 1 0 0
2664 1 6.9264201718009071e+00 3.3305738087781106e-01 1.2753616941148527e+01 1 0 1
1315 1 3.1353580926624858e-01 5.4089498480323552e+00 1.5515012822998939e+01 1 1 0
3896 1 3.8301297048752825e+00 2.8307004699800502e+00 2.3524082260662414e+01 1 1 0
3964 1 2.8528039589482885e+00 1.0025362421796145e+00 2.1561555844381726e+01 1 1 0
3421 1 5.7570331331871172e+00 1.0615877816309867e+00 2.2270057351704292e+01 1 2 -1
2532 1 7.8705869603989740e+00 3.1212337967341717e+00 2.1752473120541275e+01 0 0 0
3903 1 3.6490292465790657e+00 7.8223858867438416e+00 2.3169777363580575e+01 1 0 0
1079 1 4.4771343422658250e+00 5.4439219529072007e+00 2.2349430578535003e+01 0 0 -1
2670 1 2.7568752616202001e+00 8.9871601787507753e+00 2.0304258620433377e+01 0 1 0
3939 1 6.7148911213320286e+00 4.9609013413201959e+00 2.3940947936985690e+01 0 -1 0
1211 1 8.8893054708876953e+00 7.2679975105825640e+00 2.4575612334425809e+01 0 1 0
1068 1 2.6066848717935689e+00 1.1796617198120561e+01 2.0878061276128950e+01 1 0 -1
908 1 7.2940171631735948e+00 1.0558487091742133e+01 2.7844648690146105e+01 1 0 0
952 1 5.5082928923530989e+00 1.0415027220439924e+01 2.2853047195469451e+01 0 0 0
1416 1 4.5602562160720278e-01 1.8498417665757609e+00 2.2866621609768515e+01 0 -1 0
1283 1 8.2022186288790646e+00 1.0400154597309021e+01 2.2069809048167645e+01 0 0 0
48 1 1.2807318054359125e+00 4.7406514972914859e+00 2.3108943043738201e+01 0 0 0
2535 1 2.8853751988461802e+00 1.5114858395958977e+00 2.6329077607360713e+01 0 1 0
5017 1 5.5500009248252473e+00 1.4481025044452338e+00 2.7617959719892198e+01 1 2 0
2543 1 6.6125048082588422e-01 9.8745029023546564e+00 2.6548451606233368e+01 0 1 0
1305 1 6.1460373817836551e+00 4.3718020487414337e+00 2.6831628153275147e+01 0 -1 0
1455 1 3.1376710758859301e+00 4.2732390515558336e+00 2.7442954940250083e+01 0 -1 1
108 1 5.3397504461844880e+00 1.1476483152574760e+01 2.6008094915696905e+01 0 1 -1
1113 1 6.2556297030523424e+00 8.3029840601818226e+00 2.4851043551636362e+01 1 1 0
3897 1 4.2614093066089112e+00 6.4893709954107992e+00 2.5802097432593307e+01 1 1 0
1351 1 3.0905350682955310e+00 1.0727658706597603e+01 2.7274901282508583e+01 0 1 0
5014 1 8.2384465760883696e+00 4.8461886313816533e+00 2.8447071216171736e+01 1 1 0
1016 1 7.6949075581142736e+00 7.7577139234156789e+00 2.8661264841299502e+01 0 0 0
3439 1 1.0328647671055489e+00 8.7564569331521422e+00 2.4044534718433606e+01 0 0 0
1055 1 7.2906646451558927e+00 2.0958322224933412e+00 2.5133681914918395e+01 0 0 0
933 1 4.7381826880123743e+00 8.5134777035015912e+00 2.7968027691663416e+01 0 -1 0
2316 1 2.4198255555960138e-01 1.0643006930084228e+01 2.2082701506897909e+01 1 1 0
1123 1 3.4330293136790857e-01 1.7026884886180031e+00 2.7627320245977597e+01 1 0 -1
2698 1 7.3146613040409680e-01 5.5626252254804944e+00 2.0196863333235736e+01 1 0 1
4665 1 4.1930657729474352e-01 5.6752517481337579e+00 2.7282172476334633e+01 0 -1 0
3787 1 9.3909021843933775e+00 7.8896872932901294e+00 2.1710538335675114e+01 -1 0 0
2160 1 9.7775509491366268e+00 1.7418408102217953e+00 2.5852908550483864e+01 0 1 0
1191 1 5.3801373081803661e-02 8.0879820836364722e+00 2.8511557129683183e+01 1 0 0
1441 1 8.1085091699899721e+00 8.8171425685180189e+00 3.4433544711927411e+01 0 3 -1
2396 1 2.3510477060891461e+00 1.2091087307506347e+01 3.2534295741052063e+01 0 0 0
4739 1 5.5206369319129394e+00 1.6177495193659203e-01 3.4818564881187484e+01 0 0 0
2219 1 1.4740529108985232e+00 3.2753361049040097e+00 3.1371773992817324e+01 0 0 -1
3529 1 2.3730104004447781e+00 1.0011053728384964e+00 3.5263269425592547e+01 1 0 0
1259 1 3.3627726426214530e+00 3.0832410027283133e+00 3.3619241205423364e+01 -1 1 0
3971 1 8.8840897567390158e+00 1.2029137238004575e+00 3.1739242542536026e+01 0 1 0
1297 1 1.1732542176274681e+00 7.7105779513709836e+00 3.0927227461325479e+01 1 -1 -1
3856 1 2.4987383711933124e+00 5.1339396545068938e+00 3.5187291697497706e+01 0 0 0
3913 1 4.0293563323088071e+00 7.2443153192846781e+00 3.0315466529894376e+01 1 1 0
1151 1 5.7056241260180771e+00 4.9294680524278611e+00 3.2106268732604008e+01 1 1 -1
4822 1 8.1744588932936040e+00 3.7034697857660546e+00 3.1079448248696085e+01 1 1 0
2371 1 6.7714813470252260e+00 7.6676871354159939e+00 3.1474042263529327e+01 1 -1 0
3509 1 4.4301897807479529e+00 7.0927722028937010e+00 3.5013657253256945e+01 1 0 1
3530 1 2.9307328836256746e-01 1.0065069217731692e+01 3.2478517042268948e+01 1 0 0
2681 1 8.6254138988576248e+00 9.3977332427728122e+00 3.7120810449784791e+01 -1 1 1
1292 1 1.6051419518921608e+00 5.9565783851150678e-01 3.0483902062841729e+01 1 1 0
2372 1 6.1183728019870181e+00 1.0227579478180829e+01 3.3133336155049392e+01 1 1 0
1157 1 6.2974969023075333e+00 1.1451130306335523e+01 3.0625377890863980e+01 0 0 -1
4868 1 1.2332199376220565e+00 8.4038447889841947e+00 3.4809288520617926e+01 0 0 0
1081 1 2.9389296993572440e+00 3.0582103919167385e+00 3.7344425614246248e+01 0 0 0
2578 1 9.0753482287292997e-01 7.9878786410513918e+00 3.7619022324773724e+01 0 1 0
2444 1 6.4019635133277424e+00 2.9463657544907811e+00 3.4433938963049947e+01 0 1 -1
2273 1 4.2876056794585509e+00 6.5693846969601022e-01 3.7878148432627263e+01 1 0 0
6 1 8.7218333105692327e+00 1.3826236889809853e+00 3.5117194693642730e+01 0 0 0
3433 1 8.8399978581809329e+00 1.9723632150412664e+00 3.7875590996751136e+01 1 1 -1
118 1 3.5458511610678580e+00 8.4893788733513151e+00 3.7513102291770736e+01 0 0 0
4851 1 5.8821985508918777e+00 6.1202432760110499e+00 3.7615374450030806e+01 -1 0 -1
71 1 8.5240731790602897e+00 6.7857800289380732e+00 3.7379238321632819e+01 1 1 0
4869 1 5.8433688896530214e+00 3.3290853507735423e+00 3.7321409308921204e+01 0 1 0
4952 1 7.0589620038866174e+00 6.1020357084677608e+00 3.4430557637096527e+01 0 -1 0
116 1 3.6356792610346051e+00 1.0012202767560773e+01 3.4501288625714714e+01 0 0 0
951 1 4.4095649957976333e+00 1.1383021669515646e+01 3.7323022691357252e+01 0 0 -1
4842 1 3.4430146093402709e+00 4.3997962648249045e+00 2.9981334381486171e+01 0 1 0
2624 1 6.9619348357335227e+00 1.1518111467423104e+01 3.7519193788487840e+01 1 0 1
1192 1 5.4982411598508909e+00 1.9882942465890616e+00 3.0334228894501191e+01 0 2 0
242 2 0.0000000000000000e+00 1.2787731112280996e+01 3.2522921316710223e+00 0 0 0
244 2 1.2305000000000001e+00 1.3498160618518829e+01 3.2522921316710223e+00 0 0 0
279 2 2.4610000000000003e+00 1.2787731112280996e+01 3.2522921316710223e+00 0 0 0
281 2 3.6915000000000004e+00 1.3498160618518829e+01 3.2522921316710223e+00 0 0 0
240 2 0.0000000000000000e+00 1.5629449137232333e+01 3.2522921316710223e+00 0 0 0
275 2 1.2305000000000001e+00 1.4919019630994494e+01 3.2522921316710223e+00 0 0 0
277 2 2.4610000000000003e+00 1.5629449137232328e+01 3.2522921316710223e+00 0 0 0
320 2 3.6915000000000004e+00 1.4919019630994494e+01 3.2522921316710223e+00 0 0 0
324 2 4.9220000000000006e+00 1.2787731112280996e+01 3.2522921316710223e+00 0 0 0
326 2 6.1524999999999990e+00 1.3498160618518829e+01 3.2522921316710223e+00 0 0 0
371 2 7.3829999999999991e+00 1.2787731112280996e+01 3.2522921316710223e+00 0 0 0
373 2 8.6135000000000002e+00 1.3498160618518835e+01 3.2522921316710223e+00 0 0 0
322 2 4.9220000000000006e+00 1.5629449137232333e+01 3.2522921316710223e+00 0 0 0
367 2 6.1524999999999990e+00 1.4919019630994494e+01 3.2522921316710223e+00 0 0 0
369 2 7.3829999999999991e+00 1.5629449137232333e+01 3.2522921316710223e+00 0 0 0
414 2 8.6135000000000002e+00 1.4919019630994494e+01 3.2522921316710223e+00 0 0 0
271 2 0.0000000000000000e+00 1.7050308149707998e+01 3.2522921316710223e+00 0 0 0
316 2 2.4610000000000003e+00 1.7050308149707998e+01 3.2522921316710223e+00 0 0 0
269 2 0.0000000000000000e+00 1.9892026174659328e+01 3.2522921316710223e+00 0 0 0
273 2 1.2305000000000001e+00 1.7760737655945832e+01 3.2522921316710223e+00 0 0 0
312 2 1.2305000000000001e+00 1.9181596668421495e+01 3.2522921316710223e+00 0 0 0
314 2 2.4610000000000003e+00 1.9892026174659328e+01 3.2522921316710223e+00 0 0 0
318 2 3.6914999999999996e+00 1.7760737655945832e+01 3.2522921316710223e+00 0 0 0
359 2 3.6914999999999996e+00 1.9181596668421495e+01 3.2522921316710223e+00 0 0 0
363 2 4.9220000000000006e+00 1.7050308149707998e+01 3.2522921316710223e+00 0 0 0
410 2 7.3830000000000009e+00 1.7050308149707998e+01 3.2522921316710223e+00 0 0 0
361 2 4.9220000000000006e+00 1.9892026174659328e+01 3.2522921316710223e+00 0 0 0
365 2 6.1524999999999999e+00 1.7760737655945832e+01 3.2522921316710223e+00 0 0 0
406 2 6.1524999999999999e+00 1.9181596668421495e+01 3.2522921316710223e+00 0 0 0
408 2 7.3829999999999991e+00 1.9892026174659328e+01 3.2522921316710223e+00 0 0 0
412 2 8.6134999999999984e+00 1.7760737655945832e+01 3.2522921316710223e+00 0 0 0
448 2 8.6135000000000002e+00 1.9181596668421495e+01 3.2522921316710223e+00 0 0 0
306 2 0.0000000000000000e+00 2.4154603212086325e+01 3.2522921316710223e+00 0 0 0
308 2 0.0000000000000000e+00 2.1312885187134999e+01 3.2522921316710223e+00 0 0 0
310 2 1.2304999999999993e+00 2.2023314693372832e+01 3.2522921316710223e+00 0 0 0
351 2 1.2304999999999993e+00 2.3444173705848499e+01 3.2522921316710223e+00 0 0 0
353 2 2.4610000000000003e+00 2.4154603212086325e+01 3.2522921316710223e+00 0 0 0
355 2 2.4610000000000003e+00 2.1312885187134995e+01 3.2522921316710223e+00 0 0 0
357 2 3.6914999999999996e+00 2.2023314693372832e+01 3.2522921316710223e+00 0 0 0
398 2 3.6915000000000004e+00 2.3444173705848499e+01 3.2522921316710223e+00 0 0 0
400 2 4.9220000000000006e+00 2.4154603212086325e+01 3.2522921316710223e+00 0 0 0
402 2 4.9220000000000006e+00 2.1312885187134995e+01 3.2522921316710223e+00 0 0 0
404 2 6.1524999999999990e+00 2.2023314693372832e+01 3.2522921316710223e+00 0 0 0
440 2 6.1524999999999999e+00 2.3444173705848499e+01 3.2522921316710223e+00 0 0 0
442 2 7.3830000000000009e+00 2.4154603212086336e+01 3.2522921316710223e+00 0 0 0
444 2 7.3829999999999991e+00 2.1312885187134999e+01 3.2522921316710223e+00 0 0 0
446 2 8.6135000000000002e+00 2.2023314693372832e+01 3.2522921316710223e+00 0 0 0
474 2 8.6134999999999984e+00 2.3444173705848499e+01 3.2522921316710223e+00 0 0 0
243 2 0.0000000000000000e+00 1.2787731112280996e+01 6.3179370692017986e+00 0 0 0
280 2 2.4610000000000003e+00 1.2787731112280996e+01 6.3179370692017986e+00 0 0 0
241 2 0.0000000000000000e+00 1.4208590124756663e+01 6.3179370692017986e+00 0 0 0
276 2 1.2305000000000001e+00 1.4919019630994494e+01 6.3179370692017986e+00 0 0 0
278 2 2.4610000000000003e+00 1.4208590124756663e+01 6.3179370692017986e+00 0 0 0
321 2 3.6915000000000004e+00 1.4919019630994494e+01 6.3179370692017986e+00 0 0 0
552 2 0.0000000000000000e+00 1.2787731112280996e+01 9.3835820067317641e+00 0 0 0
553 2 1.2305000000000001e+00 1.3498160618518829e+01 9.3835820067317641e+00 0 0 0
571 2 2.4610000000000003e+00 1.2787731112280996e+01 9.3835820067317641e+00 0 0 0
572 2 3.6915000000000004e+00 1.3498160618518829e+01 9.3835820067317641e+00 0 0 0
551 2 0.0000000000000000e+00 1.5629449137232333e+01 9.3835820067317641e+00 0 0 0
569 2 1.2305000000000001e+00 1.4919019630994494e+01 9.3835820067317641e+00 0 0 0
570 2 2.4610000000000003e+00 1.5629449137232328e+01 9.3835820067317641e+00 0 0 0
592 2 3.6915000000000004e+00 1.4919019630994494e+01 9.3835820067317641e+00 0 0 0
325 2 4.9220000000000006e+00 1.2787731112280996e+01 6.3179370692017986e+00 0 0 0
372 2 7.3829999999999991e+00 1.2787731112280996e+01 6.3179370692017986e+00 0 0 0
323 2 4.9220000000000006e+00 1.4208590124756663e+01 6.3179370692017986e+00 0 0 0
368 2 6.1524999999999990e+00 1.4919019630994494e+01 6.3179370692017986e+00 0 0 0
370 2 7.3830000000000009e+00 1.4208590124756663e+01 6.3179370692017986e+00 0 0 0
415 2 8.6135000000000002e+00 1.4919019630994494e+01 6.3179370692017986e+00 0 0 0
594 2 4.9220000000000006e+00 1.2787731112280996e+01 9.3835820067317641e+00 0 0 0
595 2 6.1524999999999990e+00 1.3498160618518829e+01 9.3835820067317641e+00 0 0 0
618 2 7.3829999999999991e+00 1.2787731112280996e+01 9.3835820067317641e+00 0 0 0
619 2 8.6135000000000002e+00 1.3498160618518835e+01 9.3835820067317641e+00 0 0 0
593 2 4.9220000000000006e+00 1.5629449137232333e+01 9.3835820067317641e+00 0 0 0
616 2 6.1524999999999990e+00 1.4919019630994494e+01 9.3835820067317641e+00 0 0 0
617 2 7.3829999999999991e+00 1.5629449137232333e+01 9.3835820067317641e+00 0 0 0
640 2 8.6135000000000002e+00 1.4919019630994494e+01 9.3835820067317641e+00 0 0 0
272 2 0.0000000000000000e+00 1.7050308149707998e+01 6.3179370692017986e+00 0 0 0
274 2 1.2305000000000001e+00 1.6339878643470165e+01 6.3179370692017986e+00 0 0 0
317 2 2.4610000000000003e+00 1.7050308149707998e+01 6.3179370692017986e+00 0 0 0
319 2 3.6915000000000004e+00 1.6339878643470165e+01 6.3179370692017986e+00 0 0 0
270 2 0.0000000000000000e+00 1.8471167162183658e+01 6.3179370692017986e+00 0 0 0
313 2 1.2305000000000001e+00 1.9181596668421495e+01 6.3179370692017986e+00 0 0 0
315 2 2.4610000000000003e+00 1.8471167162183658e+01 6.3179370692017986e+00 0 0 0
360 2 3.6914999999999996e+00 1.9181596668421495e+01 6.3179370692017986e+00 0 0 0
567 2 0.0000000000000000e+00 1.7050308149707998e+01 9.3835820067317641e+00 0 0 0
590 2 2.4610000000000003e+00 1.7050308149707998e+01 9.3835820067317641e+00 0 0 0
566 2 0.0000000000000000e+00 1.9892026174659328e+01 9.3835820067317641e+00 0 0 0
568 2 1.2305000000000001e+00 1.7760737655945832e+01 9.3835820067317641e+00 0 0 0
588 2 1.2305000000000001e+00 1.9181596668421495e+01 9.3835820067317641e+00 0 0 0
589 2 2.4610000000000003e+00 1.9892026174659328e+01 9.3835820067317641e+00 0 0 0
591 2 3.6914999999999996e+00 1.7760737655945832e+01 9.3835820067317641e+00 0 0 0
612 2 3.6914999999999996e+00 1.9181596668421495e+01 9.3835820067317641e+00 0 0 0
364 2 4.9220000000000006e+00 1.7050308149707998e+01 6.3179370692017986e+00 0 0 0
366 2 6.1524999999999999e+00 1.6339878643470165e+01 6.3179370692017986e+00 0 0 0
411 2 7.3830000000000009e+00 1.7050308149707998e+01 6.3179370692017986e+00 0 0 0
413 2 8.6134999999999984e+00 1.6339878643470165e+01 6.3179370692017986e+00 0 0 0
362 2 4.9220000000000006e+00 1.8471167162183658e+01 6.3179370692017986e+00 0 0 0
407 2 6.1524999999999999e+00 1.9181596668421495e+01 6.3179370692017986e+00 0 0 0
409 2 7.3829999999999991e+00 1.8471167162183658e+01 6.3179370692017986e+00 0 0 0
449 2 8.6135000000000002e+00 1.9181596668421495e+01 6.3179370692017986e+00 0 0 0
614 2 4.9220000000000006e+00 1.7050308149707998e+01 9.3835820067317641e+00 0 0 0
638 2 7.3830000000000009e+00 1.7050308149707998e+01 9.3835820067317641e+00 0 0 0
613 2 4.9220000000000006e+00 1.9892026174659328e+01 9.3835820067317641e+00 0 0 0
615 2 6.1524999999999999e+00 1.7760737655945832e+01 9.3835820067317641e+00 0 0 0
636 2 6.1524999999999999e+00 1.9181596668421495e+01 9.3835820067317641e+00 0 0 0
637 2 7.3829999999999991e+00 1.9892026174659328e+01 9.3835820067317641e+00 0 0 0
639 2 8.6134999999999984e+00 1.7760737655945832e+01 9.3835820067317641e+00 0 0 0
657 2 8.6135000000000002e+00 1.9181596668421495e+01 9.3835820067317641e+00 0 0 0
311 2 1.2305000000000001e+00 2.0602455680897162e+01 6.3179370692017986e+00 0 0 0
358 2 3.6915000000000004e+00 2.0602455680897162e+01 6.3179370692017986e+00 0 0 0
307 2 0.0000000000000000e+00 2.2733744199610655e+01 6.3179370692017986e+00 0 0 0
309 2 0.0000000000000000e+00 2.1312885187134999e+01 6.3179370692017986e+00 0 0 0
352 2 1.2304999999999993e+00 2.3444173705848499e+01 6.3179370692017986e+00 0 0 0
354 2 2.4610000000000003e+00 2.2733744199610655e+01 6.3179370692017986e+00 0 0 0