LAMMPS data file via write_data, version 16 Mar 2018, timestep = 6000000

5021 atoms
2 atom types

0.0000000000000000e+00 4.9219999999999999e+01 xlo xhi
0.0000000000000000e+00 4.9019635930410494e+01 ylo yhi
5.0781882841141623e-01 3.9492181171581095e+01 zlo zhi

Masses

1 18.015
2 12.01

Atoms # atomic

201 2 0.0000000000000000e+00 2.8417180249513345e+00 2.2791523640666163e+00 0 0 0
203 2 0.0000000000000000e+00 0.0000000000000000e+00 2.2791523640666163e+00 0 0 0
205 2 1.2305000000000001e+00 7.1042950623783474e-01 2.2791523640666163e+00 0 0 0
212 2 1.2305000000000001e+00 2.1312885187134998e+00 2.2791523640666163e+00 0 0 0
214 2 2.4610000000000003e+00 2.8417180249513345e+00 2.2791523640666163e+00 0 0 0
216 2 2.4610000000000003e+00 0.0000000000000000e+00 2.2791523640666163e+00 0 0 0
218 2 3.6915000000000004e+00 7.1042950623783474e-01 2.2791523640666163e+00 0 0 0
233 2 3.6914999999999996e+00 2.1312885187134998e+00 2.2791523640666163e+00 0 0 0
235 2 4.9220000000000006e+00 2.8417180249513332e+00 2.2791523640666163e+00 0 0 0
237 2 4.9220000000000006e+00 0.0000000000000000e+00 2.2791523640666163e+00 0 0 0
239 2 6.1524999999999999e+00 7.1042950623783407e-01 2.2791523640666163e+00 0 0 0
262 2 6.1524999999999999e+00 2.1312885187134989e+00 2.2791523640666163e+00 0 0 0
264 2 7.3829999999999991e+00 2.8417180249513345e+00 2.2791523640666163e+00 0 0 0
266 2 7.3829999999999991e+00 0.0000000000000000e+00 2.2791523640666163e+00 0 0 0
268 2 8.6134999999999984e+00 7.1042950623783407e-01 2.2791523640666163e+00 0 0 0
299 2 8.6134999999999984e+00 2.1312885187135002e+00 2.2791523640666163e+00 0 0 0
208 2 0.0000000000000000e+00 4.2625770374269996e+00 2.2791523640666163e+00 0 0 0
210 2 1.2305000000000001e+00 4.9730065436648339e+00 2.2791523640666163e+00 0 0 0
225 2 1.2305000000000001e+00 6.3938655561404980e+00 2.2791523640666163e+00 0 0 0
229 2 2.4610000000000003e+00 4.2625770374269996e+00 2.2791523640666163e+00 0 0 0
231 2 3.6914999999999996e+00 4.9730065436648339e+00 2.2791523640666163e+00 0 0 0
254 2 3.6914999999999996e+00 6.3938655561404980e+00 2.2791523640666163e+00 0 0 0
206 2 0.0000000000000000e+00 7.1042950623783341e+00 2.2791523640666163e+00 0 0 0
227 2 2.4610000000000003e+00 7.1042950623783341e+00 2.2791523640666163e+00 0 0 0
258 2 4.9220000000000006e+00 4.2625770374269978e+00 2.2791523640666163e+00 0 0 0
260 2 6.1524999999999999e+00 4.9730065436648339e+00 2.2791523640666163e+00 0 0 0
291 2 6.1524999999999999e+00 6.3938655561404980e+00 2.2791523640666163e+00 0 0 0
295 2 7.3829999999999991e+00 4.2625770374269996e+00 2.2791523640666163e+00 0 0 0
297 2 8.6135000000000002e+00 4.9730065436648339e+00 2.2791523640666163e+00 0 0 0
336 2 8.6135000000000002e+00 6.3938655561404980e+00 2.2791523640666163e+00 0 0 0
256 2 4.9220000000000006e+00 7.1042950623783341e+00 2.2791523640666163e+00 0 0 0
293 2 7.3830000000000009e+00 7.1042950623783341e+00 2.2791523640666163e+00 0 0 0
221 2 0.0000000000000000e+00 8.5251540748539991e+00 2.2791523640666163e+00 0 0 0
223 2 1.2305000000000001e+00 9.2355835810918343e+00 2.2791523640666163e+00 0 0 0
250 2 2.4610000000000003e+00 8.5251540748539991e+00 2.2791523640666163e+00 0 0 0
252 2 3.6915000000000004e+00 9.2355835810918343e+00 2.2791523640666163e+00 0 0 0
219 2 0.0000000000000000e+00 1.1366872099805333e+01 2.2791523640666163e+00 0 0 0
246 2 1.2305000000000001e+00 1.0656442593567498e+01 2.2791523640666163e+00 0 0 0
248 2 2.4610000000000003e+00 1.1366872099805333e+01 2.2791523640666163e+00 0 0 0
283 2 3.6914999999999996e+00 1.0656442593567499e+01 2.2791523640666163e+00 0 0 0
287 2 4.9220000000000006e+00 8.5251540748539991e+00 2.2791523640666163e+00 0 0 0
289 2 6.1524999999999999e+00 9.2355835810918343e+00 2.2791523640666163e+00 0 0 0
332 2 7.3830000000000009e+00 8.5251540748539991e+00 2.2791523640666163e+00 0 0 0
334 2 8.6134999999999984e+00 9.2355835810918343e+00 2.2791523640666163e+00 0 0 0
285 2 4.9220000000000006e+00 1.1366872099805333e+01 2.2791523640666163e+00 0 0 0
328 2 6.1524999999999999e+00 1.0656442593567499e+01 2.2791523640666163e+00 0 0 0
330 2 7.3829999999999991e+00 1.1366872099805333e+01 2.2791523640666163e+00 0 0 0
375 2 8.6134999999999984e+00 1.0656442593567498e+01 2.2791523640666163e+00 0 0 0
202 2 0.0000000000000000e+00 1.4208590124756650e+00 5.5229292003322001e+00 0 0 0
204 2 0.0000000000000000e+00 0.0000000000000000e+00 5.5229292003322001e+00 0 0 0
213 2 1.2305000000000001e+00 2.1312885187134998e+00 5.5229292003322001e+00 0 0 0
215 2 2.4610000000000003e+00 1.4208590124756650e+00 5.5229292003322001e+00 0 0 0
217 2 2.4610000000000003e+00 0.0000000000000000e+00 5.5229292003322001e+00 0 0 0
234 2 3.6914999999999996e+00 2.1312885187134998e+00 5.5229292003322001e+00 0 0 0
211 2 1.2305000000000001e+00 3.5521475311891644e+00 5.5229292003322001e+00 0 0 0
232 2 3.6914999999999996e+00 3.5521475311891644e+00 5.5229292003322001e+00 0 0 0
530 2 0.0000000000000000e+00 2.8417180249513345e+00 8.7667060365962204e+00 0 0 0
531 2 0.0000000000000000e+00 0.0000000000000000e+00 8.7667060365962204e+00 0 0 0
532 2 1.2305000000000001e+00 7.1042950623783474e-01 8.7667060365962204e+00 0 0 0
536 2 1.2305000000000001e+00 2.1312885187134998e+00 8.7667060365962204e+00 0 0 0
537 2 2.4610000000000003e+00 2.8417180249513345e+00 8.7667060365962204e+00 0 0 0
538 2 2.4610000000000003e+00 0.0000000000000000e+00 8.7667060365962204e+00 0 0 0
539 2 3.6915000000000004e+00 7.1042950623783474e-01 8.7667060365962204e+00 0 0 0
547 2 3.6914999999999996e+00 2.1312885187134998e+00 8.7667060365962204e+00 0 0 0
236 2 4.9220000000000006e+00 1.4208590124756650e+00 5.5229292003322001e+00 0 0 0
238 2 4.9220000000000006e+00 0.0000000000000000e+00 5.5229292003322001e+00 0 0 0
263 2 6.1524999999999999e+00 2.1312885187134989e+00 5.5229292003322001e+00 0 0 0
265 2 7.3829999999999991e+00 1.4208590124756659e+00 5.5229292003322001e+00 0 0 0
267 2 7.3829999999999991e+00 0.0000000000000000e+00 5.5229292003322001e+00 0 0 0
300 2 8.6134999999999984e+00 2.1312885187135002e+00 5.5229292003322001e+00 0 0 0
261 2 6.1524999999999999e+00 3.5521475311891644e+00 5.5229292003322001e+00 0 0 0
298 2 8.6134999999999984e+00 3.5521475311891657e+00 5.5229292003322001e+00 0 0 0
548 2 4.9220000000000006e+00 2.8417180249513332e+00 8.7667060365962204e+00 0 0 0
549 2 4.9220000000000006e+00 0.0000000000000000e+00 8.7667060365962204e+00 0 0 0
550 2 6.1524999999999999e+00 7.1042950623783407e-01 8.7667060365962204e+00 0 0 0
562 2 6.1524999999999999e+00 2.1312885187134989e+00 8.7667060365962204e+00 0 0 0
563 2 7.3829999999999991e+00 2.8417180249513345e+00 8.7667060365962204e+00 0 0 0
564 2 7.3829999999999991e+00 0.0000000000000000e+00 8.7667060365962204e+00 0 0 0
565 2 8.6134999999999984e+00 7.1042950623783407e-01 8.7667060365962204e+00 0 0 0
581 2 8.6134999999999984e+00 2.1312885187135002e+00 8.7667060365962204e+00 0 0 0
207 2 0.0000000000000000e+00 5.6834360499026637e+00 5.5229292003322001e+00 0 0 0
209 2 0.0000000000000000e+00 4.2625770374269996e+00 5.5229292003322001e+00 0 0 0
226 2 1.2305000000000001e+00 6.3938655561404980e+00 5.5229292003322001e+00 0 0 0
228 2 2.4610000000000003e+00 5.6834360499026637e+00 5.5229292003322001e+00 0 0 0
230 2 2.4610000000000003e+00 4.2625770374269996e+00 5.5229292003322001e+00 0 0 0
255 2 3.6914999999999996e+00 6.3938655561404980e+00 5.5229292003322001e+00 0 0 0
224 2 1.2305000000000001e+00 7.8147245686161639e+00 5.5229292003322001e+00 0 0 0
253 2 3.6914999999999996e+00 7.8147245686161639e+00 5.5229292003322001e+00 0 0 0
534 2 0.0000000000000000e+00 4.2625770374269996e+00 8.7667060365962204e+00 0 0 0
535 2 1.2305000000000001e+00 4.9730065436648339e+00 8.7667060365962204e+00 0 0 0
543 2 1.2305000000000001e+00 6.3938655561404980e+00 8.7667060365962204e+00 0 0 0
545 2 2.4610000000000003e+00 4.2625770374269996e+00 8.7667060365962204e+00 0 0 0
546 2 3.6914999999999996e+00 4.9730065436648339e+00 8.7667060365962204e+00 0 0 0
558 2 3.6914999999999996e+00 6.3938655561404980e+00 8.7667060365962204e+00 0 0 0
533 2 0.0000000000000000e+00 7.1042950623783341e+00 8.7667060365962204e+00 0 0 0
544 2 2.4610000000000003e+00 7.1042950623783341e+00 8.7667060365962204e+00 0 0 0
257 2 4.9220000000000006e+00 5.6834360499026637e+00 5.5229292003322001e+00 0 0 0
259 2 4.9220000000000006e+00 4.2625770374269978e+00 5.5229292003322001e+00 0 0 0
292 2 6.1524999999999999e+00 6.3938655561404980e+00 5.5229292003322001e+00 0 0 0
294 2 7.3829999999999991e+00 5.6834360499026637e+00 5.5229292003322001e+00 0 0 0
296 2 7.3829999999999991e+00 4.2625770374269996e+00 5.5229292003322001e+00 0 0 0
337 2 8.6135000000000002e+00 6.3938655561404980e+00 5.5229292003322001e+00 0 0 0
290 2 6.1524999999999999e+00 7.8147245686161639e+00 5.5229292003322001e+00 0 0 0
335 2 8.6135000000000002e+00 7.8147245686161639e+00 5.5229292003322001e+00 0 0 0
560 2 4.9220000000000006e+00 4.2625770374269978e+00 8.7667060365962204e+00 0 0 0
561 2 6.1524999999999999e+00 4.9730065436648339e+00 8.7667060365962204e+00 0 0 0
577 2 6.1524999999999999e+00 6.3938655561404980e+00 8.7667060365962204e+00 0 0 0
579 2 7.3829999999999991e+00 4.2625770374269996e+00 8.7667060365962204e+00 0 0 0
580 2 8.6135000000000002e+00 4.9730065436648339e+00 8.7667060365962204e+00 0 0 0
600 2 8.6135000000000002e+00 6.3938655561404980e+00 8.7667060365962204e+00 0 0 0
559 2 4.9220000000000006e+00 7.1042950623783341e+00 8.7667060365962204e+00 0 0 0
578 2 7.3830000000000009e+00 7.1042950623783341e+00 8.7667060365962204e+00 0 0 0
220 2 0.0000000000000000e+00 9.9460130873296642e+00 5.5229292003322001e+00 0 0 0
222 2 0.0000000000000000e+00 8.5251540748539991e+00 5.5229292003322001e+00 0 0 0
249 2 2.4610000000000003e+00 9.9460130873296642e+00 5.5229292003322001e+00 0 0 0
251 2 2.4610000000000003e+00 8.5251540748539991e+00 5.5229292003322001e+00 0 0 0
245 2 1.2305000000000001e+00 1.2077301606043163e+01 5.5229292003322001e+00 0 0 0
247 2 1.2305000000000001e+00 1.0656442593567498e+01 5.5229292003322001e+00 0 0 0
282 2 3.6914999999999996e+00 1.2077301606043163e+01 5.5229292003322001e+00 0 0 0
284 2 3.6914999999999996e+00 1.0656442593567499e+01 5.5229292003322001e+00 0 0 0
541 2 0.0000000000000000e+00 8.5251540748539991e+00 8.7667060365962204e+00 0 0 0
542 2 1.2305000000000001e+00 9.2355835810918343e+00 8.7667060365962204e+00 0 0 0
556 2 2.4610000000000003e+00 8.5251540748539991e+00 8.7667060365962204e+00 0 0 0
557 2 3.6915000000000004e+00 9.2355835810918343e+00 8.7667060365962204e+00 0 0 0
540 2 0.0000000000000000e+00 1.1366872099805333e+01 8.7667060365962204e+00 0 0 0
554 2 1.2305000000000001e+00 1.0656442593567498e+01 8.7667060365962204e+00 0 0 0
555 2 2.4610000000000003e+00 1.1366872099805333e+01 8.7667060365962204e+00 0 0 0
573 2 3.6914999999999996e+00 1.0656442593567499e+01 8.7667060365962204e+00 0 0 0
286 2 4.9220000000000006e+00 9.9460130873296642e+00 5.5229292003322001e+00 0 0 0
288 2 4.9220000000000006e+00 8.5251540748539991e+00 5.5229292003322001e+00 0 0 0
331 2 7.3830000000000009e+00 9.9460130873296642e+00 5.5229292003322001e+00 0 0 0
333 2 7.3830000000000009e+00 8.5251540748539991e+00 5.5229292003322001e+00 0 0 0
327 2 6.1524999999999999e+00 1.2077301606043163e+01 5.5229292003322001e+00 0 0 0
329 2 6.1524999999999999e+00 1.0656442593567499e+01 5.5229292003322001e+00 0 0 0
374 2 8.6135000000000002e+00 1.2077301606043163e+01 5.5229292003322001e+00 0 0 0
376 2 8.6134999999999984e+00 1.0656442593567498e+01 5.5229292003322001e+00 0 0 0
575 2 4.9220000000000006e+00 8.5251540748539991e+00 8.7667060365962204e+00 0 0 0
576 2 6.1524999999999999e+00 9.2355835810918343e+00 8.7667060365962204e+00 0 0 0
598 2 7.3830000000000009e+00 8.5251540748539991e+00 8.7667060365962204e+00 0 0 0
599 2 8.6134999999999984e+00 9.2355835810918343e+00 8.7667060365962204e+00 0 0 0
574 2 4.9220000000000006e+00 1.1366872099805333e+01 8.7667060365962204e+00 0 0 0
596 2 6.1524999999999999e+00 1.0656442593567499e+01 8.7667060365962204e+00 0 0 0
597 2 7.3829999999999991e+00 1.1366872099805333e+01 8.7667060365962204e+00 0 0 0
620 2 8.6134999999999984e+00 1.0656442593567498e+01 8.7667060365962204e+00 0 0 0
3856 1 2.2768375142891242e+00 9.9186117159674592e-01 1.4506200738835133e+01 0 0 0
1213 1 2.6665242414488168e+00 1.1168647925747146e+00 1.1564413960755784e+01 -1 2 0
150 1 2.3667613136036412e+00 3.8688707297544460e+00 1.4700124458498793e+01 0 1 1
2414 1 2.6293983510665573e+00 3.7633401901987189e+00 1.1701785536537042e+01 1 -2 -1
4680 1 7.6486889791504611e+00 3.5397800328967834e+00 1.1577747673216878e+01 -1 0 0
4795 1 7.3752107299503651e+00 3.5941919421139379e+00 1.4254412095283262e+01 2 0 0
1057 1 7.6373355190022583e+00 7.2128162612936930e-01 1.1788113321999120e+01 0 -1 0
187 1 7.5486652747006122e+00 8.4498275288945535e-01 1.4662208553550968e+01 0 0 -1
2600 1 6.3566683324914148e+00 9.7762070972400110e+00 1.8504981949004176e+01 1 2 0
3501 1 1.9544845312692987e+00 9.5232032819725347e+00 1.8368801874283825e+01 2 2 0
2370 1 5.1405242787623306e+00 4.7764746395208872e+00 1.1653482312616871e+01 0 1 0
3407 1 4.8285755450209642e+00 4.7707113199336133e+00 1.4499042074988052e+01 0 2 0
12 1 4.5521639892546037e+00 7.7407293025259243e+00 1.5313150599350319e+01 0 1 0
1072 1 4.6681526808924971e+00 7.5469658874725072e+00 1.1211005988182508e+01 1 3 0
2452 1 8.3352707590785808e+00 8.5206842773381251e+00 1.6851446844722137e+01 -1 -1 -1
134 1 2.1514526232337579e+00 1.1874108048989292e+01 1.4583985081276213e+01 1 0 0
3892 1 2.2578197719770228e+00 9.1136700900098067e+00 1.1138994833186679e+01 0 2 0
1448 1 2.3886730578276061e+00 8.9421467830018084e+00 1.4133843957744361e+01 0 2 0
4759 1 6.1264017087405849e+00 1.2146877297390745e+01 1.7259243724255121e+01 3 -1 -1
2171 1 7.0705155213697539e+00 9.3385479868581722e+00 1.4324120672078275e+01 -1 -2 0
2391 1 7.3283909312817688e+00 8.6823656162026932e+00 1.1614453849302826e+01 0 0 -1
84 1 1.7370468056640522e+00 1.2234842914917348e+01 1.7480985217359358e+01 -1 -1 0
2266 1 7.3173773569801916e+00 1.1503734510515024e+01 1.1531837452189697e+01 0 4 1
2346 1 1.6052485459741386e+00 1.2618261040490564e+00 1.8002983861611725e+01 -1 2 0
2577 1 5.9382567570043072e+00 4.3847046605552817e+00 1.7104914161958170e+01 -1 0 0
1484 1 2.3329378296582322e+00 1.1898787028084515e+01 1.1591982674485257e+01 -1 1 1
122 1 6.0282593456821560e+00 1.4570466028679832e+00 1.7999867785550951e+01 0 0 0
3804 1 1.7610234139448078e+00 4.0320806991313596e+00 1.7295919615353547e+01 0 0 0
3846 1 4.2998463456477571e+00 8.1679115568844622e+00 1.7877493585005155e+01 0 -1 -1
2634 1 3.7752402850386311e+00 5.4860818400922327e+00 1.8384897755998857e+01 0 0 0
2697 1 7.9583742398950621e+00 6.0288602020404563e+00 1.8057653549724549e+01 1 -3 0
4668 1 7.1183697926303369e+00 1.1922765455418855e+01 1.4466784221230071e+01 0 0 0
3555 1 7.9212053146829359e-02 5.4181001825470023e+00 1.1325613626483188e+01 3 0 0
2671 1 9.7131380819175597e+00 4.8753686648430410e+00 1.4208344395326691e+01 1 1 0
2569 1 8.4135673084795979e+00 1.9029020840164890e-01 1.7484674591738184e+01 0 1 0
2427 1 3.7442552581694044e+00 3.0368387062297018e+00 2.1952372266868153e+01 2 3 0
3690 1 1.7139223352115120e+00 1.2373968886959179e+00 2.0672783146374005e+01 -3 1 0
3747 1 3.5189712858525479e+00 2.9881772819027197e+00 2.4764542752884559e+01 4 1 -1
1275 1 8.2647692007569802e+00 2.9332378213567565e+00 2.1842122249321349e+01 0 -1 0
4763 1 5.9881238621077824e+00 1.6317938863041117e+00 2.0776504372794953e+01 1 2 0
3737 1 8.3217728393650141e+00 3.1776399609022907e+00 2.4774103881585994e+01 -1 -2 0
27 1 1.6488547964204372e+00 7.0898165976107759e+00 2.2078892407850095e+01 1 -2 0
2412 1 3.8222272371936930e+00 5.5588522380927969e+00 2.1004192204156318e+01 -2 3 0
4755 1 1.4299294247678558e+00 6.9407735919444962e+00 2.4855617350958450e+01 2 3 -1
2445 1 5.9027570988701648e+00 7.0480836888014640e+00 2.1986285608281332e+01 1 0 0
3584 1 8.1292829193942566e+00 5.6088360950796465e+00 2.0816737971882471e+01 -1 0 0
2390 1 3.6666104913216122e+00 1.1004702235333765e+01 2.1932484764987564e+01 1 1 0
2704 1 1.5399396808073027e+00 9.6918047524874424e+00 2.1085121267095300e+01 -1 1 0
4714 1 3.5762422064745594e+00 1.1459378858030515e+01 2.4680193420592285e+01 1 -2 0
4729 1 8.0968042113720138e+00 1.1358593023619706e+01 2.1738368721736649e+01 0 0 0
2679 1 5.9118156876007175e+00 9.8154311489903261e+00 2.1155830765520722e+01 1 0 1
4906 1 8.1322193961343281e+00 1.1698900387836259e+01 2.4458209243098761e+01 -1 1 0
3558 1 1.5380997906704543e+00 1.6033903463839632e+00 2.9197313650915699e+01 -1 -1 0
1385 1 7.8894683604818203e+00 8.6854159386429313e+00 2.8126741392001353e+01 0 2 0
3781 1 8.0071979435353278e+00 8.6872814451838867e+00 2.5391312128787831e+01 1 2 -1
4895 1 5.8973451925729989e+00 1.8265486387453229e+00 2.9112944927170378e+01 2 1 0
2178 1 8.3942001509769888e+00 5.0711676283518770e-01 2.5460545924702490e+01 4 0 0
3948 1 5.7477436496276431e+00 1.0055629013318834e+01 2.9141112711644237e+01 1 -1 0
1425 1 1.3678991725672065e+00 4.3478311384608999e+00 2.5690309942345955e+01 1 3 0
923 1 1.6443479134509464e+00 4.2571201420382279e+00 2.8216466438875869e+01 1 -1 0
2459 1 3.8298357491027035e+00 5.9196001547216781e+00 2.9198047974670565e+01 3 -1 -1
2539 1 5.7850188309544555e+00 7.0149302701753289e+00 2.4694330381403976e+01 0 1 0
4891 1 5.7621949592567105e+00 4.1859238800500149e+00 2.5283100212621914e+01 2 1 0
3640 1 5.8643872081215376e+00 4.3057848625208655e+00 2.8110584058999958e+01 0 0 0
37 1 8.0107259341690487e+00 5.9408596788929540e+00 2.9033472732686544e+01 -1 1 -1
2478 1 3.4434921868565089e+00 8.4521889618103589e+00 2.8111698549995111e+01 -1 2 0
1053 1 3.4755783673837368e+00 8.7116067540358930e+00 2.5439250581523780e+01 2 0 0
3718 1 1.2932830881591229e+00 9.8052974930311763e+00 2.9215090032872439e+01 -1 3 0
1447 1 8.1766280664879840e+00 4.3838606863421253e-01 2.8476124786546993e+01 -1 -1 0
2394 1 3.5580649107216833e+00 3.5848229394829401e-01 2.5737658409600655e+01 0 1 0
4857 1 3.8196111388008451e+00 1.2043284279656064e-01 2.8492384700939262e+01 -1 0 0
4877 1 1.2700870161829005e+00 1.6630021665188204e+00 3.1783720365017221e+01 0 1 -1
4817 1 2.9838561513149853e+00 8.8832779848003547e+00 3.5630740837924691e+01 0 -1 0
3796 1 3.0438741719981466e+00 9.2583122670682165e+00 3.8642243277368216e+01 -1 -1 1
3949 1 5.9712022955322412e+00 2.0480665109386984e+00 3.1834901477829515e+01 -2 0 -1
1488 1 1.3724397571692641e+00 4.3975677503860888e+00 3.2779459666951304e+01 1 1 0
129 1 3.7896767161899776e+00 5.6858731854283233e+00 3.1889342392344609e+01 -1 0 0
2672 1 6.1230646561939297e+00 4.4450169908845094e+00 3.2665772965053108e+01 0 0 0
1345 1 8.1359047673825078e+00 6.2007174018677720e+00 3.1655895606313866e+01 -3 1 0
2203 1 3.4808759327031007e+00 8.3900645692851974e+00 3.2900505127798489e+01 1 1 0
1465 1 1.1266951951400148e+00 9.6507264596593281e+00 3.2044171999193814e+01 2 0 1
1047 1 7.9278549098565954e+00 8.8112861482465163e+00 3.2611367168206186e+01 1 -2 0
3577 1 5.4339226733216703e+00 9.9945323210544537e+00 3.1775912474252504e+01 1 2 -1
2269 1 2.8367527047469552e+00 9.0156548390983904e-01 3.5545852346522253e+01 1 2 0
4796 1 2.4243520013615583e+00 1.1508957390060894e+00 3.8717587473233756e+01 -1 1 0
2254 1 2.3630885680055527e+00 3.8285270952931332e+00 3.5641941494744870e+01 0 1 0
3515 1 2.4536076494597170e+00 3.8013144134077419e+00 3.8358928092701760e+01 -1 -2 0
2214 1 7.9524001910257356e+00 6.9679906532329239e-01 3.4995858999550585e+01 -1 3 -1
128 1 7.6416216537053803e+00 3.2198326207769639e+00 3.6074105683725492e+01 1 1 1
2636 1 7.1351244170803056e+00 5.8108834269113940e-01 3.8448739923322464e+01 0 1 0
4980 1 7.3936183241234401e+00 3.2515572518097602e+00 3.8944324853055974e+01 0 1 0
902 1 5.0832202532886139e+00 4.7999232926149551e+00 3.8693890799451196e+01 2 -1 -1
4652 1 7.6449087736055539e+00 1.1869867259580561e+01 3.8811025908119703e+01 -3 -2 -1
5007 1 7.4003923060175207e+00 9.0772147606471574e+00 3.8486970138558135e+01 -1 1 -1
4647 1 7.6711916368315478e+00 8.9694211191028117e+00 3.5519392462601807e+01 -2 0 0
3703 1 5.4252218625195416e+00 7.3443439679208131e+00 3.6279970727826928e+01 0 1 0
3613 1 5.1819246454829706e+00 4.6785187982013419e+00 3.5784375776084097e+01 -1 1 -1
2217 1 5.2543555498451529e+00 7.6570390369434653e+00 3.9240974152063480e+01 4 -1 0
3946 1 2.7148770864066369e+00 1.1907870016430124e+01 3.8701307155057812e+01 1 0 0
171 1 7.7680984079307169e+00 1.1722048382760223e+01 3.6058245612460418e+01 0 -1 0
1406 1 2.6833599274887887e+00 1.1566288464869107e+01 3.5758948726728065e+01 0 -1 1
3574 1 3.6717456079191737e+00 1.8888753632419689e-01 3.2812683006797755e+01 1 0 0
1255 1 8.2076915101994565e+00 5.4535788661826656e-01 3.2160699449058242e+01 2 -1 -1
1059 1 2.1274920567868588e-01 8.0302675789536480e+00 3.5576549512612793e+01 -1 0 0
1387 1 6.4108695977360808e-01 7.9241314304584565e+00 3.8634833741282826e+01 -1 1 1
2247 1 1.6129811671446240e-01 5.0506542726823769e+00 3.8338501881695187e+01 1 -2 0
2294 1 9.7817302325624507e+00 4.6972844113363674e+00 3.8715696896687689e+01 1 1 0
4910 1 1.5305438978424030e-01 4.0994438925814336e-02 3.5508081691360474e+01 1 0 0
242 2 0.0000000000000000e+00 1.2787731112280996e+01 2.2791523640666163e+00 0 0 0
244 2 1.2305000000000001e+00 1.3498160618518829e+01 2.2791523640666163e+00 0 0 0
279 2 2.4610000000000003e+00 1.2787731112280996e+01 2.2791523640666163e+00 0 0 0
281 2 3.6915000000000004e+00 1.3498160618518829e+01 2.2791523640666163e+00 0 0 0
240 2 0.0000000000000000e+00 1.5629449137232333e+01 2.2791523640666163e+00 0 0 0
275 2 1.2305000000000001e+00 1.4919019630994494e+01 2.2791523640666163e+00 0 0 0
277 2 2.4610000000000003e+00 1.5629449137232328e+01 2.2791523640666163e+00 0 0 0
320 2 3.6915000000000004e+00 1.4919019630994494e+01 2.2791523640666163e+00 0 0 0
324 2 4.9220000000000006e+00 1.2787731112280996e+01 2.2791523640666163e+00 0 0 0
326 2 6.1524999999999990e+00 1.3498160618518829e+01 2.2791523640666163e+00 0 0 0
371 2 7.3829999999999991e+00 1.2787731112280996e+01 2.2791523640666163e+00 0 0 0
373 2 8.6135000000000002e+00 1.3498160618518835e+01 2.2791523640666163e+00 0 0 0
322 2 4.9220000000000006e+00 1.5629449137232333e+01 2.2791523640666163e+00 0 0 0
367 2 6.1524999999999990e+00 1.4919019630994494e+01 2.2791523640666163e+00 0 0 0
369 2 7.3829999999999991e+00 1.5629449137232333e+01 2.2791523640666163e+00 0 0 0
414 2 8.6135000000000002e+00 1.4919019630994494e+01 2.2791523640666163e+00 0 0 0
271 2 0.0000000000000000e+00 1.7050308149707998e+01 2.2791523640666163e+00 0 0 0
316 2 2.4610000000000003e+00 1.7050308149707998e+01 2.2791523640666163e+00 0 0 0
269 2 0.0000000000000000e+00 1.9892026174659328e+01 2.2791523640666163e+00 0 0 0
273 2 1.2305000000000001e+00 1.7760737655945832e+01 2.2791523640666163e+00 0 0 0
312 2 1.2305000000000001e+00 1.9181596668421495e+01 2.2791523640666163e+00 0 0 0
314 2 2.4610000000000003e+00 1.9892026174659328e+01 2.2791523640666163e+00 0 0 0
318 2 3.6914999999999996e+00 1.7760737655945832e+01 2.2791523640666163e+00 0 0 0
359 2 3.6914999999999996e+00 1.9181596668421495e+01 2.2791523640666163e+00 0 0 0
363 2 4.9220000000000006e+00 1.7050308149707998e+01 2.2791523640666163e+00 0 0 0
410 2 7.3830000000000009e+00 1.7050308149707998e+01 2.2791523640666163e+00 0 0 0
361 2 4.9220000000000006e+00 1.9892026174659328e+01 2.2791523640666163e+00 0 0 0
365 2 6.1524999999999999e+00 1.7760737655945832e+01 2.2791523640666163e+00 0 0 0
406 2 6.1524999999999999e+00 1.9181596668421495e+01 2.2791523640666163e+00 0 0 0
408 2 7.3829999999999991e+00 1.9892026174659328e+01 2.2791523640666163e+00 0 0 0
412 2 8.6134999999999984e+00 1.7760737655945832e+01 2.2791523640666163e+00 0 0 0
448 2 8.6135000000000002e+00 1.9181596668421495e+01 2.2791523640666163e+00 0 0 0
306 2 0.0000000000000000e+00 2.4154603212086325e+01 2.2791523640666163e+00 0 0 0
308 2 0.0000000000000000e+00 2.1312885187134999e+01 2.2791523640666163e+00 0 0 0
310 2 1.2304999999999993e+00 2.2023314693372832e+01 2.2791523640666163e+00 0 0 0
351 2 1.2304999999999993e+00 2.3444173705848499e+01 2.2791523640666163e+00 0 0 0
353 2 2.4610000000000003e+00 2.4154603212086325e+01 2.2791523640666163e+00 0 0 0
355 2 2.4610000000000003e+00 2.1312885187134995e+01 2.2791523640666163e+00 0 0 0
357 2 3.6914999999999996e+00 2.2023314693372832e+01 2.2791523640666163e+00 0 0 0
398 2 3.6915000000000004e+00 2.3444173705848499e+01 2.2791523640666163e+00 0 0 0
400 2 4.9220000000000006e+00 2.4154603212086325e+01 2.2791523640666163e+00 0 0 0
402 2 4.9220000000000006e+00 2.1312885187134995e+01 2.2791523640666163e+00 0 0 0
404 2 6.1524999999999990e+00 2.2023314693372832e+01 2.2791523640666163e+00 0 0 0
440 2 6.1524999999999999e+00 2.3444173705848499e+01 2.2791523640666163e+00 0 0 0
442 2 7.3830000000000009e+00 2.4154603212086336e+01 2.2791523640666163e+00 0 0 0
444 2 7.3829999999999991e+00 2.1312885187134999e+01 2.2791523640666163e+00 0 0 0
446 2 8.6135000000000002e+00 2.2023314693372832e+01 2.2791523640666163e+00 0 0 0
474 2 8.6134999999999984e+00 2.3444173705848499e+01 2.2791523640666163e+00 0 0 0
243 2 0.0000000000000000e+00 1.2787731112280996e+01 5.5229292003322001e+00 0 0 0
280 2 2.4610000000000003e+00 1.2787731112280996e+01 5.5229292003322001e+00 0 0 0
241 2 0.0000000000000000e+00 1.4208590124756663e+01 5.5229292003322001e+00 0 0 0
276 2 1.2305000000000001e+00 1.4919019630994494e+01 5.5229292003322001e+00 0 0 0
278 2 2.4610000000000003e+00 1.4208590124756663e+01 5.5229292003322001e+00 0 0 0
321 2 3.6915000000000004e+00 1.4919019630994494e+01 5.5229292003322001e+00 0 0 0
552 2 0.0000000000000000e+00 1.2787731112280996e+01 8.7667060365962204e+00 0 0 0
553 2 1.2305000000000001e+00 1.3498160618518829e+01 8.7667060365962204e+00 0 0 0
571 2 2.4610000000000003e+00 1.2787731112280996e+01 8.7667060365962204e+00 0 0 0
572 2 3.6915000000000004e+00 1.3498160618518829e+01 8.7667060365962204e+00 0 0 0
551 2 0.0000000000000000e+00 1.5629449137232333e+01 8.7667060365962204e+00 0 0 0
569 2 1.2305000000000001e+00 1.4919019630994494e+01 8.7667060365962204e+00 0 0 0
570 2 2.4610000000000003e+00 1.5629449137232328e+01 8.7667060365962204e+00 0 0 0
592 2 3.6915000000000004e+00 1.4919019630994494e+01 8.7667060365962204e+00 0 0 0
325 2 4.9220000000000006e+00 1.2787731112280996e+01 5.5229292003322001e+00 0 0 0
372 2 7.3829999999999991e+00 1.2787731112280996e+01 5.5229292003322001e+00 0 0 0
323 2 4.9220000000000006e+00 1.4208590124756663e+01 5.5229292003322001e+00 0 0 0
368 2 6.1524999999999990e+00 1.4919019630994494e+01 5.5229292003322001e+00 0 0 0
370 2 7.3830000000000009e+00 1.4208590124756663e+01 5.5229292003322001e+00 0 0 0
415 2 8.6135000000000002e+00 1.4919019630994494e+01 5.5229292003322001e+00 0 0 0
594 2 4.9220000000000006e+00 1.2787731112280996e+01 8.7667060365962204e+00 0 0 0
595 2 6.1524999999999990e+00 1.3498160618518829e+01 8.7667060365962204e+00 0 0 0
618 2 7.3829999999999991e+00 1.2787731112280996e+01 8.7667060365962204e+00 0 0 0
619 2 8.6135000000000002e+00 1.3498160618518835e+01 8.7667060365962204e+00 0 0 0
593 2 4.9220000000000006e+00 1.5629449137232333e+01 8.7667060365962204e+00 0 0 0
616 2 6.1524999999999990e+00 1.4919019630994494e+01 8.7667060365962204e+00 0 0 0
617 2 7.3829999999999991e+00 1.5629449137232333e+01 8.7667060365962204e+00 0 0 0
640 2 8.6135000000000002e+00 1.4919019630994494e+01 8.7667060365962204e+00 0 0 0
272 2 0.0000000000000000e+00 1.7050308149707998e+01 5.5229292003322001e+00 0 0 0
274 2 1.2305000000000001e+00 1.6339878643470165e+01 5.5229292003322001e+00 0 0 0
317 2 2.4610000000000003e+00 1.7050308149707998e+01 5.5229292003322001e+00 0 0 0
319 2 3.6915000000000004e+00 1.6339878643470165e+01 5.5229292003322001e+00 0 0 0
270 2 0.0000000000000000e+00 1.8471167162183658e+01 5.5229292003322001e+00 0 0 0
313 2 1.2305000000000001e+00 1.9181596668421495e+01 5.5229292003322001e+00 0 0 0
315 2 2.4610000000000003e+00 1.8471167162183658e+01 5.5229292003322001e+00 0 0 0
360 2 3.6914999999999996e+00 1.9181596668421495e+01 5.5229292003322001e+00 0 0 0
567 2 0.0000000000000000e+00 1.7050308149707998e+01 8.7667060365962204e+00 0 0 0
590 2 2.4610000000000003e+00 1.7050308149707998e+01 8.7667060365962204e+00 0 0 0
566 2 0.0000000000000000e+00 1.9892026174659328e+01 8.7667060365962204e+00 0 0 0
568 2 1.2305000000000001e+00 1.7760737655945832e+01 8.7667060365962204e+00 0 0 0
588 2 1.2305000000000001e+00 1.9181596668421495e+01 8.7667060365962204e+00 0 0 0
589 2 2.4610000000000003e+00 1.9892026174659328e+01 8.7667060365962204e+00 0 0 0
591 2 3.6914999999999996e+00 1.7760737655945832e+01 8.7667060365962204e+00 0 0 0
612 2 3.6914999999999996e+00 1.9181596668421495e+01 8.7667060365962204e+00 0 0 0
364 2 4.9220000000000006e+00 1.7050308149707998e+01 5.5229292003322001e+00 0 0 0
366 2 6.1524999999999999e+00 1.6339878643470165e+01 5.5229292003322001e+00 0 0 0
411 2 7.3830000000000009e+00 1.7050308149707998e+01 5.5229292003322001e+00 0 0 0
413 2 8.6134999999999984e+00 1.6339878643470165e+01 5.5229292003322001e+00 0 0 0
362 2 4.9220000000000006e+00 1.8471167162183658e+01 5.5229292003322001e+00 0 0 0
407 2 6.1524999999999999e+00 1.9181596668421495e+01 5.5229292003322001e+00 0 0 0
409 2 7.3829999999999991e+00 1.8471167162183658e+01 5.5229292003322001e+00 0 0 0
449 2 8.6135000000000002e+00 1.9181596668421495e+01 5.5229292003322001e+00 0 0 0
614 2 4.9220000000000006e+00 1.7050308149707998e+01 8.7667060365962204e+00 0 0 0
638 2 7.3830000000000009e+00 1.7050308149707998e+01 8.7667060365962204e+00 0 0 0
613 2 4.9220000000000006e+00 1.9892026174659328e+01 8.7667060365962204e+00 0 0 0
615 2 6.1524999999999999e+00 1.7760737655945832e+01 8.7667060365962204e+00 0 0 0
636 2 6.1524999999999999e+00 1.9181596668421495e+01 8.7667060365962204e+00 0 0 0
637 2 7.3829999999999991e+00 1.9892026174659328e+01 8.7667060365962204e+00 0 0 0
639 2 8.6134999999999984e+00 1.7760737655945832e+01 8.7667060365962204e+00 0 0 0
657 2 8.6135000000000002e+00 1.9181596668421495e+01 8.7667060365962204e+00 0 0 0
311 2 1.2305000000000001e+00 2.0602455680897162e+01 5.5229292003322001e+00 0 0 0
358 2 3.6915000000000004e+00 2.0602455680897162e+01 5.5229292003322001e+00 0 0 0
307 2 0.0000000000000000e+00 2.2733744199610655e+01 5.5229292003322001e+00 0 0 0
309 2 0.0000000000000000e+00 2.1312885187134999e+01 5.5229292003322001e+00 0 0 0