
# Create simulation box and atoms

read_data data.ML_graphite_m500atm_240K
  orthogonal box = (0 0 1.53529) to (49.22 49.0196 38.4647)
  5 by 4 by 4 MPI processor grid
  reading atoms ...
  5021 atoms
  reading velocities ...
  5021 velocities
group water type 1
2261 atoms in group water
group graphite type 2
2760 atoms in group graphite

# Define potential

pair_style sw
pair_coeff * * MLC_e.sw mW C


# Fix graphite atoms in place

fix 5 graphite setforce 0.0 0.0 0.0
velocity graphite set 0.0 0.0 0.0


# Equilibration of molecular water

# Add velocity/set timestep

velocity	    water create ${TEMP} ${SEED} rot yes dist gaussian
velocity	    water create 240 ${SEED} rot yes dist gaussian
velocity	    water create 240 8918 rot yes dist gaussian
timestep	    5.0

# Define output

compute			1 water msd
compute			3 water temp
thermo	    	50
thermo_style	custom step temp press vol etotal ke pe c_1[4] c_3

# Neighbor lists

neigh_modify    delay 0 every 1 check yes

# Set fixes

fix             1 water momentum 10 linear 1 1 1 rescale
fix             2 water nve
fix             3 water temp/csvr ${TEMP} ${TEMP} 500.0 ${SEED}
fix             3 water temp/csvr 240 ${TEMP} 500.0 ${SEED}
fix             3 water temp/csvr 240 240 500.0 ${SEED}
fix             3 water temp/csvr 240 240 500.0 8918
fix             4 water press/berendsen z ${PRES} ${PRES} 1000.0 modulus 20000
fix             4 water press/berendsen z -500 ${PRES} 1000.0 modulus 20000
fix             4 water press/berendsen z -500 -500 1000.0 modulus 20000

# Run 0.5 ns equilibration

dump		    1 all atom 2000 ${DIR}/eq.${NAME}-${TEMP}.dump
dump		    1 all atom 2000 run_15/eq.${NAME}-${TEMP}.dump
dump		    1 all atom 2000 run_15/eq.het_freeze_15-${TEMP}.dump
dump		    1 all atom 2000 run_15/eq.het_freeze_15-240.dump

reset_timestep  0

run	            100000
Neighbor list info ...
  update every 1 steps, delay 0 steps, check yes
  max neighbors/atom: 2000, page size: 100000
  master list distance cutoff = 6.67472
  ghost atom cutoff = 6.67472
  binsize = 3.33736, bins = 15 15 12
  1 neighbor lists, perpetual/occasional/extra = 1 0 0
  (1) pair sw, perpetual
      attributes: full, newton on
      pair build: full/bin/atomonly
      stencil: full/bin/3d
      bin: standard
Per MPI rank memory allocation (min/avg/max) = 4.069 | 4.188 | 4.476 Mbytes
Step Temp Press Volume TotEng KinEng PotEng c_1[4] c_3 
       0    108.04781   -816.58172    89101.337   -21796.007    1616.7914   -23412.799            0          240 
      50    104.58315   -910.98201    89075.949   -21777.932    1564.9474   -23342.879   0.51649156    232.30417 
     100    109.98585   -780.24155    89048.188   -21741.011    1645.7916   -23386.802   0.80423338    244.30485 
     150     107.5527   -540.34691    89076.978   -21753.922    1609.3828   -23363.304    1.0297884    238.90025 
     200    109.57679   -822.96929    89122.356   -21793.545    1639.6705   -23433.215    1.2864132    243.39623 
     250    110.96824   -703.31832    89234.815   -21795.818    1660.4918    -23456.31    1.4927682    246.48699 
     300    108.25455   -926.97293    89272.684   -21838.052     1619.885   -23457.937    1.6925664    240.45922 
     350    109.36591   -919.19835    89252.745   -21788.094     1636.515   -23424.609    1.8453314    242.92781 
     400    107.39006   -841.62351    89236.801   -21799.075     1606.949   -23406.024    2.0068879    238.53897 
     450    107.11488   -1248.0992    89158.504   -21790.743    1602.8313   -23393.574    2.1690257    237.92773 
     500    105.50431    -782.4593    89051.496   -21827.407    1578.7313   -23406.139    2.2367674    234.35028 
     550     105.6485   -353.05122    89060.166   -21836.759    1580.8889   -23417.648    2.3839604    234.67056 
     600    106.16901   -411.69602    89095.992   -21848.222    1588.6777     -23436.9    2.5536444    235.82675 
     650    109.69069   -645.50247    89213.489   -21830.933    1641.3749   -23472.307    2.7803088    243.64923 
     700    107.96693   -979.28322    89277.698   -21801.251    1615.5811   -23416.832    3.0106804    239.82034 
     750    107.82798   -486.31014    89357.969   -21789.347     1613.502   -23402.849    3.1588538    239.51171 
     800    106.41648   -618.46679    89417.941   -21853.693    1592.3807   -23446.074    3.3396616    236.37643 
     850    107.86551    -877.5657    89463.239   -21835.616    1614.0635   -23449.679    3.4936908    239.59507 
     900    106.98265    -729.8423    89499.348   -21853.189    1600.8527   -23454.041    3.6228164    237.63402 
     950    107.36002   -830.00969    89476.167   -21845.907    1606.4995   -23452.406    3.6939246    238.47225 
    1000    107.95941   -520.85287    89561.562   -21833.609    1615.4686   -23449.078    3.8415925    239.80364 
    1050    108.69779   -766.35851    89648.907   -21789.417    1626.5175   -23415.935    4.0144395    241.44377 
    1100     105.4891   -1015.5461    89596.397    -21822.77    1578.5037   -23401.273    4.1843263    234.31649 
    1150    107.81372   -914.42092    89568.491   -21793.226    1613.2885   -23406.514    4.3546906    239.48003 
    1200    109.25379   -835.94208    89456.463    -21790.14    1634.8372   -23424.977    4.5702684    242.67876 
    1250    107.77925   -885.10634    89456.235   -21831.877    1612.7727   -23444.649    4.7250107    239.40346 
    1300    111.10428   -764.18441     89478.34   -21844.048    1662.5274   -23506.575    4.8887223    246.78916 
    1350    108.72992   -864.64517    89486.761   -21835.517    1626.9983   -23462.515    4.9154073    241.51513 
    1400    111.72739   -1211.8235    89512.159   -21837.385    1671.8514   -23509.236    5.0710225    248.17324 
    1450    111.87264   -809.73439    89468.264   -21825.581    1674.0248   -23499.606    5.2195885    248.49586 
    1500    105.81034   -827.21392    89508.111   -21842.533    1583.3107   -23425.844    5.5080942    235.03005 
    1550    107.87872   -602.05709    89463.605    -21821.84    1614.2612   -23436.101    5.6782715    239.62442 
    1600    111.97139   -663.00086    89526.489   -21830.252    1675.5025   -23505.755    5.7762271     248.7152 
    1650    108.82343   -605.03694    89569.419   -21821.461    1628.3975   -23449.858    5.9648014    241.72283 
    1700    110.92997     -698.262     89541.62   -21855.711    1659.9191    -23515.63     5.994485    246.40198 
    1750    106.48366   -792.40006     89534.57   -21857.476     1593.386   -23450.862    6.1233692    236.52565 
    1800    107.19317   -782.26535    89626.489   -21834.354    1604.0028   -23438.356    6.3883277    238.10164 
    1850    108.74391   -893.52841     89557.62   -21847.403    1627.2076    -23474.61    6.5638445    241.54621 
    1900    109.78445   -705.78301    89536.839    -21868.87    1642.7778   -23511.648    6.6751153    243.85749 
    1950    106.59465   -819.59873    89578.003   -21862.564    1595.0467   -23457.611    6.8382985    236.77218 
    2000     108.1512   -909.72557    89487.378   -21838.001    1618.3384   -23456.339    7.1191322    240.22965 
    2050    106.88483   -913.77582    89463.268   -21865.744     1599.389   -23465.133    7.2572811    237.41675 
    2100    110.78449   -897.11033    89365.206   -21850.672    1657.7422   -23508.414    7.3285181    246.07883 
    2150    109.65355   -869.27212    89276.123   -21825.595    1640.8192   -23466.414    7.3990527    243.56674 
    2200    108.40499   -909.14156    89260.476   -21783.516    1622.1361   -23405.652    7.5663946    240.79338 
    2250    110.27767    -869.7447    89289.391   -21776.825    1650.1583   -23426.983    7.7623089    244.95305 
    2300    112.06704   -718.37714    89280.643   -21745.245    1676.9338   -23422.179    7.9897301    248.92767 
    2350     109.0807   -788.43957    89318.418   -21755.388    1632.2471   -23387.635    8.1855514    242.29429 
    2400    108.04759   -621.05815    89444.797   -21779.837    1616.7881   -23396.625    8.3678379    239.99951 
    2450    110.20966    -906.5497    89461.337   -21793.716    1649.1406   -23442.856    8.4991732    244.80199 
    2500    105.95278   -631.11657    89524.472   -21851.588    1585.4421    -23437.03    8.6250739    235.34644 
    2550    108.24421   -832.10459    89552.386   -21833.046    1619.7302   -23452.776    8.8249278    240.43625 
    2600    109.12789   -875.14137    89554.687   -21829.906    1632.9534   -23462.859    8.9346188    242.39913 
    2650    105.77402   -1083.5771    89512.366   -21840.859    1582.7671   -23423.626     9.107258    234.94937 
    2700    107.76884   -826.97535    89494.886   -21823.792     1612.617   -23436.409    9.2557032    239.38035 
    2750    105.57944   -555.30634    89535.509   -21818.898    1579.8555   -23398.753    9.3911027    234.51716 
    2800    109.34743   -991.89198     89559.57   -21791.046    1636.2384   -23427.285     9.622543    242.88677 
    2850    108.67661   -766.82844    89608.837   -21802.075    1626.2006   -23428.276    9.7809285    241.39672 
    2900    110.95647   -629.78244    89606.045   -21786.585    1660.3157     -23446.9    9.9349725    246.46084 
    2950    112.15392   -815.04539    89644.901   -21816.347    1678.2339   -23494.581    10.091162    249.12066 
    3000    110.60046   -852.88294    89693.021    -21821.59    1654.9883   -23476.578    10.135868    245.67004 
    3050    110.45269   -989.84115    89699.311   -21761.537    1652.7772   -23414.315    10.232675    245.34181 
    3100    108.30592   -788.08694    89708.071   -21779.474    1620.6536   -23400.127    10.216799    240.57332 
    3150    109.79235   -695.71076    89670.531   -21800.878    1642.8961   -23443.774    10.377225    243.87504 
    3200    107.52023   -1109.7482    89718.736   -21813.693    1608.8969    -23422.59    10.537572    238.82813 
    3250    106.03391   -868.92561    89721.091   -21845.638    1586.6561   -23432.294    10.716489    235.52666 
    3300     106.9228   -511.84332    89719.215   -21847.983    1599.9571    -23447.94    10.940484    237.50108 
    3350    108.01759   -737.93649    89787.887   -21840.968    1616.3392   -23457.307     11.21953    239.93287 
    3400    108.07257    -763.7889    89797.662   -21817.111    1617.1618   -23434.273    11.374829    240.05499 
    3450    110.56632   -958.46333     89821.39   -21765.792    1654.4775    -23420.27    11.623054    245.59422 
    3500    106.91622   -1033.7211    89802.563   -21778.118    1599.8586   -23377.977    11.812249    237.48647 
    3550    110.88858   -937.82535    89767.493   -21766.614    1659.2997   -23425.914    12.055741    246.31002 
    3600    110.13196   -825.95588    89814.174   -21775.588    1647.9779   -23423.566    12.281015    244.62939 
    3650    107.44329   -1007.3816    89768.814   -21771.622    1607.7456   -23379.367    12.535016    238.65722 
    3700    105.65767   -999.69965     89671.94   -21792.185    1581.0261   -23373.211    12.670071    234.69092 
    3750    108.44975   -525.83234    89705.523   -21813.212    1622.8059   -23436.018    12.720436     240.8928 
    3800    105.14708   -784.42916    89767.852   -21831.055    1573.3858   -23404.441    12.793611    233.55678 
    3850    106.26957   -795.18845    89755.622   -21848.792    1590.1825   -23438.975      12.8614    236.05011 
    3900    108.72756   -672.20155    89703.016   -21842.973    1626.9629   -23469.936    12.950102    241.50989 
    3950    105.58002   -586.96597    89747.599   -21865.414    1579.8642   -23445.279    13.110659    234.51846 
    4000    106.59559   -949.91842    89671.031   -21852.605    1595.0608   -23447.666    13.275126    236.77427 
    4050    106.14394   -712.84648    89658.482   -21848.664    1588.3025   -23436.967    13.434282    235.77105 
    4100    109.77973    -812.5283    89620.933    -21849.67    1642.7073   -23492.377    13.664317    243.84702 
    4150    108.73769    -1030.484    89608.363    -21884.27    1627.1145   -23511.384    13.813538    241.53239 
    4200    107.91404   -846.16199    89606.272   -21889.699    1614.7896   -23504.488     13.95806    239.70286 
    4250    108.75272   -599.51297    89607.443   -21891.396    1627.3395   -23518.735    14.081596    241.56578 
    4300    108.16111   -724.79511    89594.185   -21850.651    1618.4867   -23469.137    14.233883    240.25167 
    4350    111.65569   -837.51552    89541.821   -21777.942    1670.7786    -23448.72    14.454636    248.01398 
    4400    110.00221   -951.67522    89498.657   -21783.603    1646.0364    -23429.64    14.524589     244.3412 
    4450    111.08984   -903.20484    89486.376   -21797.539    1662.3112    -23459.85    14.741816    246.75707 
    4500      109.954   -686.02106     89433.77   -21820.668     1645.315   -23465.983    14.856072     244.2341 
    4550    108.91726   -666.07953    89417.764   -21816.501    1629.8015   -23446.302    14.931622    241.93125 
    4600    109.10192   -800.01076    89391.716   -21842.988    1632.5647   -23475.553    15.107322    242.34143 
    4650    104.56033   -963.08217    89379.067   -21859.062    1564.6058   -23423.668    15.281525    232.25347 
    4700    108.06021   -471.01992    89425.914   -21862.434     1616.977    -23479.41    15.504565    240.02755 
    4750    106.23389   -1071.0844    89403.009    -21873.56    1589.6484   -23463.209    15.786398    235.97085 
    4800    106.07011   -957.07589    89357.679    -21866.35    1587.1977   -23453.547    16.002302    235.60705 
    4850    107.48144   -986.54778    89345.771   -21839.356    1608.3165   -23447.672     16.05708    238.74197 
    4900    106.44704   -664.72365    89340.905   -21828.475    1592.8381   -23421.313    16.201857    236.44432 
    4950    110.01697   -691.54644     89413.96   -21811.699    1646.2572   -23457.957    16.410317    244.37398 
    5000    109.04359   -761.51282    89380.573   -21789.798    1631.6919    -23421.49    16.553649    242.21187 
    5050    105.62093   -672.45134    89366.606   -21835.592    1580.4764   -23416.068    16.692488    234.60933 
    5100    107.21553   -723.36238    89401.542   -21822.805    1604.3374   -23427.142    16.876803    238.15131 
    5150    111.62178   -1017.2391    89432.476   -21777.682    1670.2711   -23447.953    17.138493    247.93864 
    5200    107.19064   -863.21783    89407.383   -21804.942     1603.965   -23408.907    17.370566    238.09603 
    5250    106.19388   -767.07483    89415.223   -21835.405    1589.0498   -23424.455    17.403351    235.88198 
    5300    106.40963   -1039.5798    89406.281   -21819.601    1592.2782   -23411.879    17.624286    236.36122 
    5350    104.88983   -830.65899    89361.276   -21840.019    1569.5364   -23409.555    17.883494    232.98538 
    5400    108.64761   -928.04298    89381.754   -21802.836    1625.7666   -23428.603    18.115672     241.3323 
    5450    106.64008    -706.2617    89337.299   -21823.401    1595.7266   -23419.128    18.129344    236.87311 
    5500    109.27553   -821.35906    89248.356   -21839.844    1635.1626   -23475.007    18.384517    242.72706 
    5550    107.55835    -1017.949    89201.519   -21799.551    1609.4672   -23409.018    18.573103    238.91279 
    5600    108.73545   -1130.7182    89114.868   -21807.686     1627.081   -23434.767    18.668798    241.52742 
    5650     106.8907   -1390.9808    89042.346   -21828.442    1599.4767   -23427.919    18.918744    237.42978 
    5700    108.36917   -721.85567    89065.431   -21824.193    1621.6001   -23445.793    19.217915    240.71382 
    5750    108.87717   -820.49091    89089.298   -21826.225    1629.2017   -23455.426    19.452351    241.84221 
    5800    107.38345   -995.67395    89091.069   -21823.912    1606.8502   -23430.762    19.733878    238.52431 
    5850    107.72819   -878.13161    89075.823   -21833.462    1612.0087   -23445.471    19.948442    239.29005 
    5900    106.84192   -652.16786    89087.354   -21833.483    1598.7469    -23432.23    20.143476    237.32144 
    5950    105.15901   -1010.7847    89085.796   -21833.933    1573.5643   -23407.497    20.309909    233.58328 
    6000    106.94683   -1184.1749    89103.258   -21814.655    1600.3167   -23414.972    20.533955    237.55446 
    6050    108.35581   -719.12853    89133.025   -21820.844    1621.4002   -23442.244    20.753972    240.68415 
    6100    104.41347   -1261.5353    89129.935   -21843.615    1562.4083   -23406.023    20.972653    231.92726 
    6150    107.86415   -844.43473     89118.13   -21816.411    1614.0432   -23430.454     21.02247    239.59206 
    6200    106.49582   -1159.0605     89116.03   -21809.943    1593.5679   -23403.511    21.135305    236.55266 
    6250     108.8033   -970.83401    89049.206   -21799.635    1628.0962   -23427.731    21.105601    241.67812 
    6300    108.02567   -788.34929    88945.762   -21769.286    1616.4601   -23385.747    21.113851    239.95082 
    6350    106.28154   -705.63744    88860.204   -21790.874    1590.3615   -23381.235    21.388372    236.07669 
    6400    108.31955   -650.74737     88886.87   -21777.237    1620.8576   -23398.095    21.371107     240.6036 
    6450    108.62214   -658.59637    88946.471    -21752.95    1625.3855   -23378.336    21.621264    241.27573 
    6500    106.27842   -880.98934    88972.904   -21809.798    1590.3149   -23400.113     21.86106    236.06977 
    6550    109.47365   -940.54856    88954.365   -21757.173    1638.1272     -23395.3    22.087957    243.16714 
    6600    112.68888   -1056.7078     88939.51   -21703.438    1686.2389   -23389.676    22.188762    250.30894 
    6650    110.68513   -888.41952    88917.468   -21738.719    1656.2554   -23394.974    22.600763    245.85812 
    6700    108.66405   -1167.4052    88813.604   -21743.538    1626.0126    -23369.55        22.82    241.36881 
    6750    108.24227   -1432.8786    88743.418   -21721.774    1619.7012   -23341.475    22.954493    240.43193 
    6800     109.1702   -485.29373    88776.464   -21729.894    1633.5864   -23363.481    23.115521    242.49309 
    6850    108.66327   -723.59382    88795.915   -21746.619     1626.001    -23372.62    23.321072    241.36709 
    6900    110.77456   -804.27076    88821.871   -21737.406    1657.5936   -23394.999    23.435812    246.05676 
    6950    112.05475   -877.89885    88887.941   -21750.799    1676.7499   -23427.549    23.536681    248.90037 
    7000     107.4381   -911.69493    88901.072   -21764.596     1607.668   -23372.264     23.78761     238.6457 
    7050    111.46165   -864.54322     88898.36   -21765.111     1667.875   -23432.986    23.779936    247.58296 
    7100    108.08807   -1009.5902    88907.946   -21769.042    1617.3938   -23386.436    24.161218    240.08943 
    7150     106.9438   -694.42734    88962.012   -21755.494    1600.2714   -23355.765     24.34802    237.54774 
    7200    110.52287   -740.36095    88970.889   -21706.801    1653.8273   -23360.628    24.568285     245.4977 
    7250    109.74774   -800.04286    88985.749   -21752.053    1642.2286   -23394.281     24.77973    243.77596 
    7300    109.63148   -822.68055    89082.408    -21743.81     1640.489   -23384.299    24.789748    243.51772 
    7350    106.10178    -824.3499    89108.654   -21748.065    1587.6717   -23335.737    25.065277    235.67741 
    7400    110.23758    -760.9569    89109.713   -21744.804    1649.5584   -23394.363    25.352734    244.86401 
    7450    107.01515   -748.02404    89150.747   -21764.287     1601.339   -23365.626    25.476053    237.70621 
    7500    112.23693   -768.20706    89111.783   -21738.919     1679.476   -23418.395    25.637153    249.30505 
    7550    110.20923   -646.20963    89153.476    -21758.39    1649.1341   -23407.524     25.90899    244.80102 
    7600    109.24246   -660.67627    89169.075     -21710.4    1634.6678   -23345.068    26.118744    242.65361 
    7650    109.06781    -710.7367    89251.947   -21767.783    1632.0544   -23399.837    26.196062    242.26567 
    7700    108.37705    -947.8384    89205.374   -21802.719     1621.718   -23424.437    26.437225    240.73132 
    7750    108.37159   -460.32081    89179.083   -21828.876    1621.6363   -23450.512    26.716522    240.71919 
    7800    105.70128   -689.38724    89212.095   -21840.011    1581.6788    -23421.69    26.955129    234.78781 
    7850    105.08267     -851.495    89195.569   -21808.862    1572.4221   -23381.284    27.054628    233.41373 
    7900    109.49597   -487.49445    89273.268   -21772.916    1638.4612   -23411.377    27.219257    243.21671 
    7950    108.05647    -719.7702    89214.138   -21790.353     1616.921   -23407.274    27.485832    240.01924 
    8000    110.15383   -729.28253    89172.007   -21755.941    1648.3051   -23404.247    27.872072    244.67797 
    8050     105.2035   -766.20285    89132.174   -21754.022    1574.2301   -23328.252    27.971007    233.68212 
    8100    107.46482   -1267.9742    89086.353    -21765.24    1608.0678   -23373.308    28.186993    238.70505 
    8150    106.09381   -834.66151     88972.57   -21801.722    1587.5523   -23389.274    28.228013     235.6597 
    8200    107.75397   -750.95168    88960.152   -21792.797    1612.3945   -23405.192    28.225357    239.34732 
    8250    105.18912   -1302.2803    88927.426   -21824.633     1574.015   -23398.648    28.294685    233.65018 
    8300    105.38097   -902.59085    88788.596   -21783.112    1576.8857   -23359.998    28.648663    234.07632 
    8350    106.68728   -548.00464    88761.005    -21758.27    1596.4329   -23354.703    28.977024    236.97794 
    8400    108.42333    -781.7204    88723.132   -21798.915    1622.4105   -23421.325    29.153424    240.83412 
    8450    103.52472   -1106.0112    88617.071   -21781.373    1549.1094   -23330.482    29.202307    229.95314 
    8500     106.6213   -996.34733    88563.029   -21791.967    1595.4455   -23387.413    29.185228    236.83138 
    8550    106.81253   -1015.5176    88534.967   -21799.632    1598.3071   -23397.939    29.541584    237.25616 
    8600    109.23729   -834.39716    88491.693   -21798.217    1634.5903   -23432.808    29.720651    242.64211 
    8650    106.86789    -899.1313    88499.734   -21793.285    1599.1355   -23392.421    29.883395    237.37912 
    8700    109.47212   -680.93854    88542.775   -21786.417    1638.1042   -23424.521    30.186478    243.16373 
    8750    108.93833   -794.84753    88589.719   -21781.953    1630.1169    -23412.07    30.348154    241.97807 
    8800    107.13455   -818.08372      88651.6   -21816.433    1603.1256   -23419.559    30.482481    237.97142 
    8850    108.69583   -592.57024    88689.687   -21771.225    1626.4881   -23397.713    30.574388    241.43941 
    8900    110.29531   -786.33117    88765.815   -21722.265    1650.4223   -23372.687    30.703261    244.99225 
    8950    108.59661   -801.75098    88861.268   -21751.678    1625.0034   -23376.682    30.978278    241.21901 
    9000    106.20486   -731.67701    88897.373   -21756.796    1589.2141    -23346.01    31.242316    235.90637 
    9050    110.54377   -870.07256    88943.898   -21746.687    1654.1401   -23400.828    31.680802    245.54413 
    9100    105.42213   -762.80423    88958.677   -21738.122    1577.5016   -23315.624    32.007821    234.16775 
    9150    107.06731   -685.11908    88977.675    -21793.66    1602.1195   -23395.779    32.261319    237.82207 
    9200    107.78385   -816.41703    89043.975   -21751.148    1612.8416   -23363.989    32.570541    239.41368 
    9250    107.48626   -764.09495    89028.535   -21796.147    1608.3886   -23404.536    32.598814    238.75267 
    9300    106.57643   -669.59788    89093.545   -21829.193    1594.7742   -23423.967    32.573803    236.73172 
    9350    107.10088    -1084.352    89197.364   -21811.897    1602.6218   -23414.518     32.70641    237.89664 
    9400    106.86409   -916.02224    89158.789   -21840.343    1599.0786   -23439.422    32.856758    237.37068 
    9450    107.04219   -1235.8301    89103.573   -21856.687    1601.7436    -23458.43    33.289819    237.76628 
    9500    106.25244   -1035.3146    89067.859    -21845.96    1589.9261   -23435.886     33.40706    236.01206 
    9550    107.66586   -550.43538    89052.861    -21844.55    1611.0761   -23455.626    33.573479    239.15161 
    9600    106.87346   -720.34812    89102.868   -21865.808    1599.2188   -23465.027    33.577534     237.3915 
    9650    109.15763   -851.73331     89184.62   -21840.745    1633.3984   -23474.144    33.686532    242.46519 
    9700    110.71146   -737.56927     89191.67   -21828.639    1656.6494   -23485.289     33.86378    245.91661 
    9750    107.58846   -638.80963    89228.235   -21848.727    1609.9178   -23458.644    34.112164    238.97967 
    9800    102.69141   -970.27416     89252.11   -21877.238      1536.64   -23413.878     34.17849    228.10216 
    9850    107.46952   -858.16541    89361.887    -21875.66     1608.138   -23483.798    34.036392    238.71547 
    9900    109.99507   -788.38497    89286.516   -21849.711    1645.9295   -23495.641    34.008908    244.32533 
    9950     106.3285   -708.72719      89333.4   -21853.339    1591.0642   -23444.403    33.916561    236.18101 
   10000     107.7666   -679.42264    89350.221   -21857.016    1612.5835   -23469.599    33.927428    239.37537 
   10050    104.13707   -747.18717    89365.714   -21833.416    1558.2724   -23391.688    34.243003    231.31332 
   10100    104.20955    -1011.822    89279.768   -21832.688     1559.357   -23392.045    34.576461    231.47432 
   10150     106.1025   -769.84374    89277.626   -21835.046    1587.6824   -23422.728     34.69466      235.679 
   10200    105.06262   -771.12932    89299.993   -21848.328     1572.122    -23420.45    34.968694    233.36919 
   10250    109.07871   -638.17021    89272.929    -21822.59    1632.2174   -23454.807    35.073554    242.28987 
   10300    109.90894   -918.35687     89283.01   -21807.587    1644.6408   -23452.228    35.213602    244.13403 
   10350    107.92276   -294.78668    89340.564   -21831.205    1614.9202   -23446.126    35.212953    239.72224 
   10400    111.93156   -698.44767    89459.401   -21779.265    1674.9065   -23454.172    35.545651    248.62674 
   10450    107.79395      -747.98    89458.167    -21808.72    1612.9928   -23421.713     35.96948    239.43613 
   10500     104.2131   -1119.8245     89430.03   -21810.136    1559.4101   -23369.546    36.208128     231.4822 
   10550    109.37245    -862.2664    89312.537   -21799.464    1636.6128   -23436.077     36.34065    242.94233 
   10600    108.17536   -881.45502    89290.545   -21791.561    1618.7001   -23410.261    36.397903    240.28333 
   10650    109.21736   -796.90781    89259.156   -21782.869    1634.2922   -23417.161    36.404361    242.59786 
   10700    108.37005   -709.29678    89269.988   -21779.444    1621.6132   -23401.057    36.531329    240.71577 
   10750    109.82368   -873.67687    89254.676     -21761.6    1643.3649   -23404.965    36.830697    243.94463 
   10800    110.31109   -1047.8837    89173.937   -21765.549    1650.6584   -23416.207    37.098685     245.0273 
   10850    106.36392   -746.21305    89118.151   -21802.403    1591.5942   -23393.997    37.255641    236.25967 
   10900     106.4844   -958.76191    89044.261   -21793.273    1593.3971    -23386.67       37.231     236.5273 
   10950    105.39041   -789.29739    88970.755   -21818.904    1577.0269   -23395.931    37.263081    234.09727 
   11000    105.72276   -973.35426    88924.003   -21817.215    1582.0001   -23399.215    37.457597    234.83552 
   11050    104.21062   -836.99205    88910.314   -21831.602    1559.3729   -23390.975    37.740318    231.47668 
   11100    106.65743   -771.49953    88912.947   -21855.751    1595.9862   -23451.737    37.864347    236.91164 
   11150    106.92654   -743.86802    88884.415   -21829.217    1600.0131    -23429.23    37.981725     237.5094 
   11200     106.5612   -563.76067    88941.628   -21814.541    1594.5462   -23409.087    38.193878    236.69788 
   11250    110.22952   -654.63896    88952.888   -21829.592    1649.4378    -23479.03    38.325253    244.84611 
   11300     107.6881   -887.65076    88933.284   -21802.286    1611.4088   -23413.695     38.48329      239.201 
   11350    107.67593   -548.97722    88957.248    -21782.57    1611.2267   -23393.797    38.461708    239.17397 
   11400    106.48497    -828.9006    89018.197   -21743.722    1593.4056   -23337.128    38.759301    236.52857 
   11450     109.4016   -1007.4277    88996.233   -21758.688    1637.0491   -23395.737    38.723666     243.0071 
   11500    109.06179   -1013.6819    89002.885   -21796.652    1631.9642   -23428.616     39.05934    242.25229 
   11550    108.78245   -1010.8997    88997.177   -21783.019    1627.7844   -23410.804    39.269705    241.63182 
   11600    105.58455   -640.66244     88958.87   -21794.272     1579.932   -23374.204    39.158076    234.52851 
   11650     104.7435    -876.8093    88975.217   -21788.365    1567.3468   -23355.712     39.04348    232.66035 
   11700    109.82414   -643.41145    89008.574   -21764.641    1643.3719   -23408.013    39.124582    243.94566 
   11750    105.93991   -1032.5993    89069.866   -21776.988    1585.2494   -23362.238    39.425196    235.31785 
   11800    109.80476   -904.08654    89044.019   -21756.303    1643.0819   -23399.385    39.735885    243.90262 
   11850    110.15301   -553.13663    89025.945   -21795.148    1648.2928   -23443.441    40.115835    244.67615 
   11900    109.17571   -700.25186    88971.454   -21768.864    1633.6689   -23402.533    40.279358    242.50534 
   11950    110.11657   -693.33081    88943.649   -21771.367    1647.7476   -23419.114    40.503417    244.59521 
   12000     110.7154   -722.52715    88964.954   -21767.883    1656.7083   -23424.591     40.62094    245.92536 
   12050    108.79539   -938.49149    88965.115   -21749.872    1627.9779    -23377.85    40.620545    241.66056 
   12100    108.46349   -673.72606    88950.824    -21751.45    1623.0114   -23374.461    40.698623    240.92332 
   12150    111.89266   -815.23414    88971.219   -21737.525    1674.3245    -23411.85    40.598333    248.54034 
   12200     109.1611   -620.41114    89032.242   -21726.689    1633.4504   -23360.139    40.766051     242.4729 
   12250    106.08015   -927.08193    89048.141   -21763.761     1587.348   -23351.109      40.9489    235.62937 
   12300     107.8518   -925.75218    89083.027   -21792.547    1613.8583   -23406.406    40.866125    239.56461 
   12350    105.16093   -618.41484    89108.282   -21806.935    1573.5931   -23380.528     41.11844    233.58756 
   12400     108.5751    -736.7211    89087.778   -21827.627    1624.6815   -23452.309     41.04729    241.17123 
   12450    110.18473   -692.19246    89133.179   -21807.507    1648.7675   -23456.274    41.176486    244.74661 
   12500    108.56285   -1141.8702    89123.604   -21816.434    1624.4983   -23440.932    41.341421    241.14404 
   12550    108.24878   -1281.6643    89086.565   -21790.882    1619.7987   -23410.681    41.724736    240.44641 
   12600    107.00446   -1093.4339    89081.612    -21817.27     1601.179   -23418.449    41.957577    237.68247 
   12650    108.74154   -876.69671    89105.803   -21787.439    1627.1722   -23414.611    41.798119    241.54095 
   12700     109.7577   -647.85377    89153.471   -21806.284    1642.3776   -23448.661    41.925258    243.79807 
   12750    108.36514   -693.74547    89189.126   -21755.198    1621.5398   -23376.738     42.10283    240.70487 
   12800    108.16921   -852.50667    89173.773   -21805.761     1618.608   -23424.369    42.083534    240.26966 
   12850    109.24423   -1020.5091    89151.722   -21747.607    1634.6942   -23382.301    42.324992    242.65754 
   12900    110.67811   -634.07116    89157.284   -21733.925    1656.1504   -23390.075    42.714862    245.84253 
   12950    110.36684   -853.48603    89201.324   -21732.124    1651.4926   -23383.617    42.876921    245.15113 
   13000    109.37984   -1042.1646    89150.177   -21716.945    1636.7234   -23353.668    43.316226    242.95875 
   13050    108.08876   -702.66077     89144.83   -21719.824    1617.4041   -23337.228    43.378979    240.09095 
   13100    108.98545   -620.93452    89135.449   -21738.977    1630.8219   -23369.799    43.166603    242.08272 
   13150    107.79598    -505.8649     89181.58   -21739.922    1613.0231   -23352.945    43.222887    239.44063 
   13200    110.34647   -866.08769    89160.022   -21754.543    1651.1877   -23405.731      43.2457    245.10587 
   13250    107.48764    -790.0618    89164.425   -21754.858    1608.4093   -23363.267    43.396077    238.75574 
   13300    107.75153   -973.47279    89120.841   -21758.367    1612.3579   -23370.725    43.532989    239.34189 
   13350    105.83106   -713.28354    89091.841   -21800.264    1583.6207   -23383.884    43.671489    235.07607 
   13400    108.21484   -660.22625    89137.015    -21765.81    1619.2908   -23385.101    43.602845    240.37101 
   13450    107.80479   -1060.3142    89088.057   -21769.033    1613.1549   -23382.188    43.790507    239.46019 
   13500    106.11162   -961.62024    89109.775   -21762.389    1587.8189   -23350.208    44.343806    235.69927 
   13550     106.5432   -962.84368    89160.225   -21720.168     1594.277   -23314.445    44.608753    236.65791 
   13600    108.88116   -960.34662    89149.177   -21702.892    1629.2614   -23332.153    44.967323    241.85107 
   13650    107.32154   -924.83453    89066.426   -21755.412    1605.9237   -23361.336    45.220929    238.38678 
   13700    108.27237   -1035.1768    88996.047   -21758.165    1620.1516   -23378.317    45.369694    240.49879 
   13750    105.39287   -774.84411    89013.634   -21765.397    1577.0638    -23342.46    45.834298    234.10275 
   13800    107.73054   -702.25374    89080.926   -21766.728    1612.0438   -23378.771    46.130037    239.29527 
   13850    109.51314   -663.38038    89080.507       -21769    1638.7182   -23407.718    46.414434    243.25486 
   13900    109.13423   -659.60495    89140.306   -21736.281    1633.0482   -23369.329    46.758632     242.4132 
   13950    108.93062   -683.19183    89189.774   -21778.671    1630.0015   -23408.672    47.050771    241.96094 
   14000    106.64425   -599.20598    89184.989   -21731.821    1595.7891    -23327.61    47.428013    236.88237 
   14050    108.79623   -791.52952    89208.371   -21707.349    1627.9905    -23335.34    47.701651    241.66243 
   14100    108.90013   -749.44458     89255.78   -21723.364    1629.5452   -23352.909    47.879489    241.89321 
   14150    108.75108   -1049.5817     89236.54   -21741.266    1627.3149    -23368.58    48.073383    241.56213 
   14200    109.43177   -1087.3007    89225.779   -21737.843    1637.5006   -23375.343    48.218854    243.07412 
   14250    108.05368   -890.17334    89216.663   -21744.166    1616.8792   -23361.045    48.345363    240.01303 
   14300    109.47678   -1039.2397    89221.225   -21709.946     1638.174    -23348.12    48.510118    243.17408 
   14350     107.2472   -977.29586    89173.004    -21728.82    1604.8113   -23333.632    48.714354    238.22165 
   14400    112.28932   -693.29441    89160.825   -21705.757    1680.2599   -23386.017    48.836302     249.4214 
   14450    110.09343   -915.86341    89160.142   -21744.844    1647.4014   -23392.246    48.932563    244.54382 
   14500    105.39665   -1039.4021    89112.409   -21796.398    1577.1203   -23373.519    49.336143    234.11114 
   14550    106.38241   -812.15302    89140.357   -21788.962     1591.871   -23380.832    49.568888    236.30076 
   14600    109.07375   -943.60396    89181.005    -21787.95    1632.1432   -23420.093    49.675588    242.27885 
   14650     106.5169   -629.02425    89283.479   -21778.104    1593.8834   -23371.988    50.036692    236.59949 
   14700    105.72436   -684.16399    89372.634   -21805.052    1582.0241   -23387.076    50.386195    234.83907 
   14750    108.06558   -998.95655    89351.482   -21796.737    1617.0573   -23413.794    50.509382    240.03948 
   14800    107.72682   -810.47964    89442.739   -21814.326    1611.9881   -23426.314    50.786677      239.287 
   14850    104.19962   -747.65997    89429.958   -21810.013    1559.2084   -23369.222    51.039785    231.45225 
   14900    105.51436   -595.49845    89469.691   -21795.659    1578.8816    -23374.54    51.423039    234.37259 
   14950    103.45016     -619.159    89579.249   -21779.036    1547.9937    -23327.03    51.920376    229.78752 
   15000     107.8789    -719.2255    89676.685   -21779.349    1614.2639   -23393.613    52.130864    239.62482 
   15050     109.6858   -1005.9084    89709.163   -21744.685    1641.3018   -23385.987    52.417417    243.63837 
   15100    110.84609   -931.53182    89681.323   -21739.269    1658.6639   -23397.933     52.58702    246.21564 
   15150    108.11438   -698.45842    89707.583   -21729.422    1617.7875   -23347.209    52.627828    240.14787 
   15200     107.0862   -965.53076    89730.548    -21782.03    1602.4022   -23384.432    52.670095    237.86405 
   15250    109.07683   -643.40429    89760.709   -21732.982    1632.1893   -23365.171     52.70529    242.28571 
   15300    107.27579   -937.64732     89827.44   -21757.297    1605.2391   -23362.536    52.871609    238.28515 
   15350    109.00796   -1217.5604    89801.696   -21760.667    1631.1588   -23391.825    53.160894    242.13273 
   15400     109.6046   -1088.8996    89698.964   -21735.712    1640.0867   -23375.799    53.121477      243.458 
   15450    108.48227     -1048.51    89673.649   -21763.614    1623.2925   -23386.907    53.259396    240.96504 
   15500     112.3099   -782.30268    89602.287   -21715.045    1680.5679   -23395.613    53.670749    249.46713 
   15550     107.1824   -1075.3801    89607.468   -21758.812    1603.8417   -23362.654    53.673259    238.07772 
   15600    108.18608    -952.6289     89600.82   -21746.407    1618.8604   -23365.268    53.582998    240.30714 
   15650    108.89099   -1124.0257    89541.872   -21777.641    1629.4084    -23407.05    53.614336     241.8729 
   15700    110.05718   -744.83866    89523.929   -21787.546     1646.859   -23434.405    53.569821     244.4633 
   15750    109.45533   -1028.8537    89452.772    -21794.53     1637.853   -23432.383     53.56248    243.12644 
   15800    104.40997   -1040.8146    89439.231   -21779.861    1562.3559   -23342.217     53.51786    231.91948 
   15850    106.23361   -938.06162    89411.644    -21806.73    1589.6442   -23396.374    53.570008    235.97022 
   15900    107.46572   -967.35436    89402.311   -21789.718    1608.0812   -23397.799    53.762372    238.70704 
   15950    108.40018   -840.13562    89375.288   -21775.273    1622.0642   -23397.337    54.048577     240.7827 
   16000    112.94468   -1070.6019    89372.642    -21744.23    1690.0665   -23434.297    54.156779    250.87712 
   16050    110.54498   -789.53661    89319.459   -21755.009    1654.1581   -23409.167     54.19989     245.5468 
   16100    107.36909   -666.78774    89389.579   -21784.777    1606.6353   -23391.413    54.406661    238.49241 
   16150    109.34462    -986.0354    89404.008   -21792.767    1636.1964   -23428.964    54.522986    242.88053 
   16200    108.01118   -1011.3579    89381.697   -21796.599    1616.2433   -23412.842    54.824087    239.91865 
   16250    109.99329   -814.87965    89360.244   -21800.637     1645.903    -23446.54    55.297498    244.32139 
   16300    107.21016   -1050.6941    89352.362   -21815.204    1604.2571   -23419.461    55.540378    238.13938 
   16350    104.90129   -836.39309    89292.719   -21831.832    1569.7079    -23401.54    55.445076    233.01083 
   16400    107.73051    -741.3658    89296.733   -21803.639    1612.0434   -23415.682    55.641327     239.2952 
   16450    106.38477    -790.1656    89354.401   -21813.375    1591.9063   -23405.281    56.049274      236.306 
   16500    108.53019   -1016.6017    89410.296   -21818.369    1624.0095   -23442.378    56.190296    241.07148 
   16550     107.9023   -754.78571    89449.354   -21777.498    1614.6141   -23392.112    56.125531     239.6768 
   16600    109.58863   -887.20067    89407.513   -21771.045    1639.8477   -23410.893    56.139723    243.42254 
   16650    110.01863   -1017.2375     89351.39    -21768.31    1646.2821   -23414.593    56.379855    244.37767 
   16700    106.74949   -963.68316     89340.89   -21735.431    1597.3637   -23332.795    56.562093    237.11611 
   16750    108.32261   -1016.6676    89349.391   -21745.658    1620.9034   -23366.561    56.791081    240.61039 
   16800     109.2216   -937.38003    89272.789   -21768.208    1634.3556   -23402.563    57.135094    242.60727 
   16850    105.38981   -930.09051    89229.017   -21781.363     1577.018   -23358.381    57.415025    234.09596 
   16900     107.8568   -1095.5204     89207.62   -21762.772    1613.9332   -23376.705    57.602489    239.57572 
   16950    109.07185    -1222.202    89214.568   -21739.864    1632.1147   -23371.979    57.954671    242.27463 
   17000    110.13826   -862.65472    89259.671   -21734.171    1648.0722   -23382.243    58.047431    244.64339 
   17050    111.22225   -1294.0343    89259.164   -21720.429    1664.2927   -23384.722    58.159035     247.0512 
   17100    109.71158   -956.36526    89176.658   -21722.077    1641.6874   -23363.764    58.212046    243.69563 
   17150    109.10005   -847.16217    89190.307   -21714.623    1632.5368    -23347.16    58.492794    242.33729 
   17200    110.07857   -896.46364    89170.477   -21709.654    1647.1789   -23356.833    58.823855     244.5108 
   17250    105.60272   -1402.7519    89086.072   -21781.608    1580.2038   -23361.812    59.175401    234.56886 
   17300    108.84434   -770.79179    89028.263    -21794.47    1628.7103   -23423.181    59.319571    241.76928 
   17350    104.40593   -775.17739    89022.229   -21815.378    1562.2956   -23377.674    59.591476    231.91053 
   17400    104.79931   -588.55661      89100.6   -21801.913     1568.182   -23370.095    59.796732    232.78432 
   17450    108.30086   -588.06951    89137.373   -21759.186     1620.578   -23379.764    60.016739    240.56209 
   17500    106.79086   -725.01842    89124.812   -21747.701    1597.9828   -23345.684     60.33587    237.20801 
   17550    107.90403   -798.44682    89157.387   -21744.636    1614.6398   -23359.276    60.369046    239.68062 
   17600    110.33039   -702.01951    89266.869    -21722.23    1650.9471   -23373.177    60.556787    245.07015 
   17650    106.95378   -884.79972    89320.659   -21761.063    1600.4207   -23361.483    60.784914     237.5699 
   17700    108.91276   -781.91937     89348.97    -21752.33    1629.7342   -23382.064    60.950786    241.92126 
   17750    107.57069   -986.35717    89396.835   -21730.934     1609.652   -23340.586    61.332907    238.94022 
   17800    108.73996   -1222.8445    89353.052   -21761.996    1627.1485   -23389.145    61.701239    241.53743 
   17850    108.95416   -731.79742    89402.609   -21768.626    1630.3537   -23398.979    61.932746    242.01323 
   17900    109.15265   -1175.4008    89331.971   -21773.311    1633.3239   -23406.634    61.967871    242.45412 
   17950    108.92513   -1105.3716    89319.477   -21812.064    1629.9193   -23441.983    62.026212    241.94874 
   18000    107.81067   -832.91701    89397.918   -21753.871    1613.2429   -23367.114    62.190087    239.47325 
   18050    109.49816   -989.66859    89382.774   -21732.566     1638.494    -23371.06    62.257086    243.22158 
   18100    110.02115   -832.11395    89424.369   -21688.233    1646.3198   -23334.553    62.652191    244.38326 
   18150    112.19711   -922.45734    89424.353   -21681.457    1678.8801   -23360.337    63.092767    249.21659 
   18200    109.19663   -1054.8925    89363.944   -21698.305     1633.982   -23332.287    63.438163    242.55181 
   18250    107.98468   -956.98637    89307.171   -21727.173    1615.8468    -23343.02    63.617679    239.85979 
   18300    110.50846   -916.39342    89332.721   -21737.153    1653.6118   -23390.764     63.77038     245.4657 
   18350    110.44463   -1035.7942    89313.766   -21761.065    1652.6566   -23413.721    64.034352    245.32392 
   18400    107.14379    -1071.767    89228.538   -21785.754    1603.2639   -23389.018    64.213469    237.99196 
   18450    109.07555   -1211.8739    89247.768   -21787.966    1632.1702   -23420.136    64.486952    242.28286 
   18500    107.99385   -1229.0313    89182.297   -21826.843    1615.9839   -23442.827    64.439593    239.88014 
   18550    108.52757   -1092.8001    89127.425   -21793.722    1623.9704   -23417.692    64.383999    241.06567 
   18600    108.15562     -961.946    89096.756   -21829.988    1618.4047   -23448.393     64.69421    240.23948 
   18650    107.43996   -1086.0917    89133.719   -21819.415    1607.6958   -23427.111    65.096631    238.64983 
   18700    104.57268   -800.68623    89090.098    -21799.97    1564.7907   -23364.761     65.10636     232.2809 
   18750    108.62352   -855.27659    89041.484   -21788.279    1625.4061   -23413.685    65.093534    241.27879 
   18800    106.22292   -802.42914    89003.679   -21802.021    1589.4843   -23391.505    65.169037    235.94648 
   18850    108.38058   -872.16947    89057.851   -21806.143    1621.7708   -23427.914    65.352696    240.73916 
   18900    108.28306   -970.88817     89045.55   -21719.234    1620.3115   -23339.546     65.82481    240.52254 
   18950    112.31214   -823.21404    89088.975   -21647.513    1680.6015   -23328.115     66.19728    249.47211 
   19000    110.34535   -804.73171    89189.436   -21705.794     1651.171   -23356.965    66.299106    245.10338 
   19050    108.39316   -868.24416    89156.343   -21753.057    1621.9591   -23375.016    66.550341    240.76712 
   19100    106.91604   -900.29818    89163.242   -21716.407    1599.8559   -23316.263    66.953543    237.48607 
   19150    109.66486   -545.39044    89176.505   -21762.608    1640.9883   -23403.597    67.365401    243.59185 
   19200    110.86468   -988.40133    89231.788   -21757.176    1658.9421   -23416.118     67.69678    246.25695 
   19250     105.5979   -1000.8748    89155.191   -21824.011    1580.1317   -23404.142    67.910746    234.55816 
   19300    105.95083   -714.35046    89223.104   -21836.815    1585.4129   -23422.228    68.071244    235.34212 
   19350    107.25162    -629.8818    89297.109   -21812.007    1604.8775   -23416.884    68.314394    238.23148 
   19400    107.05835    -1234.269    89329.288   -21809.075    1601.9855    -23411.06    68.491874    237.80219 
   19450    106.97966    -643.0038    89371.906   -21847.515     1600.808   -23448.323     68.61922    237.62739 
   19500    104.86339   -834.06283    89352.145   -21868.054    1569.1408   -23437.195    68.987375    232.92665 
   19550     105.8917   -839.37901    89343.569   -21861.886    1584.5281   -23446.414    69.050637    235.21077 
   19600    107.02579   -1002.8292    89324.423   -21858.242    1601.4982   -23459.741    69.020217    237.72984 
   19650     107.6683   -813.76381    89292.731   -21877.596    1611.1126   -23488.709    69.165442    239.15703 
   19700    105.58465   -1076.1062    89279.017   -21866.569    1579.9335   -23446.502    69.228525    234.52874 
   19750    105.76981   -650.93145    89296.657   -21850.738    1582.7042   -23433.443    69.304889    234.94003 
   19800    109.51808   -897.25296    89381.302   -21782.031    1638.7921   -23420.823    69.472666    243.26583 
   19850    106.80947   -761.85432    89422.401   -21806.266    1598.2613   -23404.527    69.832745    237.24936 
   19900    107.35746   -905.87114     89459.71   -21816.757    1606.4612   -23423.218    69.878186    238.46657 
   19950    104.80148   -827.64139    89407.011   -21808.654    1568.2145   -23376.869    69.993295    232.78914 
   20000    106.79154   -805.89467    89397.455   -21796.186     1597.993    -23394.18    70.192622    237.20953 
   20050    107.57198   -717.30136    89418.426   -21788.036    1609.6712   -23397.707    70.355036    238.94307 
   20100    111.13892   -935.80128    89439.502   -21776.485    1663.0457    -23439.53    70.364239    246.86609 
   20150    107.14881   -692.12688    89396.055   -21816.659     1603.339   -23419.998    70.652216    238.00311 
   20200    107.21872   -1103.8476     89374.99   -21816.883    1604.3852   -23421.268    70.654166     238.1584 
   20250    108.67896   -870.48307    89322.706   -21809.457    1626.2357   -23435.693    70.857641    241.40194 
   20300    106.99507   -1070.7256    89302.126   -21789.503    1601.0386   -23390.542      71.2025    237.66162 
   20350    107.72132   -736.06414    89304.765   -21806.287    1611.9059   -23418.193     71.49938    239.27478 
   20400     103.5556    -1101.412    89312.955    -21832.58    1549.5714   -23382.152    71.687916    230.02173 
   20450    106.37005   -888.49475    89219.184   -21817.854     1591.686    -23409.54    71.805443     236.2733 
   20500    107.83097   -923.94259     89134.35   -21848.278    1613.5467   -23461.825    71.848146    239.51836 
   20550    107.61128   -998.47374     89082.79   -21804.231    1610.2593   -23414.491    72.088061    239.03037 
   20600    108.71734   -576.11582    89112.396    -21808.37    1626.8101    -23435.18    72.271328     241.4872 
   20650    108.76537   -861.65257    89147.439   -21807.348    1627.5287   -23434.877    72.263519    241.59387 
   20700    109.37022    -915.6126    89110.267   -21783.273    1636.5795   -23419.853    72.253284     242.9374 
   20750     110.5487   -972.72934     89140.27   -21773.221    1654.2139   -23427.435    72.387843    245.55508 
   20800    105.63415   -778.07073    89070.122   -21768.023    1580.6742   -23348.698    72.643018    234.63868 
   20850    111.64908   -684.60448    89136.403    -21728.35    1670.6796    -23399.03    72.963816    247.99929 
   20900    111.76942   -916.85103    89123.436   -21733.017    1672.4803   -23405.498    72.999453    248.26659 
   20950    110.05636   -1091.2508    89116.153   -21736.957    1646.8466   -23383.803    73.231416    244.46146 
   21000    109.55509   -1123.7755    89063.966   -21742.841    1639.3459   -23382.187    73.600831    243.34804 
   21050     105.8205   -913.89168    89016.955   -21799.215    1583.4627   -23382.677    74.082492    235.05262 
   21100    106.94623   -1265.2395    88954.363   -21791.378    1600.3078   -23391.686    74.474181    237.55314 
   21150    109.77858   -980.84289     88825.34   -21758.769    1642.6901   -23401.459    74.658142    243.84446 
   21200     109.1605    -1119.952     88805.28   -21769.586    1633.4413   -23403.027     74.67479    242.47155 
   21250     109.4926   -1101.7803     88815.53   -21716.841    1638.4107   -23355.252    74.830154    243.20922 
   21300    109.78078   -964.42988    88830.484   -21702.766     1642.723   -23345.489    74.987759    243.84934 
   21350    108.53889    -482.3542    88861.976   -21722.235    1624.1397   -23346.375    75.290178    241.09081 
   21400    109.48623    -724.0377    88922.289   -21725.487    1638.3154   -23363.802    75.518183    243.19507 
   21450    112.76768   -402.25192    88988.647   -21735.403     1687.418   -23422.821    75.812999    250.48397 
   21500     108.2291   -572.99794    89086.727   -21754.421    1619.5042   -23373.925     75.89068     240.4027 
   21550    107.36936   -680.32339    89125.227   -21766.757    1606.6393   -23373.396    75.994126    238.49301 
   21600    108.05965   -1041.0692    89091.073   -21813.096    1616.9685   -23430.064    76.255152     240.0263 
   21650    105.65659    -1039.348    89070.192    -21841.86      1581.01    -23422.87    76.404259    234.68853 
   21700    110.11216   -910.12038    89149.144   -21819.793    1647.6817   -23467.474    76.432326    244.58542 
   21750    109.56974   -1022.1969    89143.199   -21790.628     1639.565   -23430.193    76.558084    243.38057 
   21800    107.96735   -784.25561    89107.684   -21808.198    1615.5874   -23423.785    76.743528    239.82129 
   21850     109.9989   -551.11668    89115.549    -21799.22    1645.9868   -23445.207    76.853123    244.33383 
   21900    110.30981   -913.02653    89148.505   -21774.697    1650.6391   -23425.336    76.972833    245.02443 
   21950    108.29173   -937.35293     89160.99    -21790.19    1620.4413   -23410.631    77.009794     240.5418 
   22000    105.65253   -755.10399     89157.59    -21817.17    1580.9492    -23398.12    77.158808    234.67951 
   22050    109.63698   -950.03828     89150.62     -21805.2    1640.5712   -23445.772    77.486138    243.52993 
   22100    107.67635    -602.6705    89222.346   -21780.605    1611.2329   -23391.838    77.491672    239.17489 
   22150    108.60283   -1047.0925    89251.252   -21820.289    1625.0966   -23445.385    77.996116    241.23284 
   22200    109.33095   -980.29063    89229.352   -21833.123    1635.9919   -23469.115    78.339232    242.85017 
   22250     105.0211    -1080.911    89304.354   -21859.385    1571.5008   -23430.886    78.647811    233.27696 
   22300    108.13867   -1128.6315     89229.56   -21835.813     1618.151   -23453.964    78.966275    240.20182 
   22350    110.04396     -1087.62    89251.316   -21837.393    1646.6612   -23484.054    78.607821    244.43394 
   22400    107.10143   -827.36564    89316.087   -21785.268    1602.6301   -23387.898    78.655087    237.89786 
   22450    108.39889   -763.03229    89329.554   -21794.276    1622.0448   -23416.321    79.015521    240.77983 
   22500    111.35484   -634.85501    89367.504   -21725.796    1666.2767   -23392.073    79.404939    247.34571 
   22550    104.56332   -583.44367    89410.481   -21776.298    1564.6506   -23340.949     79.48741    232.26011 
   22600    109.72969   -764.80289    89465.865   -21805.103    1641.9585   -23447.061    79.558803    243.73586 
   22650     110.9334    -945.7028    89495.339   -21777.625    1659.9705   -23437.595    79.926863     246.4096 
   22700    111.07037   -839.35641    89483.184   -21817.547    1662.0199   -23479.567    79.907355    246.71382 
   22750    106.93257   -915.83094     89493.59   -21833.315    1600.1032   -23433.419    80.134416    237.52278 
   22800    108.75798   -725.59097    89539.189   -21838.558    1627.4181   -23465.976    80.174034    241.57745 
   22850    109.96717   -987.22882    89535.122   -21825.746    1645.5121   -23471.258    80.468357    244.26337 
   22900    106.17104   -645.78301    89530.322   -21834.583     1588.708   -23423.291    80.938331    235.83125 
   22950    108.47111    -461.9233    89537.027   -21858.369    1623.1255   -23481.494    81.127424    240.94025 
   23000    108.83006   -735.56324    89627.962   -21849.447    1628.4968   -23477.944    80.850875    241.73757 
   23050    106.22503   -827.32326    89638.346   -21826.859    1589.5158   -23416.375    80.553901    235.95116 
   23100    107.74879   -974.38386    89641.622   -21843.512    1612.3169   -23455.829    80.609973     239.3358 
   23150     108.2334    -660.0464     89616.04   -21825.081    1619.5685    -23444.65    80.640913    240.41224 
   23200    108.33303   -686.46728    89619.349   -21819.826    1621.0594   -23440.886    80.749119    240.63355 
   23250    108.16325   -601.66506    89641.685   -21870.201    1618.5187    -23488.72    80.931222    240.25641 
   23300    106.91207   -957.82702     89642.87   -21866.122    1599.7966   -23465.919    81.119696    237.47726 
   23350    109.39493   -479.45048    89716.911   -21846.222    1636.9492   -23483.171    81.292883    242.99227 
   23400     106.5157   -929.04703    89718.031   -21876.195    1593.8653    -23470.06    81.649052    236.59681 
   23450    104.13389   -1049.3023    89700.937   -21897.759    1558.2247   -23455.984    81.664125    231.30624 
   23500    105.71006   -917.36654    89686.627    -21907.89    1581.8101     -23489.7    81.644786     234.8073 
   23550     105.1856   -1107.4793    89645.447   -21902.929    1573.9622   -23476.891    81.632174    233.64235 
   23600    108.52208   -658.65793     89626.11   -21867.154    1623.8882   -23491.042    82.027419    241.05347 
   23650    107.55329   -728.51788    89782.064   -21832.353    1609.3916   -23441.744    82.606217    238.90157 
   23700    106.35757   -798.57807    89828.253   -21842.747    1591.4992   -23434.246    82.602644    236.24558 
   23750    107.57286   -785.56874    89822.017   -21830.749    1609.6844   -23440.433    82.568276    238.94503 
   23800    105.09644   -821.19507    89914.759   -21864.266    1572.6281   -23436.894    82.613154     233.4443 
   23850    107.32672   -1149.6618    89928.889   -21836.411    1606.0013   -23442.412    82.734307     238.3983 
   23900    110.01774   -1103.4066    89934.273   -21812.513    1646.2688   -23458.782    83.018352    244.37569 
   23950     108.6659   -793.73837    89960.594   -21809.397    1626.0403   -23435.437    83.076357    241.37292 
   24000    109.08234   -632.48907    89938.436    -21792.56    1632.2718   -23424.832    83.020097    242.29795 
   24050    104.50696   -915.01846    89928.102   -21818.764    1563.8073   -23382.571     82.93774    232.13492 
   24100    106.64029   -1186.0806    89872.265   -21786.212    1595.7298   -23381.941    83.329458    236.87357 
   24150    108.79418   -895.20804    89793.321   -21804.082    1627.9598   -23432.041    83.132125    241.65787 
   24200    110.95359   -680.95062     89750.66   -21826.483    1660.2726   -23486.755    83.087905    246.45444 
   24250    109.19112   -868.28232    89744.474    -21809.58    1633.8994   -23443.479    83.339285    242.53956 
   24300     108.1803    -786.3541    89736.616   -21824.439    1618.7739   -23443.213    83.048185    240.29428 
   24350    109.02533   -925.22603    89640.763   -21802.843    1631.4186   -23434.262    83.075271     242.1713 
   24400    109.63144   -614.74369    89645.755   -21822.539    1640.4883   -23463.028    83.129147    243.51762 
   24450    109.28718   -973.58378    89636.467   -21854.601    1635.3369   -23489.938    83.517865    242.75294 
   24500    109.07646   -835.02585    89603.856   -21838.527    1632.1837   -23470.711    83.598564    242.28487 
   24550     105.4262   -706.62988    89603.832   -21837.083    1577.5624   -23414.646    83.766588    234.17677 
   24600    109.22516   -826.20976    89511.116   -21842.697    1634.4088   -23477.106    83.936123    242.61517 
   24650    106.98909   -918.86113    89488.965   -21823.705    1600.9491   -23424.655    83.976172    237.64833 
   24700    106.47992   -1109.4923    89490.043   -21859.789    1593.3299   -23453.119    84.191352    236.51734 
   24750     107.5997   -824.96905    89478.951   -21870.968     1610.086   -23481.054     84.38014    239.00465 
   24800    105.84175   -861.30042     89499.18   -21886.181    1583.7807   -23469.962    84.571909    235.09982 
   24850    108.18425   -982.80891    89526.307   -21864.216     1618.833   -23483.048    85.028328    240.30306 
   24900    107.14949   -606.36056    89579.563   -21853.218    1603.3493   -23456.567    85.241273    238.00462 
   24950     107.1129   -740.86272    89606.862   -21856.978    1602.8016   -23459.779    85.345884    237.92334 
   25000    108.22252   -1058.5152    89540.927   -21835.133    1619.4056   -23454.538    85.422667    240.38806 
   25050    107.07307   -926.70224    89493.417   -21821.512    1602.2057   -23423.717    85.194943    237.83487 
   25100    104.98362   -766.50967    89444.884   -21805.899    1570.9399   -23376.839    85.059941     233.1937 
   25150    107.05696   -918.77763    89468.935    -21817.89    1601.9646   -23419.855    85.345289    237.79908 
   25200     111.5509   -762.18963    89478.152   -21771.425    1669.2105   -23440.636    85.510454    247.78121 
   25250      108.718   -452.58536    89489.357   -21787.664    1626.8199   -23414.484    85.560573    241.48865 
   25300    108.30737   -862.84072    89446.755    -21806.22    1620.6753   -23426.895    85.679529    240.57654 
   25350    108.20781   -816.52768    89442.682   -21796.674    1619.1856    -23415.86    86.136132     240.3554 
   25400    108.93055   -965.77379    89424.682   -21801.802    1630.0004   -23431.803    86.123795    241.96078 
   25450    108.31879   -464.19832    89418.518   -21828.048    1620.8462   -23448.895    86.141145    240.60191 
   25500      106.387   -652.05031    89518.755   -21839.557    1591.9397   -23431.497    86.171957    236.31096 
   25550    106.33615   -882.47052    89541.494   -21790.942    1591.1787   -23382.121    86.419594      236.198 
   25600    109.72612   -915.12846    89551.786   -21764.152     1641.905   -23406.057    86.513771    243.72792 
   25650    110.33745   -1024.1416    89500.846   -21725.704    1651.0529   -23376.757    86.605429    245.08585 
   25700     106.4325   -705.36425    89463.093    -21760.98    1592.6204   -23353.601    86.708367    236.41201 
   25750    108.29331   -859.39404    89504.056   -21774.741     1620.465   -23395.206    86.756194    240.54533 
   25800    109.45952   -516.17669    89535.986   -21777.857    1637.9158   -23415.773    87.088654    243.13575 
   25850    108.67074   -870.02169    89531.529   -21805.212    1626.1127   -23431.325    87.251534    241.38368 
   25900    107.45876   -613.39564    89550.083   -21808.239    1607.9771   -23416.216    87.312778    238.69158 
   25950    108.81863    -977.1142    89605.073    -21821.62    1628.3257   -23449.946    87.527375    241.71219 
   26000     107.4733   -1180.1321    89518.715   -21829.669    1608.1946   -23437.864      87.7862    238.72387 
   26050    106.72554   -1062.7366    89509.776   -21838.387    1597.0054   -23435.393    87.898656    237.06292 
   26100    107.16598    -955.0844    89497.465    -21754.47    1603.5959   -23358.066    88.140735    238.04124 
   26150    109.42851   -1014.4352    89455.057   -21753.721    1637.4518   -23391.173    87.994033    243.06687 
   26200    111.65343    -956.6455    89470.661   -21759.537    1670.7447   -23430.282    87.894608    248.00895 
   26250    110.42875   -695.08913    89457.591   -21810.643     1652.419   -23463.062     88.05245    245.28864 
   26300     106.9878   -707.89335    89432.557   -21849.317    1600.9298   -23450.246    88.006419    237.64547 
   26350    106.85694   -1082.0613    89430.913   -21831.626    1598.9716   -23430.598    88.287777     237.3548 
   26400    109.95745   -865.94851     89355.49   -21796.398    1645.3666   -23441.765    88.331696    244.24177 
   26450    105.31148   -867.73106    89325.556   -21816.586    1575.8458   -23392.432    88.324495    233.92196 
   26500    106.74589   -759.91458    89280.477   -21816.846    1597.3099   -23414.156    88.355107    237.10812 
   26550    107.32065   -869.41966    89303.222   -21843.848    1605.9105   -23449.759    88.482429    238.38481 
   26600    108.05884   -836.07707    89352.665   -21837.243    1616.9565     -23454.2    88.261379    240.02451 
   26650    107.41007   -1264.6428    89324.045   -21825.777    1607.2485   -23433.026     88.11539    238.58344 
   26700    108.92918   -1178.2058    89278.889   -21790.179    1629.9799   -23420.159    87.875323    241.95773 
   26750    106.64226   -883.94026    89261.425   -21799.907    1595.7592   -23395.666    88.182248    236.87793 
   26800    108.77768   -905.51702    89234.988   -21813.917    1627.7129    -23441.63    88.238603    241.62122 
   26850    106.78397   -988.39105    89242.845   -21809.131    1597.8797   -23407.011    88.370365    237.19271 
   26900     105.9283   -762.25469    89224.408   -21785.917    1585.0757   -23370.992    88.452174    235.29206 
   26950    106.51666   -1054.4854    89238.245    -21814.95    1593.8798    -23408.83    88.835093    236.59895 
   27000    106.59342   -1122.4747    89204.291   -21840.588    1595.0283   -23435.617    89.068636    236.76945 
   27050    107.05145   -991.65462    89151.914   -21836.519    1601.8822   -23438.401    89.227504    237.78685 
   27100    106.86903   -1009.1643    89089.131   -21835.226    1599.1525   -23434.379    89.386585    237.38164 
   27150    105.08708   -948.89412    88994.551    -21846.22     1572.488   -23418.708    89.614261    233.42351 
   27200    105.89345   -851.68014    88943.688   -21806.298    1584.5543   -23390.852    89.648773    235.21466 
   27250    106.55975   -900.73033    88885.046   -21789.644    1594.5246   -23384.169    89.746707    236.69468 
   27300    109.02124   -977.93749    88839.213   -21781.287    1631.3575   -23412.645    90.354137    242.16222 
   27350    107.79532   -901.02717    88794.801   -21750.672    1613.0132   -23363.685    90.732101    239.43917 
   27400    110.29937   -683.37531    88818.604   -21756.203     1650.483   -23406.686    90.591576    245.00126 
   27450     106.9715   -582.54725    88852.089   -21800.614    1600.6858     -23401.3    90.921512    237.60925 
   27500    109.27429   -603.75447    88873.734   -21801.182     1635.144   -23436.326     91.18677     242.7243 
   27550    108.46619   -619.95082    88933.464   -21742.614    1623.0519   -23365.665    91.596932    240.92932 
   27600      106.403   -724.88936    88973.053   -21755.852     1592.179   -23348.031    91.796697    236.34649 
   27650    106.11102   -967.23243    88944.451   -21774.835    1587.8099   -23362.645    92.057141    235.69793 
   27700    108.08457   -581.60157    88969.257   -21791.139    1617.3415   -23408.481    92.199789    240.08166 
   27750    107.66927   -670.78482    88944.745   -21767.984    1611.1271   -23379.111    91.996049    239.15918 
   27800    108.07663   -672.05444    88967.121   -21733.672    1617.2227   -23350.895    92.174311    240.06403 
   27850     110.6726   -664.58797    88993.682   -21726.012    1656.0679    -23382.08    92.110089    245.83029 
   27900    108.72473    -448.8403    89020.455   -21738.907    1626.9205   -23365.827    92.129762    241.50359 
   27950    108.15336   -931.04171    89043.053   -21732.027    1618.3709   -23350.398    92.335318    240.23446 
   28000    111.59887   -712.00596    89060.004   -21698.168    1669.9283   -23368.096     92.60953    247.88776 
   28050    108.19478   -905.81006    89087.988   -21761.933    1618.9906   -23380.924    92.784273    240.32646 
   28100     109.3619   -903.80281    89022.197   -21761.672     1636.455   -23398.127    93.087516    242.91891 
   28150    108.62211   -694.77827    88875.707    -21769.89     1625.385   -23395.275    93.414518    241.27565 
   28200    106.57163   -803.23208    88896.109   -21796.849    1594.7023   -23391.551    93.731564    236.72104 
   28250    107.52903   -845.72454    88842.862   -21797.976    1609.0285   -23407.005     93.88922    238.84766 
   28300    106.81636   -709.75246      88811.3   -21815.498    1598.3643   -23413.862    93.725903    237.26465 
   28350    108.43343    -687.1618     88808.14   -21841.913    1622.5616   -23464.475    93.509106    240.85655 
   28400    107.71605   -844.91116    88792.783    -21808.37    1611.8271   -23420.197    93.523271    239.26309 
   28450    108.25867   -664.43682     88845.19   -21787.704    1619.9466   -23407.651    93.835787    240.46837 
   28500     107.2242   -876.16522    88813.142   -21790.402    1604.4671   -23394.869    94.182882    238.17056 
   28550      107.991   -810.48514    88862.013   -21792.363    1615.9413   -23408.305    94.806664    239.87381 
   28600    107.50414   -865.26089     88862.65    -21820.79    1608.6561   -23429.446    94.739271    238.79239 
   28650    105.96692   -899.57908    88832.894   -21820.342    1585.6537   -23405.995    94.697931    235.37785 
   28700     109.0061   -1093.6236    88779.858   -21785.075    1631.1309   -23416.206    95.173142    242.12859 
   28750    108.89758   -801.92006    88792.293   -21793.352     1629.507   -23422.859    95.137322    241.88754 
   28800    108.49988   -911.60917    88843.398    -21778.65    1623.5561   -23402.206    94.931106    241.00416 
   28850    105.04162   -677.58667    88899.554   -21758.751    1571.8077   -23330.559    95.080689    233.32253 
   28900    105.91224   -955.74104    88849.815   -21788.975    1584.8355    -23373.81    94.969082     235.2564 
   28950    106.90029   -876.78034    88893.467   -21783.773    1599.6203   -23383.393    95.010877     237.4511 
   29000    106.99993   -849.20574    88906.778   -21763.715    1601.1112   -23364.826    94.941906     237.6724 
   29050    109.12372   -735.37703    88947.473   -21751.157    1632.8909   -23384.048    95.050611    242.38985 
   29100      104.927   -960.90148    88987.701   -21774.226    1570.0926   -23344.319    95.104808    233.06793 
   29150    107.95675   -559.25723    89051.719   -21809.529    1615.4289   -23424.958    95.282223    239.79775 
   29200    107.25473     -699.989    89138.693   -21811.862     1604.924   -23416.786    95.168999    238.23838 
   29250    103.97349   -755.63421    89117.246   -21828.807    1555.8246   -23384.632    95.202749    230.94995 
   29300     107.3705   -595.91476    89180.975   -21823.737    1606.6563   -23430.393    95.560236    238.49553 
   29350    107.89998   -752.93311    89284.508    -21795.48    1614.5792   -23410.059    95.627797    239.67163 
   29400    108.29913   -808.84551    89282.773   -21770.194    1620.5521   -23390.746    95.647592    240.55824 
   29450    109.21649   -864.41191    89235.033   -21770.065    1634.2791   -23404.344    95.849965    242.59592 
   29500    106.62362   -554.36092    89220.853   -21749.272    1595.4804   -23344.752    96.015492    236.83655 
   29550    111.75462    -606.4454    89134.549   -21718.296    1672.2589   -23390.555    96.263259    248.23372 
   29600    109.75284   -698.41429    89197.024   -21706.386    1642.3048   -23348.691    96.328775    243.78727 
   29650    110.63677   -696.34031    89191.005   -21731.501    1655.5317   -23387.033     96.34411     245.7507 
   29700    110.08955   -733.10707    89190.106   -21738.871    1647.3433   -23386.214    96.757137    244.53519 
   29750    109.37503   -690.02813    89266.763   -21775.208    1636.6515   -23411.859    97.238115    242.94808 
   29800     109.5667   -572.75045    89281.765   -21722.559    1639.5195   -23362.079    97.352163    243.37381 
   29850    110.80622   -765.83336    89297.449   -21727.285    1658.0673   -23385.353    97.619038    246.12708 
   29900     109.0973    -729.6318    89331.301   -21784.928    1632.4956   -23417.424     97.72705    242.33117 
   29950    107.08686    -355.0923    89311.293   -21802.101     1602.412   -23404.513    97.816542    237.86549 
   30000    110.42592   -907.46071    89283.902   -21775.355    1652.3766   -23427.732    98.027451    245.28235 
   30050    108.57868   -1015.8368    89239.446   -21795.909    1624.7352   -23420.644    98.255318    241.17919 
   30100    109.53219   -633.93253    89194.211   -21806.577    1639.0032   -23445.581    98.396513    243.29717 
   30150    108.64072   -793.22095     89231.22    -21803.25    1625.6636   -23428.914      98.1846    241.31701 
   30200    105.87938   -1117.5195    89235.529   -21825.045    1584.3437   -23409.388    98.123065    235.18339 
   30250    107.69659   -965.05277    89133.119   -21816.194    1611.5359    -23427.73    97.835401    239.21986 
   30300    106.57296   -658.73257    89102.855   -21860.601    1594.7222   -23455.323    98.027598    236.72401 
   30350    106.57335   -1018.9186    89149.577   -21854.766     1594.728   -23449.494    98.202058    236.72487 
   30400    108.80348   -946.40448    89089.104   -21837.962     1628.099   -23466.061     98.56171    241.67852 
   30450    106.74916   -803.33342    89052.059   -21845.718    1597.3589   -23443.077    98.679636     237.1154 
   30500    106.59512   -970.04255    89020.416   -21813.043    1595.0538   -23408.097    98.854728    236.77322 
   30550    107.28729   -721.24187    88976.896   -21804.885    1605.4112   -23410.296    98.822453     238.3107 
   30600    108.60515   -567.06275    89024.257   -21816.158    1625.1312   -23441.289    99.042992    241.23799 
   30650    108.79038   -1035.6938    89069.767   -21825.465     1627.903   -23453.368    99.411562    241.64943 
   30700    110.12269   -873.79111    89109.456   -21807.759    1647.8392   -23455.598    99.638539    244.60881 
   30750    109.14411   -1079.9594    89080.188   -21858.026    1633.1961   -23491.222     99.80191    242.43515 
   30800    108.35349   -732.35629    89020.255   -21829.511    1621.3654   -23450.877    100.18057    240.67898 
   30850    106.53784   -899.27292    89026.935   -21842.521    1594.1967   -23436.717    100.42609      236.646 
   30900    108.70155   -1077.7161    88971.722   -21844.669    1626.5738   -23471.242    100.52516    241.45212 
   30950    106.81153   -1054.8134    88909.994   -21825.109     1598.292   -23423.401    100.49243    237.25392 
   31000    108.04968   -998.03242        88816   -21881.603    1616.8193   -23498.422    100.78755    240.00415 
   31050    104.72424   -794.73371    88825.895   -21879.896    1567.0586   -23446.955     101.3835    232.61757 
   31100     108.1475   -958.92415    88736.058   -21868.584    1618.2832   -23486.867    101.52262    240.22145 
   31150    107.08871   -727.49749    88685.784   -21873.325    1602.4398   -23475.765    101.30658    237.86962 
   31200    109.42625   -902.63569    88724.442   -21831.949    1637.4179   -23469.367    101.45792    243.06185 
   31250    111.21786   -1004.0003    88685.648    -21792.92     1664.227   -23457.147    101.60323    247.04145 
   31300    111.36049   -907.65982    88688.192   -21801.239    1666.3613   -23467.601    101.87718    247.35827 
   31350     107.7601   -713.53362    88702.285   -21809.966    1612.4863   -23422.453    101.67122    239.36094 
   31400    108.50349   -709.37969    88776.711    -21813.18      1623.61    -23436.79    101.71337    241.01218 
   31450    110.19183   -384.48615    88929.017   -21811.149    1648.8737   -23460.023    102.01822    244.76238 
   31500    110.44701   -809.00718    88982.655   -21816.735    1652.6923   -23469.427    102.14885    245.32921 
   31550    106.53914   -657.80314    89008.548   -21841.599    1594.2162   -23435.816    102.36984    236.64889 
   31600    108.56288   -859.00791    89046.757   -21850.874    1624.4988   -23475.373    102.43842     241.1441 
   31650    105.78432   -997.15714    88941.562   -21857.925    1582.9213   -23440.846    102.56184    234.97225 
   31700    106.94488   -1032.6083    88846.067   -21887.942    1600.2875   -23488.229    102.53192    237.55013 
   31750    108.63796   -1034.3269    88822.038    -21862.03    1625.6223   -23487.653    103.00383    241.31088 
   31800     106.5729   -1209.1071    88800.647   -21859.481    1594.7214   -23454.202    103.30698    236.72388 
   31850    106.40488   -769.97603    88784.133   -21893.703    1592.2071    -23485.91    103.39698    236.35066 
   31900    105.12485   -976.45433     88782.52    -21875.07    1573.0532   -23448.123    103.67766    233.50741 
   31950    102.95029   -860.16253    88695.653   -21903.453    1540.5139   -23443.967     103.9156     228.6772 
   32000    105.98942   -941.46202    88615.666   -21875.027    1585.9904   -23461.017    104.30101    235.42783 
   32050    107.26822   -729.95182    88672.743   -21848.858    1605.1258   -23453.984     104.1852    238.26834 
   32100    105.85643   -1145.0845    88723.784   -21846.141    1584.0002   -23430.141    104.48838    235.13241 
   32150    107.32178   -628.54776     88705.49   -21828.429    1605.9274   -23434.356    104.50689    238.38733 
   32200    108.92264   -755.37287    88717.564    -21808.47    1629.8821   -23438.352    104.17067    241.94321 
   32250    108.55426   -839.59574    88758.723   -21763.223    1624.3697   -23387.592    104.54897    241.12494 
   32300    110.52941   -555.11155    88808.627   -21753.928    1653.9253   -23407.853    104.62425    245.51224 
   32350    111.21943   -709.79198    88817.565   -21695.236    1664.2505   -23359.487    104.78296    247.04493 
   32400    108.31604   -454.80516    88876.572   -21703.012    1620.8052   -23323.817     105.1915    240.59582 
   32450    108.46166   -791.11693    88925.975   -21721.402    1622.9841   -23344.386    105.58005    240.91926 
   32500     108.6548   -953.30055    88956.066   -21753.938    1625.8743   -23379.812    105.57245    241.34828 
   32550    111.81806   -701.54459    88946.223   -21737.342    1673.2081   -23410.551    105.64216    248.37463 
   32600    109.56316   -762.47112    88904.507   -21740.477    1639.4665   -23379.943    105.47389    243.36595 
   32650    110.55958   -915.93035    88941.744   -21724.523    1654.3766     -23378.9    105.43916    245.57924 
   32700    108.44443   -934.21521    88911.993   -21714.436    1622.7263   -23337.162    105.67239    240.88099 
   32750     108.0241   -692.39652    88912.127   -21768.543    1616.4366    -23384.98    105.88745    239.94734 
   32800    110.03588   -497.12647    88957.579   -21765.965    1646.5402   -23412.505    106.04046    244.41598 
   32850    104.07979   -657.79113    88957.068   -21808.802    1557.4152   -23366.217    106.47615    231.18608 
   32900    108.44191   -669.92228    88937.769   -21815.127    1622.6885   -23437.816    106.87255    240.87539 
   32950    106.20964   -564.83717    88927.552   -21847.668    1589.2856   -23436.954    106.87968    235.91698 
   33000    105.29712   -348.22932    89049.965   -21839.033     1575.631   -23414.664    106.99254    233.89006 
   33050    106.30039   -598.56644    89078.523   -21829.397    1590.6436   -23420.041    106.97538    236.11857 
   33100    107.09625   -656.32801    89077.465   -21851.284    1602.5526   -23453.837    107.14656    237.88637 
   33150    108.82934    -723.0931    89085.979   -21835.741    1628.4859   -23464.227     107.4902    241.73597 
   33200    106.07715   -817.13318     89112.28   -21873.307     1587.303    -23460.61    107.51389    235.62269 
   33250    105.20429   -733.14077    89088.063   -21911.403    1574.2419   -23485.645    107.40867    233.68387 
   33300    106.22982   -614.30272    89085.118   -21929.679    1589.5876   -23519.267    107.46314    235.96181 
   33350    103.94051   -681.87269    89093.737    -21888.68    1555.3312   -23444.011    107.51926    230.87672 
   33400    105.39251   -762.96053    89091.713   -21900.309    1577.0584   -23477.367    107.76591    234.10195 
   33450    105.44048   -528.28402    89114.721   -21900.839    1577.7762   -23478.615    108.10919    234.20851 
   33500    103.79987    -579.2802    89165.674   -21890.353    1553.2266   -23443.579    108.37566    230.56431 
   33550    105.73772   -717.99158    89170.434   -21899.482     1582.224   -23481.706    108.89215    234.86874 
   33600    106.47234   -1007.7235    89120.846   -21894.227    1593.2166   -23487.444     109.3888    236.50051 
   33650    106.72906   -1143.5483    88954.719   -21860.711    1597.0581   -23457.769    109.69672    237.07075 
   33700    105.71392   -969.06905     88951.02   -21849.521    1581.8678   -23431.389     109.9491    234.81587 
   33750    108.15649   -773.66025    88938.725   -21851.422    1618.4176    -23469.84    110.22569     240.2414 
   33800    106.75182   -945.68574     88955.63   -21822.255    1597.3986   -23419.654    110.25557     237.1213 
   33850    108.55812   -825.29579    88942.199   -21803.977    1624.4275   -23428.405    110.26291    241.13352 
   33900    108.51208    -942.5277    88892.567   -21853.452    1623.7386   -23477.191     110.5111    241.03126 
   33950    107.00307   -827.23538    88843.555   -21862.944    1601.1583   -23464.103    110.87818    237.67939 
[...]
   92000    106.64343   -618.04832    89355.737   -21819.234    1595.7767   -23415.011    257.31106    236.88054 
   92050    106.24777   -1058.5249    89335.444    -21816.99    1589.8562   -23406.847    257.50222    236.00168 
   92100    107.51237   -900.76803    89264.109   -21845.793    1608.7792   -23454.573    257.44467    238.81065 
   92150    104.91637   -912.65209    89205.284   -21864.279    1569.9335   -23434.212    257.63286    233.04432 
   92200    108.00439   -755.22656    89199.552   -21851.313    1616.1417   -23467.455    257.26984    239.90356 
   92250    106.87661   -761.12522    89206.199   -21870.247    1599.2659   -23469.513    257.27079    237.39848 
   92300    103.83423    -602.4266    89267.793   -21879.627    1553.7407   -23433.368    258.02334    230.64063 
   92350    107.97609   -895.11861    89293.752   -21853.167    1615.7182   -23468.885    258.76934    239.84069 
   92400    108.77059   -844.01687    89305.091   -21850.039    1627.6069   -23477.645    258.36654    241.60548 
   92450    106.11098   -740.23805    89379.828   -21862.094    1587.8093   -23449.903    258.51885    235.69784 
   92500    106.06218   -777.42769    89347.771   -21881.848     1587.079   -23468.927    259.10186    235.58944 
   92550    105.47222    -836.7653    89394.328   -21832.249    1578.2511     -23410.5     258.9739    234.27899 
   92600    109.51435   -1052.6911    89333.208   -21789.758    1638.7362   -23428.494    258.65983    243.25753 
   92650    108.38372   -884.03979    89308.995   -21823.047    1621.8179   -23444.864    258.87083    240.74615 
   92700    108.14172   -1057.5113    89229.796   -21805.199    1618.1966   -23423.396    258.98034     240.2086 
   92750    108.02807   -891.65018    89211.114   -21793.699     1616.496   -23410.195    258.78129    239.95616 
   92800     108.7459   -811.52621    89278.458   -21813.292    1627.2374   -23440.529     258.4817    241.55063 
   92850    111.63304   -1095.2712    89294.833     -21728.6    1670.4396    -23399.04    260.06406    247.96367 
   92900    109.70493   -777.66661    89323.217   -21802.108     1641.588   -23443.696    259.55172    243.68086 
   92950     108.2887   -468.15568    89416.923   -21831.118    1620.3959   -23451.514    259.81899    240.53507 
   93000    106.99706   -767.58849    89393.856   -21817.147    1601.0684   -23418.215    260.08272    237.66604 
   93050    112.28669   -568.08424    89481.678   -21799.218    1680.2205   -23479.438     260.2058    249.41556 
   93100    109.08462   -629.63454     89499.56   -21853.578    1632.3058   -23485.884    260.31694      242.303 
   93150     109.7459    -784.6888    89517.993   -21838.229     1642.201    -23480.43    260.82071    243.77187 
   93200    109.19221   -705.36415     89642.84   -21829.791    1633.9159   -23463.707    261.02968      242.542 
   93250    110.56192   -413.23969    89781.568   -21852.647    1654.4117   -23507.059    260.78911    245.58444 
   93300    109.19486     -554.339    89871.697   -21859.508    1633.9555   -23493.463    260.74323    242.54787 
   93350    107.14771   -771.43011    89901.738   -21861.013    1603.3225   -23464.335    260.12664    238.00066 
   93400    107.01848   -663.45941    89943.125    -21839.34    1601.3889   -23440.729    260.30406    237.71362 
   93450    109.54551   -1049.5182      89952.9   -21861.472    1639.2024   -23500.674    260.55997    243.32675 
   93500    109.85505   -901.66372    89957.596   -21847.302    1643.8344   -23491.137    261.21336    244.01432 
   93550    109.37354   -1014.5834    89993.235   -21854.916    1636.6292   -23491.545    261.20053    242.94477 
   93600    107.03357   -950.77984    89978.513    -21904.05    1601.6147   -23505.665    262.11717    237.74714 
   93650    108.45788   -910.41744    90005.354   -21829.477    1622.9276   -23452.405    262.26683    240.91088 
   93700    105.13885   -1141.9335    90041.506   -21826.381    1573.2626   -23399.644    262.50445     233.5385 
   93750    108.90215   -978.43788    90085.597   -21840.194    1629.5754    -23469.77     263.2542    241.89769 
   93800    110.24113   -784.51466    90128.582   -21799.017    1649.6115   -23448.629    263.24852    244.87189 
   93850    107.83792   -865.76529    90207.757   -21836.879    1613.6507   -23450.529    263.34285    239.53379 
   93900    106.53579   -921.63868    90293.301   -21883.238     1594.166   -23477.404    263.24549    236.64143 
   93950    106.18867   -951.83914    90274.968   -21921.527    1588.9719   -23510.499    263.83813    235.87041 
   94000    108.55251   -805.56102    90322.662   -21868.434    1624.3436   -23492.777    263.82399    241.12107 
   94050    107.44645   -998.27711    90313.559   -21876.445    1607.7929   -23484.238    263.80294    238.66425 
   94100    110.13363   -1075.2139     90325.86   -21891.703     1648.003   -23539.706    263.81366    244.63311 
   94150    107.16569   -905.81777    90345.138   -21896.342    1603.5916   -23499.934    263.64877     238.0406 
   94200    104.27733    -903.4118    90333.471   -21881.279    1560.3713    -23441.65    264.25164    231.62488 
   94250    107.77442   -990.22655    90306.194   -21873.747    1612.7004   -23486.448    264.42991    239.39273 
   94300    107.71621   -870.20939    90343.117   -21848.517    1611.8295   -23460.346    264.63996    239.26344 
   94350    109.72824   -1304.8743     90291.56   -21813.503    1641.9368    -23455.44    264.35583    243.73264 
   94400    109.79438    -1372.402    90207.022   -21808.239    1642.9265   -23451.165    263.95685    243.87955 
   94450    109.30019   -885.23767    90190.072   -21820.808    1635.5316    -23456.34    264.34912    242.78184 
   94500    109.04778   -682.73123    90205.016   -21843.219    1631.7546   -23474.974    264.28523    242.22118 
   94550    109.89909   -970.20382    90222.956   -21866.132    1644.4934   -23510.626    264.62608    244.11214 
   94600    108.18661   -995.57727    90276.621   -21881.631    1618.8684     -23500.5    265.00264    240.30831 
   94650    109.28622   -1163.4549    90274.709   -21930.003    1635.3225   -23565.326    265.28204     242.7508 
   94700    106.56515   -1015.8168    90243.666   -21919.097    1594.6053   -23513.702     265.2729    236.70665 
   94750      108.002    -962.9909    90242.928    -21900.22     1616.106   -23516.326    265.32072    239.89826 
   94800     107.0965   -917.53281    90190.639   -21898.199    1602.5564   -23500.755    265.45581    237.88692 
   94850     106.6002   -908.17312    90215.308   -21857.776    1595.1299   -23452.905    265.09026    236.78452 
   94900    110.89702   -750.70437    90234.761   -21844.755     1659.426   -23504.181    265.23145    246.32877 
   94950    111.35401   -1030.2535    90277.292   -21837.516    1666.2642    -23503.78    265.07139    247.34385 
   95000    106.08104   -852.32345    90294.965   -21839.982    1587.3614   -23427.344    264.96271    235.63135 
   95050    110.90959   -1035.1343    90282.842    -21857.32    1659.6141   -23516.934    265.01735     246.3567 
   95100    111.96763   -896.52651    90275.003   -21850.952    1675.4463   -23526.398    265.25064    248.70686 
   95150    110.62201   -764.06845    90285.168   -21818.912    1655.3109   -23474.223     265.0968    245.71792 
   95200    111.97085   -1046.6239    90344.826   -21816.873    1675.4945   -23492.368    265.36053    248.71402 
   95250    109.30291    -909.7753    90332.743    -21856.01    1635.5722   -23491.583    265.73782    242.78787 
   95300    108.05159   -1268.8998    90287.746    -21861.11     1616.848   -23477.958    266.24771     240.0084 
   95350    107.53987   -939.80115    90226.219   -21860.726    1609.1907   -23469.916    266.52014    238.87174 
   95400    108.89029   -1015.4886    90192.027   -21877.374    1629.3979   -23506.772    266.75955    241.87135 
   95450    108.44341   -1025.0989    90239.491   -21864.848     1622.711   -23487.559    267.12604    240.87873 
   95500    107.25825   -819.13822    90253.684    -21881.62    1604.9767   -23486.597    267.32138    238.24621 
   95550    106.35382   -908.48316    90205.453    -21898.44    1591.4431   -23489.883    267.46155    236.23725 
   95600    105.23017   -1113.3155      90168.2   -21872.102    1574.6292   -23446.731    267.73472    233.74136 
   95650    108.25792   -1221.4611    90104.239   -21865.805    1619.9354    -23485.74    267.46525     240.4667 
   95700    106.20325   -1050.4441    90050.901   -21897.187      1589.19   -23486.377    267.45769    235.90279 
   95750    107.51165   -874.79758    90043.419   -21900.457    1608.7685   -23509.225    267.44973    238.80906 
   95800    108.43958   -1094.4095    90019.581   -21874.501    1622.6538   -23497.154    267.54289    240.87023 
   95850    108.60789   -972.15363     90013.11   -21841.524    1625.1722   -23466.696    267.40035    241.24407 
   95900    108.21812   -1155.8997    90019.747   -21875.722    1619.3399   -23495.062    267.99082    240.37831 
   95950    110.48552   -1085.2045    89931.678   -21847.597    1653.2685   -23500.865    268.28543    245.41474 
   96000    109.27489   -764.72178    89964.419   -21842.523     1635.153   -23477.676    268.44279    242.72564 
   96050    110.49418   -914.35243    89997.799   -21800.424     1653.398   -23453.822    268.68909    245.43397 
   96100      108.203   -920.73187    90006.154    -21794.49    1619.1136   -23413.604     269.0711    240.34472 
   96150    109.02635   -640.38352    90026.877   -21828.284    1631.4339   -23459.718    269.55197    242.17357 
   96200    107.76425   -765.69972    90050.186   -21834.294    1612.5484   -23446.842    269.51337    239.37016 
   96250    109.36581   -939.79521    90039.501   -21870.576    1636.5135   -23507.089    269.91434    242.92759 
   96300    107.62105    -1155.919    89968.396   -21894.855    1610.4055    -23505.26    270.37447    239.05206 
   96350     104.5667   -1012.9195    89879.637   -21909.501    1564.7013   -23474.203    269.85771    232.26764 
   96400    108.22319   -899.91458    89780.883   -21918.516    1619.4157   -23537.932    269.54013    240.38956 
   96450    108.72361   -939.95773    89756.312   -21898.862    1626.9038   -23525.766    269.75826    241.50111 
   96500    109.93847   -543.01433    89740.375   -21882.767    1645.0826   -23527.849    269.40714    244.19961 
   96550     109.2667   -788.31216    89730.367    -21861.96    1635.0305   -23496.991    269.67307    242.70745 
   96600    108.79344    -907.9123    89657.828   -21867.958    1627.9487   -23495.907    269.10302    241.65622 
   96650    108.55852   -595.40875    89623.083   -21816.788    1624.4334   -23441.221    269.46764     241.1344 
   96700    108.19653   -656.36533    89648.138    -21814.69    1619.0167   -23433.707    269.80381    240.33034 
   96750    110.71554    -998.7119    89616.144   -21823.411    1656.7104   -23480.121    269.63629    245.92567 
   96800    105.56462    -909.4956    89527.483   -21870.077    1579.6338   -23449.711    269.72217    234.48425 
   96850    105.55005   -673.16043    89511.152   -21884.327    1579.4158   -23463.742    269.50698    234.45189 
   96900    109.24949   -654.44468     89541.15   -21882.238     1634.773   -23517.011    269.29909    242.66923 
   96950    108.92267   -797.56993    89600.339   -21892.651    1629.8825   -23522.533    269.29712    241.94327 
   97000    105.90801   -680.63353    89556.801   -21909.627    1584.7722     -23494.4    269.12777      235.247 
   97050    107.76396   -484.94648     89654.89    -21898.79    1612.5439   -23511.334    269.31513     239.3695 
   97100    107.19331   -876.65017    89725.307   -21922.986     1604.005   -23526.991    268.96321    238.10196 
   97150    106.69563   -747.07061    89774.102   -21926.706    1596.5578   -23523.263    268.87264    236.99648 
   97200    106.29466   -997.82745    89726.184   -21956.579    1590.5578   -23547.137    268.62752    236.10584 
   97250    105.64119   -738.25994    89708.774   -21994.035    1580.7795   -23574.814    268.65204    234.65432 
   97300    106.32738   -1031.9192    89741.038   -21970.396    1591.0475   -23561.444    269.15639    236.17852 
   97350    105.50088   -921.31938    89677.178   -21990.161      1578.68   -23568.841    269.59392    234.34267 
   97400    103.59215   -800.12358    89672.218   -21975.926    1550.1184   -23526.044    269.41732    230.10292 
   97450    102.47315   -1176.3302     89577.92   -21951.765     1533.374   -23485.139    269.34445    227.61735 
   97500    105.37245   -840.65773      89515.6   -21960.705    1576.7582   -23537.463    269.78293     234.0574 
   97550    109.90014   -945.59314    89551.514   -21901.552     1644.509   -23546.061    270.15613    244.11446 
   97600    106.51752   -871.14188    89572.971   -21918.684    1593.8926   -23512.577    270.76809    236.60085 
   97650    107.23567   -1035.3816    89506.276   -21925.353    1604.6389   -23529.992    271.12559    238.19605 
   97700    107.52706   -821.77796    89434.783   -21916.978     1608.999   -23525.977    271.42603    238.84328 
   97750    107.12948   -1292.4752     89445.33   -21864.976    1603.0498   -23468.026    271.33916    237.96016 
   97800    103.82422   -844.96166    89373.266   -21906.669     1553.591    -23460.26    271.36746    230.61839 
   97850    108.45894     -966.038    89327.764   -21865.282    1622.9435   -23488.225    271.25583    240.91323 
   97900    109.68801   -1040.1456    89218.136   -21877.306    1641.3349   -23518.641    271.45693    243.64329 
   97950    106.32219   -922.55411    89161.785   -21874.852    1590.9698   -23465.822    271.59869      236.167 
   98000    109.15453   -778.41474     89095.81   -21848.362    1633.3519   -23481.713    272.03933    242.45828 
   98050    107.41282   -898.17587    89118.182   -21799.268    1607.2896   -23406.558    272.28658    238.58954 
   98100    108.30765   -701.32517    89143.592   -21811.118    1620.6795   -23431.798    272.01564    240.57716 
   98150     107.1632    -714.6824    89185.966   -21821.624    1603.5544   -23425.179    272.70468    238.03508 
   98200    110.16982   -1083.0802     89181.36   -21818.584    1648.5445   -23467.128    272.73902     244.7135 
   98250    107.37772   -1116.1368    89168.608   -21828.081    1606.7644   -23434.845    273.17111    238.51158 
   98300    108.91255    -686.6905    89175.849    -21824.68     1629.731   -23454.411    273.11266    241.92079 
   98350    105.70751   -785.72831    89157.086    -21838.87    1581.7719   -23420.642    273.53127    234.80163 
   98400     107.8102   -941.39566    89107.316   -21817.139    1613.2359   -23430.375     273.8132    239.47222 
   98450    108.18757   -801.25569    89072.785   -21811.504    1618.8827   -23430.387    274.03701    240.31043 
   98500    105.22058   -629.25253     89101.05   -21850.148    1574.4857   -23424.634    274.14061    233.72005 
   98550    108.02177   -919.91568    89076.684   -21830.653    1616.4018   -23447.054    273.99975    239.94216 
   98600    104.82137   -997.59619    89056.744   -21864.758     1568.512    -23433.27    273.86565    232.83331 
   98650    105.64989   -1083.1344    88995.083   -21850.147    1580.9098   -23431.057    273.97847    234.67366 
   98700    109.09356   -776.37453    88972.091   -21844.301    1632.4396   -23476.741    273.84399    242.32286 
   98750    105.78258    -910.1498    89017.601   -21861.851    1582.8952   -23444.746    273.95452    234.96838 
   98800    108.92898   -973.25738     89043.01    -21830.22    1629.9769   -23460.197     274.0435    241.95729 
   98850    110.24516   -689.76295    89013.645    -21812.93    1649.6718   -23462.602    274.15277    244.88084 
   98900    106.41988   -964.71208    88971.624   -21861.228    1592.4316    -23453.66    274.50849    236.38398 
   98950    108.83875   -594.29049    88913.348    -21829.25    1628.6267   -23457.877    274.78217    241.75686 
   99000    108.03622   -712.95031    88948.125   -21804.897     1616.618   -23421.515    275.00391    239.97426 
   99050    109.59161   -624.37426    88943.158   -21806.316    1639.8923   -23446.208    274.25153    243.42915 
   99100    108.95321   -971.02375    88923.356   -21769.386    1630.3396   -23399.726    274.41539    242.01112 
   99150    108.35432    -971.0803    88963.726   -21833.061    1621.3779   -23454.439    275.22656    240.68084 
   99200    108.66653   -653.47263    88915.489   -21874.348    1626.0497   -23500.398    275.03101    241.37432 
   99250     106.6668   -981.08892    88862.738   -21917.641    1596.1264   -23513.767    275.22786    236.93245 
   99300     105.0716   -1065.5804    88805.738   -21910.786    1572.2563   -23483.043    275.13421    233.38912 
   99350    105.30652   -769.07797    88767.675   -21912.367    1575.7716   -23488.139    275.44022    233.91094 
   99400    105.59637   -798.65076    88722.106    -21895.73    1580.1089   -23475.839    275.81138    234.55478 
   99450    107.90609   -528.75894    88741.039   -21916.328    1614.6707   -23530.999    276.00929    239.68521 
   99500    106.39145   -931.92837    88856.113   -21931.237    1592.0062   -23523.243    276.08425    236.32084 
   99550    104.83105   -791.54291    88876.446   -21942.453    1568.6568    -23511.11     276.4608     232.8548 
   99600    107.47001   -702.74493    88905.993   -21901.564    1608.1453   -23509.709    276.48359    238.71657 
   99650    107.20998    -943.9981    88946.616   -21847.162    1604.2543   -23451.416    276.82216    238.13897 
   99700    108.55311   -698.05762    88978.107    -21799.66    1624.3525   -23424.012    276.84648    241.12238 
   99750    107.53284    -829.8285    88975.102   -21792.947    1609.0856   -23402.032    276.22743    238.85614 
   99800     108.3176   -1022.1166     88909.16   -21813.533    1620.8284   -23434.361    276.06002    240.59927 
   99850    110.87828   -861.56408    88875.333   -21828.288    1659.1456   -23487.434    276.04517    246.28715 
   99900    107.83046   -976.81532    88859.951   -21823.377    1613.5391   -23436.917    276.73517    239.51722 
   99950    107.45833    -798.1569    88872.829   -21817.688    1607.9706   -23425.659    277.12953    238.69063 
  100000    106.37691   -871.11276    88894.115   -21848.654    1591.7886   -23440.442    277.45322    236.28853 
Loop time of 43.3671 on 80 procs for 100000 steps with 5021 atoms

Performance: 996.146 ns/day, 0.024 hours/ns, 2305.893 timesteps/s
100.0% CPU use with 80 MPI tasks x no OpenMP threads

MPI task timing breakdown:
Section |  min time  |  avg time  |  max time  |%varavg| %total
---------------------------------------------------------------
Pair    | 6.1034     | 18.093     | 25.937     | 173.7 | 41.72
Neigh   | 0.46295    | 1.2026     | 3.2338     |  92.9 |  2.77
Comm    | 10.32      | 17.285     | 29.278     | 170.4 | 39.86
Output  | 0.1197     | 0.12388    | 0.29712    |   5.5 |  0.29
Modify  | 3.7647     | 5.7644     | 7.3887     |  39.5 | 13.29
Other   |            | 0.8981     |            |       |  2.07

Nlocal:    62.7625 ave 144 max 32 min
Histogram: 60 0 0 0 0 0 0 0 5 15
Nghost:    670.763 ave 834 max 386 min
Histogram: 20 0 0 0 0 0 0 39 1 20
Neighs:    0 ave 0 max 0 min
Histogram: 80 0 0 0 0 0 0 0 0 0
FullNghs:  5962.12 ave 18765 max 1240 min
Histogram: 60 0 0 0 0 0 0 0 0 20

Total # of neighbors = 476970
Ave neighs/atom = 94.995
Neighbor list builds = 5730
Dangerous builds = 0

write_data		${DIR}/data.eq-${NAME}-${TEMP}
write_data		run_15/data.eq-${NAME}-${TEMP}
write_data		run_15/data.eq-het_freeze_15-${TEMP}
write_data		run_15/data.eq-het_freeze_15-240
undump          1

reset_timestep  0

unfix           2
unfix           3
unfix           4


################################################
#######         Run Simulation         #########
################################################

log				${DIR}/log.run_${NAME}
log				run_15/log.run_${NAME}
log				run_15/log.run_het_freeze_15
