LAMMPS data file via write_data, version 29 Oct 2020, timestep = 150000

6489 atoms
2 atom types

0.0 49.22 xlo xhi
0.0 49.019635930410494 ylo yhi
2.163123712572137 57.898876287427484 zlo zhi

Masses

1 18.015
2 12.01

Atoms # atomic

2121 1 6.540556907990562 23.891047792697655 17.162872470710727 0 0 0
1369 1 0.8750246364389993 1.0937893182919114 5.344790083172624 0 1 1
5033 1 1.620010286836596 8.701650160214946 19.35770360729695 1 -1 0
240 1 0.3649564569350656 20.482745958053133 17.604184791004936 1 1 0
2143 1 11.037313154493555 1.5353667641675812 2.652998872792005 0 1 1
5442 1 2.70227235930598 9.126318725464722 10.451764636730678 1 0 0
1656 1 16.050625551352002 3.422804371490993 4.257951080385823 0 0 0
388 1 10.17676248102286 20.276081465592576 20.552864030202535 1 -1 0
6165 1 20.450830133929514 0.9119489727908088 5.777122909265309 -1 1 1
3241 1 3.1725945544501313 4.233947128584696 3.145997793506556 1 1 0
1554 1 13.819795882400102 14.505252483052693 3.2847787520169636 0 0 0
1682 1 8.779380820454119 3.777878611317593 7.487454554413672 0 1 0
1670 1 9.106997481624711 15.086695280207664 19.96680723820458 0 -1 0
5273 1 12.28292866895192 5.401017866044776 6.129581703497667 1 0 1
6249 1 15.568025881588156 8.689705138094059 5.888935235127067 0 0 0
5203 1 2.461853446381865 23.63600922314646 14.624757649864977 1 0 0
1266 1 5.186495001386633 0.15353964060341108 18.993533876135682 0 0 1
3144 1 18.3701623045633 3.726646224891781 2.9838782069365406 1 1 0
1675 1 23.654914837242988 2.387777685967505 3.6043005990166055 0 1 1
68 1 5.684091737878345 6.362004918417619 20.13676318123064 0 1 1
4756 1 4.18324748929436 8.317189367861872 4.174229462918414 0 1 1
3767 1 12.66017187697354 6.70189571805374 8.885636391819803 0 0 0
3182 1 10.512293803211435 8.035712983964876 5.414702915666352 0 0 1
1686 1 8.894171482243902 4.975798736195831 4.506142961305236 0 2 1
3617 1 14.05357958581339 10.251560858515758 4.100559705275719 0 0 0
6131 1 17.648360593897305 10.83676065012893 6.79928778591 -1 1 0
5280 1 18.616981399658407 8.468119349396579 5.10518748103827 1 0 0
2896 1 20.697253136229445 8.834539583373497 7.163996154218232 1 1 1
3563 1 8.112344517276636 24.24636209831885 11.574255389776452 1 0 0
5227 1 22.400240983048356 6.160500149765196 6.653309097218011 0 0 0
210 1 3.064813584649274 11.703601766609163 3.659321324142003 0 1 0
5333 1 6.742175092410946 9.418012961373757 5.1839592789943945 1 1 1
4687 1 5.385828493072527 14.160693302884818 3.935826248009162 1 1 0
5328 1 11.508599167554664 10.22382304326072 6.979093453346387 1 0 1
1440 1 10.815893625223602 13.633110865208382 4.3051286040151835 0 0 1
1328 1 12.793535092690993 12.35701777244952 5.677939739563601 0 0 1
265 1 19.951063944040257 11.559212320684793 8.619099002364973 0 1 0
2876 1 19.89349959507874 14.596311016052402 6.991256501880333 -1 0 0
1407 1 21.234538998422114 11.923345524893097 6.064478541507179 0 0 1
4850 1 5.716130521954047 21.234986131905544 2.962093932054903 0 0 1
1553 1 4.242952459491657 17.394550428088873 5.455873951923693 0 0 0
6487 1 6.6334904410674875 15.848919937265515 5.510864378748478 1 0 1
5275 1 12.451617464534142 18.054608725982458 8.049329155688602 0 0 0
5022 1 10.524609401391475 16.429566502084732 4.086398087253157 1 0 1
1521 1 23.39019524395441 0.8596200874339263 12.035301554810022 0 0 1
1611 1 1.7724031489382441 14.291734043060373 6.897260829209939 0 1 1
5225 1 22.246401869021582 5.680809001700677 17.298622703789974 1 1 0
1391 1 17.249913593063628 15.749267702858585 7.977533176190385 -1 1 1
1768 1 3.934735792806031 18.80143843278502 2.690171239196548 1 0 0
5371 1 17.97248835609263 14.973173874480247 4.80753753581763 0 1 0
5161 1 23.01208912635203 10.650522211231676 3.451122514814636 1 1 1
305 1 15.721738682553653 11.76676047207004 2.4153837008189942 1 1 0
4566 1 6.094170119865253 19.223423206055173 6.798842052531782 -1 1 1
3707 1 5.737801686770629 14.809916376161858 8.1381999867587 1 0 0
171 1 7.5277335456975125 19.648510415129167 4.436228647103155 0 0 1
133 1 11.42350961825921 18.731044663834155 5.449826112453904 0 0 1
1756 1 9.731959297735685 21.267093248099368 5.511181109020619 1 1 0
2897 1 11.191301008677923 22.7814764162489 3.476779194631802 1 1 1
5308 1 13.533578618978513 18.994512490647896 3.864746701768305 0 0 0
5382 1 17.36231854432723 22.42712945416501 4.39973839613873 -1 0 1
4646 1 18.16153585676947 19.579539567836036 4.4599706566406585 1 0 1
3053 1 22.299011541214764 20.74084347408485 5.103587049658411 0 0 0
1643 1 1.1300422603077187 13.57579499352584 2.4960120772982326 0 0 0
27 1 21.7855811099334 24.39825132379581 10.406185527716088 0 -1 1
3443 1 5.72134793243413 23.146365927778813 5.003187699259078 0 -1 0
3289 1 0.4754626508098579 4.1196791753665485 2.5560827820456824 1 1 0
1533 1 1.2755623918767889 8.844640497072032 12.816694043708294 1 1 1
4684 1 14.781811689270892 22.94534231619936 4.816111876505005 1 -1 0
1958 1 13.636176992061044 21.36581179669743 2.914482775001299 0 1 0
5038 1 2.257264036544938 1.3091264640738671 9.796015520045916 -1 0 1
62 1 22.481080958387455 24.05755570409439 15.042662272885924 -1 0 0
6215 1 5.964079293142343 13.263365933571357 19.241193128553828 0 0 1
2994 1 23.532882707124937 9.536357641802095 10.665995325906856 0 1 0
124 1 22.68369596395711 22.735354992309475 6.731727812183393 1 0 0
4964 1 4.586642604955359 3.343131887087052 7.330465127827067 0 0 1
3136 1 10.39205589565651 22.51751826492712 11.91187037324407 0 0 1
1419 1 1.3831597587457247 9.21602648412967 3.011027571507916 0 1 1
4688 1 10.279778541876968 1.7374039128697951 6.545180818189123 0 1 1
4733 1 5.878885252521314 5.98882315528715 3.158300715283825 0 1 0
516 1 12.838467195404984 2.8575023190130717 7.297522071608556 0 0 1
4758 1 18.1757331721927 5.750940540538135 5.513587750520996 -1 1 1
3644 1 19.438465917169445 5.544060159756019 8.369034923876116 1 0 0
1850 1 24.428605770348135 12.654517322717776 7.842890144741527 0 0 0
4744 1 23.854978893579442 13.867554049930314 10.247100179881961 0 0 1
3290 1 2.450201262039818 4.9968900535963465 7.533415808972614 0 0 0
4623 1 5.457108957884437 6.53296720262246 8.348044697809096 0 0 0
1977 1 6.6798090744987055 4.264098656057079 9.347748423315972 0 0 0
1472 1 9.522969059710485 5.162494129686019 10.734907894980237 0 0 1
1385 1 15.767153695769782 3.4226939223797106 8.34797113548029 1 0 1
1337 1 14.79930972992732 5.896315276921712 4.972432246927701 1 0 1
1308 1 21.05702796850507 5.829808882334404 4.252014929641892 0 -1 1
6236 1 16.235419341877524 6.341265388033059 7.8811541585885605 0 0 1
2862 1 8.208838050350405 24.453962476068927 4.666387422668233 1 0 0
303 1 22.117172413898434 4.899552606356092 9.321996076257548 0 0 0
6183 1 1.7244967268674447 8.122103791857679 7.9172099014846395 0 1 1
1443 1 8.283624694343949 7.725687041446753 3.441908559661611 0 0 1
5029 1 4.313059243683432 9.097707739066081 6.983937580501513 1 1 1
1657 1 7.630038684436857 8.430910008958087 8.609631760216413 0 0 0
5039 1 9.75013680492336 6.437902465410802 7.903188053643683 1 1 1
1984 1 13.728491192791008 9.251365482210302 7.979239551987179 0 1 0
2947 1 14.186602544134265 5.297054178640824 10.368759336154111 0 1 0
3239 1 13.213889508053484 11.12542168654668 10.212614702713921 0 0 0
3283 1 19.56478316823872 8.225831297847252 9.613762086075452 -1 1 1
5017 1 16.56584772492241 8.708691529952455 9.641638489484542 0 0 0
3173 1 3.2855725496077395 11.830193713441252 6.347039056501546 0 1 1
4927 1 5.31482082330278 11.970902098986786 8.311228479602828 0 0 1
1805 1 8.614475426265578 13.903345354734787 6.290225865904382 1 0 1
4652 1 7.818907013393069 10.888254592366135 7.439735016694815 0 1 1
2080 1 10.43919310284376 11.37704861600324 9.092835266989502 0 0 0
4902 1 14.430516782550532 13.884795590390354 7.534626085617703 0 0 0
4982 1 15.732968770165614 11.75905584533267 8.662386074358402 0 0 0
1518 1 20.743967309560524 11.180649526120849 11.718960538588739 0 1 0
3489 1 21.503748774470264 14.580344226781195 11.243194266299614 0 0 1
3342 1 22.619590162916378 22.906602899468258 2.9532930890135884 0 0 0
3510 1 7.7672454025715325 0.7938796324421807 17.94014593938463 1 0 0
2946 1 14.655945238984755 0.7782485399957736 11.371127305751612 1 1 1
6459 1 19.817566085085627 1.1823652929232422 15.444181919330294 -1 1 0
4895 1 3.170531228435935 16.270158071406534 7.753843991341109 1 0 1
6239 1 4.11036017514268 17.165572017963573 10.161362764697284 0 0 1
5181 1 7.927590259263579 18.692470600283414 8.630194448542035 1 0 0
5341 1 12.265316645785433 15.43667018944282 8.869616288716635 0 0 0
3123 1 9.805528703408305 14.309161502137046 8.795270412604546 0 0 0
6193 1 19.02118167937082 17.84014072913792 8.753121072894894 0 0 1
561 1 17.87278841822275 13.38593336504782 9.348273515500765 -1 -1 1
2871 1 21.34025760957858 16.347119325809125 8.911620436234035 0 -1 1
4843 1 23.110777560468907 14.564827787475743 6.7262655082680025 0 0 1
2918 1 22.739755175730696 17.9620405741716 10.490754891958973 0 0 1
3321 1 16.374679826464867 1.4188230966489854 6.3883949661643396 0 0 0
355 1 3.696083727035913 19.90976371218596 10.082908978527868 0 0 0
1441 1 2.686529792305079 21.27312238590569 12.322313963495363 0 0 1
4950 1 10.759257200367259 19.03521919815355 9.873311850097716 1 0 0
4847 1 14.76382352357762 19.27596986302514 7.771195845311257 1 0 1
1753 1 15.699605718607625 18.55352945411747 5.318724739324181 -1 -1 0
3650 1 17.131010780105008 20.75065537193036 10.630775276019413 1 0 0
480 1 19.72873679830252 19.369146618859162 6.616842530802476 0 -2 0
3414 1 2.904304071574918 22.646266994658895 2.4383311551980307 1 0 1
1626 1 6.656682138353374 3.346213979627032 3.428244864685266 1 0 0
514 1 0.5083392007728401 12.18607135448718 15.085941447743744 0 0 0
5229 1 5.386810898611868 21.820003496844265 7.412919678656856 1 0 0
14 1 5.310614085396117 22.373586604003663 13.729864833547273 0 -1 0
3300 1 9.121025413237728 21.212683682562343 8.091025640521208 -1 -1 0
5202 1 7.300714187340079 18.249238265139745 20.233078825535113 1 1 1
175 1 8.298276864742483 22.536873223908163 20.50852764625825 1 1 0
5297 1 11.626176041674231 21.764866698860484 9.428266698665713 1 -1 0
6194 1 12.806302856035197 21.77938058516347 6.580049207206228 0 0 1
3804 1 18.74566384953295 21.267410428966393 8.387748065855657 0 0 0
3447 1 17.543945933750955 23.25017508932021 7.356246247595416 1 -1 1
2156 1 2.2004728088856162 6.297179743127169 4.7983234120189735 1 0 0
3682 1 11.502047645143628 4.2441936019471465 3.090880841423388 0 0 1
3375 1 5.612427295178735 3.7143575159279387 12.462112352475824 1 -1 0
3523 1 23.495294172096052 20.556429279958593 9.879830633388298 0 1 1
1 1 6.293463055447716 1.181447477269432 10.77146355889324 0 0 0
1664 1 13.426555227789803 2.739310171047047 10.21909871867883 1 0 0
208 1 0.848245777567597 10.456942370173007 17.142994795043542 1 0 0
451 1 13.447241597097891 0.22920104497759705 3.6134255260571786 0 0 0
1557 1 21.715238893258793 2.656329869423919 13.438149296357999 0 1 1
1741 1 14.40790053777872 23.75517534178581 12.568768934891335 0 1 0
207 1 1.0292879942834807 2.7461690981082105 7.605415290467415 1 1 0
4929 1 1.8994552002588403 5.816200117064636 10.18755881467112 0 -1 0
1784 1 3.0490012002189486 5.056183795861261 12.896279877465744 0 0 0
3420 1 10.60408145925004 2.8229699204651717 10.946712865845484 1 1 0
3591 1 7.301569537798692 6.000520153649638 12.501283527765768 1 0 0
5271 1 10.885379305503301 2.4273066968037327 13.60954059216724 0 0 0
1878 1 14.976022051745712 5.972379059207841 13.154186806359874 0 0 0
383 1 12.292130406670948 6.902766159475058 13.837216156924766 1 0 1
5142 1 16.22608792067371 8.430987979788485 12.420588068929481 1 0 0
4937 1 16.809081221137127 4.0381212606984604 12.833993114166777 0 1 0
1654 1 4.476554328348858 6.893861163815142 11.201106076263358 0 1 0
5059 1 4.74518160445903 9.93103997050643 12.675057705975188 1 0 1
25 1 7.140632670577331 8.603007000280789 11.589646197858114 0 0 0
3259 1 11.29048729140028 7.525078725092952 11.163560437316848 0 0 1
5187 1 14.203050247643649 10.47168403919147 12.875445278692728 1 1 0
4945 1 11.968497454020396 23.555359270896997 16.261950240220028 1 0 0
2000 1 21.551287516104832 7.853293481258532 11.581675424530024 0 1 0
6476 1 3.9433279929921237 12.04516760998317 10.652406470179118 0 0 1
3323 1 6.19593922321232 14.151675576793156 11.452339619766692 0 0 0
3674 1 9.593181475479787 9.881517110894196 11.500440834830782 0 0 0
1887 1 15.68410679194742 13.110511721501384 13.130271651957342 0 1 0
6171 1 18.641922392072345 13.616295241760664 12.40570466045657 0 0 1
5281 1 18.025371795526166 11.65130927625292 14.85071666898458 0 0 0
385 1 18.931293675367552 15.263029967489537 14.88812946344374 0 0 0
1819 1 23.295794082569337 11.44063999298463 12.913616117409155 0 0 1
3177 1 1.464427561779566 13.339588280613183 11.058320678398841 1 0 0
4777 1 5.600849336213578 10.874623939483545 2.4210496554272845 0 1 0
1902 1 13.304849602816482 3.3373056015900504 19.291335059420618 0 0 0
415 1 4.056796580830737 16.24379199662214 12.604718636337044 -1 0 0
2936 1 7.678238350689235 15.888270662569528 9.610393242428147 0 0 0
4991 1 10.43799670797645 15.949472910114068 11.731004288551373 0 1 0
1786 1 12.169916689311997 15.380996650359734 13.963263825252312 1 0 0
170 1 13.615158710803232 14.902302819463195 11.506815888873517 0 0 0
4849 1 15.526149177434574 16.952756630084057 12.279101622409545 -1 0 1
214 1 17.910297519774566 17.438665667238926 13.089255055529135 -1 0 0
284 1 19.423968220753018 19.143607762466043 11.222895245815568 0 0 1
3726 1 21.549047194622315 15.39776764986241 13.761886700528835 0 0 0
1935 1 22.136832021093124 18.206618830571642 13.021913078303516 1 1 0
368 1 1.2014545409796842 17.433943423334 11.336655211268123 0 0 0
6364 1 0.7467614986735618 23.412527500245282 11.655823294837449 0 -1 1
357 1 11.51043604546139 18.572400404841268 12.367141349343688 0 0 0
3106 1 6.572275511375582 19.3261823701305 10.87560082037292 1 -1 1
3531 1 9.669957502583628 20.07018532326613 13.635468000898886 1 0 1
2068 1 13.985521875742474 23.8724310546512 9.916834924774125 1 0 0
4602 1 16.136307326881077 18.222251873293292 9.994797443941533 -1 0 1
1782 1 13.85502792946788 18.59018747349405 13.773204145052059 0 -1 0
1333 1 20.80128197236409 20.722880844865056 13.232835382939355 0 0 1
80 1 9.865557984761544 4.4949869639384925 19.097987950195865 1 1 0
5119 1 0.5746116737469947 6.273887198636076 18.72984599887886 0 1 0
5102 1 5.785286534471854 22.26460956575444 10.81277171942318 1 1 0
3698 1 23.391305632926674 8.949320845852787 13.928921063115837 1 1 0
1833 1 17.585131184457072 5.37767908975652 18.235052528750497 0 0 0
3022 1 24.350763471213686 18.094946599695618 14.706241067144486 0 0 0
6458 1 7.503764612521567 2.670776793691042 20.049128385279516 1 0 1
1732 1 15.179423570036443 22.19275055001716 8.310215927836492 0 0 1
1804 1 15.052328570444807 21.286180306879764 14.35103729892348 0 0 0
5315 1 17.05421899319432 22.72650541518257 12.529751231852545 0 0 0
103 1 21.244836954109353 22.16626561485398 9.03458026275467 0 1 0
3549 1 19.070257629694915 9.367949209527314 2.353798426785158 0 1 0
3253 1 22.261497957221593 22.916752705444075 12.469267215704495 0 1 1
3137 1 8.644561842740003 1.3079340352679025 4.236212497049344 0 0 1
1529 1 13.77837790616776 6.3212272746492895 2.1705965989229714 0 1 1
3374 1 8.679637267981288 0.966442739464825 14.359358916818216 1 0 0
55 1 6.13323797031647 2.2091371894932976 15.233197176558273 0 1 0
4831 1 13.374030512506653 2.506077461344862 15.11548635895772 1 0 0
1818 1 15.824744075369924 1.8226806179429962 14.009658300899144 1 1 1
4809 1 17.609727697737483 1.0475293239383345 2.286354120948836 1 1 1
5004 1 0.7025596154244881 21.83901228903018 4.6274124019485825 1 0 1
4832 1 21.49292796954174 2.133745974920079 17.799783542752373 0 0 1
1815 1 1.2383574699917952 6.48461902875502 14.397456097375974 1 1 0
1836 1 4.837031304088883 5.905762156065785 15.166201319887127 0 0 0
1800 1 7.762713538601035 3.8562382864864784 17.131465468243647 1 0 1
5007 1 8.072649411291708 6.378209202420964 15.311911913230421 1 0 0
5384 1 10.729401387067224 4.922975902556189 15.270516605511286 1 0 0
3565 1 19.171694474425593 4.082777900037811 14.169479893973582 0 0 1
5233 1 16.696582954352635 7.135542173781762 16.182913230505203 0 1 0
5274 1 18.77582817806737 6.922471768047163 14.585479007059485 1 0 0
3048 1 21.265827734617073 7.753321058584882 15.74959707399075 1 1 1
5230 1 19.556775977869286 1.1236106474867085 8.422584591397483 0 0 0
5196 1 20.25080715942859 4.305176884927465 18.65654969183143 0 0 0
4597 1 19.578119048410002 21.89997942342571 16.9117010486665 0 0 1
4585 1 2.875592745648965 9.567179072432431 14.902922574720007 0 1 1
4987 1 4.546262412352385 8.473733336078954 16.740452485544687 0 0 1
5268 1 7.5886142888200325 8.706021402356352 16.434855813169413 1 0 0
3306 1 7.5603200879717765 10.362697231079947 14.310682372866072 -1 0 0
3058 1 12.277371632049283 9.483096517555346 14.803568953000447 1 0 0
364 1 15.588837572858854 9.3099599288212 17.930801631884343 0 -1 1
3314 1 20.089916181162433 12.751252822472411 16.823201273334107 0 0 1
1992 1 19.145662265277927 8.93596799725753 12.845555322473407 0 0 0
1710 1 23.49613730040504 10.015659174604426 18.22208288256114 -1 0 0
5005 1 2.0523112461571165 14.63695150987773 13.150515036531353 1 0 0
3545 1 3.62880571777644 12.551858132646103 14.728473146302013 1 0 0
1663 1 6.462605231157122 12.908453181774957 14.137647166619368 2 0 0
1633 1 10.36937112044057 11.136585544524586 13.888531733069822 0 1 1
422 1 10.752282184815448 13.505290643742887 15.69325615807459 0 0 0
1610 1 12.955016904894615 9.866561791720128 17.32515007851665 0 0 0
352 1 12.117924183663698 12.418445180690687 17.884398454384435 0 0 0
5 1 17.903295116315213 15.446286820568671 17.7285730751321 0 0 1
6185 1 14.235041009476106 13.742979872639154 15.62419349238938 1 -1 1
3309 1 20.419481226100956 16.517303492994827 18.939148006455724 0 0 0
1531 1 22.721288774623346 13.20660595140106 14.746668461478627 0 -1 0
3508 1 7.710042746368623 17.10823001030861 3.599431165474855 0 0 0
2085 1 1.1004191676913238 18.28554535209947 15.970434204749882 1 0 0
3431 1 5.090084309683648 16.96804051548849 16.942079136285823 1 0 0
317 1 3.509916604084768 17.86535890929695 15.00034914800251 1 0 0
5080 1 8.027406900312059 14.161437193395548 16.17044073382509 0 1 0
453 1 7.636261053803762 16.804879039182556 15.843740611191636 0 0 0
6335 1 15.036075151371012 15.594976100495952 17.454731483336236 0 1 1
2022 1 13.227289724350884 17.46477133108023 16.190503666619453 0 1 0
316 1 17.02203360716748 18.90545387585098 15.035810458385418 0 0 1
1712 1 22.18738570009668 14.842013157554673 17.436818020459786 0 0 1
3507 1 1.0714472073868422 19.271785772384376 13.241529308770609 1 -1 0
2988 1 5.639815967658055 19.941170149446954 15.468111115922643 0 -1 0
1961 1 7.443076808608107 18.47625679806732 13.280512869708554 0 0 1
3120 1 8.03643990080696 15.585160637554994 12.984740400968997 0 0 1
1852 1 15.466414587407241 21.47657087762286 18.711142604892792 0 0 0
5374 1 10.464938122570763 21.063361036060503 16.07454959079368 0 0 0
1426 1 14.547127504669477 22.72558210506827 16.612284470490984 0 0 1
4901 1 18.3564119282359 21.204405483040787 14.471348242617921 0 1 1
1667 1 22.196384890841134 20.32321383567242 16.013342529681317 0 0 1
3477 1 0.6871096829360787 1.454980450128844 17.619708112821066 1 -1 0
1854 1 12.400488873358988 8.480699193888668 3.176208989633093 1 0 1
4651 1 2.5504426467769936 22.58335137262636 17.387415386033563 0 0 1
432 1 5.309187509945349 5.155399367935725 17.912874197826703 1 0 0
4883 1 8.323147950129629 21.499239950364093 17.930244062336385 1 -1 1
6366 1 24.16502381885295 22.298785749167443 15.994840663042671 1 0 1
2002 1 4.7691310458639595 0.9376334177333114 8.517596701741988 1 0 0
1325 1 1.3027597578344932 1.055305961360096 14.107461577183079 1 1 1
418 1 3.2904154932545606 2.6912892994754922 15.590859320601453 2 0 0
3051 1 5.172878343894968 21.422050828302787 17.642611074629443 0 -1 1
3178 1 7.441209263794154 12.219574317918962 4.1166986942463675 0 0 1
2966 1 0.6920059463423679 2.4693392077177982 20.10923287746754 -1 1 1
92 1 3.8406447285447536 2.5193648723063418 18.31210764297399 1 1 0
2119 1 17.89649193589449 3.178362317744809 10.279852601617426 0 0 0
5195 1 17.287316845874123 23.72980023862631 18.241357719543995 1 0 0
1627 1 16.85173898249075 1.1884668365966755 17.20140190476679 0 0 1
6387 1 10.685846184659475 24.1028386415337 6.891979364922079 0 0 1
3411 1 22.110732063749452 0.2514411443175147 19.867957437315333 0 0 0
3665 1 22.27591468332122 20.348109149029895 19.170433483586567 0 0 0
1943 1 2.189790532234403 5.1846887395855825 16.685408045028804 0 0 0
5068 1 17.98438622315327 20.281356897942114 18.607242262636287 1 -1 0
2004 1 14.19321270109544 1.3243721663715413 17.633105372756205 0 0 0
5412 1 12.375624240902022 5.494216124206339 17.761193870936406 0 0 1
1895 1 17.22940606792346 3.5386212827883097 16.214157368379112 0 0 0
136 1 14.54119385499824 5.11794631009973 15.709394085572473 0 -1 0
4775 1 1.8856753496450165 19.433390793470483 5.9977371049957044 1 1 1
4995 1 23.219587631506702 3.232602865281167 16.085543464500965 0 1 1
4956 1 4.260545807214698 8.664623656289788 19.549751351628437 1 0 1
1948 1 21.13375241977259 3.011117503880215 3.792821142839233 0 1 0
2072 1 8.717946842479996 8.723182376672618 18.899283440155934 1 1 0
4650 1 11.507147230415583 8.083265693985405 18.852461339497918 0 0 1
5027 1 16.886237910420697 7.096158777118223 20.40561430888827 0 0 0
5069 1 20.684451518575337 10.039250335545132 17.38746031375399 0 0 0
5012 1 4.585514470937441 14.036203432944571 16.878054941573577 0 1 0
3589 1 17.44544992948263 12.475372271649949 4.420995983643923 1 0 0
318 1 9.333455685935942 10.700898114203609 20.595392389078743 1 0 0
1911 1 9.109516141148955 12.790427367605774 18.72018673120378 0 0 0
1757 1 1.1539771360229605 3.186278610465492 11.795990009037679 1 1 1
3648 1 16.235127031612592 11.785237012336982 16.78776311112926 0 -1 0
1841 1 17.94056521612301 12.495556977030846 19.116342168017315 0 0 0
3419 1 19.522626170601004 10.314090397218909 19.910242130795577 1 -1 0
6313 1 9.054640103659349 0.5401426081954516 10.286546566603096 1 1 1
54 1 23.596605532615946 13.069554131382265 18.87366772534342 0 0 1
3486 1 1.9315856015600297 14.676310905615633 18.001241491457506 1 -1 0
5011 1 0.9242376631011031 17.34861329619256 18.86924760206304 0 0 0
286 1 0.7249703789164207 10.654696678738224 6.7594804755353435 0 0 0
3014 1 13.77160670700467 14.063451182850992 19.545126223714465 0 -1 1
4893 1 11.033076887538325 19.08017843397719 17.98087788648382 1 0 0
5047 1 4.435902532779395 2.1150805294715718 4.4985833256404675 1 0 0
6465 1 20.618075827355646 2.8144198701792638 10.701873729760191 0 1 1
3729 1 24.585746253040977 5.8911884185039725 2.691545099054671 0 1 1
3100 1 15.386354563870281 15.757681089256572 5.409127355972489 0 1 1
6213 1 22.888265476143314 17.71415285354255 17.416902932477548 0 0 1
435 1 24.318135948173715 2.9325100950312364 10.458352420868884 1 0 0
2021 1 9.388691914889343 12.46665059636262 2.21401332901209 0 1 0
5248 1 4.890383653903126 18.893535273008297 19.08146846592255 0 -1 0
6291 1 22.824418852333203 13.858471844107974 4.089702984867371 0 0 1
4 1 8.965203037556787 17.248759006864955 18.154980216322713 1 -1 0
4905 1 14.13990769723057 18.86475152069243 18.604066848632886 1 0 1
4948 1 20.19495083573638 11.979308683987306 3.149437332955921 0 0 0
263 1 16.875302899440737 18.11249868397027 17.550308386373473 0 0 0
1457 1 22.378042536080418 5.339299993631007 12.160354813770645 -1 0 0
3663 1 11.776239232901855 23.966038863715255 13.584390903918763 0 0 0
4917 1 20.066231838494797 18.816388472713385 20.28059075055385 1 0 1
3567 1 23.002379908801977 10.189247042487446 8.12521791438511 1 1 0
1743 1 4.677097720197364 11.160800710694904 20.579915927536625 0 0 0
1651 1 17.163788269479053 0.5133305366013386 10.661773887507419 0 0 0
375 1 13.545164351343187 0.33261807473289934 6.138422018713459 -1 0 0
3151 1 7.417822164203677 23.512439426112255 8.563203387027457 0 -1 1
172 1 0.2614682602975002 15.27658424998987 4.652508483288541 1 0 0
1706 1 23.07584786735136 6.489117724814907 19.688676989135402 0 -1 0
5226 1 1.552691146877905 24.036711151953668 6.425171465633697 1 0 0
5155 1 1.2916283921064697 19.33331520750415 8.64730428970817 0 1 0
3086 1 1.3031634040582347 23.635414654603526 19.914892348437583 0 0 1
5064 1 0.29372921251401546 11.387133875340563 12.41066836597729 1 1 0
3269 1 8.416477493390293 6.585358785026953 20.668431844924495 1 0 0
1418 1 15.220245462582678 9.651248819414155 20.723022553709217 0 1 1
3639 1 17.650473566328085 2.463165201424749 20.08183145049547 1 0 0
3798 1 20.02805851687714 24.421720041100908 15.98226519194496 0 0 0
1473 1 15.509498419904252 12.54463132480475 20.693937515330134 0 0 1
2086 1 0.932093806994644 3.2871563755751216 23.96679221319189 1 0 0
5298 1 14.770391037908523 6.065687154735687 21.58845741058901 0 0 0
6228 1 5.819744717671893 4.82083193528286 24.31967819447305 -1 1 1
5232 1 0.008821375335067216 18.051112595011176 24.663754382965497 1 -1 0
3464 1 10.284431080080259 0.6913462995273836 24.568815169601336 0 0 0
1718 1 11.410676837580336 2.6654957254208123 21.051082128696418 0 0 0
2985 1 11.366534499421407 14.82089733349315 38.59469638067684 0 0 -1
3458 1 10.552711724581718 17.09189247862329 21.52606188140473 0 0 0
3509 1 20.225698750844902 1.5395140284483129 24.454610652454924 0 0 0
3279 1 20.941125740759066 6.088590369859275 21.387589286627957 0 0 1
1773 1 2.457841674071853 14.41049272428134 21.019081696483877 1 1 0
319 1 11.881571565647143 6.073467696478265 21.17216552594657 0 1 1
3522 1 3.8775897608908645 5.078024143284712 21.888012153782427 1 0 0
197 1 3.581970169401596 6.826720594237396 24.137093149165434 1 1 1
153 1 4.846796719277412 2.324018885533978 21.663024275111514 1 0 1
1286 1 10.902851254437149 5.560361836168608 23.651791726415496 0 0 1
1262 1 10.519500401596904 19.70659700350752 38.5421794650644 1 0 0
3799 1 11.679117027906452 2.8490452290806623 24.023313585650495 1 0 0
363 1 12.397383156081808 8.020864135136401 24.10905927786951 0 1 0
1458 1 15.136185234175864 7.699584789424604 24.12317661513109 0 0 1
2005 1 15.21480749889236 3.159191416581035 21.573085318846747 0 0 0
5306 1 19.368285112707774 4.394033303140954 24.465914954647097 1 -1 1
1928 1 23.159527260515564 9.12193803080456 20.8802822110598 0 1 0
212 1 21.429425233687525 6.477827041450417 24.108689814434122 0 0 0
3575 1 22.39800840008427 2.432580594098685 21.69167883301926 0 0 0
6408 1 24.343015433370578 5.863838365195111 24.18871071787735 1 1 0
5272 1 6.811760011623744 15.448368863904667 21.38916888427137 0 1 0
1387 1 5.605695971951455 8.86065439427864 38.51872610888249 0 -1 0
2873 1 7.6022930927441195 9.107879266366574 24.005690704101596 0 -1 1
1630 1 7.958091281281397 6.401461891867329 23.673536469292827 0 0 1
3583 1 10.352343917489028 13.041098610160205 24.6191304761371 0 0 0
3062 1 15.151234296905578 8.660728919367687 39.07948521267407 1 0 0
3408 1 24.310262847109406 12.660746980312691 35.65358649838627 0 -1 -1
3711 1 10.440839610413468 9.90411987826815 24.478085499752012 0 1 0
4779 1 22.248382804071433 9.31958338215825 35.73942355021609 0 0 0
85 1 24.3131955304991 2.3394786219528676 38.635177882251746 -1 -1 0
1905 1 22.43119133050106 22.347066216158897 21.34315501116995 0 0 0
5234 1 19.26129878385652 8.695792861941575 24.447699800436435 0 1 0
2007 1 21.17983862992402 11.15773472652473 24.4002477347572 1 1 0
4969 1 21.376133913568438 11.176082520544256 21.561107339048025 0 -1 1
6392 1 2.7482973715199344 20.81622704152892 38.47747692144202 0 1 0
1421 1 22.597741935770138 8.909987050745183 23.90814122276362 0 0 1
392 1 13.063389197692082 20.38832501930729 21.379814858804412 1 1 0
449 1 17.538309779581976 20.282656111579634 21.701370387485163 0 1 0
4953 1 1.0681369575526753 9.99460888265526 21.850810263634298 1 0 0
534 1 12.709335323611771 14.917135686346239 23.934302947358642 1 0 0
3604 1 11.509085724896037 11.495708510220203 22.135983641131407 1 0 0
1889 1 11.906581584545872 14.515024281990708 21.4278995828093 1 1 0
2070 1 18.553665959727113 11.999285611769439 24.32269159506489 0 1 0
5170 1 5.414406436422998 1.655758799937472 24.181064095440107 1 1 0
6431 1 20.705330919696344 15.036456182336883 24.423004814510076 1 -1 1
1601 1 17.89398459410322 14.838779590894246 24.158827409098866 0 0 1
2150 1 20.9738207759009 24.018545974037913 35.93606374056264 0 0 -1
1742 1 5.183490166224746 14.004678563986202 38.421608410845806 1 0 -1
5167 1 4.115056834380189 16.488528927437923 21.53585528326547 1 -1 0
5222 1 3.0051644919806444 14.626839537297203 24.220110129042794 0 0 0
4801 1 12.823282064137226 17.76532214418234 35.742272950413835 0 0 -1
106 1 7.1570073874628 15.885106565170704 24.061062785443 1 -1 1
4746 1 22.884761616243814 10.627183101513499 38.1309926474386 0 1 0
4729 1 7.816691070615927 19.959871636365783 22.559770013517568 0 1 0
1301 1 9.26675009472619 17.772008560292125 23.889642845201866 0 0 1
4767 1 15.149860456705087 13.48382855854183 23.653214262742733 0 0 1
251 1 13.499638329905565 17.472567912624097 21.152808719690363 1 0 0
2865 1 13.456413843511717 17.401235103931384 24.187353434253684 0 0 0
174 1 18.371660205302106 18.92181570741352 24.27186392121929 0 -1 0
5106 1 20.55014548496842 17.604840156480197 23.034609626991045 0 -1 0
4846 1 5.518859996943886 21.545379809357026 20.821287579585224 0 1 0
6355 1 16.710843608730446 19.548602856090863 38.76607831347916 0 1 -1
3077 1 23.139997927342872 22.52230418076253 36.304600600019334 0 1 -1
5277 1 2.2321446461980146 18.924427610687587 23.616141285997678 1 1 0
3206 1 20.321567991899443 15.145978525527598 21.29747261589004 1 0 0
5305 1 5.919282757081742 21.78556163386506 23.84774674163245 1 -1 0
1998 1 10.0607031767822 20.64943326848568 24.440979653220243 1 0 0
551 1 2.66618969389076 21.73693715923008 21.26056262920456 0 0 1
247 1 17.656199226254763 21.747846097244693 24.390300040084472 0 0 0
3212 1 14.92074807232333 22.441938363434343 24.448120514147863 1 0 1
1480 1 4.676936332167934 9.62565881031244 24.227585080336347 1 0 1