LAMMPS data file via write_data, version 29 Oct 2020, timestep = 100709

4896 atoms
1 atom types

0.0 49.22 xlo xhi
0.0 49.019635930410494 ylo yhi
-0.39838199551245523 60.460381995511845 zlo zhi

Masses

1 18.015

Atoms # atomic

2909 1 5.467991702269337 2.633657813263845 2.542545859417619 1 0 0
507 1 5.716323245869184 1.8065241274799493 27.738208113498768 0 0 0
4823 1 9.556510041585776 1.3584347237709276 0.8466023388535109 1 1 1
4097 1 12.840215911853152 4.279103846551145 0.4941641045740818 0 1 0
84 1 12.303594552704313 0.5473165975045737 1.1700980000249959 0 0 0
1956 1 17.70015252868614 3.5981654799699965 3.180653775068946 0 1 1
1939 1 12.536611993749748 1.443020621804363 29.95837711962246 0 1 0
380 1 10.91000562729343 19.198239378014286 29.052685105538046 0 0 0
4489 1 0.8129693448040847 1.9359885655547648 0.08832349535206213 1 0 1
567 1 3.3394854129352325 4.448698466410038 2.351007948429689 0 0 0
103 1 10.190679296899937 3.8694851868208566 0.3405327931345624 0 0 0
203 1 8.868879946609129 5.65033865164215 2.1260397365731913 0 0 0
3259 1 23.64858402365167 14.19516483386664 12.53437467825654 0 0 1
73 1 24.523331982106114 3.8835274396215236 23.484908297096435 0 0 0
3745 1 21.508231945703336 24.26797549092965 21.676913153692958 0 0 0
1655 1 15.083284775008302 0.1515210840034058 18.660478872410437 0 1 0
2878 1 23.502649927777075 2.910703827650817 0.5708303138284231 0 0 0
772 1 14.17682730343825 22.033763835736018 29.807117678940397 0 0 0
456 1 2.1317281096308744 11.674605652186905 1.2248591403687217 0 0 0
1352 1 2.9758206304446326 7.860048654882302 0.5790283134672164 0 0 0
2899 1 7.098805350655503 7.6531358184991065 2.3462903934901904 1 0 0
1757 1 12.558237253814742 0.35930792872239437 22.122271700802553 0 1 0
951 1 11.904105916690327 8.54416194534478 1.2719823214169277 0 0 1
3014 1 19.663128359614024 9.438918107636365 0.34466144254243825 1 0 0
501 1 11.345147596377744 23.891608549998473 23.147628621511632 0 0 0
2871 1 23.31732432836686 11.160774657862612 3.8947965078780955 0 0 0
133 1 23.658858688445893 7.208164758292367 0.9245155706228894 0 0 0
213 1 8.484738998389874 19.759916612450013 29.421670853566823 0 0 0
470 1 2.5337313843691973 15.431870789796626 3.6357460315030936 0 0 0
23 1 5.308270347233581 11.426769423064613 2.4422413669057086 0 0 0
3871 1 24.564247937324964 21.617278433661227 1.0047218927157813 0 1 0
1016 1 7.888038734849109 10.901332553725132 2.177142833144363 0 0 1
1378 1 13.798183982801522 10.919571112478696 0.9650521661895317 0 0 0
1832 1 15.730950330560002 13.581007652810188 0.7283072735044367 0 0 1
215 1 0.3474819497732078 10.893692486271481 20.874730646230624 0 0 0
3832 1 22.473417496140396 12.963507653888419 2.2794769706556064 0 1 0
3735 1 6.634482557454752 2.451764539634865 9.793078801108622 1 1 0
446 1 17.22679008106798 0.2806047478808607 0.35661422585731173 0 0 0
1646 1 1.655299260077012 16.82253965627126 1.7985366899336461 0 0 0
4859 1 0.6343048935441723 23.727356405211665 10.9424627907615 1 0 1
952 1 7.112977036176288 8.26148519202334 29.79771969912138 0 0 0
336 1 12.025885486543352 12.999711674825503 1.5321375072759738 0 0 0
461 1 9.37590871733746 24.095646578492165 21.268091755193034 0 0 0
3024 1 0.6422474693684439 3.5910474333303473 6.122241005904387 1 0 0
3173 1 19.024130355073474 18.398382872003822 0.6793340079609949 0 0 1
418 1 23.557355781257705 15.315581253227258 1.945874413340389 0 0 0
2720 1 24.589658607559564 17.02346816135136 28.15252131152494 0 0 0
3458 1 3.4152438662111093 20.871649081516093 2.453819986496178 0 0 1
3143 1 9.229765221714214 23.595650122958254 7.281332697093818 1 0 1
2621 1 0.41948379807103225 11.246590857913866 8.441285903891371 1 0 0
1428 1 15.839971537726344 19.130825804935036 2.7972668569474877 0 0 0
855 1 14.764267529989057 17.526632360522697 0.9742448059198727 0 0 1
1499 1 21.316326324195227 20.520369266335997 0.39325555766382514 0 1 0
814 1 21.524539211822344 19.963575209577726 3.132283865259232 0 0 1
4580 1 20.628685240899273 22.85131949386846 26.561163324402713 0 0 0
4141 1 23.711247754735208 3.61453865949862 11.182191513794951 0 1 0
3474 1 0.9722639553189147 21.70617705298812 2.3431671105690106 1 0 1
963 1 1.4293483457566272 24.40448059324775 1.0616418575185023 0 0 1
186 1 10.479199866046123 5.4534475298372325 29.24351595341009 0 0 0
197 1 21.189287644395552 16.96295242562033 29.710788015551575 0 0 0
3974 1 0.08751721838595178 1.7657461896246747 15.78671485100416 1 1 0
2917 1 2.1708819872771112 7.811771663162393 28.719852264319936 1 0 0
2567 1 12.537973101214572 21.57364941100633 0.681115127093235 0 0 0
196 1 17.70627902042848 21.55603194798148 3.109576389104502 0 0 0
2378 1 17.59670388527249 20.06566084128479 24.98090452857639 0 0 0
2916 1 0.03874815819997224 19.57354882567933 20.033893048993455 1 0 0
2303 1 21.794056047812177 22.790897818855036 4.060693605049784 0 0 1
1000 1 23.982987739483224 1.9770236008137774 26.57937675515432 0 0 0
1894 1 10.849610685692602 0.3653980450992233 27.10018604405108 0 1 0
1216 1 1.3377334384672155 2.3447120725345814 3.0470827371437115 0 1 0
4203 1 4.892845643948837 0.6295599080007757 4.121634141637544 1 1 0
1937 1 8.733899666376395 1.551236343250752 3.3776210926185537 0 1 1
4037 1 11.594355201412798 1.853536640937422 4.3863299614341535 0 1 0
471 1 9.775370184033344 24.218153117459 28.702139543468224 0 0 0
300 1 6.922301426011959 0.6043616253880171 25.43760176124571 0 0 0
1596 1 16.888595604110627 1.8670029360104639 7.473332211302233 0 1 0
1619 1 18.527126195328396 1.912200921229252 5.1710056510101055 0 1 0
1276 1 20.292202947594483 1.4615590682113322 3.3449778642306454 0 1 0
3372 1 21.693076436469905 3.615934381947974 2.610507895950204 0 0 1
1172 1 3.1608151593565057 3.892797536519897 5.2548019555470304 0 0 1
151 1 20.824046984901038 11.956963179151181 0.3132059078102186 0 0 0
2550 1 3.147527089765878 6.503167932927066 5.301434556385456 1 0 0
2648 1 7.411957089833689 4.444276613677048 6.762280624645101 0 0 0
1797 1 7.3799818297900295 3.884179923968544 3.671006083433885 0 1 0
578 1 13.005337724992945 4.202878264097256 3.176449512483442 0 0 0
1775 1 10.847208560852918 6.005279938970473 4.081835553418821 0 1 0
1811 1 15.626384332012385 5.498943370215574 4.457240901259642 0 1 0
1740 1 19.80563961291849 5.253740544630646 2.3307582912214224 0 1 0
2851 1 0.2156070229600524 9.049180140216746 2.0112488933847783 1 0 0
957 1 15.19090155878474 0.10390903343226654 6.0839992959693365 0 0 1
1393 1 4.216149479570956 7.291251824467256 2.6666435293088737 0 0 0
2219 1 3.823126212276386 10.092151311020729 3.934209477293206 0 1 1
542 1 7.780806695958283 9.049317210801908 4.725637654924833 0 0 0
999 1 12.011552046500336 8.335001549282504 4.147605065964486 0 0 1
3410 1 10.348366610497813 10.029604274056553 5.141877529285699 0 0 1
652 1 16.58257623326174 7.61503933014619 3.0045907366321587 0 0 1
656 1 19.399899565993007 8.009723164529161 2.817535244971547 0 0 1
4032 1 17.85745752794816 10.986166362576219 2.9020674895184393 0 0 0
306 1 19.79105380371308 11.080897082984976 5.071133869650972 0 0 0
3243 1 22.614147865846952 6.636916496514989 3.4858773724015277 0 0 1
3129 1 21.44308491945219 9.109033189443009 4.309541073941331 0 0 1
2681 1 1.3289894340981598 11.847021738083248 4.372690033547897 1 0 0
2020 1 5.339055256070062 10.57477457200079 6.33663550827337 0 0 1
3439 1 4.356357806701441 13.403108899167522 6.289659204875728 1 0 1
589 1 8.712715809342557 15.613172190627948 4.16182233060306 0 0 0
1206 1 7.798880619250849 11.271324235333712 7.563317676177369 0 0 0
3471 1 10.32102466530412 12.450191441158344 3.9075694200395565 0 0 1
1670 1 15.336139517887215 10.083605318469433 3.0715480323058815 0 1 0
745 1 15.053932055879613 11.481035839779915 5.511308723754354 0 0 0
226 1 20.278750472045044 13.776673806950633 4.232569002601731 0 0 0
4583 1 24.424633695528637 20.22461344940472 8.562261717467562 0 0 1
256 1 1.6928658526215628 13.696569308952176 25.52338573380551 0 0 0
337 1 6.631684035045971 14.914365792246663 2.7586724140199337 0 0 0
1645 1 3.436370134610799 16.588089010487366 6.069507853624953 0 0 0
790 1 5.714374620424195 17.84356399636252 2.067076364433676 0 0 1
2950 1 10.977627384812457 16.347752070477096 2.4553348644569026 0 0 0
265 1 12.475972919496348 12.999452075347905 5.740436868653892 0 0 0
3427 1 13.684505047693337 15.123450702531324 1.9043215095684753 0 0 1
1112 1 16.12022652935956 13.897381065108211 4.999512760757349 0 0 1
2600 1 17.475127189071273 13.928896863205656 2.8414554961711973 0 0 0
881 1 19.490182655240133 16.344069771892602 2.742172906544592 0 0 1
3580 1 22.213448639076564 16.727492899699822 3.530965665827786 0 0 1
2608 1 21.925233481727332 14.259072866456476 8.313917162047886 0 0 0
1563 1 4.7678532949963355 13.650165840969256 3.9533594309668754 0 0 0
3222 1 22.670336655164583 4.796135241140007 29.00968759919808 0 0 0
62 1 19.751922099599152 14.527386984216932 -0.13498199393657334 0 0 0
107 1 5.379268557562419 18.538565849218173 4.720621541109893 0 0 0
4527 1 9.405858919386452 19.886481875808713 3.4152031695852902 1 0 1
2138 1 8.254044955578966 18.2674878330253 5.2040577469303155 0 0 1
946 1 8.197202080906761 19.035124181574353 1.0328729828989058 0 0 1
1553 1 11.696966997271948 18.630766336160875 3.546469765571753 0 0 0
1505 1 15.539373303003519 18.153159310663423 5.419096781962207 0 0 0
2286 1 18.226769885396287 17.706664048040732 5.214450050766712 0 1 1
1051 1 19.341563041038416 19.95962432156567 4.696683562487588 0 0 1
889 1 24.59556730595524 19.60035146106815 4.353123122352021 0 0 1
3719 1 14.750615284985352 8.286082062817044 29.332157753839148 0 1 0
141 1 0.9293541360015792 22.806715060083047 5.2841183616652545 0 0 0
742 1 5.78730981700901 22.34394082054644 2.3770536427667612 0 0 1
2766 1 23.48537197360779 22.40805168627298 19.275600564733594 0 0 0
1487 1 8.162433871645321 22.793917367138754 4.562795750512989 0 0 0
176 1 13.275203846453277 20.87812849292122 3.276493584887716 0 0 0
222 1 15.619722883852852 24.48157547026618 1.8119877152054764 0 0 0
1675 1 19.785437037460763 21.085545195704203 7.070171793977521 0 0 0
505 1 10.48323650407858 17.605369405167252 -0.06362569692470971 0 0 0
1484 1 24.237703371019876 19.740248467743623 29.075078600640648 0 1 0
267 1 4.953054956671955 2.043997386137156 6.6969684897836 0 0 0
3360 1 1.5171064356152002 4.849574080235411 0.1373188542096324 1 0 1
444 1 10.793437859336796 15.718369252698214 29.907602191204397 0 0 0
925 1 0.9978122281564858 23.96518795685422 20.358578322673218 0 0 0
1695 1 17.856896271898925 0.4535380766900643 9.714503400584327 0 1 0
3892 1 21.28360445454755 1.8326967423831144 9.330335451242973 0 1 0
311 1 8.233982500784576 12.456051081615998 29.211999193859008 0 0 0
332 1 2.6519899159242075 3.771866072885539 9.522717162979783 0 0 0
3046 1 4.600802605519134 5.862520985399451 11.909663683101506 1 0 0
607 1 5.141709026270715 5.102811578283442 8.502954467054732 0 0 0
484 1 11.631096274452245 2.735981745164768 7.1848156067236895 0 0 0
3805 1 10.792208036000355 5.847264375154187 6.8957589112562 0 1 0
554 1 15.751072393540964 6.5373548529263985 6.790116951634937 0 0 0
1784 1 20.72884578511622 3.0966188454591457 6.871754444198766 0 0 0
2214 1 20.244409045504604 5.790696383891497 7.162765364560261 0 1 1
543 1 12.793468850562409 0.1563271822470571 17.187340116249587 0 1 0
234 1 0.9197303710191467 7.5150354386907505 6.012180806903978 0 0 0
598 1 0.825680070817407 8.061529094230933 8.616296076031794 0 0 0
2460 1 4.319271779242239 7.816545943457286 7.5056793117285965 1 0 0
3028 1 7.34800784002133 7.396856610583959 6.768638937898894 1 0 0
129 1 9.158118708117799 7.898064737978873 9.012402045080831 0 0 0
1426 1 7.081173302562139 9.07003295594488 10.229510815497724 0 1 0
2450 1 13.178433455225836 7.462406143049492 7.139153886380821 0 0 0
729 1 13.731478339361582 10.289931267819211 7.574833766238143 0 0 1
416 1 18.164510116882752 7.867046725891296 7.392160943519522 0 0 0
3513 1 17.735155961572485 10.566046394608028 6.58765403579362 0 0 1
4827 1 21.754668161078033 8.230724553430473 6.953792692807239 0 1 1
3608 1 7.017451530544709 22.155282858727208 -0.03735568218369817 1 0 1
2966 1 10.49124629065641 10.243660422844037 8.146026013363795 1 0 0
2479 1 13.208383993603494 13.033445773307234 8.63648577082521 0 0 0
85 1 15.598221739562579 9.800038117299577 9.247681000472946 0 0 0
2436 1 18.65506011286497 11.890977585928775 8.693368299334457 0 0 0
1027 1 0.7118260742598485 14.40492432495316 0.3880916124626429 0 0 1
438 1 10.659471484453912 12.944899896110538 29.604925086035504 0 0 0
4071 1 1.6507295578608154 12.990435384549391 6.769885036312586 1 1 0
4811 1 0.8974468346363524 15.614027286580704 8.169872376265696 1 0 1
243 1 6.50867391013106 14.387373604114352 8.319107459838994 0 0 0
2512 1 8.747981884514289 13.585966406880525 6.286635415327007 1 0 0
4206 1 10.604981883212188 14.945083682693188 7.95734849316241 1 0 0
295 1 17.373174938159526 14.267632719545833 7.329456323244439 0 0 0
384 1 13.899856743893995 15.379006200236216 4.687261396290432 0 0 0
2384 1 15.310109095800064 14.989948111246498 8.879310782771018 0 0 1
853 1 20.998065910821957 15.57351511540166 6.354125413793982 0 0 1
3118 1 15.693241387084429 22.551429234993613 27.149397963516407 0 0 0
3256 1 1.9254000586549895 18.971352649404682 6.6792806779963065 1 0 1
148 1 6.004866015322821 17.279074295199834 7.559134813200933 0 0 0
137 1 9.684006758608625 17.624051019022225 7.393818458656848 0 0 0
43 1 12.21118826759633 18.591601208747086 6.221939654965336 0 0 0
1920 1 13.207277280737848 16.36839312603419 7.414050742978818 0 0 1
2046 1 18.97588833441579 16.489093571843178 7.38622760289622 0 0 1
3825 1 18.49817658126554 18.043444910800822 9.778648552937552 0 0 0
2755 1 23.337227020868607 17.659150838975574 6.125185886570765 0 0 0
861 1 21.119294578264753 18.536215761297186 10.088304712974459 0 0 1
166 1 0.3709811244944148 3.963759084951697 18.011322050028433 0 0 0
283 1 22.09611105190528 22.3250215083244 14.707519412634355 0 0 0
3029 1 5.071828077412911 21.145092583341892 7.8406409190373765 1 0 0
1324 1 3.610778313078254 20.746202090567756 5.3266750563645 0 0 0
486 1 7.770370602966001 20.501823027541953 7.401485862975449 0 0 0
120 1 13.047158237943416 20.827012327257 7.624804963695903 0 0 0
614 1 11.879091735009482 23.104789120823046 6.578803637207242 0 0 1
1330 1 15.433147396541786 20.71441165233042 6.495929277654593 0 0 0
1457 1 17.22103876640972 20.612817492060568 8.664506149915118 0 0 0
1656 1 22.134170406371517 19.29770486684676 7.8236686733409115 0 0 0
3721 1 20.355285977834217 24.287934601371266 13.175455328502137 0 0 0
3812 1 4.876678619234245 1.391071100925858 12.154200516446654 1 1 0
2643 1 23.93303343662701 10.789346360280348 12.200176381354883 0 0 0
409 1 13.350599529376918 2.9161299863757044 9.364631776937124 0 0 0
1744 1 12.845549893677859 22.27547048831499 21.77230141626996 0 0 0
684 1 2.7112414329431407 16.051307209145385 29.535749045867693 0 0 0
4148 1 20.663771789424406 3.386595024297248 11.355055643408411 0 1 0
2715 1 24.21537422573122 21.944620534250667 10.880087300819213 0 0 0
2699 1 24.21060781321621 1.0246285973947107 12.687902522426096 0 0 0
2668 1 3.2632141936259376 3.4983823010044928 12.13736564777554 1 0 0
3699 1 9.276204029545912 3.760172580956742 8.358166060206825 1 1 0
1769 1 5.395184788449509 7.687044536055091 13.702642331785706 0 1 0
1587 1 7.304952089272314 4.421719491563845 11.7167555610653 0 1 0
1608 1 7.749734273388231 2.9327156780411427 14.298168095443136 0 0 0
664 1 12.395228705453277 4.65258445488624 11.14802198609987 0 0 0
1448 1 14.489530797386104 6.459338762668642 11.333979775075004 0 1 0
464 1 15.615668675732236 4.104787912715808 8.051562424965788 0 0 0
818 1 16.59355530708926 5.031989660635353 10.524098160671343 0 0 1
2845 1 19.909656939098696 5.66509067482191 9.907678175961312 0 0 0
472 1 20.670346087417418 6.021883093128032 14.975828108682128 0 0 0
4083 1 23.283519701618907 5.910032119422922 12.839739720360804 0 1 0
375 1 21.269440931888887 7.255160322259734 11.087488554728223 0 0 0
551 1 3.3246020839981507 7.5483958821501735 10.29189861367531 0 0 0
895 1 7.931130361245942 8.570220751737647 13.10169020255628 0 0 1
2948 1 12.284961630739218 7.848421215393227 9.760550932814578 0 0 0
2143 1 9.531822772143848 5.511871281857062 10.595570532909239 0 0 1
453 1 17.701854576905966 7.8994478979823555 10.01568311675038 0 0 0
2248 1 16.75631423725198 8.533166204600127 12.588076526600998 0 0 1
564 1 22.100588183139074 9.752556785132828 10.187119951925109 0 0 0
3135 1 1.9189720780496102 13.800869345324454 10.216978721260885 1 0 1
3257 1 3.4485428945907284 1.002137913853893 8.830389551023504 1 0 1
266 1 4.885844370179684 13.904369407190552 10.824575658084727 0 0 0
611 1 7.371627511549281 11.916006267528612 10.405295946372323 0 0 0
225 1 9.663191099050252 12.684015354938499 11.590238943177988 0 0 0
1253 1 11.745236538050358 11.36729227021682 10.529534832983098 0 1 0
305 1 13.73721750068835 9.648271001560433 11.53800874814325 0 0 0
253 1 15.901380619458182 12.284779456048934 10.786323656114423 0 0 0
230 1 16.560163070845395 12.44442899820206 13.5413726733813 0 0 0
799 1 18.354567368842563 10.818291590355253 11.208440381939074 0 0 1
132 1 21.14369405707322 11.596602039883471 7.518658726250604 0 0 0
3000 1 19.812804992875503 20.383417267784903 28.416090559568687 0 0 0
2556 1 2.627459000126365 16.87838805939943 11.93814528526816 1 0 0
867 1 1.0989383285710943 14.835074819991734 12.258952430112076 0 0 1
1380 1 5.57480527794555 16.402448670050752 12.347602126160233 0 0 0
41 1 7.7904166729765905 16.231739976451575 10.338630163146256 0 0 0
1762 1 10.09492516543731 14.90208360853714 10.737337986295515 0 0 0
168 1 12.18314482815275 16.54858243246216 12.083670305204622 0 0 0
1788 1 14.91967845830196 16.468426546771898 11.135076403373835 0 0 0
340 1 20.8243258743091 14.230795238034315 11.016504151565963 0 0 0
396 1 16.53072678539683 15.289972702233186 12.960283360226892 0 0 0
298 1 20.53638565226417 11.761154643462987 11.750991241810631 0 0 0
3956 1 1.640645458694127 17.916159062111113 9.57173209335634 1 0 0
212 1 22.418331409171955 0.21021732006515886 17.71577982986975 0 0 0
2359 1 13.579203182600274 6.841952382540153 -0.21817806808666737 0 1 1
373 1 4.7178088575167445 18.785427724104043 9.557807070768776 0 0 0
2835 1 7.1710693561607455 18.827393641861505 11.750867041658417 1 0 0
3459 1 9.308207994743071 19.20934387350816 9.702527002434518 1 0 0
3918 1 11.593784762964669 19.22329461548682 11.574474925597409 1 0 0
823 1 15.943910681838137 19.020086440288797 10.843184786735543 0 0 0
262 1 19.017300207120087 16.01866677554941 11.496490429537552 0 0 0
511 1 16.469185172669015 19.537990058588772 13.380652416309834 0 0 0
1980 1 22.637068182789076 18.344950985414908 12.279573854799937 0 0 0
3041 1 20.364806882544947 17.67724083630269 13.741482164146337 0 0 0
2781 1 2.5161255501173487 21.11167952772025 9.628740683330799 1 0 0
609 1 24.352947290899913 14.743723665417017 9.573412369903489 0 0 0
937 1 5.103054298610477 23.559046865470084 9.601335887750093 0 0 1
284 1 6.3949696536306995 21.586310838888505 11.193219436797664 0 0 0
1677 1 10.59223293799203 23.352849388228737 11.441525918839698 0 0 0
1525 1 8.941748744427457 22.165451137222266 9.738799159058988 0 0 0
259 1 13.601101378348407 22.975565724490984 11.650955165495262 0 0 0
1821 1 13.809265727084021 20.5738038790438 10.253281865819874 0 1 0
1812 1 16.664299891836116 22.6167752109949 10.665397462900975 0 0 0
4233 1 1.1418265395825282 4.756669009753521 23.679262523658196 1 0 0
2706 1 20.109309995896115 21.358250075040644 10.579277757136985 1 0 0
4029 1 18.490072499775437 21.651880888499047 0.372831074981515 0 0 0
65 1 22.060781875295074 23.1093519918223 10.42675955586246 0 0 0
364 1 2.580580969039189 0.8028737392836025 16.53076527481682 0 0 0
1507 1 0.6004086613257495 4.018819161732041 13.608753105968026 0 1 0
413 1 16.20267157298004 6.922780629987866 0.2370304679884968 0 0 0
2491 1 24.07105427246152 12.110322786734399 6.575452620667648 0 0 0
323 1 5.452274986591949 3.7871022997341024 16.682542695288518 0 0 0
1681 1 11.031903509349439 22.6484247354733 3.8686622904609624 0 0 0
1092 1 9.361755655483442 0.2900604838769665 24.896457839964715 0 0 0
2965 1 8.324209801637098 1.3194486439616138 29.406608658782496 1 0 0
1667 1 10.475619790796333 1.8284466794372645 15.060422837327726 0 1 0
3007 1 17.76338488624152 2.7321572547794446 11.470963325164448 1 0 0
3480 1 18.29687243974157 2.874769656746691 14.316560223523044 0 0 0
4298 1 5.396594854893578 1.6288070967029966 0.017390539506231095 0 1 1
1566 1 0.6896421562902519 5.789504201365101 11.201226140718918 0 1 0
325 1 5.014781692810492 1.64496162332071 15.12569031079613 0 0 0
4732 1 6.463884507008338 6.313100107945998 15.598640524603441 1 1 0
1146 1 9.095590773153859 5.32939916956946 15.4914418288226 0 0 0
2230 1 11.195004465784528 4.5515984141330765 17.119709630394627 0 1 0
696 1 13.837525950357614 1.3111906814743621 14.952966578761641 0 0 1
572 1 18.04413619688863 5.369624105140209 15.454160569138121 0 0 0
2499 1 21.24535899655392 1.8336091471704776 13.893563545987607 0 0 0
2504 1 1.6053810972178455 7.0960112804413935 16.4606798118467 1 0 0
377 1 2.7702815165442995 10.01826339640232 11.958207877865553 0 0 0
1673 1 3.5719358055569423 8.809537564022426 15.65256876888418 0 1 0
1508 1 9.748303608524274 6.600642173648639 13.142882254933658 0 1 0
26 1 11.62985447488766 8.733884302750331 13.551172957671701 0 0 0
832 1 13.839626587457554 6.9026830658972385 14.225962271572714 0 0 1
837 1 17.655006417648963 10.409579544677168 15.779134788304543 0 0 1
2738 1 18.80967634296452 9.73902653849438 18.43291360489926 0 0 0
1239 1 22.335716239378836 8.046815671865161 16.116436314072153 0 1 0
9 1 1.385152769865131 10.085401636603313 14.266110117582107 0 0 0
366 1 5.206054644872279 11.566909405068607 12.693566780354242 0 0 0
877 1 4.475040307373614 12.893726789155107 14.960293678668119 0 0 0
427 1 7.290421023105368 10.788386188948563 14.430163690654696 0 0 0
2772 1 9.487727830636922 12.506463842924736 14.357409477179973 0 0 0
1803 1 11.756844724445267 11.200479540371626 15.254290084593743 0 0 0
1622 1 14.270912787178961 12.467223383091168 15.439990339219918 0 0 0
618 1 16.412304985190026 13.480170393630107 18.235711499854894 0 0 0
2855 1 20.12360009119809 10.909177714485413 14.492357693600535 0 0 0
173 1 19.273028295700264 13.730012961249324 14.629224490047022 0 0 0
2631 1 22.215948006317532 10.9800078859445 15.772492059295615 0 0 0
3945 1 1.7568004625200113 12.980422478363964 14.178091538900404 1 0 0
1383 1 5.943590352344497 15.119634766080797 15.096229494571357 0 0 0
1367 1 8.346568510880248 14.388416985490297 16.102577964700924 0 0 0
3713 1 9.4074976114026 16.970802235721386 15.542325553121128 1 0 0
3931 1 13.772167552623737 14.82691387309255 16.618750237281244 1 1 0
1791 1 18.969986445747768 13.286377718804173 17.421767565285084 0 0 0
313 1 22.779096997551953 13.687590872927982 16.352431077363683 0 0 0
571 1 21.584342367429453 14.993405348471974 14.12520910330414 0 0 0
42 1 2.8531876169937687 18.818756012062323 13.873778367260094 0 0 0
2769 1 0.6798933059220055 11.436236015029506 11.066148413313053 1 0 0
1691 1 2.4349202325972796 21.08506558657582 12.368257801462878 0 0 0
475 1 7.922429543250869 19.106086547650456 14.392794962172832 0 0 0
184 1 11.876999007307072 15.98731002124526 14.651936002344554 0 0 0
3968 1 12.655368325030375 18.838272849883875 15.491778861078622 0 0 0
358 1 14.951163781729155 17.31249428634918 16.653109065746946 0 0 0
2774 1 17.14569777252503 17.194384399416137 14.812065807371454 0 0 0
2595 1 19.91053351593866 20.305446054834857 14.577300852375291 0 0 0
2513 1 1.3493406873855858 24.261155235014883 15.976673397676812 1 0 0
275 1 3.604846976533156 23.837901404427317 4.875012295413385 0 0 0
1649 1 5.83685396173266 23.255243285061333 16.34117272574685 0 0 0
2994 1 6.938808470224364 23.135231553563756 13.862833057310505 1 0 0
4282 1 8.953701597809442 21.699997276929373 15.295526942975377 1 0 0
44 1 11.411006758050119 21.091440630667616 13.664738387593227 0 0 0
1207 1 14.903605078248177 20.666852261727467 15.37183493664145 0 0 0
1659 1 13.74263698882577 22.775184920018987 14.084936171773299 0 0 0
4047 1 17.72327415500071 21.08963142870908 16.73650485413633 0 0 0
2940 1 18.605844176755948 21.84744527608297 12.667075311230057 0 0 0
2860 1 22.012945677375775 19.257190033967852 27.081265981659318 0 0 0
3835 1 17.304079912110033 20.314129214621886 27.5189248746297 0 0 0
513 1 7.094800314317581 2.702599005545939 18.528107245905975 0 0 0
594 1 20.311742447705853 0.9571753585553494 24.604302998533786 0 0 0
268 1 10.323391877126573 1.6454612423933879 17.875238226858166 0 0 0
537 1 0.6120677519420642 19.19477787677028 15.596235662061781 0 0 0
3765 1 15.772955591991838 3.182540707706765 16.06180587027057 0 1 0
1363 1 16.69678104633753 2.1378935389285108 19.025978129772188 0 1 0
815 1 19.398054317602515 1.504261205550938 20.364604555184048 0 0 0
1806 1 22.320804153321447 2.919901178404941 17.714513555340684 0 1 0
382 1 23.129246249322176 22.619691737841023 27.82889834810939 0 0 0
1453 1 2.964553614310616 5.079871040816669 17.92650628997199 0 1 0
2981 1 3.361672126972872 5.639045069927181 20.77357450004836 1 0 0
189 1 8.856109025432952 4.725189166460894 18.851191118295183 0 0 0
153 1 11.808087647153913 3.843174623543615 13.473775817225462 0 0 0
1425 1 13.522219189384625 4.8286642584366986 15.418365909773414 0 0 0
2881 1 20.38781887879953 4.021746251921097 19.538414097081947 0 0 0
1491 1 17.967784160985737 5.63795045639355 18.161237694448168 0 1 0
4797 1 22.905849775412943 3.6953923569893297 14.902879595407635 0 0 1
1517 1 0.6176628162913298 8.885414657209479 17.94656906106802 0 1 0
1087 1 7.207128666260146 10.86314675974009 17.133891307440475 0 0 0
2988 1 6.20826094687305 8.267624403735068 17.516144262053064 0 0 0
201 1 3.1919363119903967 10.16102056575635 18.476929193811106 0 0 0
1403 1 13.491565572418876 6.285777293031159 18.085562860738925 0 1 0
287 1 10.952455770549328 11.055413399618505 17.895907575069643 0 0 0
569 1 15.33887867337821 8.127631322945229 17.89297898623254 0 0 0
1789 1 16.329972880910994 7.810116068268198 15.60334797435883 0 1 0
1417 1 14.984132220736585 11.094617016702376 17.738399601807153 0 0 0
126 1 20.740990204167336 7.128197556562783 18.590433131752814 0 0 0
2500 1 23.157616536693503 7.17654927691857 19.747284115188673 0 0 0
66 1 24.48996203180733 7.771797080040965 17.53998329176914 -1 0 0
547 1 5.482212553653891 24.224058916536094 19.03165149578566 0 0 0
1104 1 1.3174622635630044 12.719205484511148 18.541130553467333 0 0 0
3002 1 4.934534807223711 12.139389336404872 17.69397367628566 1 0 0
586 1 5.14607323251405 14.317996618750266 19.464191290672648 0 0 0
251 1 8.769990705489768 14.870715629759447 18.99589400684842 0 0 0
149 1 8.749902411552101 12.005935275157057 19.390566221882864 0 0 0
2904 1 19.02163574545744 14.160678928403346 21.056127304751456 0 0 0
443 1 21.010657682330564 11.726785983653526 18.27525291128938 0 0 0
150 1 3.7288976005214276 0.3686721856538944 29.415661892886764 1 0 0
4241 1 21.99801295830357 13.516384143389793 20.626161568989815 0 1 0
1668 1 11.85540145482479 23.991837795726987 16.190348863974634 0 0 0
3032 1 4.974378274909247 16.873281076175672 16.78719086946302 1 0 0
4201 1 2.5404600600677 16.288294892811802 17.739632473306614 1 0 0
290 1 7.61804314751365 20.265469910725564 18.097088964163802 0 0 0
1 1 13.212405951513801 15.385681916764051 19.166664086443795 0 0 0
451 1 19.492232792551242 16.90420277392574 16.425168587899037 0 0 0
178 1 21.629569584264168 15.24482329381977 18.257546139688618 0 0 0
2665 1 3.0948293935693334 23.13692965202019 14.219208493997606 1 0 0
504 1 5.055238162013153 18.80631894540956 14.98382700623514 0 0 0
644 1 9.734455846437724 18.288684332906055 17.77809188365963 0 0 0
1967 1 15.853495238199745 17.371226095588764 19.33929734196912 0 0 0
426 1 16.20841266501399 20.241102345507958 19.342046017067588 0 0 0
4207 1 21.3936785084317 18.807921382912294 17.111099932299382 0 0 0
2435 1 23.081101715950975 17.452208509507553 19.14437462385705 0 0 0
2749 1 19.781548066311487 8.17458625482795 13.516982192260247 0 0 0
1125 1 3.950007065679904 19.93315798017568 18.73679025467385 0 0 1
2014 1 10.291119151056915 0.5860507622751137 7.777453499570795 0 1 1
3357 1 23.328250914324528 5.70434248238414 6.25624305679438 0 0 1
2501 1 10.124083087772165 22.08011289998067 17.540323267756317 1 0 0
2503 1 11.66353142279564 20.178243615528416 17.864678138264782 0 0 0
737 1 14.250242868369169 21.675618791481984 17.88230607174989 0 0 0
3811 1 20.912598941836436 22.91228338800295 18.38158483454109 0 0 0
3019 1 19.833394495418744 20.18470910441547 18.634674728501224 0 0 0
3083 1 23.426343901219955 20.750253928796596 16.735657315577342 0 0 0
1582 1 3.4866046621131 2.666068715158196 21.11741066867335 0 1 0
247 1 7.420023515814223 1.4338682402817853 21.10866472385596 0 0 0
4358 1 1.1436541658709498 12.692251821650611 29.188204501771338 1 0 0
2486 1 11.585632425473209 2.1496527273407158 20.350144538366592 0 0 0
3414 1 15.943385969191109 2.9600622339660805 23.192898069567637 0 0 0
191 1 18.162157835157796 1.1311843999004891 22.950684522497937 0 0 0
1615 1 24.1350235045146 1.360838661832664 8.353168046549644 0 1 0
4304 1 23.646238958225652 1.889428408445881 21.587296216605317 0 1 0
3947 1 5.940975916852344 6.429848243395735 21.366150172771725 1 1 0
880 1 9.49655856823592 3.402796344690042 21.348102952666412 0 0 0
1720 1 12.395133366458264 6.7593347573766955 22.078363366134592 0 1 0
2603 1 15.266112165891826 7.578988766666612 23.533349834221667 0 0 0
180 1 13.147797186210006 4.432094271185076 20.163806940151797 0 0 0
289 1 15.779040922086994 3.878174220812404 20.793408929073234 0 0 0
1322 1 17.154760188805906 6.197777029288035 21.576397879603906 0 1 0
1400 1 21.811524111143683 5.234576458585779 24.195281461301697 0 1 0
2023 1 21.925227103590405 5.020113752700609 21.48216481392558 0 1 1
1595 1 2.3337760633640885 9.136636497990274 21.77915499400623 0 0 0
4198 1 0.8030800211371103 6.59665190229419 21.524811328592463 1 1 0
45 1 4.761502414939357 8.833444955964351 20.280933004534948 0 0 0