LAMMPS data file via write_data, version 29 Oct 2020, timestep = 8000000

6736 atoms
2 atom types

0.1938315446733334 49.02616845535055 xlo xhi
0.19304249800456574 48.82659343239883 ylo yhi
0.19697530019445608 59.86502469979352 zlo zhi

Masses

1 18.015
2 12.01

Atoms # atomic

6091 1 2.7246657123563365 0.31637323493435376 12.890899812688941 -2 2 1
3675 1 19.17988311990839 0.30243783651639866 13.162612475144975 -2 1 0
1886 1 0.5429100473546093 1.9841281063625416 5.403465169080638 -2 2 1
360 1 5.270308690646384 3.4037816396874745 1.7696570776741851 0 1 0
4160 1 5.454694535297103 3.3806681769678133 4.868622588104833 -1 4 0
3405 1 10.334914786891579 0.22787822801726398 20.23852672257596 -3 -1 1
2876 1 9.323356824912718 2.0319861561844306 1.6797784146397499 3 -3 1
1804 1 9.929455871787924 1.5610308400700763 4.27487335757662 2 1 0
1967 1 11.898472673138848 2.632332053783364 0.9151886383452683 -2 -1 0
3530 1 16.352042563535576 1.0662774083776694 1.0602023464412376 1 0 1
777 1 22.61044811980974 6.164116623576335 23.766417344882495 -4 -3 1
2856 1 17.005092243804572 3.543173112647731 1.3244881524851613 2 2 1
6281 1 17.144427972171332 3.92846272750199 4.034324249163605 -1 -1 1
3645 1 15.130350562714202 5.317646438604896 0.27260534449564705 0 1 0
2648 1 21.400283177989397 3.0184231099929963 1.577985240732519 2 -5 1
5109 1 24.06290075168249 3.5673064581030025 0.9106867532847316 -1 3 0
5283 1 21.803875565711564 3.537419748364734 4.302923062199533 2 2 0
814 1 0.8051011037188678 4.113635777497711 1.453648276736654 1 -5 1
1935 1 0.9346804274083516 4.275748669124176 4.134755079366144 2 1 0
49 1 0.8291299438040726 2.0086020553930974 8.178201748940744 2 4 1
2703 1 4.3630817095042485 7.225010051416868 1.3419019836093145 2 0 1
2782 1 4.0812665171022875 7.253221428520276 4.00408703451485 1 0 0
6300 1 15.56707361660704 24.143598147908996 3.5943533579680134 -1 4 1
6061 1 8.860470341838093 6.0159790445020445 1.3259558257867403 2 -3 1
2436 1 8.537477404566893 5.754054632844103 4.224682591945566 2 -1 0
6231 1 21.10948404696608 1.2370963545836189 5.866784964920036 2 -2 1
4144 1 12.773083317017408 5.120117630812222 1.57111738539547 0 1 1
1763 1 12.640516328705775 4.9486644980901495 4.066021265031385 0 1 0
59 1 15.848304467808935 7.832968141440091 1.1949014718286244 0 2 0
3832 1 7.6365144515213315 3.830558921053978 0.9650918392191317 -1 3 0
3488 1 19.574812640976603 4.579523367810967 1.0134220078743232 -1 2 1
279 1 20.23762662819528 7.149657299053257 1.5755183602488658 0 5 0
5389 1 20.134421720546037 6.97054388124279 4.222660522423658 3 0 0
214 2 22.168383154474018 21.338064643400127 26.74262171948671 0 0 0
5407 1 3.1144989406617984 11.47914950200828 1.206552625452062 5 2 0
1859 1 3.3807546088558444 11.368000204669155 3.7196022602356815 2 2 0
493 2 20.947574731698865 22.042898714901497 26.74262171948671 0 0 0
2188 1 0.7541750810984881 10.500444034003129 18.41025632866388 3 4 0
5528 1 7.563208676838941 10.036839785179449 3.8473215257985744 0 0 0
16 1 7.4104408150215395 10.147458863866524 1.0688002133569217 -2 0 0
135 1 11.809451989576202 9.260269691019714 0.9143739991413962 -3 0 1
6041 1 12.073329400840334 9.202720595291225 3.6186420328637725 0 -1 1
5198 1 16.01976368516729 7.892310758467458 3.864601059769984 0 -3 1
4354 1 24.578194657773047 15.131985132102738 24.293410922000067 0 2 1
6142 1 18.68759126909036 10.949349316938703 3.721592167941002 0 2 1
379 1 19.154701185537355 11.088187351966889 1.2234482734049723 1 2 0
6144 1 20.81579393274465 0.38363057268100603 0.9967801544149085 2 -1 1
6052 1 19.282355361010694 0.5213663123521621 15.794473193892165 2 2 1
1776 1 23.54159230979016 10.054178955693688 1.2115466023298884 -2 0 0
945 1 23.70331115875009 10.057013301187547 3.7282993813987746 -1 1 1
962 1 21.413361599956627 11.720198652456297 3.8120603422131705 -2 3 0
26 1 1.9459498221960911 15.555251503747668 3.4151416767259235 1 -3 0
3761 1 1.6404853073569916 15.88521628593936 0.9153832504892859 -1 1 0
103 1 24.128629511833182 12.523775555863594 17.69359264729634 0 3 1
3409 1 6.253343080240388 14.52412519268312 0.7468220760508498 1 1 0
4544 1 5.80354373821846 14.327325583123018 3.4359891966917067 -2 -2 1
6160 1 10.467272862193946 13.610117828295815 1.0549779655428062 1 -1 1
5943 1 10.623030397761246 13.073035988086676 3.5116252076606957 1 3 1
2633 1 8.42631377227269 14.693120402878012 4.260297855069612 -6 2 1
3401 1 14.975436642054758 12.58140873845708 0.7867712642535167 -1 1 0
6107 1 14.883404086895503 12.12467115655176 3.473591248103663 1 0 0
4595 1 13.248817659548235 14.117894447249745 4.173291063398921 2 2 0
495 2 19.726766308947287 21.338064643400127 26.74262171948671 0 0 0
1999 1 17.83065651531212 15.371333863671078 3.4704000702890783 -2 0 0
5990 1 18.088817148322075 15.488553175602588 0.8643598286921631 1 0 0
5498 1 20.336486911241767 15.74804645774289 4.383472512739646 -1 1 0
2544 1 22.15291230562921 14.063850451137192 0.5436602949807666 2 2 1
5208 1 22.146000792873533 14.075515971668192 3.0508993532650432 -2 1 1
4611 1 10.477514634706765 0.32431732235873056 23.01672971750897 -2 3 1
75 2 23.389191577243533 22.042898714901497 26.74262171948671 0 0 0
1715 1 4.683273967898809 18.698509941515205 3.393536004620064 5 -1 1
1248 1 5.120565551586526 18.608342118800525 0.8569050735925396 1 -1 1
3687 1 7.181984966374219 19.899700897278638 4.0817905881497065 0 1 0
1737 1 9.302925837556598 17.487651998313748 3.758529014757582 -2 2 0
36 1 9.396814828822293 17.944528274605624 1.1043123296849708 0 -3 0
356 1 11.921541332808594 18.424755662040113 4.33201533740679 -1 0 0
1016 1 24.402692372203596 3.4634465867064934 8.364361856392286 -1 0 1
4554 1 24.26932357721851 12.50501091958452 24.215647299714156 -5 2 0
1871 1 13.547020195777355 16.709402985301153 3.2354636317451884 4 0 1
6084 1 15.84412577567383 17.364011100780722 4.023038332901898 -2 1 1
6190 1 16.642386635580348 19.95740779070838 1.0068361262113374 0 -2 1
162 1 16.39869451002667 19.77223033080341 3.5938999834957457 -1 1 0
726 2 18.505957886179246 22.042898714901497 26.74262171948671 0 0 0
1770 1 21.111508275963075 18.486058209648196 1.0041698508863792 0 1 0
4530 1 21.147545205086242 18.421398622499254 3.6516778582661966 -2 -2 0
4373 1 2.582692478143917 20.379147920023193 4.068770673667599 4 -2 1
5302 1 3.5564151272711313 22.944910393493576 3.5278446823134515 0 1 1
5207 1 3.620545548599735 22.85701415642938 0.9198421559450478 1 0 0
1989 1 7.907488732983226 21.859417017829415 0.901939660680657 -3 1 1
3696 1 8.052200154792885 22.50782729890282 3.8366086924514584 -1 1 0
1740 1 12.084705561759582 21.248790481506866 1.2134080928161304 -2 -2 0
4311 1 10.568517717589367 22.93534847120835 4.799844459282769 -7 4 1
256 1 12.328496726037843 21.074572763036738 3.906723016405461 2 0 0
674 2 14.843532617879378 24.157400929450134 26.74262171948671 0 0 0
2476 1 14.887308191949757 21.735122957143876 4.444011874866621 4 3 1
3527 1 22.26057121100813 24.49900769351015 23.457989129498642 0 2 0
990 1 20.010752074874933 22.75954328130644 1.0199386616386878 0 -2 0
5862 1 19.982790675211195 22.68165682036557 3.69883232068144 -1 0 1
5100 1 18.97831073395012 20.220055902992573 4.468080330633584 -4 0 1
2127 1 24.179432864093485 21.807612085907657 3.7736704940858123 -5 -5 0
5178 1 0.7226891085159882 19.98967694070127 14.213090475541895 -1 3 0
1186 1 0.47272287700990034 1.4800445770043353 0.8200490829888323 2 1 1
4361 1 24.42933362212294 13.270533936187235 10.46896680217464 0 -4 1
2536 1 0.396526281960086 19.95556037906355 0.8583294101219738 2 -2 0
169 1 0.2862506679093997 17.794252434106617 20.963269233724347 -1 -4 1
1205 1 5.0541962067916 1.0932732314916183 8.299722934920466 -1 -1 1
2579 1 8.056571799190252 3.278146081046828 5.609455289050943 3 0 1
1002 1 8.11475253159223 3.9741476209799584 8.103330514997445 3 3 1
413 1 24.425708823806538 3.447835236199465 5.407440834254395 -1 1 0
6150 1 14.135885397888263 0.783107307891326 4.677629766698996 1 -1 1
2765 1 12.124361536979361 2.7505078091249415 5.373265360325968 0 -1 1
5966 1 12.305502285932906 3.0358823284191137 8.049159703912924 -1 3 1
2455 1 24.59600910515037 14.947987638736809 18.515883656701366 -2 -1 0
1183 1 16.76812666751016 1.7099536902353432 5.474457630084623 -3 -2 1
6035 1 17.17877947398202 1.7389183318190757 8.254299261169429 -5 3 1
2726 1 8.324521457965474 24.173965820040394 15.376766288353666 -1 3 1
3826 1 21.410326536824225 0.8544762474042196 8.444907699389956 -1 0 0
5145 1 15.682125274988163 24.058740861470703 1.1041806294484457 -4 1 0
4296 1 3.4307744251824324 5.2452807242333925 5.302561198806643 2 -1 1
5536 1 3.4567374005669547 5.126604104460935 7.944010149894769 -1 4 0
930 1 6.653178106962596 7.62783896314469 4.8859319873885605 0 -3 1
5345 1 6.718810769016849 8.014661984103284 7.622180747558399 0 2 1
2875 1 5.810486431159785 5.385202625758924 8.773752155159483 -2 -3 1
2432 1 10.749901046231718 6.760745472548839 4.934053372655296 -1 3 1
4381 1 11.166614560673658 6.716691184581614 7.593661048557084 -2 0 1
4104 1 15.303231871347805 5.648837150489112 4.834357106922395 3 0 1
483 1 15.681493678688687 5.74797738224301 7.613312129325786 4 1 0
3394 1 19.456556743780993 4.716800246821317 5.2208452715376215 0 3 0
5383 1 19.873900777451926 4.680593262742502 7.983983678891125 -1 -1 1
1793 1 18.08634226349934 6.636764077432179 8.640382346321987 2 0 0
218 1 23.019618497947373 7.669886831780154 4.8110036385309165 -1 2 0
3418 1 22.93986932830727 7.624538358516862 7.407898756627349 -1 4 1
1867 1 22.344951718151297 5.373935285549487 8.610339153378135 1 -2 0
2754 1 13.594182865333956 16.784670926082487 0.5021932729598343 2 0 1
454 1 2.2610574994960935 9.015661489717703 4.813223415066667 -3 -1 0
6259 1 1.9869860404145956 9.053177203239844 7.475169138794051 0 -3 0
2157 1 5.663334296097829 11.871514711966814 4.432641872678057 1 3 1
4237 1 4.669003623024104 9.45666684981334 7.978891030191957 -1 -3 1
779 1 5.377316468942053 12.075779440865363 7.382733077671707 3 3 1
4135 1 10.104241132932634 10.827562544226904 4.479501012727188 0 -2 1
5992 1 9.36862270617293 8.555668434479868 8.079542638426567 0 -2 1
99 1 9.863456390085645 10.733843043552007 7.153382636568739 0 1 0
5463 1 13.722948249573811 7.4456248466427795 8.684757361311187 0 -2 0
5111 1 14.378119709698346 9.706591761198684 4.767959772901983 -2 2 1
1239 1 12.12371171547137 11.667097539618917 7.868407751664388 0 -2 1
2027 1 14.107146834766601 9.848849624208171 7.550189887064435 1 3 0
3580 1 16.396120152977446 10.800714851243132 8.287021516195193 1 2 0
1240 1 18.257139260611847 8.68156747858354 4.814370934082514 0 2 1
3547 1 18.466056432674385 9.052002837239618 7.422294945405684 1 0 1
5089 1 21.247805304702467 9.748125174954453 7.820813046151035 -1 -2 1
1208 1 21.754589670439213 12.159148410186969 6.769930915196733 -1 -2 0
4537 1 4.214349473654462 16.438256042382978 4.386728652303136 -1 0 1
923 1 1.684010035238847 13.150420640161592 4.42834110930712 -2 0 1
2919 1 1.1021829714792621 13.40683195862187 7.216852044778504 1 2 0
6261 1 3.5627015891416556 13.823161916271584 8.071604136072372 -1 -2 1
3648 1 4.588711364051958 16.188760715153244 6.817574560590048 3 -2 0
4612 1 7.874876982012809 12.589893539595652 8.064408797148124 0 2 1
2833 1 8.67368187153435 15.292595851921305 6.888968629388666 -3 0 1
955 1 11.472106924156527 16.11321513046319 7.726127501532121 -2 1 1
398 1 13.098083752360283 14.013395683358473 7.047740632208711 0 -1 0
3794 1 15.289943935985045 14.470387187477058 7.829095140622577 2 2 0
6139 1 17.323827506792636 12.796722259931 4.5759048471279575 2 -1 1
502 1 17.407590909660165 12.816892170002104 7.243898979080709 1 -3 0
1902 1 19.757396329136355 13.719893138514115 8.229690115145518 1 1 1
1767 1 20.546675851019405 15.889958078441117 7.122138076149898 0 2 0
2911 1 3.240469208567306 5.052994538772199 0.6103073509915811 3 -2 0
1230 1 2.499758224062634 17.921845548646605 7.293586528125991 0 3 1
275 1 6.901212732265137 16.994608578763053 7.616428161167355 0 2 0
3374 1 7.1543297067935745 19.421171493184605 7.163118072116713 1 0 0
5833 1 12.101339633592197 18.383604601112737 6.989781707609349 0 0 0
213 1 9.879679526181372 19.84791429002193 8.176015911702073 -2 -2 0
6023 1 14.357846272781458 18.878433377195403 7.900532488140716 3 0 1
2622 1 15.960618907398372 16.993410847613735 6.801292912352382 4 0 1
918 1 18.406988179007595 17.765472382427305 7.593062302906557 2 -1 1
303 1 23.700607966158206 19.30623874342887 4.315392905327274 -2 2 0
3865 1 23.560389174610457 19.078566009116955 6.855886887729598 1 -4 1
1927 1 22.917172891933756 16.70829933411966 7.771721529252636 3 0 0
6247 1 2.880622542841005 20.665827411940928 6.818236740937706 0 0 1
881 1 0.9797768855210148 22.14421009485246 7.994947510501592 3 0 1
5971 1 6.091287165404776 23.983745088853507 4.6534313108014 2 3 1
2566 1 5.298592319310078 21.256790612777557 7.830135162041359 0 0 1
499 1 5.987608452876588 23.96592887632694 7.285556384067071 0 0 0
2075 1 4.877571476903636 1.0418866930936934 5.813770109927301 2 2 0
3513 1 10.383215050564612 22.33211028060448 7.467083582272696 2 -2 1
3594 1 13.003710980753837 23.084341841752984 7.842056457867697 4 1 0
959 1 14.894266981596827 21.388537863931024 6.990908709427757 1 0 0
2698 1 19.217873124267637 20.441759662649936 6.923567397108856 1 -2 1
5985 1 17.330413971347678 22.050861400826708 7.59013207259851 4 -3 1
673 2 13.622724195109376 23.452566857933583 26.74262171948671 0 0 0
2077 1 22.307836466042573 23.56980105618936 4.675402130626065 1 1 0
5160 1 21.632432385467858 20.9071977445195 7.938519075084254 2 4 1
2636 1 22.36128443013856 23.406898280299846 7.276207085170705 2 3 1
5241 1 3.185654959862022 2.5118320179494207 9.146041847537859 0 -1 1
5989 1 3.1174957391937657 2.551804905176729 11.707365371672925 0 1 1
252 1 7.803067646591223 1.3690295924975078 9.003669126316622 2 -2 0
4400 1 8.099550415572018 1.4805534591302054 11.658052117029811 3 -3 1
73 1 6.114041510500386 3.0001534910477807 12.342872658363659 0 1 0
6105 1 12.193952289515568 0.8422706738001643 12.176448257516954 3 1 1
1837 1 12.138197048192227 0.919561464095736 9.364604356738452 1 -1 0
6072 1 15.087612281103388 3.320408007140748 8.962991838218606 -1 0 1
5228 1 15.057161305606584 3.8143810821045308 11.682009327676859 1 6 0
1728 1 19.474405304899125 2.502072358115911 9.279188447440767 0 1 0
6126 1 19.348806718899166 2.6851514086205808 12.031284004694445 -1 -2 1
1112 1 24.315295192355126 1.5239060683989423 11.914471459483002 1 2 1
762 1 23.719345663053453 1.296319599166702 9.478470397915952 -2 -3 1
3647 1 22.117285078024224 3.0655686917421354 12.741928959947076 0 0 0
2723 1 1.6839298485671703 6.678148318719033 8.572296748331018 -1 -3 1
4174 1 1.1592346693630922 4.470926016804249 12.5483457230784 2 -1 1
1217 1 1.7012251863285615 6.754160781247177 11.321593540550767 0 2 1
2810 1 4.350621224114223 7.346102538538269 12.164205865917976 0 2 1
1011 1 6.085290978365285 5.724381657997307 11.425635488063525 -2 -2 1
54 1 10.662779410165225 4.6047622952569585 8.842648290385037 0 -1 1
2620 1 10.712094303928271 4.851032874816553 11.654460004916585 -2 -5 1
332 1 8.494220708510376 6.455927587338603 12.176230028667272 -3 3 0
2166 1 13.678085255245161 7.761626313971508 11.228997392997165 2 1 1
4591 1 13.116114185140807 5.408068245920879 12.40680065908183 -1 -2 1
3576 1 17.607843150531426 4.616529574527881 12.343289009713024 -2 -4 1
1101 1 18.17068138199292 7.069159738635078 11.153867878877811 0 -4 1
5446 1 20.787807462458808 7.269208702904483 12.071526103486251 -1 -1 0
6087 1 22.563572109421912 5.1944030207400935 11.22779567490311 -3 3 0
4416 1 19.53519079500337 0.49343330425506887 23.800586472081584 -2 2 1
5559 1 3.3513556466915366 11.608323497443298 11.71110814360176 1 5 0
5309 1 5.002001391269974 9.49778393381396 10.627995496121187 0 6 0
4528 1 7.479220729720884 10.530514793395398 11.870264634148494 5 3 1
4518 1 9.22889321606211 8.637313876617016 10.715334835793588 2 2 1
6043 1 11.42907823345938 9.234910560164668 11.54910537467084 4 -1 1
6250 1 11.933506921678852 11.776151595038222 10.739219829721856 0 -6 1
3643 1 16.061893134931992 8.301845340050775 12.210637094310515 -2 -6 0
5458 1 16.42586570574922 10.832585640427341 11.038668808209254 0 0 0
3715 1 19.195239687742934 11.459445462363817 11.306205550435552 -3 2 0
2679 1 21.26457983957247 9.842651099012395 10.511670834164526 2 1 1
4244 1 23.71408441431212 10.42330291873276 11.461200616316887 -2 -1 1
1827 1 3.695364066773834 14.27396345559679 10.773591376541109 -2 2 0
5132 1 1.6218524292282614 15.779824060155333 11.267149092277613 0 3 0
3856 1 6.108635653886162 14.730806355399451 11.377217060837896 -4 0 0
4254 1 7.934790002253674 12.903738824919229 10.727329418717677 2 -1 1
4221 1 10.240070969669624 13.55285766100295 11.437068379061214 -1 2 1
314 1 10.907817687154909 15.663558068449145 10.352263151256965 0 -6 0
4486 1 14.364110838598515 12.414977984168278 11.018840181294237 3 0 1
4441 1 15.394852491542812 14.718926556548352 10.562430643009847 -1 3 1
946 1 19.970801112741693 14.018885705777558 10.702289900905484 -2 0 1
6116 1 17.864830663958777 15.439842665521043 11.279321072588019 -1 -1 1
840 1 22.376092957122815 14.425981806177854 11.362905908807528 2 1 0
2041 1 2.1433597957104378 18.078987992051854 10.188018444142985 1 -3 0
3796 1 6.039311784388087 23.805910098513717 0.4784245561013153 4 -4 0
6305 1 4.631044691192356 18.625577286329385 11.3033526627837 3 1 0
4469 1 6.610767151434345 17.315395866477473 10.42073126734164 2 -3 1
3514 1 9.186023649316246 17.651970510913596 11.21701622145971 -2 3 1
6117 1 9.639485566133722 20.1243173857376 10.81241727223881 0 -3 1
1077 1 13.539544297203095 16.438439934716918 11.022629181266986 1 0 1
5831 1 14.009124875816937 18.94666091290639 10.844709007021645 2 2 1
954 1 16.506342973810543 19.885198318059057 11.407390815861932 -3 2 1
5 1 18.202111551759444 17.93652531482794 10.2412897347286 -5 1 0
3640 1 20.744953356706304 18.694039754687072 11.110394817467608 0 1 0
5870 1 22.92405175014547 17.059738361430945 10.486043733348495 0 0 0
1901 1 0.9661358968720674 22.0618178472095 10.598314863747477 -1 0 0
1123 1 3.531504675777215 22.77113775543591 11.831843619054078 0 1 1
440 1 5.482498329501735 21.175827423241255 10.511355692503562 1 3 0
2063 1 7.837335537446287 21.851424141738594 11.600810714307809 -4 -2 0
4145 1 24.175655026874864 12.910611960241415 14.96413097216941 5 -2 1
1127 1 12.148361854874217 20.62700897463963 11.128390293149463 -1 -2 1
3460 1 12.800360790236402 23.20044249305288 10.502159437806876 0 0 0
4115 1 15.328496629341263 23.693045593796977 11.349098594209451 0 0 1
3649 1 17.136987554324417 22.071026551340015 10.379952400344585 -3 -2 0
2785 1 19.61396220118965 22.510257895422544 11.249815489838422 0 -2 1
1824 1 21.695148476429274 21.092510791504147 10.670276457695094 -1 2 0
5194 1 24.343058788908742 21.524784358874374 11.203876975036795 2 0 0
184 1 3.9309962378088934 3.10505639186966 16.675714253551327 0 -3 0
500 2 19.726766308947287 24.157400929450134 26.74262171948671 0 0 0
724 2 17.285149463404693 24.157400929450134 26.74262171948671 0 0 0
474 1 6.163084272566018 3.347455436208029 15.126713573092994 2 0 0
3569 1 7.932126623868843 1.998876203780969 16.853717749762847 -2 -1 0
3869 1 10.412889781598675 2.5461368292773305 13.012747232705834 3 1 0
1835 1 10.541474248877735 2.3231570139839848 15.907413931918763 -2 0 0
236 1 12.499798250541206 0.827779035945238 16.810401847081174 -2 3 1
3448 1 14.69979858337543 1.0877295707642585 12.911380073506116 1 2 0
1771 1 14.862576544285169 1.2379788647700167 15.761065979305684 0 0 0
6268 1 15.658420357178931 3.853867585010252 16.18388159876927 -2 -2 1
1171 1 24.44705514813738 4.445908039260419 20.213488685501083 -5 4 1
395 1 19.835755267315886 3.0360879761211543 16.44029826773763 -2 3 0
3924 2 24.610000000011933 24.157400929450134 26.74262171948671 0 0 0
2603 1 9.820784537817334 11.040594411510599 0.2970659249556164 -1 2 1
2735 1 24.25430413555382 2.0060812356098765 16.43030184870533 2 1 1
768 1 22.37100412326593 3.8704047084973587 15.276634318098832 1 0 1
5273 1 1.9794911951277216 4.661892159778865 15.169862270115875 0 -1 0
402 1 1.97006138810497 7.167126471214375 15.815349663656518 3 0 0
5301 1 4.298083436205145 7.91367913822576 14.445529825000882 3 -4 0
3644 1 6.200064326828949 6.014485997632639 15.611632236220498 -2 7 0
2004 1 8.71795756029167 6.106349784001963 14.77750253459722 -1 -1 0
120 1 10.973977944081978 4.934132738104358 16.10702889993006 -2 -2 0
4268 1 13.671913823459551 5.281670074499691 15.083325964053822 0 0 1
1224 1 13.909749794316513 8.001281475745097 15.66950058989019 -3 2 1
968 1 16.17480417361136 8.70082213926244 14.708899414627371 3 2 1
4110 1 17.90425852503908 4.650637798448166 15.109443473847573 -1 3 0
505 1 18.37826938990213 7.172559343048445 15.46577045755255 0 3 0
1249 1 21.106104700268613 7.43004312669719 14.70954237019654 -2 2 0
6104 1 23.076871665846493 6.312027638935758 16.2855481730668 4 -1 1
2598 1 3.299648274215389 11.77562206000488 14.242102414168807 4 1 1
291 2 22.168383154474018 24.157400929450134 26.74262171948671 0 0 0
3605 1 0.5727162975319413 11.155538923243954 15.466733771333363 3 -1 0
2017 1 5.081408269349207 10.109646442978503 15.48446541410185 -2 -1 0
2050 1 7.691090509887902 10.246868487036004 14.448110604999503 1 2 0
127 1 9.445381428663815 8.430473371764554 15.337911373160361 -2 6 0
3691 1 11.832144794468682 8.84723016502194 14.234878124675244 0 -3 0
3707 1 12.026370074047584 11.742932956471927 14.33041874260302 0 1 0
22 1 16.71945893892197 11.228497320849645 15.034239179554676 -1 4 0
2590 1 19.30320613487886 11.2072051395221 14.029166802681837 1 0 1
3369 1 21.11511050883698 9.998577008451504 15.492120833977415 0 -1 1
5269 1 23.399180765211284 10.548799942418924 14.094936515784516 4 4 0
6046 1 1.737037412449433 15.783129886657425 13.839646402204059 2 -2 1
106 1 3.65774595783692 14.288479941037835 14.45580215777431 -2 1 0
5402 1 6.198548184920393 14.618301493162635 14.130893610999417 3 1 0
393 1 7.765762416288114 12.720170924042863 14.919573805064182 0 0 0
5983 1 7.885893209773879 13.076003034963776 17.44742638333103 3 1 1
3484 1 10.088573371166623 13.565336556884535 13.948805638267064 -3 1 0
2559 1 10.85236715772231 15.872622089072417 14.76096957800825 0 3 1
4432 1 14.530323784182167 12.527747080469625 13.587032487213648 0 0 1
3554 1 15.367164905581705 15.017419757036524 14.586396082116002 2 4 0
2030 1 15.357188108015121 14.508169899423049 17.094139322841595 2 2 0
6206 1 19.738071998385998 13.861236328286521 14.660436785635437 -4 0 1
72 1 17.677437129490738 15.561430710657767 13.95356427653708 0 -3 1
55 2 23.389191577243533 23.452566857933583 26.74262171948671 0 0 0
2123 1 22.247706019257397 14.322688343944698 13.980886952847724 -1 3 0
3925 2 24.610000000011933 21.338064643400127 26.74262171948671 0 0 0
1874 1 2.5367155195778244 18.15770480851578 14.77470999433605 5 1 0
1129 1 2.4969224110624753 17.99286891516577 17.326385973204744 -4 0 1
1119 1 4.9996340145384455 18.696944733141105 14.12367168060126 1 -1 1
5982 1 6.494810134451913 17.01488252294802 15.070422963211978 -7 -6 1
4497 1 8.888639442996977 17.461881876711686 13.831713692197406 -2 -1 1
5551 1 9.840075840198317 19.78698183348238 14.910353445354803 7 0 0
778 1 13.206821021669882 16.399289140801276 13.858725948216186 -2 -3 1
5562 1 14.073803366736483 18.747161939141485 14.623349409534244 2 -1 0
5320 1 16.75546056659127 19.14157889873191 13.807700541404762 0 -1 0
2042 1 19.062420682206678 17.791990355786456 14.871906972387533 5 2 0
4375 1 18.437549001600548 17.401304053512863 17.508866122388756 -4 -2 1
5258 1 21.372875995888048 18.343634690625482 13.889394017552602 3 2 0
4299 1 23.115848056668998 16.705651334928778 14.934541790842326 0 4 0
3840 1 22.64980788269334 16.6341615187293 17.614721187383253 -1 -4 0
801 1 3.7091307388689434 22.945561893515844 14.373824311018051 4 2 1
117 1 1.1859887576737531 22.51686454455575 15.039479506334235 4 -2 0
763 1 5.356424283456354 21.11572535618981 14.929096482293973 -3 -2 1
3425 1 7.850985063179324 21.534483937330013 14.587876091401204 -2 2 1
1035 1 12.251784102307216 20.48707288014635 13.788007641258384 0 1 1
6021 1 0.2265069859753055 5.722391283155362 23.497958192851087 3 0 1
5973 1 15.128235362080954 23.50778520743159 14.269345520104363 -1 2 1
1879 1 12.502260963626027 22.981326416347528 15.035633748157931 -6 1 0
4389 1 17.17075667271544 21.899582749243038 14.790252788547633 -1 5 1
4423 1 19.71862907131749 22.362211638236356 14.00092635000607 -2 0 1
3754 1 17.302725398547587 21.45454069053839 17.171570825887972 2 -3 0
4259 1 23.937783034978963 21.576572752683454 13.922727561735627 0 1 1
6273 1 21.335387779256518 20.647147132644484 14.886598743890358 -2 -1 0
1846 1 21.56659520145263 20.697339017999408 17.483929206305348 -1 2 0
895 1 3.3993201092738996 2.7702924128089634 19.410244206401615 2 1 1
4294 1 1.1913390608386845 1.7206353929539655 20.68288655933483 -3 -5 1
5588 1 5.685232084355154 1.408304489615363 20.642321525443226 1 -1 0
2863 1 8.192930552654346 2.190982909739696 19.521037246239306 -1 2 0
6171 1 1.2893953360951882 13.225584363152533 0.3691023105836157 3 0 1
5417 1 12.610772803344105 1.1670943971619587 19.45409379414298 -1 0 0
147 1 13.514961178175545 4.018882984045478 20.029309873939784 -1 -3 1
1023 1 15.656672481442271 3.8018508990118156 18.707046232125013 -2 3 1
2889 1 17.576055391142987 2.0196921632351303 20.334619010875016 0 3 1
3706 1 20.01378031937287 2.492955973130267 19.104996959168144 1 -2 0
5143 1 24.14673696852492 1.8566133670334728 19.169430556741347 3 6 0
4287 1 21.87823318869038 0.9808462651232586 20.424279166790466 5 0 1
4292 1 2.2233051736344565 7.1594908487525135 20.068357498753883 1 1 1
6241 1 4.152521012688402 4.9517260118318465 20.782842840362793 1 3 1
1191 1 6.779028983736457 7.2458178354269736 17.833389833281846 -3 2 1
1891 1 6.656810202866963 6.018668414951155 20.350030982466635 2 -4 1
5564 1 8.890382735722929 4.949532590410369 20.768935166541116 0 0 0
211 1 11.395365850490546 7.332749081190908 18.70346334710406 5 2 0
5540 1 11.031421319094408 4.549096175988185 18.93504952502688 1 4 0
5387 1 17.390816870355046 5.643166721664221 19.449382881743464 -1 2 0
181 1 19.36237478790158 4.769473316422807 21.05308711666765 -1 -3 1
6042 1 18.49051131202899 7.8074344095636565 18.170668010018485 -2 0 1
5374 1 21.313295168921716 6.578849143163325 21.250927069797008 0 3 0
4312 1 23.160514066066078 6.617043681762448 19.132370722682 -3 0 1
678 2 16.06434104064389 23.452566857933583 26.74262171948671 0 0 0
4231 1 2.55656898705034 8.607641599172938 18.013779838056582 -2 3 1
4314 1 2.93837723408528 0.8354990159224607 15.634799548051669 2 1 1
8 1 2.5622215536566335 9.01241436316461 21.69726676413628 3 0 0
351 1 5.31998148022271 9.966310641559415 21.147574819478333 1 0 0
5486 1 4.919449207386893 9.200208997337997 17.937213790997443 0 -4 0
2146 1 5.572886807724483 12.15191532309535 18.092098188188455 0 1 0
4345 1 8.938154595228193 8.649837296607682 17.967117487557235 2 1 1
909 1 10.470526339480227 7.724994218108003 21.527470678442807 3 2 1
46 1 9.775694614894283 11.143404880627255 18.312400858378165 -1 0 0
3456 1 12.064013876169378 11.30971132940237 17.223744460755555 4 0 0
6279 1 12.25932799799163 11.645524005909808 21.51401585739875 2 2 1
5172 1 9.858599937158129 10.819923613649014 20.91760940417385 -1 2 1
1838 1 13.705599075490179 9.11990112262121 18.099686204896326 -1 4 1
760 1 16.21274980321611 6.938101364758985 21.444009670376644 1 1 1
5529 1 13.659861323237534 9.541136413295835 20.711477034026718 3 -1 0
2605 1 16.404305930509942 9.73460838212941 18.21890852720649 2 2 1
5844 1 19.55119319859051 9.16103573799035 21.12329492689758 0 -2 1
3674 1 8.678006278841542 24.183339696246694 17.921861558005396 1 1 0
787 1 21.306144461766294 11.278223341452247 20.930131870747374 -3 2 1
5391 1 21.267751728637005 8.601258247518132 18.221664961714286 -1 1 0
790 1 21.642521700774136 11.611361354427887 18.071074134372065 -1 2 0
3595 1 23.833865686733418 9.234754598605592 22.47594091633386 2 -5 0
23 1 22.78574544987619 7.37280006868987 0.6188197317018114 -1 5 1
2171 1 3.579817083134096 13.839134160774853 17.074582262793204 0 3 1
2053 1 1.2416242002512816 13.230375985171786 18.245168215641655 -5 2 0
3452 1 1.8098871332328352 13.528790164066589 20.783962204776486 0 1 0
5988 1 4.982225653779914 13.09744207658438 20.645943562341806 -1 -1 1
2662 1 7.887741558707924 12.696780557233678 21.398927786031045 0 -1 1
1117 1 11.176842035142789 15.530616408238151 17.474275694608988 2 3 1
424 1 8.555995137269733 15.127278210673392 18.38845548849333 3 -2 0
5547 1 8.477396670946378 15.437274530349516 21.23126746600202 1 0 0
441 1 12.958803602758316 13.67367750373553 18.121700550661167 4 3 0
336 1 12.845649475227304 13.90233190605751 20.872890905342118 -3 4 0
2747 1 15.293774760811683 14.172091653882578 21.354527559320488 -3 0 1
4569 1 17.31381635001704 12.482943862822529 17.895540074402724 1 2 0
5517 1 19.728900579053466 13.660319218479117 17.386495021891683 -1 -2 0
6253 1 17.302158075235948 12.345880145212178 20.623113714820203 0 0 1
891 1 19.697718405606455 13.63406769677873 21.48788009253295 -4 1 1
3592 1 20.374544253557225 16.021642907310667 18.601819340613535 -1 -1 0
403 1 20.22145387287518 16.541997978569974 21.232368261878626 4 -2 0
2459 1 4.427441879059437 15.948721514248408 20.86533485345403 3 2 0
6282 1 6.911279400442394 17.041780690886817 17.8728918580048 3 0 1
2169 1 4.042634571977283 16.070903362128178 18.146893044271792 2 0 0
4476 1 7.2071323756544725 19.605628507470033 18.482770156974194 -3 -6 0
2151 1 6.319658097669751 17.396479243582483 21.659698553450845 -1 -3 0
1808 1 7.653178089026956 19.66133556322311 21.132173967818467 4 -1 0
936 1 9.762289051912969 20.35005988409189 17.59474684152929 -3 0 1
1071 1 11.037624667802715 15.842751405262618 21.16831321953649 1 -1 1
6106 1 11.412836908160983 18.460591396063005 18.36488285764135 2 7 1
1755 1 11.666843433087065 18.736820174257712 20.918565009072196 0 1 0
5118 1 14.183918268332166 18.52347303102611 17.343589228217457 1 0 1
3465 1 15.960837931897553 16.714538924766924 18.2942182931987 -1 3 0
4484 1 15.793204058568376 17.05269901284762 21.083939670226858 2 3 1