LAMMPS data file via write_data, version 16 Mar 2018, timestep = 100000

6328 atoms
2 atom types

0.0000000000000000e+00 4.9219999999999999e+01 xlo xhi
0.0000000000000000e+00 4.9019635930410494e+01 ylo yhi
3.4638902434466203e+00 5.6598109756553015e+01 zlo zhi

Masses

1 18.015
2 12.01

Atoms # atomic

5267 1 3.9316131082271957e+00 5.0136258470686563e+00 9.4559113906143857e+00 0 1 1
382 1 4.6344993131835812e+00 1.4475007588068269e+01 9.6769609169603328e+00 2 -1 0
6270 1 8.9541392861076918e+00 2.7734488537581341e+00 7.4955428736104990e+00 0 1 1
5273 1 7.8722100955054515e+00 1.0933169530602498e+00 1.1376634052100867e+01 2 1 1
4927 1 1.6194673049849133e+00 8.8269356019885574e+00 9.6401557683656627e+00 -1 0 0
1899 1 1.6342775884019358e+00 1.5408542434421651e+01 7.5692232810542475e+00 0 0 0
6200 1 2.6863360302875670e+00 9.2462275533301046e+00 4.6859569954401579e+00 1 0 1
68 1 7.7769451468987461e+00 3.7150319456460799e+00 9.8075043394028469e+00 1 -1 0
1606 1 3.8461355762296283e+00 6.0606222269755303e+00 5.8731174154701389e+00 0 0 0
1354 1 7.8428954464829594e+00 6.7326785100017057e+00 4.6193238187259027e+00 0 0 1
3142 1 5.6613999681712750e+00 8.2679783362776895e+00 5.2887029226100761e+00 1 0 0
6323 1 1.2322018812593258e+00 1.2399287676052026e+01 4.4128934726273910e+00 0 0 1
223 1 3.5164697524510982e+00 1.1268108471822552e+01 6.3001978619202124e+00 1 0 1
5082 1 8.1071200032224464e+00 1.6307771775023127e+01 5.9916406665324269e+00 0 0 0
4658 1 7.9487520266112046e+00 8.8199555337863487e+00 7.0421922267540911e+00 2 0 0
384 1 6.2371406015745103e+00 1.1432373655047396e+01 6.1488112695442769e+00 -1 0 0
2888 1 2.1313985804894142e+00 1.7744495993894736e+00 7.2670265196831352e+00 0 0 1
1981 1 4.0307811031702103e+00 1.4281145452547392e+01 6.7980541672590968e+00 0 0 0
1610 1 6.8642323961778340e+00 1.5256273734875951e+01 1.1007877452487712e+01 0 0 0
2926 1 9.4296598413508566e+00 1.2807106243246441e+01 5.4852630330466816e+00 0 0 1
4748 1 1.2645094000806412e+00 6.8646252558198073e+00 5.4629729072656819e+00 0 0 1
1897 1 7.2097441568996308e+00 1.3892531450789084e+01 7.3181973373573674e+00 2 0 1
4619 1 9.1450503752424979e+00 5.6493168403808216e+00 6.9434471057432061e+00 0 0 1
4827 1 4.2522233697569343e+00 3.4901126969569645e+00 6.9395201644047688e+00 0 1 1
4457 1 5.5092772562136565e+00 2.1306730832526983e+00 9.1691913507492711e+00 0 0 1
6315 1 9.1400634644195904e+00 3.6026248030374939e+00 4.4672964565868529e+00 0 0 0
1254 1 5.7326868697401983e+00 4.7634422625824051e+00 3.7536913456880732e+00 0 0 0
5099 1 6.9196251265034570e-01 1.8523084676423569e+00 1.0451571199029276e+01 1 -1 0
404 1 4.7356692694861513e+00 7.4376493134728419e+00 8.5311860996540823e+00 0 1 1
1849 1 1.4028124968596434e+00 6.4038369565933797e+00 8.3099612748772671e+00 1 0 1
6213 1 1.0907790095737098e+00 4.7864760018152239e+00 3.5125116747811433e+00 1 0 0
154 1 5.3925252849563092e+00 4.8715843079225687e+00 1.1906122231120669e+01 0 -1 0
1561 1 3.5253674796504852e+00 6.1535458946797261e-01 1.0841029993873013e+01 1 1 1
1489 1 2.0743772918510244e+00 4.0842306290840700e+00 1.1624790747503832e+01 0 1 0
2114 1 3.8676653402560097e+00 1.2138123655634805e+01 1.0893375271234792e+01 0 0 1
1777 1 4.2475063832902071e+00 1.0165332588773760e+01 8.8759469946382765e+00 0 0 0
218 1 7.0208032785593524e+00 1.0633264273671806e+01 9.2776382519302558e+00 1 -1 0
6228 1 8.1469226043317224e+00 1.3263353869903495e+01 1.0041618472724007e+01 1 0 1
4900 1 8.9194798375165796e-01 1.4818737950368559e+01 1.0586608749582744e+01 0 -1 0
6158 1 7.5259331377844774e+00 8.6346292632236796e+00 1.1558729591603152e+01 0 2 1
1700 1 7.3884491337811635e+00 6.7731833854274441e+00 9.1220750388367797e+00 1 -1 1
3272 1 6.4509584938815667e+00 2.7374726978417625e+00 5.4792833184869814e+00 0 0 1
3012 1 5.4152457196276957e+00 1.4418839853973964e+01 3.4796207672660255e+00 0 0 1
2107 1 7.2073334204479860e+00 1.2241225524576723e+01 3.5908487924375265e+00 0 0 1
6243 1 7.3554629711793522e+00 1.9637351751113311e-01 8.1975632624140218e+00 0 1 0
4801 1 1.8672118140574752e+00 6.4006973747709736e-02 5.3195292928663642e+00 0 1 0
4532 1 8.6060187448812258e+00 5.5438171957319096e+00 1.2025716713093653e+01 0 0 1
4537 1 6.0328915458539516e+00 1.1497704255796179e+01 1.2312911151752886e+01 -1 0 0
2 1 6.2067437465455573e+00 6.6967541937088431e+00 1.5502528711353175e+01 0 1 0
3283 1 2.8415519271816176e+00 7.5744215202484144e-02 1.6450369753783622e+01 1 1 1
1986 1 8.4924239707424078e+00 1.0131760921067878e+01 1.7428658786628439e+01 -1 0 1
4804 1 7.0918036099093902e+00 3.5351807294179873e+00 1.9181030965839206e+01 0 1 1
6122 1 9.4326880886197770e+00 3.7712189716742790e+00 1.5287151317765773e+01 1 1 1
1762 1 3.8305557267995995e+00 6.9707527304900019e+00 1.6603252845335977e+01 0 1 0
5124 1 5.2153300953796666e+00 7.4960008747880336e+00 1.2636781023697500e+01 0 0 0
2106 1 2.6895555052209206e+00 4.4698997003713750e+00 1.6565294240221768e+01 0 0 0
5126 1 2.8919562202747023e-01 2.8922203794582231e+00 1.7345678193347176e+01 1 0 0
4775 1 6.6066383073305452e+00 1.2232209250196703e+01 1.6553090057855144e+01 -1 0 1
1833 1 8.8570774789746824e+00 8.2759216329431080e+00 1.5354692707080824e+01 1 0 0
350 1 3.4643850368629545e+00 9.7759534657018854e+00 1.5652278641389227e+01 1 1 0
4423 1 3.1328837823863664e-01 6.2032331558077507e+00 1.2523635288298481e+01 0 0 1
6235 1 1.2951839158174931e+00 1.0294010113087703e+01 1.4161350416323309e+01 1 1 0
5276 1 5.9503862558476062e+00 9.6967113192526408e+00 1.4582285247443567e+01 0 0 1
4798 1 6.9249405897414675e+00 1.3480813851968181e+01 1.3979439310674486e+01 1 0 0
1602 1 4.2195575393658519e-01 1.1853073933698179e+01 1.9544683181005329e+01 1 1 0
1675 1 2.9486291168969934e+00 1.4011567090565025e+01 1.6713999340542635e+01 0 0 0
1342 1 1.1172467420580241e-02 1.6000835043858231e+01 1.2674979979038895e+01 1 0 0
3218 1 8.4295695650414473e+00 1.3696540435714777e+01 2.0706607313894640e+01 1 1 1
264 1 6.8343641218195623e+00 8.8093077521422647e-01 1.8893576264057948e+01 1 -1 0
3461 1 2.5185886692340289e+00 4.5797396643268691e+00 2.1083993778723620e+01 1 0 1
1927 1 3.6604872572699731e+00 6.9924665935789960e+00 1.9435483356788069e+01 0 0 0
6038 1 2.8316204971464614e+00 1.5952440028897164e+00 1.8874757067851220e+01 0 0 1
4620 1 6.0925842365333196e+00 1.5566547041699446e+00 1.4161511042467646e+01 1 0 0
1876 1 3.3571630374494188e-01 1.4289004414955564e+01 1.7334230928992817e+01 1 0 0
6047 1 4.3979496562147533e+00 3.9056180973521464e+00 1.9021484284456186e+01 0 2 0
5087 1 7.5166784073703830e-01 1.4946513212471572e+01 2.0280711382211415e+01 1 0 0
6193 1 1.1182515846823260e+00 8.1947009327467217e+00 1.9066527762487738e+01 -1 1 0
5068 1 9.2141895706332910e+00 8.0027216833930979e+00 1.9709827200611301e+01 0 0 0
4864 1 7.8998730563243047e+00 5.8167309313240301e+00 1.7861769828979035e+01 0 0 0
2828 1 8.8456533741575036e+00 1.0165858538185770e+00 1.5124946220758495e+01 1 0 1
3024 1 4.0019086748547457e+00 1.1649350811157154e+01 1.7525675674487530e+01 0 1 0
387 1 3.9411324607447856e-01 1.0178627879730699e+01 1.7185076632335683e+01 0 0 0
3296 1 2.9222047575652681e+00 1.2074546831447471e+01 2.0145658247694612e+01 1 0 0
1789 1 7.2621333779271442e+00 1.4378499787746492e+01 1.8207233682775936e+01 0 0 0
3031 1 4.7314506572197228e+00 1.5956124671358255e+01 1.7917746471660433e+01 0 1 1
105 1 2.7143793703016139e+00 1.4925074752036526e+01 1.4113231867726462e+01 0 0 0
4963 1 6.9556063548012297e+00 4.3235490693900358e+00 1.4419411562736363e+01 0 1 0
2803 1 2.1833880131291008e+00 1.4353485179000067e+00 1.3671824252301285e+01 1 0 0
178 1 9.6627933896498952e+00 1.5106757013097145e+01 1.7062843771021384e+01 0 1 0
2851 1 3.6601006867222226e+00 3.4880822798368376e+00 1.3889457140612905e+01 0 0 1
1869 1 9.4230639489379744e+00 1.4488458448423776e+01 1.4235165761787741e+01 1 1 1
1432 1 9.4082628787888575e-02 4.8115907168514660e+00 1.9774956771950393e+01 0 0 0
1685 1 7.1527175153894005e+00 9.6798044087002406e+00 2.0078077227640513e+01 2 0 0
409 1 5.5239929399567425e+00 1.5688791607979359e+01 1.3833276274624749e+01 0 2 0
1947 1 2.2831179384693492e+00 8.0749404843452481e+00 1.2429959940659735e+01 1 -1 0
4806 1 1.7738461363968994e+00 1.2887051022735937e+01 1.2495200310025551e+01 0 1 0
2827 1 9.8261821256619211e+00 9.1780602507449416e+00 1.2835140765857789e+01 1 1 0
6316 1 2.2683677557740820e+00 2.2168334378206644e+00 2.4554925284981358e+01 1 2 1
6279 1 5.0881991131908295e+00 1.7548263503027313e+00 2.1458941976939908e+01 -1 1 1
718 2 6.1524999999999990e+00 1.4919019630994494e+01 2.6860207275813121e+01 0 0 0
1893 1 3.4765641817702089e+00 1.5781862925524878e+01 2.4292853249255614e+01 0 0 0
765 2 8.6135000000000002e+00 1.4919019630994494e+01 2.6860207275813121e+01 0 0 0
4994 1 6.5260514240985250e+00 1.5467981802848525e+01 2.4526958875096593e+01 0 1 1
677 2 6.1524999999999990e+00 1.3498160618518829e+01 2.6860207275813121e+01 0 0 0
1877 1 3.0964622167962252e+00 4.8174111342555834e+00 2.4128953736175539e+01 0 1 0
3388 1 5.1036544562206450e+00 1.6551664922566298e+00 2.4419199102470749e+01 0 1 1
4913 1 2.8612661559555788e+00 7.5836211453122733e+00 2.4027020279822242e+01 0 1 0
673 2 4.9220000000000006e+00 1.5629449137232333e+01 2.6860207275813121e+01 0 0 0
5266 1 5.8849251486425276e+00 5.0562805237269890e+00 2.4168658535323992e+01 1 0 1
3045 1 9.5428188587661626e+00 1.4908147322609164e+01 2.4567149504481360e+01 1 -1 0
3635 1 6.1768567019339802e+00 1.3600367994965849e+01 2.2266947656614366e+01 1 1 1
4516 1 9.4653780922117754e+00 6.4670793632505070e+00 2.1977210849248614e+01 1 1 1
1683 1 5.7380960903965841e+00 7.9451780021439156e+00 2.4145637929692974e+01 0 0 0
326 1 2.1108156965173008e-01 8.6150165921619575e+00 2.4058927541999161e+01 1 0 1
4427 1 3.6007086771127219e+00 1.1141891844144807e+01 2.4298508990658032e+01 0 0 1
5976 1 6.2202520603118518e+00 1.1822870974545083e+01 2.4135164715080229e+01 1 0 1
1345 1 8.6312514088171142e+00 9.8194426159276400e+00 2.4278557454267300e+01 0 0 1
722 2 7.3829999999999991e+00 1.2787731112280996e+01 2.6860207275813121e+01 0 0 0
6136 1 8.9687209907875989e+00 1.1235255182405460e+01 2.1533927002020569e+01 0 -1 1
3534 1 1.6510015585694924e+00 1.3319489893542487e+01 2.4301988993832097e+01 0 0 0
294 1 3.3148746832980498e+00 1.4641848661900539e+01 2.1552414439156216e+01 2 0 0
5006 1 8.6537729932487810e+00 3.8770492535104149e+00 2.4039048968241971e+01 1 0 1
3157 1 7.9835148973839880e+00 2.6770441378479011e+00 2.1808090827870299e+01 -1 0 0
552 2 0.0000000000000000e+00 2.8417180249513345e+00 2.6860207275813121e+01 0 0 0
554 2 0.0000000000000000e+00 0.0000000000000000e+00 2.6860207275813121e+01 0 0 0
556 2 1.2305000000000001e+00 7.1042950623783474e-01 2.6860207275813121e+01 0 0 0
563 2 1.2305000000000001e+00 2.1312885187134998e+00 2.6860207275813121e+01 0 0 0
565 2 2.4610000000000003e+00 2.8417180249513345e+00 2.6860207275813121e+01 0 0 0
567 2 2.4610000000000003e+00 0.0000000000000000e+00 2.6860207275813121e+01 0 0 0
569 2 3.6915000000000004e+00 7.1042950623783474e-01 2.6860207275813121e+01 0 0 0
584 2 3.6914999999999996e+00 2.1312885187134998e+00 2.6860207275813121e+01 0 0 0
586 2 4.9220000000000006e+00 2.8417180249513332e+00 2.6860207275813121e+01 0 0 0
588 2 4.9220000000000006e+00 0.0000000000000000e+00 2.6860207275813121e+01 0 0 0
590 2 6.1524999999999999e+00 7.1042950623783407e-01 2.6860207275813121e+01 0 0 0
613 2 6.1524999999999999e+00 2.1312885187134989e+00 2.6860207275813121e+01 0 0 0
615 2 7.3829999999999991e+00 2.8417180249513345e+00 2.6860207275813121e+01 0 0 0
617 2 7.3829999999999991e+00 0.0000000000000000e+00 2.6860207275813121e+01 0 0 0
619 2 8.6134999999999984e+00 7.1042950623783407e-01 2.6860207275813121e+01 0 0 0
650 2 8.6134999999999984e+00 2.1312885187135002e+00 2.6860207275813121e+01 0 0 0
559 2 0.0000000000000000e+00 4.2625770374269996e+00 2.6860207275813121e+01 0 0 0
561 2 1.2305000000000001e+00 4.9730065436648339e+00 2.6860207275813121e+01 0 0 0
576 2 1.2305000000000001e+00 6.3938655561404980e+00 2.6860207275813121e+01 0 0 0
580 2 2.4610000000000003e+00 4.2625770374269996e+00 2.6860207275813121e+01 0 0 0
582 2 3.6914999999999996e+00 4.9730065436648339e+00 2.6860207275813121e+01 0 0 0
605 2 3.6914999999999996e+00 6.3938655561404980e+00 2.6860207275813121e+01 0 0 0
557 2 0.0000000000000000e+00 7.1042950623783341e+00 2.6860207275813121e+01 0 0 0
578 2 2.4610000000000003e+00 7.1042950623783341e+00 2.6860207275813121e+01 0 0 0
609 2 4.9220000000000006e+00 4.2625770374269978e+00 2.6860207275813121e+01 0 0 0
611 2 6.1524999999999999e+00 4.9730065436648339e+00 2.6860207275813121e+01 0 0 0
642 2 6.1524999999999999e+00 6.3938655561404980e+00 2.6860207275813121e+01 0 0 0
646 2 7.3829999999999991e+00 4.2625770374269996e+00 2.6860207275813121e+01 0 0 0
648 2 8.6135000000000002e+00 4.9730065436648339e+00 2.6860207275813121e+01 0 0 0
687 2 8.6135000000000002e+00 6.3938655561404980e+00 2.6860207275813121e+01 0 0 0
607 2 4.9220000000000006e+00 7.1042950623783341e+00 2.6860207275813121e+01 0 0 0
644 2 7.3830000000000009e+00 7.1042950623783341e+00 2.6860207275813121e+01 0 0 0
572 2 0.0000000000000000e+00 8.5251540748539991e+00 2.6860207275813121e+01 0 0 0
574 2 1.2305000000000001e+00 9.2355835810918343e+00 2.6860207275813121e+01 0 0 0
601 2 2.4610000000000003e+00 8.5251540748539991e+00 2.6860207275813121e+01 0 0 0
603 2 3.6915000000000004e+00 9.2355835810918343e+00 2.6860207275813121e+01 0 0 0
570 2 0.0000000000000000e+00 1.1366872099805333e+01 2.6860207275813121e+01 0 0 0
597 2 1.2305000000000001e+00 1.0656442593567498e+01 2.6860207275813121e+01 0 0 0
599 2 2.4610000000000003e+00 1.1366872099805333e+01 2.6860207275813121e+01 0 0 0
634 2 3.6914999999999996e+00 1.0656442593567499e+01 2.6860207275813121e+01 0 0 0
638 2 4.9220000000000006e+00 8.5251540748539991e+00 2.6860207275813121e+01 0 0 0
640 2 6.1524999999999999e+00 9.2355835810918343e+00 2.6860207275813121e+01 0 0 0
683 2 7.3830000000000009e+00 8.5251540748539991e+00 2.6860207275813121e+01 0 0 0
685 2 8.6134999999999984e+00 9.2355835810918343e+00 2.6860207275813121e+01 0 0 0
636 2 4.9220000000000006e+00 1.1366872099805333e+01 2.6860207275813121e+01 0 0 0
679 2 6.1524999999999999e+00 1.0656442593567499e+01 2.6860207275813121e+01 0 0 0
681 2 7.3829999999999991e+00 1.1366872099805333e+01 2.6860207275813121e+01 0 0 0
726 2 8.6134999999999984e+00 1.0656442593567498e+01 2.6860207275813121e+01 0 0 0
628 2 2.4610000000000003e+00 1.5629449137232328e+01 2.6860207275813121e+01 0 0 0
593 2 0.0000000000000000e+00 1.2787731112280996e+01 2.6860207275813121e+01 0 0 0
630 2 2.4610000000000003e+00 1.2787731112280996e+01 2.6860207275813121e+01 0 0 0
595 2 1.2305000000000001e+00 1.3498160618518829e+01 2.6860207275813121e+01 0 0 0
632 2 3.6915000000000004e+00 1.3498160618518829e+01 2.6860207275813121e+01 0 0 0
591 2 0.0000000000000000e+00 1.5629449137232333e+01 2.6860207275813121e+01 0 0 0
626 2 1.2305000000000001e+00 1.4919019630994494e+01 2.6860207275813121e+01 0 0 0
671 2 3.6915000000000004e+00 1.4919019630994494e+01 2.6860207275813121e+01 0 0 0
720 2 7.3829999999999991e+00 1.5629449137232333e+01 2.6860207275813121e+01 0 0 0
675 2 4.9220000000000006e+00 1.2787731112280996e+01 2.6860207275813121e+01 0 0 0
724 2 8.6135000000000002e+00 1.3498160618518835e+01 2.6860207275813121e+01 0 0 0
1545 1 3.6293890743953067e-01 9.2890432543883268e+00 2.1415087519147935e+01 0 0 1
6114 1 1.1004048400475162e+00 2.0472374184671795e+00 2.1659814777256400e+01 1 1 0
180 1 3.1154607900428188e+00 9.7229326039384922e+00 2.1871725274504882e+01 0 0 0
3168 1 6.5885510106566647e+00 5.6444363898037464e+00 2.1659214728628559e+01 2 -1 1
1887 1 7.4606262158399232e+00 9.9423894600423515e-02 2.4256600430400194e+01 1 1 0
3408 1 5.3463224017633530e+00 8.2205362600606851e+00 2.1291214834980273e+01 0 -1 0
553 2 0.0000000000000000e+00 1.4208590124756650e+00 3.0030999999999871e+01 0 0 0
555 2 0.0000000000000000e+00 0.0000000000000000e+00 3.0030999999999871e+01 0 0 0
564 2 1.2305000000000001e+00 2.1312885187134998e+00 3.0030999999999871e+01 0 0 0
566 2 2.4610000000000003e+00 1.4208590124756650e+00 3.0030999999999871e+01 0 0 0
568 2 2.4610000000000003e+00 0.0000000000000000e+00 3.0030999999999871e+01 0 0 0
585 2 3.6914999999999996e+00 2.1312885187134998e+00 3.0030999999999871e+01 0 0 0
562 2 1.2305000000000001e+00 3.5521475311891644e+00 3.0030999999999871e+01 0 0 0
583 2 3.6914999999999996e+00 3.5521475311891644e+00 3.0030999999999871e+01 0 0 0
881 2 0.0000000000000000e+00 2.8417180249513345e+00 3.3201792724187072e+01 0 0 0
882 2 0.0000000000000000e+00 0.0000000000000000e+00 3.3201792724187072e+01 0 0 0
883 2 1.2305000000000001e+00 7.1042950623783474e-01 3.3201792724187072e+01 0 0 0
887 2 1.2305000000000001e+00 2.1312885187134998e+00 3.3201792724187072e+01 0 0 0
888 2 2.4610000000000003e+00 2.8417180249513345e+00 3.3201792724187072e+01 0 0 0
889 2 2.4610000000000003e+00 0.0000000000000000e+00 3.3201792724187072e+01 0 0 0
890 2 3.6915000000000004e+00 7.1042950623783474e-01 3.3201792724187072e+01 0 0 0
898 2 3.6914999999999996e+00 2.1312885187134998e+00 3.3201792724187072e+01 0 0 0
587 2 4.9220000000000006e+00 1.4208590124756650e+00 3.0030999999999871e+01 0 0 0
589 2 4.9220000000000006e+00 0.0000000000000000e+00 3.0030999999999871e+01 0 0 0
614 2 6.1524999999999999e+00 2.1312885187134989e+00 3.0030999999999871e+01 0 0 0
616 2 7.3829999999999991e+00 1.4208590124756659e+00 3.0030999999999871e+01 0 0 0
618 2 7.3829999999999991e+00 0.0000000000000000e+00 3.0030999999999871e+01 0 0 0
651 2 8.6134999999999984e+00 2.1312885187135002e+00 3.0030999999999871e+01 0 0 0
612 2 6.1524999999999999e+00 3.5521475311891644e+00 3.0030999999999871e+01 0 0 0
649 2 8.6134999999999984e+00 3.5521475311891657e+00 3.0030999999999871e+01 0 0 0
899 2 4.9220000000000006e+00 2.8417180249513332e+00 3.3201792724187072e+01 0 0 0
900 2 4.9220000000000006e+00 0.0000000000000000e+00 3.3201792724187072e+01 0 0 0
901 2 6.1524999999999999e+00 7.1042950623783407e-01 3.3201792724187072e+01 0 0 0
913 2 6.1524999999999999e+00 2.1312885187134989e+00 3.3201792724187072e+01 0 0 0
914 2 7.3829999999999991e+00 2.8417180249513345e+00 3.3201792724187072e+01 0 0 0
915 2 7.3829999999999991e+00 0.0000000000000000e+00 3.3201792724187072e+01 0 0 0
916 2 8.6134999999999984e+00 7.1042950623783407e-01 3.3201792724187072e+01 0 0 0
932 2 8.6134999999999984e+00 2.1312885187135002e+00 3.3201792724187072e+01 0 0 0
558 2 0.0000000000000000e+00 5.6834360499026637e+00 3.0030999999999871e+01 0 0 0
560 2 0.0000000000000000e+00 4.2625770374269996e+00 3.0030999999999871e+01 0 0 0
577 2 1.2305000000000001e+00 6.3938655561404980e+00 3.0030999999999871e+01 0 0 0
579 2 2.4610000000000003e+00 5.6834360499026637e+00 3.0030999999999871e+01 0 0 0
581 2 2.4610000000000003e+00 4.2625770374269996e+00 3.0030999999999871e+01 0 0 0
606 2 3.6914999999999996e+00 6.3938655561404980e+00 3.0030999999999871e+01 0 0 0
575 2 1.2305000000000001e+00 7.8147245686161639e+00 3.0030999999999871e+01 0 0 0
604 2 3.6914999999999996e+00 7.8147245686161639e+00 3.0030999999999871e+01 0 0 0
885 2 0.0000000000000000e+00 4.2625770374269996e+00 3.3201792724187072e+01 0 0 0
886 2 1.2305000000000001e+00 4.9730065436648339e+00 3.3201792724187072e+01 0 0 0
894 2 1.2305000000000001e+00 6.3938655561404980e+00 3.3201792724187072e+01 0 0 0
896 2 2.4610000000000003e+00 4.2625770374269996e+00 3.3201792724187072e+01 0 0 0
897 2 3.6914999999999996e+00 4.9730065436648339e+00 3.3201792724187072e+01 0 0 0
909 2 3.6914999999999996e+00 6.3938655561404980e+00 3.3201792724187072e+01 0 0 0
884 2 0.0000000000000000e+00 7.1042950623783341e+00 3.3201792724187072e+01 0 0 0
895 2 2.4610000000000003e+00 7.1042950623783341e+00 3.3201792724187072e+01 0 0 0
608 2 4.9220000000000006e+00 5.6834360499026637e+00 3.0030999999999871e+01 0 0 0
610 2 4.9220000000000006e+00 4.2625770374269978e+00 3.0030999999999871e+01 0 0 0
643 2 6.1524999999999999e+00 6.3938655561404980e+00 3.0030999999999871e+01 0 0 0
645 2 7.3829999999999991e+00 5.6834360499026637e+00 3.0030999999999871e+01 0 0 0
647 2 7.3829999999999991e+00 4.2625770374269996e+00 3.0030999999999871e+01 0 0 0
688 2 8.6135000000000002e+00 6.3938655561404980e+00 3.0030999999999871e+01 0 0 0
641 2 6.1524999999999999e+00 7.8147245686161639e+00 3.0030999999999871e+01 0 0 0
686 2 8.6135000000000002e+00 7.8147245686161639e+00 3.0030999999999871e+01 0 0 0
911 2 4.9220000000000006e+00 4.2625770374269978e+00 3.3201792724187072e+01 0 0 0
912 2 6.1524999999999999e+00 4.9730065436648339e+00 3.3201792724187072e+01 0 0 0
928 2 6.1524999999999999e+00 6.3938655561404980e+00 3.3201792724187072e+01 0 0 0
930 2 7.3829999999999991e+00 4.2625770374269996e+00 3.3201792724187072e+01 0 0 0
931 2 8.6135000000000002e+00 4.9730065436648339e+00 3.3201792724187072e+01 0 0 0
951 2 8.6135000000000002e+00 6.3938655561404980e+00 3.3201792724187072e+01 0 0 0
910 2 4.9220000000000006e+00 7.1042950623783341e+00 3.3201792724187072e+01 0 0 0
929 2 7.3830000000000009e+00 7.1042950623783341e+00 3.3201792724187072e+01 0 0 0
571 2 0.0000000000000000e+00 9.9460130873296642e+00 3.0030999999999871e+01 0 0 0
573 2 0.0000000000000000e+00 8.5251540748539991e+00 3.0030999999999871e+01 0 0 0
600 2 2.4610000000000003e+00 9.9460130873296642e+00 3.0030999999999871e+01 0 0 0
602 2 2.4610000000000003e+00 8.5251540748539991e+00 3.0030999999999871e+01 0 0 0
596 2 1.2305000000000001e+00 1.2077301606043163e+01 3.0030999999999871e+01 0 0 0
598 2 1.2305000000000001e+00 1.0656442593567498e+01 3.0030999999999871e+01 0 0 0
633 2 3.6914999999999996e+00 1.2077301606043163e+01 3.0030999999999871e+01 0 0 0
635 2 3.6914999999999996e+00 1.0656442593567499e+01 3.0030999999999871e+01 0 0 0
892 2 0.0000000000000000e+00 8.5251540748539991e+00 3.3201792724187072e+01 0 0 0
893 2 1.2305000000000001e+00 9.2355835810918343e+00 3.3201792724187072e+01 0 0 0
907 2 2.4610000000000003e+00 8.5251540748539991e+00 3.3201792724187072e+01 0 0 0
908 2 3.6915000000000004e+00 9.2355835810918343e+00 3.3201792724187072e+01 0 0 0
891 2 0.0000000000000000e+00 1.1366872099805333e+01 3.3201792724187072e+01 0 0 0
905 2 1.2305000000000001e+00 1.0656442593567498e+01 3.3201792724187072e+01 0 0 0
906 2 2.4610000000000003e+00 1.1366872099805333e+01 3.3201792724187072e+01 0 0 0
924 2 3.6914999999999996e+00 1.0656442593567499e+01 3.3201792724187072e+01 0 0 0
637 2 4.9220000000000006e+00 9.9460130873296642e+00 3.0030999999999871e+01 0 0 0
639 2 4.9220000000000006e+00 8.5251540748539991e+00 3.0030999999999871e+01 0 0 0
682 2 7.3830000000000009e+00 9.9460130873296642e+00 3.0030999999999871e+01 0 0 0
684 2 7.3830000000000009e+00 8.5251540748539991e+00 3.0030999999999871e+01 0 0 0
678 2 6.1524999999999999e+00 1.2077301606043163e+01 3.0030999999999871e+01 0 0 0
680 2 6.1524999999999999e+00 1.0656442593567499e+01 3.0030999999999871e+01 0 0 0
725 2 8.6135000000000002e+00 1.2077301606043163e+01 3.0030999999999871e+01 0 0 0
727 2 8.6134999999999984e+00 1.0656442593567498e+01 3.0030999999999871e+01 0 0 0
926 2 4.9220000000000006e+00 8.5251540748539991e+00 3.3201792724187072e+01 0 0 0
927 2 6.1524999999999999e+00 9.2355835810918343e+00 3.3201792724187072e+01 0 0 0
949 2 7.3830000000000009e+00 8.5251540748539991e+00 3.3201792724187072e+01 0 0 0
950 2 8.6134999999999984e+00 9.2355835810918343e+00 3.3201792724187072e+01 0 0 0
925 2 4.9220000000000006e+00 1.1366872099805333e+01 3.3201792724187072e+01 0 0 0
947 2 6.1524999999999999e+00 1.0656442593567499e+01 3.3201792724187072e+01 0 0 0
948 2 7.3829999999999991e+00 1.1366872099805333e+01 3.3201792724187072e+01 0 0 0
971 2 8.6134999999999984e+00 1.0656442593567498e+01 3.3201792724187072e+01 0 0 0
594 2 0.0000000000000000e+00 1.2787731112280996e+01 3.0030999999999871e+01 0 0 0
631 2 2.4610000000000003e+00 1.2787731112280996e+01 3.0030999999999871e+01 0 0 0
592 2 0.0000000000000000e+00 1.4208590124756663e+01 3.0030999999999871e+01 0 0 0
627 2 1.2305000000000001e+00 1.4919019630994494e+01 3.0030999999999871e+01 0 0 0
629 2 2.4610000000000003e+00 1.4208590124756663e+01 3.0030999999999871e+01 0 0 0
672 2 3.6915000000000004e+00 1.4919019630994494e+01 3.0030999999999871e+01 0 0 0
903 2 0.0000000000000000e+00 1.2787731112280996e+01 3.3201792724187072e+01 0 0 0
904 2 1.2305000000000001e+00 1.3498160618518829e+01 3.3201792724187072e+01 0 0 0
922 2 2.4610000000000003e+00 1.2787731112280996e+01 3.3201792724187072e+01 0 0 0
923 2 3.6915000000000004e+00 1.3498160618518829e+01 3.3201792724187072e+01 0 0 0
902 2 0.0000000000000000e+00 1.5629449137232333e+01 3.3201792724187072e+01 0 0 0
920 2 1.2305000000000001e+00 1.4919019630994494e+01 3.3201792724187072e+01 0 0 0
921 2 2.4610000000000003e+00 1.5629449137232328e+01 3.3201792724187072e+01 0 0 0
943 2 3.6915000000000004e+00 1.4919019630994494e+01 3.3201792724187072e+01 0 0 0
676 2 4.9220000000000006e+00 1.2787731112280996e+01 3.0030999999999871e+01 0 0 0
723 2 7.3829999999999991e+00 1.2787731112280996e+01 3.0030999999999871e+01 0 0 0
674 2 4.9220000000000006e+00 1.4208590124756663e+01 3.0030999999999871e+01 0 0 0
719 2 6.1524999999999990e+00 1.4919019630994494e+01 3.0030999999999871e+01 0 0 0
721 2 7.3830000000000009e+00 1.4208590124756663e+01 3.0030999999999871e+01 0 0 0
766 2 8.6135000000000002e+00 1.4919019630994494e+01 3.0030999999999871e+01 0 0 0
945 2 4.9220000000000006e+00 1.2787731112280996e+01 3.3201792724187072e+01 0 0 0
946 2 6.1524999999999990e+00 1.3498160618518829e+01 3.3201792724187072e+01 0 0 0
969 2 7.3829999999999991e+00 1.2787731112280996e+01 3.3201792724187072e+01 0 0 0
970 2 8.6135000000000002e+00 1.3498160618518835e+01 3.3201792724187072e+01 0 0 0
944 2 4.9220000000000006e+00 1.5629449137232333e+01 3.3201792724187072e+01 0 0 0
967 2 6.1524999999999990e+00 1.4919019630994494e+01 3.3201792724187072e+01 0 0 0
968 2 7.3829999999999991e+00 1.5629449137232333e+01 3.3201792724187072e+01 0 0 0
991 2 8.6135000000000002e+00 1.4919019630994494e+01 3.3201792724187072e+01 0 0 0
6066 1 1.8815115793097763e+00 1.2218976977277398e+00 3.5847027120035058e+01 -1 1 -1
1340 1 4.7271065238350189e+00 2.8970590190571479e+00 3.5923979926463694e+01 2 -1 0
2835 1 1.0693552488901890e+00 1.4095032127841725e+01 3.5757982942948964e+01 1 0 0
2005 1 8.9222267229239467e+00 2.3319043165574906e+00 3.6032777241519256e+01 2 0 0
5179 1 5.1765883202698451e+00 6.0051402342956983e-01 3.7296890596679205e+01 1 0 -1
6087 1 6.8500750509335919e+00 1.2771650179249788e+01 3.8362163896965001e+01 0 1 0
3295 1 2.3685503584002174e+00 4.6310622143243600e+00 3.6165724884085904e+01 1 0 -1
6002 1 2.9560322868210833e+00 1.6129282671564443e+01 3.6010508663550851e+01 0 -1 0
6229 1 3.6383355877063051e+00 7.2358442229595283e+00 3.6582654049364884e+01 -1 0 0
124 1 6.4140734275645919e+00 7.4856911289290977e+00 3.8408957912082620e+01 0 0 0
3053 1 2.3695267677986394e+00 1.7279286084359038e+00 3.8312692579052538e+01 1 0 0
4861 1 7.0363508821644212e+00 4.4097762535398504e+00 3.6280217159087968e+01 1 0 -1
4842 1 6.2436806115875481e+00 7.1070157216721626e+00 3.5538149138774870e+01 0 0 -1
210 1 5.2925507129461691e+00 1.2092036298431106e+01 3.5744796123496549e+01 1 0 -1
5054 1 2.1247456630868382e+00 9.4440025004717736e+00 3.5839556560514517e+01 1 1 0
5316 1 2.7887464048418718e+00 1.2058727710862312e+01 3.6587740315001597e+01 1 1 0
1896 1 7.5844038340283513e+00 1.4118712424396712e+01 3.5728705454999485e+01 -1 0 -1
1301 1 6.3959179734204774e+00 9.8731511186913217e+00 3.6332472047337433e+01 1 0 0
2975 1 9.0109807662924286e+00 1.0164312776461603e+01 3.5778967108413127e+01 0 1 0
2136 1 1.7062429137168726e+00 4.5866348168545992e+00 3.8877805495281685e+01 -1 1 -1
1289 1 9.3550820905144345e+00 6.5588068250753819e+00 3.5439983598396026e+01 1 0 0
6080 1 9.6612040955180518e+00 7.6172988524896228e+00 3.8873347449999891e+01 1 0 -1
4458 1 1.7557035542059767e+00 1.2142735605527227e+01 4.0541476707810013e+01 1 -1 0
4917 1 3.2737853691957981e+00 4.1776433048651187e+00 4.2571004281972208e+01 2 1 -1
3489 1 9.2089041958642834e+00 1.2157660689444707e+01 4.1052663690403769e+01 1 0 -1
3495 1 7.6790833801297129e+00 1.6275202944609156e+01 4.3327265840795775e+01 1 0 -1
3300 1 4.2825847165545010e+00 3.0708057820746038e-01 4.3103532424190362e+01 1 0 -1
3148 1 1.6635907020982770e+00 6.5674931228973286e+00 4.2812645623784846e+01 0 1 -1
3594 1 4.5771731260009725e+00 7.9529345005604872e+00 4.2123810297664804e+01 0 1 -1
2063 1 9.6301295002898932e+00 1.3343987013943032e+01 4.4376219323566097e+01 1 0 0
364 1 7.5817421926305062e-01 6.0785449051934926e+00 4.6701960324956254e+01 1 0 0
3003 1 4.5313482638186118e+00 4.0264488077128604e+00 4.0014377301699589e+01 0 1 -1
5973 1 6.0230231796872378e+00 5.5656968564074800e+00 4.3502867787650281e+01 1 0 -1
63 1 7.3368400708620820e+00 4.6539249877302264e+00 3.8977476107366847e+01 1 1 0
1518 1 1.3063113523268539e+00 9.5773966589624404e+00 4.2429738374472187e+01 1 2 0
202 1 7.8521222945141673e+00 8.2717744928591532e+00 4.2887922675669806e+01 1 0 -1
2962 1 3.5684381929837627e+00 9.5768240115137555e+00 4.4159272130038275e+01 1 0 -1
5994 1 8.5066194437721006e+00 9.5246602118819759e+00 4.0410825478173933e+01 0 2 -1
4639 1 5.9478809965962656e+00 1.0325833356548037e+01 3.9606782818463564e+01 0 0 0
4617 1 7.7648862907703045e+00 1.4534826903708577e+01 4.6361669522988414e+01 1 1 0
1867 1 4.9344542463375527e+00 1.1805979037563809e+01 4.3025500675080259e+01 0 -1 0
4405 1 4.3235144797235856e+00 1.5319680419575070e+01 4.0233628961915826e+01 -1 1 0
4750 1 4.6833333707977971e+00 1.4386704541668260e+00 4.0279477171609074e+01 0 1 0
4859 1 7.4541829542880240e+00 1.4854857561553631e+01 4.0123626288849614e+01 0 1 -1
1573 1 7.3113783437261315e+00 1.3446108023945587e+01 4.2580079039871606e+01 0 0 -1
1366 1 9.0431970078021950e-01 2.5187850240186602e+00 4.2243597628117669e+01 0 0 -1
6269 1 3.4922834019170197e+00 4.4962077795287563e+00 4.6602382700677460e+01 0 0 0
1566 1 8.8989995588391029e+00 3.0321490449442963e+00 4.1536068996512235e+01 -1 1 0
130 1 6.4043023854410457e+00 2.7941144487203347e+00 4.3008978820064698e+01 0 0 0
1505 1 3.5496908488557630e+00 1.4661783308177737e+01 4.7533444476322508e+01 1 1 0
6182 1 5.5706735112352546e-01 7.3550874501596102e+00 4.0134531499212343e+01 1 1 0
1622 1 8.1175444711960303e+00 3.2167950460138512e+00 4.5444939279662272e+01 0 0 -1