LAMMPS data file via write_data, version 16 Mar 2018, timestep = 8000000

6328 atoms
2 atom types

0.0000000000000000e+00 4.9219999999999999e+01 xlo xhi
0.0000000000000000e+00 4.9019635930410494e+01 ylo yhi
2.0578760358907431e+00 5.8004123964092400e+01 zlo zhi

Masses

1 18.015
2 12.01

Atoms # atomic

4518 1 3.8623242836465881e+00 5.8891702018833847e-01 5.4430956519363116e+00 0 1 0
3532 1 2.2559640198735904e+00 2.2629787285298977e+00 6.7055870731586689e+00 2 0 0
4917 1 1.3982938409461452e+00 4.4303629960110165e+00 2.9023573651665640e+00 1 1 0
428 1 1.0180640615958805e+00 1.6232952541090146e+01 2.4143601019718313e+00 4 -1 1
3605 1 5.8359229687634366e+00 2.8203258740502668e+00 5.9478811442023680e+00 2 -1 1
1278 1 6.1681253090775883e+00 3.1816312213072164e+00 3.0763752973863276e+00 -2 -1 1
4476 1 1.8682371585229391e+00 4.7416614199564977e+00 5.6569344650694040e+00 -2 0 1
5172 1 3.5776639683179368e+00 7.0910439166324890e+00 3.1514635656609480e+00 2 -3 1
1676 1 3.6633256825520828e+00 6.6741027999078977e+00 5.8177627572555011e+00 1 -2 0
2843 1 8.1423234249547978e+00 7.2595146306811520e+00 3.3039212176176980e+00 2 1 0
224 1 8.3645227182679314e+00 6.7031166306573633e+00 6.0067092502464234e+00 3 1 0
1922 1 5.1929718708516859e+00 1.3151142850074622e+01 9.7268847332348152e+00 -1 -4 0
5026 1 7.5100607367661010e-01 1.0331668410093840e+01 5.8609031287142193e+00 2 0 1
145 1 9.3000409370706438e-01 1.0914953545730681e+01 3.1843345066506150e+00 0 -1 0
3173 1 6.0669143654420155e-01 1.2872314512052876e+01 9.7577439270923527e+00 4 -2 0
232 1 5.7982067836249742e+00 8.3109681054024129e+00 2.3833527356268194e+00 4 -1 1
4409 1 5.3864418999894861e+00 1.0601664206304472e+01 6.3799800925532004e+00 3 4 0
5293 1 5.5244518771996214e+00 1.0951980638164207e+01 3.6616666718424864e+00 -1 -3 0
6261 1 3.1075268807980625e+00 1.4504122062322784e+01 6.1959674652024743e+00 2 -3 1
4521 1 3.1856997796519142e+00 1.4594694662750964e+01 3.3694868794017085e+00 1 2 1
4985 1 7.4042286169672789e+00 1.4541654967131519e+01 1.0674617675132552e+01 5 2 0
3260 1 7.4875459347871240e+00 1.4418171853459375e+01 6.1590237458754391e+00 2 2 1
6209 1 7.3524477311263920e+00 1.4488179916655525e+01 3.3044047519015729e+00 2 -1 0
3334 1 9.5338623975638264e+00 1.6160007302339622e+01 2.4275813245638527e+00 3 1 1
3679 1 8.1164102402222704e-01 1.2929251408936501e+01 7.0090423203449275e+00 0 -2 0
5295 1 5.2652804323255014e+00 1.3219538260009294e+01 7.0945688113665346e+00 5 -2 1
382 1 4.1666745013014852e+00 6.9154052622272533e-01 1.0438119191993504e+01 2 0 0
35 1 2.1602296227129885e+00 2.3209153715116981e+00 9.4043078110680050e+00 1 -1 0
4593 1 8.4814067098663237e+00 1.6724266902271256e+00 6.8469361028115614e+00 -2 1 1
1830 1 6.3628109278788276e+00 2.4361656392514011e+00 1.0394350635276547e+01 -1 1 0
364 1 8.5233047180465498e+00 1.1048537917423193e+00 9.4347729564175644e+00 -1 2 1
5176 1 4.0390459449464533e+00 6.4565345126368578e+00 1.0697934937369835e+01 -2 0 0
2837 1 1.6857684490389615e+00 4.9034619170472933e+00 1.0381952517558430e+01 -1 -1 1
6234 1 6.0149141907566319e+00 5.4484773775751467e+00 7.0684263591937277e+00 -1 5 1
6181 1 8.4677995437523315e+00 6.6407199390789104e+00 1.0556431578150711e+01 -1 1 1
3431 1 6.1335776278291201e+00 5.2305617361353454e+00 9.8189716736756019e+00 -1 -2 1
2054 1 3.0372668155305083e+00 9.1320718779267960e+00 6.9890263837753022e+00 -3 3 1
1457 1 3.3087965245501487e+00 9.1225521292533625e+00 9.9147887335510703e+00 1 2 1
5139 1 1.1639255562497897e+00 1.0471580379229273e+01 1.1079771872866813e+01 1 1 1
6296 1 7.9265738848574268e+00 9.1244170385296588e+00 6.8487636423002076e+00 2 1 1
3601 1 5.6235900056884605e+00 1.0248363784568337e+01 1.0795332897332546e+01 0 2 0
136 1 7.9285029437005523e+00 9.2865203263217477e+00 9.7249529419049043e+00 -1 -2 1
6197 1 2.8519531200166792e+00 1.4409799253272224e+01 1.0582992303238280e+01 -3 -6 1
3517 1 3.2740013664952730e+00 1.2078967508725242e+01 2.3729870759199678e+00 4 1 0
3361 1 7.9481887266104927e+00 4.8707353112816314e+00 2.1607234901305117e+00 3 4 0
6018 1 5.2630995677282488e+00 1.6052012768121031e+01 2.2761193800903468e+00 1 2 1
493 1 1.2675105782295089e+00 8.5156507358503912e+00 2.2678443471577974e+00 -2 -2 1
3055 1 7.7290829417480227e+00 1.1706261035642534e+01 2.2441389963916167e+00 -2 1 0
3066 1 9.7436972434657338e+00 1.3136579716439355e+01 7.0221091769276009e+00 2 -2 1
297 1 9.7786254455566137e+00 1.3335552650823933e+01 9.7015236574867671e+00 1 6 1
4712 1 9.8293841278436993e+00 1.0698963827965050e+01 5.9865801428906495e+00 6 3 1
4601 1 2.6271822813081749e+00 1.4312957886367659e+00 1.4350094924431795e+01 3 2 0
3717 1 4.3770892393639809e+00 3.6155019904742112e+00 1.4346837717720618e+01 -4 -2 1
5289 1 7.9750058470232066e+00 6.2640521694881892e+00 2.0102750636587352e+01 0 1 0
2982 1 6.6897847630681806e+00 2.4580319051802868e+00 1.3178635992884148e+01 3 -2 1
6175 1 8.9331526137005657e+00 3.7876371803127484e+00 1.4240648071066506e+01 -3 3 1
2019 1 7.4447373661544294e+00 1.4980269335447012e+01 1.7557749988928023e+01 0 -1 1
2112 1 1.3756506087711029e+00 4.0629710852226957e+00 1.2887912543369174e+01 -1 2 0
1424 1 3.5175207662107906e+00 6.2457519621876507e+00 1.3543685307827770e+01 -1 -3 1
4621 1 1.2405028347894342e+00 7.7252369247403543e+00 1.3995208013375246e+01 -1 0 1
4486 1 8.3913132279643499e+00 6.5638911711851273e+00 1.3486641316973714e+01 -7 0 1
4758 1 1.2948939904566679e+00 1.0560733960820745e+01 1.3914348324362942e+01 3 -1 1
5200 1 3.5679318179674682e+00 1.1922075581416808e+01 1.4545182970761067e+01 1 -2 0
3278 1 5.8658528747401393e+00 7.6460678075440898e+00 1.4552693334402193e+01 -3 4 0
141 1 5.4594947686662900e+00 1.0242895995866336e+01 1.3547297008769560e+01 1 2 0
1950 1 7.6674440974406588e+00 1.1960112940224597e+01 1.4316986520012215e+01 -1 -1 0
6100 1 3.1640462246679810e+00 1.4629662387118952e+01 1.3481824795534269e+01 -2 3 1
6073 1 5.0938086278643606e+00 1.6050911056430163e+01 1.4135608209190961e+01 4 0 0
471 1 9.6019913681603875e+00 1.6254044842389614e+01 1.6385907933143223e+01 -6 -2 0
520 1 7.2242625808259682e+00 1.4650256339382778e+01 1.3474820733526583e+01 0 1 1
5047 1 7.5253873639774156e+00 1.4520566618964317e+01 2.0135061085966516e+01 -1 3 0
6235 1 2.6063922517777507e+00 2.2647161699036258e+00 1.8172561607761548e+01 3 3 0
3394 1 4.3419188044362080e+00 3.9046060659710866e+00 1.6892365866090373e+01 2 0 0
4516 1 4.8614043141112395e+00 1.5776282892905051e+01 1.6902312742515640e+01 5 -1 1
5983 1 6.5056486216721909e+00 2.4803822486286267e+00 1.8145465058380779e+01 -6 -1 1
6260 1 8.5821020583021195e+00 3.7299089010980047e+00 1.6853055195079136e+01 0 -1 0
78 1 2.5595308652741604e+00 1.4674195755562733e+01 1.7842066519659674e+01 5 4 1
2116 1 3.8086530986537417e+00 6.4483632733121166e+00 1.7901140479912399e+01 1 1 0
3305 1 1.4002422733434041e+00 7.7291475526713480e+00 1.7014871541269059e+01 1 3 1
421 1 5.4291000936034561e-01 1.5597118960970496e+01 1.4285988057615118e+01 -1 1 1
456 1 8.4812371690602095e+00 6.5566975513996741e+00 1.7296451488059798e+01 3 1 0
3719 1 5.9467372269071523e+00 8.0760049271010033e+00 1.7330121039186920e+01 3 1 0
4420 1 1.5146179507795057e-01 1.0047506009182035e+00 1.2591078020219911e+01 0 0 1
36 1 3.2771452299323509e+00 1.1774220932241057e+01 1.7186190877712065e+01 4 2 0
1938 1 1.0609870412796389e+00 1.0219849102085059e+01 1.7860258859152072e+01 -4 1 0
5140 1 5.8771809193396196e+00 1.0798851390138125e+01 1.7889095498941671e+01 2 -1 1
2049 1 8.0158551877670305e+00 1.2387720730220330e+01 1.6997534454204242e+01 -4 2 0
4755 1 8.0468331436230472e-02 1.5430430531765493e+01 1.6923642279298186e+01 -2 0 0
3584 1 9.6285214444362168e+00 1.6214244054700945e+01 1.3679012978957026e+01 1 2 1
1749 1 3.3128350360428271e-02 3.4239082026572953e+00 1.7647460276833016e+01 -1 1 0
1755 1 5.0754263818096756e-01 9.9305008809828106e+00 2.0624696713634957e+01 -1 0 0
223 1 1.3753292605889997e+00 1.7884861150228379e+00 2.3922074520458082e+01 4 2 1
427 1 3.7053650083362428e+00 3.3981594448826309e+00 2.3951667516057938e+01 2 -5 0
189 1 5.5242733301411553e+00 1.0703799973802495e+01 2.0853002035907217e+01 -4 1 0
1780 1 9.8389932707458905e-01 7.1681695535616665e+00 2.1051557609325950e+01 0 -2 0
242 1 4.9536225979631219e+00 1.5615427612168752e+01 2.4082468378463371e+01 2 1 0
1295 1 6.0926435834105872e+00 2.0750113319391574e+00 2.4284982163699443e+01 -3 2 1
1553 1 8.5098762839379187e+00 3.7305934086867656e+00 2.3932111149167572e+01 1 -3 1
4937 1 3.5772238296937307e+00 5.9824045370477927e+00 2.4069530957790050e+01 -3 -3 1
5039 1 9.8291082749245673e-01 7.3066905596403595e+00 2.3815249468582142e+01 3 0 0
765 2 8.6135000000000002e+00 1.4919019630994494e+01 2.6692399047492270e+01 0 0 0
3338 1 9.6611228594761673e+00 1.6217425637260202e+01 2.1012084241240409e+01 -3 -1 0
4909 1 8.4020644586986819e+00 6.4389595636949677e+00 2.4129443383744164e+01 -2 -3 1
4793 1 5.7443081603742625e+00 7.6675318754877919e+00 2.3671486431657470e+01 -2 0 0
1261 1 2.7295150591634156e+00 1.1412297255169172e+01 2.4020838315823713e+01 1 -2 1
6057 1 8.0891789397254996e+00 1.1900239157572612e+01 2.1123688723237258e+01 0 1 1
4504 1 6.0492326806849006e-01 1.0084881389336172e+01 2.3778367030093357e+01 -1 0 1
6148 1 5.5275655344065555e+00 1.0623732971939249e+01 2.3944368987810648e+01 -2 -1 1
4959 1 8.0188859660086393e+00 1.2037274077613992e+01 2.3855163932505430e+01 2 1 0
673 2 4.9220000000000006e+00 1.5629449137232333e+01 2.6692399047492270e+01 0 0 0
3235 1 5.6575002956456171e+00 7.8213186797501413e+00 2.0726058691152655e+01 1 -1 0
3340 1 2.6077880936428830e+00 1.4101506840427493e+01 2.3713505207140994e+01 1 -2 1
1747 1 2.7672524509891141e+00 1.1621984648143926e+01 2.1251621719837345e+01 -1 0 0
1649 1 3.7149104908662194e+00 3.2933452726431933e+00 2.1029468526842411e+01 2 -1 0
1666 1 7.7038224489690519e+00 1.4781960773864222e+01 2.4439152073180388e+01 0 -1 0
70 1 1.4551330048524698e+00 1.5986755478556900e+00 2.0972066531849503e+01 -1 0 1
552 2 0.0000000000000000e+00 2.8417180249513345e+00 2.6692399047492270e+01 0 0 0
554 2 0.0000000000000000e+00 0.0000000000000000e+00 2.6692399047492270e+01 0 0 0
556 2 1.2305000000000001e+00 7.1042950623783474e-01 2.6692399047492270e+01 0 0 0
563 2 1.2305000000000001e+00 2.1312885187134998e+00 2.6692399047492270e+01 0 0 0
565 2 2.4610000000000003e+00 2.8417180249513345e+00 2.6692399047492270e+01 0 0 0
567 2 2.4610000000000003e+00 0.0000000000000000e+00 2.6692399047492270e+01 0 0 0
569 2 3.6915000000000004e+00 7.1042950623783474e-01 2.6692399047492270e+01 0 0 0
584 2 3.6914999999999996e+00 2.1312885187134998e+00 2.6692399047492270e+01 0 0 0
586 2 4.9220000000000006e+00 2.8417180249513332e+00 2.6692399047492270e+01 0 0 0
588 2 4.9220000000000006e+00 0.0000000000000000e+00 2.6692399047492270e+01 0 0 0
590 2 6.1524999999999999e+00 7.1042950623783407e-01 2.6692399047492270e+01 0 0 0
613 2 6.1524999999999999e+00 2.1312885187134989e+00 2.6692399047492270e+01 0 0 0
615 2 7.3829999999999991e+00 2.8417180249513345e+00 2.6692399047492270e+01 0 0 0
617 2 7.3829999999999991e+00 0.0000000000000000e+00 2.6692399047492270e+01 0 0 0
619 2 8.6134999999999984e+00 7.1042950623783407e-01 2.6692399047492270e+01 0 0 0
650 2 8.6134999999999984e+00 2.1312885187135002e+00 2.6692399047492270e+01 0 0 0
559 2 0.0000000000000000e+00 4.2625770374269996e+00 2.6692399047492270e+01 0 0 0
561 2 1.2305000000000001e+00 4.9730065436648339e+00 2.6692399047492270e+01 0 0 0
576 2 1.2305000000000001e+00 6.3938655561404980e+00 2.6692399047492270e+01 0 0 0
580 2 2.4610000000000003e+00 4.2625770374269996e+00 2.6692399047492270e+01 0 0 0
582 2 3.6914999999999996e+00 4.9730065436648339e+00 2.6692399047492270e+01 0 0 0
605 2 3.6914999999999996e+00 6.3938655561404980e+00 2.6692399047492270e+01 0 0 0
557 2 0.0000000000000000e+00 7.1042950623783341e+00 2.6692399047492270e+01 0 0 0
578 2 2.4610000000000003e+00 7.1042950623783341e+00 2.6692399047492270e+01 0 0 0
609 2 4.9220000000000006e+00 4.2625770374269978e+00 2.6692399047492270e+01 0 0 0
611 2 6.1524999999999999e+00 4.9730065436648339e+00 2.6692399047492270e+01 0 0 0
642 2 6.1524999999999999e+00 6.3938655561404980e+00 2.6692399047492270e+01 0 0 0
646 2 7.3829999999999991e+00 4.2625770374269996e+00 2.6692399047492270e+01 0 0 0
648 2 8.6135000000000002e+00 4.9730065436648339e+00 2.6692399047492270e+01 0 0 0
687 2 8.6135000000000002e+00 6.3938655561404980e+00 2.6692399047492270e+01 0 0 0
607 2 4.9220000000000006e+00 7.1042950623783341e+00 2.6692399047492270e+01 0 0 0
644 2 7.3830000000000009e+00 7.1042950623783341e+00 2.6692399047492270e+01 0 0 0
572 2 0.0000000000000000e+00 8.5251540748539991e+00 2.6692399047492270e+01 0 0 0
574 2 1.2305000000000001e+00 9.2355835810918343e+00 2.6692399047492270e+01 0 0 0
601 2 2.4610000000000003e+00 8.5251540748539991e+00 2.6692399047492270e+01 0 0 0
603 2 3.6915000000000004e+00 9.2355835810918343e+00 2.6692399047492270e+01 0 0 0
570 2 0.0000000000000000e+00 1.1366872099805333e+01 2.6692399047492270e+01 0 0 0
597 2 1.2305000000000001e+00 1.0656442593567498e+01 2.6692399047492270e+01 0 0 0
599 2 2.4610000000000003e+00 1.1366872099805333e+01 2.6692399047492270e+01 0 0 0
634 2 3.6914999999999996e+00 1.0656442593567499e+01 2.6692399047492270e+01 0 0 0
638 2 4.9220000000000006e+00 8.5251540748539991e+00 2.6692399047492270e+01 0 0 0
640 2 6.1524999999999999e+00 9.2355835810918343e+00 2.6692399047492270e+01 0 0 0
683 2 7.3830000000000009e+00 8.5251540748539991e+00 2.6692399047492270e+01 0 0 0
685 2 8.6134999999999984e+00 9.2355835810918343e+00 2.6692399047492270e+01 0 0 0
636 2 4.9220000000000006e+00 1.1366872099805333e+01 2.6692399047492270e+01 0 0 0
679 2 6.1524999999999999e+00 1.0656442593567499e+01 2.6692399047492270e+01 0 0 0
681 2 7.3829999999999991e+00 1.1366872099805333e+01 2.6692399047492270e+01 0 0 0
726 2 8.6134999999999984e+00 1.0656442593567498e+01 2.6692399047492270e+01 0 0 0
626 2 1.2305000000000001e+00 1.4919019630994494e+01 2.6692399047492270e+01 0 0 0
591 2 0.0000000000000000e+00 1.5629449137232333e+01 2.6692399047492270e+01 0 0 0
593 2 0.0000000000000000e+00 1.2787731112280996e+01 2.6692399047492270e+01 0 0 0
630 2 2.4610000000000003e+00 1.2787731112280996e+01 2.6692399047492270e+01 0 0 0
671 2 3.6915000000000004e+00 1.4919019630994494e+01 2.6692399047492270e+01 0 0 0
628 2 2.4610000000000003e+00 1.5629449137232328e+01 2.6692399047492270e+01 0 0 0
632 2 3.6915000000000004e+00 1.3498160618518829e+01 2.6692399047492270e+01 0 0 0
595 2 1.2305000000000001e+00 1.3498160618518829e+01 2.6692399047492270e+01 0 0 0
718 2 6.1524999999999990e+00 1.4919019630994494e+01 2.6692399047492270e+01 0 0 0
724 2 8.6135000000000002e+00 1.3498160618518835e+01 2.6692399047492270e+01 0 0 0
720 2 7.3829999999999991e+00 1.5629449137232333e+01 2.6692399047492270e+01 0 0 0
675 2 4.9220000000000006e+00 1.2787731112280996e+01 2.6692399047492270e+01 0 0 0
677 2 6.1524999999999990e+00 1.3498160618518829e+01 2.6692399047492270e+01 0 0 0
722 2 7.3829999999999991e+00 1.2787731112280996e+01 2.6692399047492270e+01 0 0 0
411 1 6.1867355400700053e+00 2.1307458745013230e+00 2.0916569823421415e+01 0 -3 1
3184 1 3.5047739327327387e+00 6.0140379390097918e+00 2.0752378507960465e+01 -1 2 0
4445 1 8.4872947674604013e+00 3.5810124889632076e+00 2.1351959348618752e+01 0 3 1
1901 1 5.0142830001296170e+00 1.5318811071293901e+01 2.1453694779618292e+01 1 -1 0
3379 1 1.2691753441728187e-01 1.5567390525257938e+01 2.3852019016627597e+01 1 -2 1
3440 1 2.3592591099834057e+00 1.4280212333252519e+01 2.0745100283330601e+01 1 3 1
553 2 0.0000000000000000e+00 1.4208590124756650e+00 3.0030999999991653e+01 0 0 0
555 2 0.0000000000000000e+00 0.0000000000000000e+00 3.0030999999991653e+01 0 0 0
564 2 1.2305000000000001e+00 2.1312885187134998e+00 3.0030999999991653e+01 0 0 0
566 2 2.4610000000000003e+00 1.4208590124756650e+00 3.0030999999991653e+01 0 0 0
568 2 2.4610000000000003e+00 0.0000000000000000e+00 3.0030999999991653e+01 0 0 0
585 2 3.6914999999999996e+00 2.1312885187134998e+00 3.0030999999991653e+01 0 0 0
562 2 1.2305000000000001e+00 3.5521475311891644e+00 3.0030999999991653e+01 0 0 0
583 2 3.6914999999999996e+00 3.5521475311891644e+00 3.0030999999991653e+01 0 0 0
881 2 0.0000000000000000e+00 2.8417180249513345e+00 3.3369600952490757e+01 0 0 0
882 2 0.0000000000000000e+00 0.0000000000000000e+00 3.3369600952490757e+01 0 0 0
883 2 1.2305000000000001e+00 7.1042950623783474e-01 3.3369600952490757e+01 0 0 0
887 2 1.2305000000000001e+00 2.1312885187134998e+00 3.3369600952490757e+01 0 0 0
888 2 2.4610000000000003e+00 2.8417180249513345e+00 3.3369600952490757e+01 0 0 0
889 2 2.4610000000000003e+00 0.0000000000000000e+00 3.3369600952490757e+01 0 0 0
890 2 3.6915000000000004e+00 7.1042950623783474e-01 3.3369600952490757e+01 0 0 0
898 2 3.6914999999999996e+00 2.1312885187134998e+00 3.3369600952490757e+01 0 0 0
587 2 4.9220000000000006e+00 1.4208590124756650e+00 3.0030999999991653e+01 0 0 0
589 2 4.9220000000000006e+00 0.0000000000000000e+00 3.0030999999991653e+01 0 0 0
614 2 6.1524999999999999e+00 2.1312885187134989e+00 3.0030999999991653e+01 0 0 0
616 2 7.3829999999999991e+00 1.4208590124756659e+00 3.0030999999991653e+01 0 0 0
618 2 7.3829999999999991e+00 0.0000000000000000e+00 3.0030999999991653e+01 0 0 0
651 2 8.6134999999999984e+00 2.1312885187135002e+00 3.0030999999991653e+01 0 0 0
612 2 6.1524999999999999e+00 3.5521475311891644e+00 3.0030999999991653e+01 0 0 0
649 2 8.6134999999999984e+00 3.5521475311891657e+00 3.0030999999991653e+01 0 0 0
899 2 4.9220000000000006e+00 2.8417180249513332e+00 3.3369600952490757e+01 0 0 0
900 2 4.9220000000000006e+00 0.0000000000000000e+00 3.3369600952490757e+01 0 0 0
901 2 6.1524999999999999e+00 7.1042950623783407e-01 3.3369600952490757e+01 0 0 0
913 2 6.1524999999999999e+00 2.1312885187134989e+00 3.3369600952490757e+01 0 0 0
914 2 7.3829999999999991e+00 2.8417180249513345e+00 3.3369600952490757e+01 0 0 0
915 2 7.3829999999999991e+00 0.0000000000000000e+00 3.3369600952490757e+01 0 0 0
916 2 8.6134999999999984e+00 7.1042950623783407e-01 3.3369600952490757e+01 0 0 0
932 2 8.6134999999999984e+00 2.1312885187135002e+00 3.3369600952490757e+01 0 0 0
558 2 0.0000000000000000e+00 5.6834360499026637e+00 3.0030999999991653e+01 0 0 0
560 2 0.0000000000000000e+00 4.2625770374269996e+00 3.0030999999991653e+01 0 0 0
577 2 1.2305000000000001e+00 6.3938655561404980e+00 3.0030999999991653e+01 0 0 0
579 2 2.4610000000000003e+00 5.6834360499026637e+00 3.0030999999991653e+01 0 0 0
581 2 2.4610000000000003e+00 4.2625770374269996e+00 3.0030999999991653e+01 0 0 0
606 2 3.6914999999999996e+00 6.3938655561404980e+00 3.0030999999991653e+01 0 0 0
575 2 1.2305000000000001e+00 7.8147245686161639e+00 3.0030999999991653e+01 0 0 0
604 2 3.6914999999999996e+00 7.8147245686161639e+00 3.0030999999991653e+01 0 0 0
885 2 0.0000000000000000e+00 4.2625770374269996e+00 3.3369600952490757e+01 0 0 0
886 2 1.2305000000000001e+00 4.9730065436648339e+00 3.3369600952490757e+01 0 0 0
894 2 1.2305000000000001e+00 6.3938655561404980e+00 3.3369600952490757e+01 0 0 0
896 2 2.4610000000000003e+00 4.2625770374269996e+00 3.3369600952490757e+01 0 0 0
897 2 3.6914999999999996e+00 4.9730065436648339e+00 3.3369600952490757e+01 0 0 0
909 2 3.6914999999999996e+00 6.3938655561404980e+00 3.3369600952490757e+01 0 0 0
884 2 0.0000000000000000e+00 7.1042950623783341e+00 3.3369600952490757e+01 0 0 0
895 2 2.4610000000000003e+00 7.1042950623783341e+00 3.3369600952490757e+01 0 0 0
608 2 4.9220000000000006e+00 5.6834360499026637e+00 3.0030999999991653e+01 0 0 0
610 2 4.9220000000000006e+00 4.2625770374269978e+00 3.0030999999991653e+01 0 0 0
643 2 6.1524999999999999e+00 6.3938655561404980e+00 3.0030999999991653e+01 0 0 0
645 2 7.3829999999999991e+00 5.6834360499026637e+00 3.0030999999991653e+01 0 0 0
647 2 7.3829999999999991e+00 4.2625770374269996e+00 3.0030999999991653e+01 0 0 0
688 2 8.6135000000000002e+00 6.3938655561404980e+00 3.0030999999991653e+01 0 0 0
641 2 6.1524999999999999e+00 7.8147245686161639e+00 3.0030999999991653e+01 0 0 0
686 2 8.6135000000000002e+00 7.8147245686161639e+00 3.0030999999991653e+01 0 0 0
911 2 4.9220000000000006e+00 4.2625770374269978e+00 3.3369600952490757e+01 0 0 0
912 2 6.1524999999999999e+00 4.9730065436648339e+00 3.3369600952490757e+01 0 0 0
928 2 6.1524999999999999e+00 6.3938655561404980e+00 3.3369600952490757e+01 0 0 0
930 2 7.3829999999999991e+00 4.2625770374269996e+00 3.3369600952490757e+01 0 0 0
931 2 8.6135000000000002e+00 4.9730065436648339e+00 3.3369600952490757e+01 0 0 0
951 2 8.6135000000000002e+00 6.3938655561404980e+00 3.3369600952490757e+01 0 0 0
910 2 4.9220000000000006e+00 7.1042950623783341e+00 3.3369600952490757e+01 0 0 0
929 2 7.3830000000000009e+00 7.1042950623783341e+00 3.3369600952490757e+01 0 0 0
571 2 0.0000000000000000e+00 9.9460130873296642e+00 3.0030999999991653e+01 0 0 0
573 2 0.0000000000000000e+00 8.5251540748539991e+00 3.0030999999991653e+01 0 0 0
600 2 2.4610000000000003e+00 9.9460130873296642e+00 3.0030999999991653e+01 0 0 0
602 2 2.4610000000000003e+00 8.5251540748539991e+00 3.0030999999991653e+01 0 0 0
596 2 1.2305000000000001e+00 1.2077301606043163e+01 3.0030999999991653e+01 0 0 0
598 2 1.2305000000000001e+00 1.0656442593567498e+01 3.0030999999991653e+01 0 0 0
633 2 3.6914999999999996e+00 1.2077301606043163e+01 3.0030999999991653e+01 0 0 0
635 2 3.6914999999999996e+00 1.0656442593567499e+01 3.0030999999991653e+01 0 0 0
892 2 0.0000000000000000e+00 8.5251540748539991e+00 3.3369600952490757e+01 0 0 0
893 2 1.2305000000000001e+00 9.2355835810918343e+00 3.3369600952490757e+01 0 0 0
907 2 2.4610000000000003e+00 8.5251540748539991e+00 3.3369600952490757e+01 0 0 0
908 2 3.6915000000000004e+00 9.2355835810918343e+00 3.3369600952490757e+01 0 0 0
891 2 0.0000000000000000e+00 1.1366872099805333e+01 3.3369600952490757e+01 0 0 0
905 2 1.2305000000000001e+00 1.0656442593567498e+01 3.3369600952490757e+01 0 0 0
906 2 2.4610000000000003e+00 1.1366872099805333e+01 3.3369600952490757e+01 0 0 0
924 2 3.6914999999999996e+00 1.0656442593567499e+01 3.3369600952490757e+01 0 0 0
637 2 4.9220000000000006e+00 9.9460130873296642e+00 3.0030999999991653e+01 0 0 0
639 2 4.9220000000000006e+00 8.5251540748539991e+00 3.0030999999991653e+01 0 0 0
682 2 7.3830000000000009e+00 9.9460130873296642e+00 3.0030999999991653e+01 0 0 0
684 2 7.3830000000000009e+00 8.5251540748539991e+00 3.0030999999991653e+01 0 0 0
678 2 6.1524999999999999e+00 1.2077301606043163e+01 3.0030999999991653e+01 0 0 0
680 2 6.1524999999999999e+00 1.0656442593567499e+01 3.0030999999991653e+01 0 0 0
725 2 8.6135000000000002e+00 1.2077301606043163e+01 3.0030999999991653e+01 0 0 0
727 2 8.6134999999999984e+00 1.0656442593567498e+01 3.0030999999991653e+01 0 0 0
926 2 4.9220000000000006e+00 8.5251540748539991e+00 3.3369600952490757e+01 0 0 0
927 2 6.1524999999999999e+00 9.2355835810918343e+00 3.3369600952490757e+01 0 0 0
949 2 7.3830000000000009e+00 8.5251540748539991e+00 3.3369600952490757e+01 0 0 0
950 2 8.6134999999999984e+00 9.2355835810918343e+00 3.3369600952490757e+01 0 0 0
925 2 4.9220000000000006e+00 1.1366872099805333e+01 3.3369600952490757e+01 0 0 0
947 2 6.1524999999999999e+00 1.0656442593567499e+01 3.3369600952490757e+01 0 0 0
948 2 7.3829999999999991e+00 1.1366872099805333e+01 3.3369600952490757e+01 0 0 0
971 2 8.6134999999999984e+00 1.0656442593567498e+01 3.3369600952490757e+01 0 0 0
594 2 0.0000000000000000e+00 1.2787731112280996e+01 3.0030999999991653e+01 0 0 0
631 2 2.4610000000000003e+00 1.2787731112280996e+01 3.0030999999991653e+01 0 0 0
592 2 0.0000000000000000e+00 1.4208590124756663e+01 3.0030999999991653e+01 0 0 0
627 2 1.2305000000000001e+00 1.4919019630994494e+01 3.0030999999991653e+01 0 0 0
629 2 2.4610000000000003e+00 1.4208590124756663e+01 3.0030999999991653e+01 0 0 0
672 2 3.6915000000000004e+00 1.4919019630994494e+01 3.0030999999991653e+01 0 0 0
903 2 0.0000000000000000e+00 1.2787731112280996e+01 3.3369600952490757e+01 0 0 0
904 2 1.2305000000000001e+00 1.3498160618518829e+01 3.3369600952490757e+01 0 0 0
922 2 2.4610000000000003e+00 1.2787731112280996e+01 3.3369600952490757e+01 0 0 0
923 2 3.6915000000000004e+00 1.3498160618518829e+01 3.3369600952490757e+01 0 0 0
902 2 0.0000000000000000e+00 1.5629449137232333e+01 3.3369600952490757e+01 0 0 0
920 2 1.2305000000000001e+00 1.4919019630994494e+01 3.3369600952490757e+01 0 0 0
921 2 2.4610000000000003e+00 1.5629449137232328e+01 3.3369600952490757e+01 0 0 0
943 2 3.6915000000000004e+00 1.4919019630994494e+01 3.3369600952490757e+01 0 0 0
676 2 4.9220000000000006e+00 1.2787731112280996e+01 3.0030999999991653e+01 0 0 0
723 2 7.3829999999999991e+00 1.2787731112280996e+01 3.0030999999991653e+01 0 0 0
674 2 4.9220000000000006e+00 1.4208590124756663e+01 3.0030999999991653e+01 0 0 0
719 2 6.1524999999999990e+00 1.4919019630994494e+01 3.0030999999991653e+01 0 0 0
721 2 7.3830000000000009e+00 1.4208590124756663e+01 3.0030999999991653e+01 0 0 0
766 2 8.6135000000000002e+00 1.4919019630994494e+01 3.0030999999991653e+01 0 0 0
945 2 4.9220000000000006e+00 1.2787731112280996e+01 3.3369600952490757e+01 0 0 0
946 2 6.1524999999999990e+00 1.3498160618518829e+01 3.3369600952490757e+01 0 0 0
969 2 7.3829999999999991e+00 1.2787731112280996e+01 3.3369600952490757e+01 0 0 0
970 2 8.6135000000000002e+00 1.3498160618518835e+01 3.3369600952490757e+01 0 0 0
944 2 4.9220000000000006e+00 1.5629449137232333e+01 3.3369600952490757e+01 0 0 0
967 2 6.1524999999999990e+00 1.4919019630994494e+01 3.3369600952490757e+01 0 0 0
968 2 7.3829999999999991e+00 1.5629449137232333e+01 3.3369600952490757e+01 0 0 0
991 2 8.6135000000000002e+00 1.4919019630994494e+01 3.3369600952490757e+01 0 0 0
3047 1 1.5527468861303215e+00 1.2345948983097899e+00 3.5520714641157142e+01 -2 0 0
5970 1 3.7894741965687797e+00 2.2511581586133698e+00 3.6748078129774427e+01 1 2 -1
2880 1 5.8943949435666614e+00 9.8168209611962054e-01 3.5625430477571541e+01 2 -1 0
3385 1 8.1260881877470812e+00 1.9473778256221328e+00 3.6450219292619664e+01 -1 -2 0
2103 1 3.3397550959825262e+00 4.5823347148621396e+00 3.5591588880489688e+01 -1 1 0
1663 1 1.0929228752567213e+00 5.7678838301936084e+00 3.6517121706902728e+01 2 -1 -1
1550 1 1.2593223671748559e+00 8.6125415444554019e+00 3.5923475779017323e+01 6 -2 0
104 1 5.7715793097600780e+00 5.5160524714208883e+00 3.6758441998726902e+01 0 1 -1
2971 1 8.1743473150594799e+00 4.4569606981530629e+00 3.5922752621731064e+01 -1 2 0
1563 1 3.6545280915097091e+00 9.8633653365294052e+00 3.6510646017357118e+01 4 1 -1
24 1 7.8745432593103901e+00 1.2235086836929103e+01 3.5842339102394213e+01 -2 0 0
3710 1 5.7751407531639964e+00 8.1001048777097484e+00 3.5694538914468311e+01 -2 -2 0
3366 1 7.8667161356362376e+00 9.6355164018394781e+00 3.6627689162321509e+01 -1 1 -1
20 1 5.6813613204008062e+00 1.3762652144499501e+01 3.6664156639898167e+01 -2 -4 -1
2030 1 3.7359137488270049e+00 1.2523217823638978e+01 3.5748086661859311e+01 2 -3 0
1623 1 1.0693980809953969e+00 1.3787071512809398e+01 3.6409577777184040e+01 3 -3 -1
5119 1 8.0025767033938937e+00 2.0567718735264862e+00 3.9149843332385267e+01 2 4 -1
4963 1 5.5681088247254200e+00 1.6280772388727801e+01 3.5885590527685544e+01 -2 4 -1
4989 1 9.5906773440428807e+00 1.5959507857056010e+01 3.5981063037062867e+01 -2 4 -1
4855 1 9.3029099404458326e-01 1.3667075300449294e+01 3.9225470174837334e+01 -2 2 -1
5055 1 1.1902130456407356e+00 5.7074884576461367e+00 3.9278369925881584e+01 3 -1 -1
4658 1 5.5438919231252246e+00 1.3631707080419670e+01 3.9345628135901222e+01 3 1 -1
1869 1 9.8033901110843242e+00 1.3689774096047804e+01 3.9338391497136989e+01 3 4 0
4617 1 1.6955858038112337e+00 6.2690982531689243e-01 4.3083434626258992e+01 2 3 0
1764 1 1.5219432923992879e+00 8.9441605753148712e-01 4.0330621751297947e+01 2 0 -1
1935 1 9.6682054670674198e+00 1.5928756038009558e+01 4.3064750771744990e+01 1 -4 -1
2824 1 5.9177235897764895e+00 1.0031549201115837e+00 4.3109690973509423e+01 1 -1 0
322 1 5.8663513471053248e+00 9.6381707615744883e-01 4.0336318687788811e+01 -4 1 0
1720 1 8.1534120126122165e+00 2.0228320016109156e+00 4.3747138001578932e+01 3 -1 0
4713 1 5.0651168718916075e+00 1.6085121438528638e+01 4.0382363336217452e+01 2 0 -1
1453 1 3.4179514629138423e+00 4.8188275253171104e+00 4.0492901380534853e+01 3 -2 0
54 1 3.6363442677487430e+00 4.4430155007136447e+00 4.3176761568825725e+01 -2 1 -1
2118 1 5.3289152097200594e+00 1.3568427268068136e+01 4.7226212507355548e+01 0 -3 -1
2144 1 8.1853523248705962e+00 4.6262695035345862e+00 4.2924549951731827e+01 1 0 -1
5145 1 7.9690069590073467e+00 4.5662144686745831e+00 4.0196417423506219e+01 0 1 -1
391 1 9.7100888394707692e+00 1.6066129052689092e+01 4.0398449538275010e+01 4 0 -1
6170 1 1.1706946214422833e+00 8.6266067461586182e+00 4.2934605474312526e+01 -1 -2 0
1842 1 1.2358778919121223e+00 8.2649862763081554e+00 4.0348051886602804e+01 1 -1 -1
1455 1 5.4646822269222728e+00 8.4673726529297593e+00 4.3051727257911381e+01 3 1 0
461 1 5.5484066206657623e+00 8.2987942396652628e+00 4.0392177436707883e+01 -1 4 0
1712 1 7.9273391676568332e+00 9.3445304823117290e+00 4.4106916105723641e+01 4 4 -1
66 1 7.7189780896575364e+00 1.2460523561054012e+01 4.8060419691361432e+01 4 2 0
3423 1 3.2350527743934396e+00 1.2587377415537155e+01 4.3299666541679201e+01 1 0 -1
5193 1 3.2349464793297664e+00 1.2412092176135202e+01 4.0547843147820075e+01 1 1 -1
4437 1 1.1473873519621955e+00 1.3327193325763467e+01 4.6635968871425966e+01 -3 1 0
5023 1 7.5227177801263805e+00 1.2413361575167158e+01 4.0421631354902516e+01 -3 -1 -1
1881 1 7.5079244701265200e+00 1.1816009156788887e+01 4.3245284957947725e+01 4 2 -1
1670 1 3.2206469364282997e+00 1.2292251610874949e+01 4.8103569111024918e+01 3 4 -1
2831 1 5.3222161178079830e+00 1.6080624632079168e+01 4.7923961316198906e+01 0 -2 0
6004 1 7.4571642641962932e-01 1.3370380351442614e+01 4.3966593691640099e+01 4 2 -1
3052 1 5.6731005630503830e+00 1.3561105227467872e+01 4.4592808973882050e+01 4 0 0
5988 1 3.7472170732009311e+00 1.9946029123832842e+00 4.4018644237766928e+01 6 -1 0
2799 1 1.5632942378281047e+00 6.0126115102163991e-01 4.7684268597825877e+01 6 0 0
1973 1 3.7620921665976854e+00 2.2488740626792976e+00 4.6831281824694038e+01 0 -2 0