
# Create simulation box and atoms

read_data data.ML_graphite_1atm_240K
  orthogonal box = (0 0 3.74403) to (49.22 49.0196 56.318)
  5 by 3 by 6 MPI processor grid
  reading atoms ...
  6328 atoms
  reading velocities ...
  6328 velocities
group water type 1
3568 atoms in group water
group graphite type 2
2760 atoms in group graphite

# Define potential

pair_style sw
pair_coeff * * MLC_e.sw mW C


# Fix graphite atoms in place

fix 5 graphite setforce 0.0 0.0 0.0
velocity graphite set 0.0 0.0 0.0


# Equilibration of molecular water

# Add velocity/set timestep

velocity	    water create ${TEMP} ${SEED} rot yes dist gaussian
velocity	    water create 240 ${SEED} rot yes dist gaussian
velocity	    water create 240 16518 rot yes dist gaussian
timestep	    5.0

# Define output

compute			1 water msd
compute			3 water temp
thermo	    	50
thermo_style	custom step temp press vol etotal ke pe c_1[4] c_3

# Neighbor lists

neigh_modify    delay 0 every 1 check yes

# Set fixes

fix             1 water momentum 10 linear 1 1 1 rescale
fix             2 water nve
fix             3 water temp/csvr ${TEMP} ${TEMP} 500.0 ${SEED}
fix             3 water temp/csvr 240 ${TEMP} 500.0 ${SEED}
fix             3 water temp/csvr 240 240 500.0 ${SEED}
fix             3 water temp/csvr 240 240 500.0 16518
fix             4 water press/berendsen z ${PRES} ${PRES} 1000.0 modulus 20000
fix             4 water press/berendsen z 1 ${PRES} 1000.0 modulus 20000
fix             4 water press/berendsen z 1 1 1000.0 modulus 20000

# Run 0.5 ns equilibration

dump		    1 all atom 2000 ${DIR}/eq.${NAME}-${TEMP}.dump
dump		    1 all atom 2000 run_5/eq.${NAME}-${TEMP}.dump
dump		    1 all atom 2000 run_5/eq.het_freeze_5-${TEMP}.dump
dump		    1 all atom 2000 run_5/eq.het_freeze_5-240.dump

reset_timestep  0

run	            100000
Neighbor list info ...
  update every 1 steps, delay 0 steps, check yes
  max neighbors/atom: 2000, page size: 100000
  master list distance cutoff = 6.67472
  ghost atom cutoff = 6.67472
  binsize = 3.33736, bins = 15 15 16
  1 neighbor lists, perpetual/occasional/extra = 1 0 0
  (1) pair sw, perpetual
      attributes: full, newton on
      pair build: full/bin/atomonly
      stencil: full/bin/3d
      bin: standard
Per MPI rank memory allocation (min/avg/max) = 4.07 | 4.222 | 4.501 Mbytes
Step Temp Press Volume TotEng KinEng PotEng c_1[4] c_3 
       0    135.30583   -58.143592    126847.59   -33960.221    2551.8119   -36512.033            0          240 
      50    133.84393   -125.29528    126927.17   -34015.219     2524.241    -36539.46   0.50853697    237.40694 
     100    135.30324   -234.59108     126870.5   -33971.821     2551.763   -36523.584   0.85589211    239.99541 
     150    136.55594   -436.95158    126951.69    -33997.72    2575.3883   -36573.109     1.085799    242.21738 
     200    136.93433   -28.720465     127008.8   -33990.527    2582.5246   -36573.051    1.3344027    242.88856 
     250     132.3235   -312.47482    127044.54   -34004.875    2495.5663   -36500.441    1.5621535    234.71006 
     300    136.46683   -341.08128    127087.88   -34022.421    2573.7078   -36596.129    1.7946215    242.05933 
     350    132.92378   -262.73634    127076.17   -34023.542    2506.8874   -36530.429    2.0860529    235.77481 
     400    135.27877   -529.20921    126987.03   -33963.502    2551.3015   -36514.804    2.3479428      239.952 
     450    137.65452   -51.507172    127002.32   -34006.959    2596.1072   -36603.066    2.6075677    244.16602 
     500    136.95716   -301.29847    126964.48   -34029.515    2582.9552    -36612.47    2.8677579    242.92906 
     550    134.61054   -167.21816    127089.64   -34043.872    2538.6989    -36582.57    3.1334989    238.76672 
     600    136.53106   -550.31721    127131.65   -34034.471    2574.9192    -36609.39    3.4043369    242.17326 
     650    135.11969   -267.66202     127052.6   -34042.126    2548.3013   -36590.428    3.6851581    239.66983 
     700    134.53215   -54.782822    127113.96   -34046.741    2537.2206   -36583.961    3.9145839    238.62768 
     750    134.74554     12.88364    127144.76   -34045.004     2541.245   -36586.249    4.1547463    239.00618 
     800    134.89435   -226.18064    127152.93   -34044.807    2544.0515   -36588.858    4.4152973    239.27013 
     850    134.39651   -236.83348    127136.48    -34023.34    2534.6623   -36558.002    4.6735167    238.38707 
     900    135.74358   -183.86154    127149.59   -33999.865    2560.0677   -36559.932    4.8894967    240.77646 
     950    134.61941   -199.05495    127126.66   -34067.666    2538.8663   -36606.532    5.0536819    238.78246 
    1000    134.95915   -161.87841    127251.93   -34040.721    2545.2736   -36585.994    5.3030974    239.38507 
    1050    136.20354   -212.15378    127333.31   -34053.186    2568.7423   -36621.929    5.5653698    241.59232 
    1100    133.87937   -399.71785    127297.06   -34116.021    2524.9094   -36640.931    5.8841187     237.4698 
    1150     133.3146   -270.67824    127300.98   -34109.206    2514.2581   -36623.464    6.1363593    236.46804 
    1200    134.99709   -519.69049    127177.21   -34043.146    2545.9891   -36589.136    6.3455464    239.45236 
    1250    137.60376   -292.24893    127209.14   -34032.055    2595.1498   -36627.205    6.5603427    244.07597 
    1300    133.29658   -278.53023    127227.41   -34096.062    2513.9181    -36609.98    6.8013055    236.43606 
    1350    132.20762   -296.77201    127387.51   -34100.871    2493.3809   -36594.252    7.0414002    234.50452 
    1400    132.18403   -19.300808    127439.73    -34113.79    2492.9359   -36606.726    7.3135651    234.46267 
    1450    132.47488   -77.571985    127494.14   -34113.043    2498.4212   -36611.464    7.5227516    234.97856 
    1500    133.82015   -91.238572    127565.32   -34051.699    2523.7926   -36575.492    7.6736206    237.36476 
    1550     133.8088   -182.66771    127560.75    -34090.41    2523.5784   -36613.988    7.8761921    237.34462 
    1600    131.35358   -391.12683    127562.57   -34087.605     2477.274   -36564.879    8.1360751    232.98966 
    1650      134.979   -388.93504    127518.57   -34045.951    2545.6479   -36591.599    8.3318558    239.42028 
    1700    134.57731   -368.38625    127523.47   -34058.894    2538.0722   -36596.966    8.5883198    238.70777 
    1750    137.32486   -83.429607    127517.35   -33991.945      2589.89   -36581.835    8.8258135    243.58128 
    1800    133.76018   -242.45114    127514.89   -34014.463    2522.6616   -36537.125    9.1024859    237.25839 
    1850    136.49846   -7.8893436    127531.11   -33982.163    2574.3043   -36556.468    9.3165624    242.11543 
    1900    135.38578   -305.18011     127453.9   -33996.924    2553.3197   -36550.244    9.4948199    240.14182 
    1950    134.80697   -289.92977    127457.52   -33987.633    2542.4035   -36530.037    9.5810539    239.11513 
    2000    136.02873    -250.3478    127433.62   -33992.386    2565.4454   -36557.831    9.7527636    241.28225 
    2050    135.02796   -416.91566    127410.28   -33980.505    2546.5713   -36527.076    9.9511239    239.50712 
    2100    134.08895   -334.15628    127332.87   -33999.154    2528.8619   -36528.016    10.249836    237.84154 
    2150    138.44267     -8.56646    127334.71    -33996.59    2610.9713   -36607.561     10.42816    245.56399 
    2200    137.73767    -353.2523       127348   -33995.888    2597.6753   -36593.563    10.622334     244.3135 
    2250    135.79793   -378.28292    127401.12   -34003.345    2561.0926   -36564.438    10.959376    240.87287 
    2300    138.57934   -148.89632    127493.72   -34029.924    2613.5489   -36643.472    11.191773    245.80642 
    2350    136.23828   -369.89164    127603.06   -34021.542    2569.3974    -36590.94    11.513437    241.65394 
    2400    132.44832   -225.49234     127651.4   -34042.919    2497.9204   -36540.839    11.801212    234.93146 
    2450    131.39686   -151.92897    127725.29   -34056.292    2478.0903   -36534.383    12.160663    233.06642 
    2500     134.6023   -179.66474    127739.48   -34011.987    2538.5435   -36550.531    12.382613     238.7521 
    2550    134.42258   -308.10916     127704.6   -34041.791    2535.1542   -36576.945    12.556865    238.43333 
    2600    134.86868     -320.396     127747.2   -34032.032    2543.5673   -36575.599    12.769887    239.22459 
    2650    134.94315   -259.36793    127719.41   -34025.458    2544.9717   -36570.429    12.932162    239.35668 
    2700    135.48887   -206.81957    127785.57   -34031.921    2555.2639   -36587.185    13.064406    240.32466 
    2750    133.21442   -156.37901    127798.96   -34034.395    2512.3688   -36546.764    13.273904    236.29035 
    2800    133.53004    -151.2065    127799.26   -34003.034    2518.3211   -36521.355    13.455209    236.85017 
    2850    134.82294   -314.08584    127791.39   -34058.048    2542.7048   -36600.753     13.64794    239.14347 
    2900    132.83721   -492.47665    127693.09   -34060.419    2505.2546   -36565.674    13.788182    235.62125 
    2950    133.21611   -198.42305    127593.43   -34089.398    2512.4006   -36601.799      14.1016    236.29334 
    3000    135.27611   -125.59387    127564.99   -34012.716    2551.2514   -36563.967    14.464462    239.94728 
    3050    137.17154   -434.06603    127495.12   -34021.118    2586.9983   -36608.117    14.691934    243.30931 
    3100    133.99742   -552.95837    127395.55   -34023.803    2527.1359   -36550.939    14.889338     237.6792 
    3150    134.74479   -199.71279     127271.9   -33988.418    2541.2308   -36529.649    15.176226    239.00485 
    3200    134.97994   -556.95929    127225.24   -34024.497    2545.6658   -36570.162    15.391248    239.42195 
    3250    134.80895   -243.10106    127204.43   -34081.457    2542.4409   -36623.898    15.655247    239.11865 
    3300     134.0254   -66.548502    127251.41    -34089.92    2527.6634   -36617.583    16.045927    237.72881 
    3350    133.07802    -174.4923    127239.05    -34045.71    2509.7962   -36555.506    16.340897    236.04839 
    3400    135.35299   -128.98946    127216.96   -34057.582    2552.7013   -36610.284     16.51756    240.08365 
    3450    136.78539   -246.17457    127272.18   -34026.957    2579.7157   -36606.673    16.646458    242.62438 
    3500    137.94105   -244.81623    127282.07   -33989.753     2601.511   -36591.264    16.682334    244.67424 
    3550    135.47363   -266.79643     127271.4   -33979.672    2554.9764   -36534.648    16.818229    240.29763 
    3600    134.75282   -259.62606     127289.1   -34034.166    2541.3823   -36575.548    17.060016    239.01909 
    3650    136.28557    206.85789    127347.34   -34005.169    2570.2894   -36575.458    17.313676    241.73783 
    3700    135.42738   -237.33387    127351.78   -34004.484    2554.1042   -36558.589    17.525523     240.2156 
    3750    135.35807   -433.06508    127371.37   -34018.189    2552.7971   -36570.986    17.833655    240.09266 
    3800    135.00351   -345.90145    127357.98   -34039.816    2546.1102   -36585.926    18.032952    239.46375 
    3850    138.84503   -187.41763    127306.29   -34006.159    2618.5597   -36624.719     18.24138    246.27769 
    3900    133.69437   -183.06792    127321.24   -34040.871    2521.4204   -36562.292    18.366556    237.14165 
    3950    133.84114   -392.45044    127310.14   -34061.248    2524.1884   -36585.436    18.468295    237.40199 
    4000    136.54549   -196.77229    127267.19   -34043.521    2575.1913   -36618.712     18.81349    242.19885 
    4050    133.45033   -22.783699    127239.85   -34023.537     2516.818   -36540.354    19.050049    236.70879 
    4100    134.75026   -394.84939    127241.65   -34042.061     2541.334   -36583.395    19.320593    239.01455 
    4150    131.72055   -284.19243    127240.98   -34094.941     2484.195   -36579.136     19.46048    233.64058 
    4200    133.03864   -309.20364    127251.55   -34072.509    2509.0536   -36581.562    19.559954    235.97855 
    4250     137.7958   -323.77473    127319.02   -34015.022    2598.7717   -36613.794    19.694642    244.41661 
    4300      138.759    73.192978    127331.66   -33999.177    2616.9371   -36616.114    19.942358    246.12508 
    4350    134.54536   -87.783914    127413.18   -34012.837    2537.4697   -36550.307    20.190818     238.6511 
    4400    138.27095   -12.091682    127444.23   -33981.377    2607.7327    -36589.11     20.44852     245.2594 
    4450    136.45025   -187.36542    127429.16    -34006.49    2573.3952   -36579.885    20.616145    242.02993 
    4500    133.40353   -363.74552    127489.62   -34066.923    2515.9352   -36582.858    20.782011    236.62577 
    4550    134.97126   -259.78376    127466.36   -34032.501     2545.502   -36578.003    20.885778    239.40656 
    4600    135.87355   -119.83923    127510.35   -34038.542    2562.5188   -36601.061    20.915814      241.007 
    4650     132.8997   -273.85331    127434.27   -34019.064    2506.4333   -36525.497    21.156536    235.73211 
    4700     136.1871   -7.4751086    127426.24   -34002.793    2568.4322   -36571.226    21.424753    241.56316 
    4750    133.10845   -109.94241    127514.41   -34078.181    2510.3701   -36588.551    21.764653    236.10237 
    4800    132.51785   -344.63441    127597.93   -34064.561    2499.2317   -36563.793    21.956989    235.05479 
    4850    136.69517    -302.4155    127617.85    -34039.63    2578.0142   -36617.644     22.09317    242.46435 
    4900    138.93425   -421.00601    127602.44   -34066.548    2620.2423    -36686.79    22.275404    246.43594 
    4950    135.14287   -246.01778    127674.05   -34082.416    2548.7384   -36631.154    22.569695    239.71094 
    5000    136.07649   -298.92844    127685.18   -34070.377    2566.3461   -36636.724    22.578122    241.36696 
    5050    132.52238   -482.68169    127657.39   -34121.739    2499.3171   -36621.056    22.671878    235.06282 
    5100    133.14978    -230.9647    127647.78   -34086.692    2511.1496   -36597.842     22.83342    236.17568 
    5150    135.39045   -277.60604    127750.94   -34054.416    2553.4078   -36607.824     23.12028    240.15009 
    5200    135.94022   -104.12465    127809.91   -34052.019    2563.7762   -36615.795    23.291596    241.12525 
    5250    137.60194   -241.19705     127828.8   -34018.575    2595.1156   -36613.691    23.460468    244.07275 
    5300     133.9068    -302.1805     127734.6   -34076.331    2525.4267   -36601.757    23.616822    237.51846 
    5350    134.25071   -179.46885    127637.43   -34101.611    2531.9128   -36633.524    23.701477    238.12847 
    5400    132.34006   -194.32636    127615.87   -34100.374    2495.8787   -36596.253    23.782533    234.73944 
    5450    132.78407   -374.05748    127590.51   -34112.917    2504.2524   -36617.169    23.910394      235.527 
    5500    135.09782   -156.79558    127540.55   -34117.836    2547.8889   -36665.725    24.081975    239.63104 
    5550    133.80752   -168.75157    127538.31   -34117.268    2523.5543   -36640.822    24.286719    237.34235 
    5600    134.19503   -71.088552    127580.85   -34097.184    2530.8627   -36628.047    24.365732    238.02971 
    5650    135.61343   -425.80612    127639.33    -34074.85     2557.613   -36632.463    24.545427     240.5456 
    5700    133.39622   -429.31685    127716.38   -34115.122    2515.7973   -36630.919    24.856959     236.6128 
    5750    136.11344    35.047233    127739.59   -34078.376    2567.0431   -36645.419    25.137236    241.43251 
    5800    133.35171   -152.68552    127733.62   -34115.156    2514.9579   -36630.114    25.417435    236.53385 
    5850    136.64548   -170.13316    127734.77   -34080.223    2577.0771     -36657.3    25.721596    242.37621 
    5900    135.05758   -252.48826    127637.82   -34110.728    2547.1298   -36657.858    26.078698    239.55965 
    5950    137.69892    -116.7596    127641.62   -34085.485    2596.9446    -36682.43    26.404162    244.24477 
    6000    137.24693    -147.4587     127646.5   -34085.978    2588.4202   -36674.398    26.621782    243.44304 
    6050    135.63958   -584.60979    127577.54   -34103.238    2558.1062   -36661.344    26.786903    240.59198 
    6100      135.492   -186.85371    127478.37   -34070.771    2555.3229   -36626.094    26.896137    240.33021 
    6150    136.94915   -267.71656    127494.44   -34079.394    2582.8042   -36662.198    27.132516    242.91486 
    6200    133.41331   -292.80522     127451.2   -34100.313    2516.1197   -36616.433    27.349537    236.64312 
    6250    133.33933   -377.23892    127391.08   -34099.552    2514.7244   -36614.276     27.64829     236.5119 
    6300     134.0213   -148.26987    127337.16   -34130.015    2527.5862   -36657.601    28.037973    237.72155 
    6350    135.00748   -297.54441    127320.08   -34074.591     2546.185   -36620.776    28.225663    239.47079 
    6400    133.04645   -56.696583    127304.99   -34116.389    2509.2009    -36625.59    28.512089    235.99241 
    6450    133.68494   -224.89012    127337.93   -34131.453    2521.2425   -36652.696    28.787637    237.12492 
    6500    134.68899   -460.10415    127325.36   -34118.477    2540.1784   -36658.656    28.946396    238.90587 
    6550    132.00159   -59.187151    127345.98   -34111.003    2489.4952   -36600.499    29.122377    234.13906 
    6600    136.09156   -345.36547     127360.5   -34071.529    2566.6303   -36638.159     29.46615    241.39368 
    6650     137.2208   -218.93418    127468.66   -34046.849    2587.9274   -36634.776    29.814619     243.3967 
    6700    136.21534    -175.4482    127513.91   -34053.068    2568.9649   -36622.033    30.272487    241.61325 
    6750    135.36222   -385.44102    127492.51   -34042.565    2552.8753   -36595.441    30.517679    240.10002 
    6800     134.7541   -594.05127    127413.73   -34059.056    2541.4065   -36600.463    30.601313    239.02137 
    6850    137.03031   -419.55266    127275.56   -34067.387    2584.3348   -36651.722    30.802822    243.05881 
    6900    134.96533   -358.35841    127191.45    -34080.03    2545.3901    -36625.42    31.013902    239.39602 
    6950     133.4901   -436.96797    127144.61   -34078.245     2517.568   -36595.813    31.150782    236.77933 
    7000    135.90288   -536.24534    126994.64   -34069.284     2563.072   -36632.356    31.291873    241.05903 
    7050    134.16032   -142.85001    126914.26   -34072.103    2530.2081   -36602.311    31.483286    237.96814 
    7100    135.61224   -329.55514    126902.96    -34097.28    2557.5905   -36654.871    31.577721    240.54349 
    7150    134.61004   -16.861481    126958.65   -34071.357    2538.6895   -36610.047    31.853803    238.76583 
    7200    133.37535   -112.07942       126984   -34065.969    2515.4037   -36581.373    32.182791    236.57578 
    7250      135.128   -127.31399    126993.37   -34035.757     2548.458   -36584.215    32.543612    239.68456 
    7300     135.5019   -173.28455    127080.16   -34047.178    2555.5097   -36602.688    32.814325    240.34778 
    7350    136.70186   -24.221763    127133.98   -34036.087    2578.1403   -36614.227    33.090199    242.47621 
    7400    135.28001   -142.90062    127106.15   -34066.581    2551.3249   -36617.906    33.280842     239.9542 
    7450    131.71792   -335.95743    127169.04   -34046.687    2484.1453   -36530.832    33.466764    233.63591 
    7500    133.70167   -478.75037    127160.27   -34074.455    2521.5581   -36596.013    33.665541    237.15461 
    7550    135.28501   -534.94507    127191.56   -34058.513    2551.4192   -36609.932    33.724526    239.96307 
    7600    136.71825   -34.121384    127190.27   -34046.375    2578.4495   -36624.824    33.884407    242.50529 
    7650    136.78502   -62.220692    127254.55   -34016.552    2579.7088   -36596.261     33.88083    242.62373 
    7700    137.09377   -402.19106    127256.86   -34053.402    2585.5316   -36638.934     34.16789    243.17137 
    7750    136.68654   -229.84549    127219.48   -34038.727    2577.8515   -36616.579    34.335473    242.44905 
    7800    136.89515   -520.23209    127184.36   -34046.967    2581.7857   -36628.753    34.529012    242.81906 
    7850    136.61205   -339.47503    127196.14   -34066.878    2576.4465   -36643.324    34.821709    242.31691 
    7900    137.17327   -249.57797    127310.09   -34000.284    2587.0309   -36587.315     35.10744    243.31238 
    7950    136.70857   -310.44993     127365.1   -34001.672    2578.2669   -36579.939    35.315306    242.48812 
    8000    138.01632   -154.05477    127378.67   -33945.091    2602.9305   -36548.022    35.477196    244.80775 
    8050    137.50695   -58.565388    127426.14   -33948.636     2593.324    -36541.96    35.595242    243.90425 
    8100    135.76607   -328.13329    127394.43   -33984.838    2560.4917    -36545.33    35.704252    240.81634 
    8150    134.30538   -330.84789     127378.1   -34016.969    2532.9438   -36549.913    36.052546    238.22544 
    8200    138.29554   -335.46616    127415.07   -33970.296    2608.1965   -36578.492    36.157842    245.30302 
    8250    133.95873   -304.58597    127484.22   -33999.739     2526.406   -36526.145    36.621438    237.61056 
    8300    137.29475   -343.50071    127436.09   -34012.296    2589.3221   -36601.618    36.944282    243.52786 
    8350    139.14902   -167.16205    127451.24   -34045.981    2624.2927   -36670.273    37.245571    246.81688 
    8400    135.64032    280.04245    127574.69   -34010.072    2558.1202   -36568.193    37.537511    240.59331 
    8450    137.90847   -265.78317    127620.11   -34045.552    2600.8965   -36646.448    37.627445    244.61645 
    8500    134.88666   -224.65853    127647.43   -34046.522    2543.9064   -36590.429    37.535529    239.25649 
    8550    135.41011   -514.11198    127624.87   -34035.137    2553.7785   -36588.916     37.82925    240.18496 
    8600     134.6158   -47.059276    127679.06   -34061.461    2538.7981   -36600.259    37.979196    238.77604 
    8650    135.78833   -118.71893       127712   -34071.808    2560.9116   -36632.719    38.025356    240.85583 
    8700    133.42729   -404.62756    127723.51   -34034.303    2516.3833   -36550.686    38.381559    236.66792 
    8750    132.96319   -210.71277    127716.41   -34055.269    2507.6306   -36562.899    38.622282    235.84471 
    8800    132.36924   -150.52081    127728.18   -34102.112    2496.4289   -36598.541     38.85131    234.79119 
    8850    134.83304   -374.12115    127662.84   -34016.454    2542.8952   -36559.349    38.998213    239.16138 
    8900    134.37799   -383.84785     127612.7   -34069.617    2534.3132    -36603.93    39.310927    238.35423 
    8950    133.03725   -157.55627    127653.19   -34093.853    2509.0273    -36602.88    39.564812    235.97608 
    9000    132.17613   -282.63667    127699.91   -34131.159     2492.787   -36623.946    39.857198    234.44866 
    9050    134.55623   -94.283973    127654.34   -34082.177    2537.6747   -36619.852    39.856027    238.67039 
    9100    133.89659   -319.01973    127591.21   -34134.566    2525.2341     -36659.8    40.167696    237.50034 
    9150    135.56891   -439.82683     127528.9    -34104.21    2556.7733   -36660.983    40.304441    240.46663 
    9200    135.47561   -100.35441    127577.23    -34107.95    2555.0138   -36662.964     40.46153    240.30115 
    9250    137.35908    -369.8925    127643.45   -34054.054    2590.5352   -36644.589    40.670639    243.64196 
    9300    137.31048   -216.57593    127700.22   -34023.077    2589.6186   -36612.696    40.855384    243.55576 
    9350    132.99101   -74.231467    127625.09   -34051.072    2508.1553   -36559.227    40.973791    235.89406 
    9400    135.94163   -206.22997    127612.81   -34087.014    2563.8028   -36650.817    41.154221    241.12776 
    9450    134.43832   -247.27508    127564.01   -34060.329     2535.451    -36595.78    41.302447    238.46124 
    9500    135.21106   -288.86293    127471.64   -34076.184    2550.0245   -36626.208    41.405069     239.8319 
    9550    132.90734   -83.250602    127494.09   -34218.305    2506.5774   -36724.882     41.37499    235.74566 
    9600    133.68334   -94.293647    127525.06   -34211.393    2521.2123   -36732.606    41.416099    237.12209 
    9650    133.58684   -188.99007    127630.23   -34225.984    2519.3923   -36745.377    41.491459    236.95092 
    9700    134.20483   -558.30153    127657.68   -34193.791    2531.0474   -36724.838    41.654881    238.04708 
    9750    133.46249   -286.20326     127633.4   -34157.371    2517.0473   -36674.418     41.73029    236.73036 
    9800    131.73372   -277.95663    127560.28   -34209.298    2484.4432   -36693.741    41.983253    233.66392 
    9850     134.5393   -228.58348    127541.98   -34205.255    2537.3554   -36742.611    42.152733    238.64036 
    9900    135.00465   -119.28737    127532.89   -34207.745    2546.1317   -36753.877    42.328274    239.46578 
    9950    132.63873    40.237306    127589.45   -34168.473    2501.5114   -36669.985    42.595154     235.2692 
   10000    135.93508   -19.880274    127642.95   -34130.336    2563.6792   -36694.015    42.866388    241.11613 
   10050    134.32395   -273.88511     127587.3   -34108.775    2533.2941   -36642.069    43.166711    238.25838 
   10100    131.92514     -158.903    127545.78   -34131.919    2488.0533   -36619.972    43.245372    234.00346 
   10150    132.18987   -250.66523    127614.96   -34120.341    2493.0462   -36613.387    43.590649    234.47304 
   10200    134.36386    -121.7762     127614.7   -34103.034    2534.0467    -36637.08    43.609365    238.32917 
   10250    135.77748     76.20306    127620.52   -34109.281     2560.707   -36669.988    43.713056    240.83659 
   10300    136.96903   -251.55384    127760.81   -34106.597     2583.179   -36689.776    43.944073     242.9501 
   10350    136.40209   -133.17352    127765.51   -34061.507    2572.4867   -36633.994    44.164867    241.94449 
   10400     136.6988   -205.51402    127777.49   -34075.582    2578.0827   -36653.665    44.353948    242.47079 
   10450     134.9487   -212.21427    127725.82   -34024.364    2545.0764    -36569.44    44.691654    239.36652 
   10500    135.37898   -469.91852    127730.19   -34064.534    2553.1914   -36617.726    45.075452    240.12975 
   10550    137.42915   -352.98215    127735.41    -34032.45    2591.8568   -36624.307     45.37903    243.76626 
   10600    134.93088   -242.26364    127681.09    -34068.56    2544.7404   -36613.301    45.581231    239.33492 
   10650    137.45405   -160.30598    127702.51   -34051.624    2592.3263    -36643.95    45.596134    243.81042 
   10700     131.8059   -14.810281    127680.56   -34118.314    2485.8046   -36604.118    45.715758    233.79196 
   10750    133.66732   -198.34261    127792.42   -34112.351    2520.9102   -36633.262    45.945094    237.09368 
   10800    134.36312   -22.630672    127842.63   -34081.736    2534.0327   -36615.769    46.509983    238.32786 
   10850     137.6897   -146.95465    127866.45   -34097.562    2596.7707   -36694.333    46.533029    244.22842 
   10900    136.18427   -424.98867    127925.79   -34115.447    2568.3788   -36683.825       46.855    241.55813 
   10950    134.15871   -374.85127    127908.94   -34154.542    2530.1776   -36684.719    47.140829    237.96528 
   11000    134.66298   -332.87382    127907.53    -34192.76    2539.6879   -36732.448    47.208309    238.85973 
   11050    135.33783   -274.19776    127929.04   -34151.792    2552.4153   -36704.207    47.373978    240.05675 
   11100    136.80887   -257.83584    127885.25   -34182.872    2580.1586    -36763.03    47.347059    242.66604 
   11150    134.07457   -332.44116    127951.22    -34197.61    2528.5907   -36726.201    47.489022    237.81603 
   11200    134.83113   -320.45952    127994.69    -34160.67    2542.8591   -36703.529    47.857719    239.15798 
   11250    134.82174   -270.61817    128048.15   -34176.731     2542.682   -36719.413    48.112142    239.14133 
   11300    136.81141   -374.56152    127990.08   -34190.177    2580.2064   -36770.384    48.233919    242.67053 
   11350    135.39127   -276.79731    127972.68   -34191.945    2553.4231   -36745.368    48.553944    240.15154 
   11400    136.75499   -401.91594    127871.07   -34155.507    2579.1424   -36734.649    48.758843    242.57046 
   11450    135.19432   -432.75438    127763.93   -34141.347    2549.7088   -36691.056    48.830749    239.80221 
   11500     134.1974   -235.94933    127757.54   -34168.513    2530.9073    -36699.42    49.084184    238.03391 
   11550    137.10287   -369.87292    127848.75   -34157.142    2585.7033   -36742.846    49.331324    243.18752 
   11600    134.22336   -123.76862    127865.15   -34212.738    2531.3969   -36744.134    49.350694    238.07996 
   11650    134.67274   -125.84508    127863.11   -34193.519    2539.8721   -36733.391    49.348009    238.87705 
   11700    133.35489   -201.61188    127969.38   -34172.775    2515.0179   -36687.793    49.665152     236.5395 
   11750    131.88897    173.02324    128127.04   -34164.106    2487.3713   -36651.477     49.66379    233.93931 
   11800    137.04452   -82.655426    128256.06   -34151.368    2584.6029   -36735.971     49.87196    243.08402 
   11850    137.68174   -17.928526    128356.91   -34069.623    2596.6205   -36666.244    50.074164    244.21429 
   11900    135.74048   -222.43528    128371.24   -34068.939    2560.0091   -36628.948    50.202725    240.77096 
   11950    137.74757   -395.81901    128335.18   -34059.452    2597.8621   -36657.314    50.317721    244.33106 
   12000     137.6466   -234.33753    128422.29   -34057.236    2595.9577   -36653.194     50.43919    244.15195 
   12050      136.273   -268.86834    128397.19    -34049.32    2570.0523   -36619.372     50.83375    241.71553 
   12100    136.83017   -110.40177    128379.03   -34057.509    2580.5603   -36638.069    50.946755    242.70381 
   12150    134.70151   -201.15493    128357.32   -34059.347    2540.4145   -36599.761    51.218999    238.92807 
   12200    138.13438   -39.596294    128364.59   -34078.659    2605.1572   -36683.816    51.185659    245.01717 
   12250    135.88596   -245.75017    128366.02   -34081.268    2562.7529    -36644.02    51.387443    241.02901 
   12300     139.2661     -438.641    128378.82   -34091.858    2626.5009   -36718.359    51.604169    247.02457 
   12350    134.20043   -351.90179    128411.63   -34140.765    2530.9645   -36671.729    51.856206    238.03929 
   12400    133.88153   -348.68786    128327.06   -34160.107    2524.9501   -36685.058    52.244758    237.47363 
   12450    133.75779   -264.05185    128370.95   -34169.516    2522.6164   -36692.133    52.396987    237.25414 
   12500    134.12415    -71.51072    128376.06   -34157.129    2529.5258   -36686.655    52.438095    237.90398 
   12550    136.20143   -331.54159    128332.16   -34150.172    2568.7025   -36718.874    52.556369    241.58858 
   12600    137.49672   -411.89805    128250.13   -34171.757    2593.1311   -36764.888    52.625542    243.88611 
   12650    136.36339   -233.36751    128208.11   -34166.302     2571.757   -36738.059    52.504483    241.87585 
   12700     137.1994   -267.86378    128189.25   -34145.421    2587.5238   -36732.945    52.796491    243.35873 
   12750    133.99817   -351.30932    128196.08   -34112.593    2527.1499   -36639.743    53.119322    237.68053 
   12800    137.25666   -89.726288       128170   -34092.769    2588.6037   -36681.373    53.140893     243.4603 
   12850    136.08334   -16.168064    128218.13    -34119.57    2566.4754   -36686.045    53.580456    241.37911 
   12900    134.52857    -206.7022    128332.56   -34116.415     2537.153   -36653.568    54.048991    238.62132 
   12950    135.63374   -22.593363    128329.81   -34172.103     2557.996   -36730.099    54.241177    240.58162 
   13000    134.35513   -150.55865    128376.73   -34141.923     2533.882   -36675.805    54.513053    238.31368 
   13050     136.1381   -216.56012    128384.18   -34170.488    2567.5082   -36737.996    54.799042    241.47625 
   13100     137.7991   -569.32717    128299.93   -34153.847    2598.8339   -36752.681    54.935862    244.42246 
   13150    135.54054   -171.25228    128166.63   -34118.627    2556.2384   -36674.865    55.161538    240.41632 
   13200    132.95304   -274.14006    128124.81   -34114.354    2507.4392   -36621.793    55.461247    235.82671 
   13250    134.36973   -225.65456     128214.9   -34120.954    2534.1573   -36655.111    55.766182    238.33957 
   13300    133.86699   -350.65532    128223.78   -34102.123    2524.6759   -36626.799    55.828431    237.44784 
   13350    137.81321   -179.52803    128157.31   -34087.452    2599.0999   -36686.552    56.022629    244.44748 
   13400    131.31166   -520.29605    128013.49   -34128.336    2476.4834   -36604.819    56.238768     232.9153 
   13450    133.85397   -273.30813    127917.45   -34126.272    2524.4304   -36650.703     56.40251    237.42475 
   13500    137.11697   -161.11282    127857.07   -34139.358    2585.9692   -36725.327    56.641574    243.21252 
   13550    133.47692   -6.0963104    127938.65   -34081.817    2517.3194   -36599.136    56.722194    236.75596 
   13600    136.56548   -238.92067    127956.44    -34024.86    2575.5682   -36600.428    56.789426    242.23431 
   13650    135.67229   -403.75108    127904.94   -34039.567    2558.7231   -36598.291    56.816253    240.65001 
   13700    133.52962    5.1507168    127913.05   -34083.048    2518.3133   -36601.361    57.053452    236.84943 
   13750    136.03295   -192.12634    127867.89   -34087.413     2565.525   -36652.938    57.299628    241.28973 
   13800    136.26598   -404.20274    127860.51   -34070.386    2569.9198   -36640.306    57.651485    241.70306 
   13850    136.82942   -336.80982     127762.8   -34076.539     2580.546   -36657.085    57.867958    242.70247 
   13900    138.16451    -280.8147    127784.27   -34080.187    2605.7253   -36685.912    58.042345     245.0706 
   13950    134.83923   -25.358101    127802.05    -34129.18    2543.0119   -36672.192    58.192287    239.17236 
   14000     136.8307    -86.79775    127868.05   -34101.133    2580.5702   -36681.704    58.497125    242.70474 
   14050    137.71881   -210.58773    127892.66    -34132.52    2597.3197    -36729.84    58.754335    244.28005 
   14100    135.35883   -468.87281    127852.21    -34092.23    2552.8114   -36645.042    58.824655    240.09401 
   14150    135.08354   -117.95821    127836.38   -34105.734    2547.6195   -36653.354    58.887034     239.6057 
   14200    133.48374   -204.26216    127854.78   -34113.083     2517.448   -36630.531     59.07228    236.76805 
   14250    134.52751   -338.92636    127830.69   -34087.401    2537.1331   -36624.534    59.478523    238.61945 
   14300    136.08939   -136.50498    127870.77   -34131.364    2566.5894   -36697.953    59.690378    241.38983 
   14350    134.24521   -242.20878    127884.26   -34145.623     2531.809   -36677.432    59.931002    238.11871 
   14400    135.56256    -349.0982    127872.15   -34174.616    2556.6537    -36731.27    60.258303    240.45538 
   14450    132.83344   -370.78659    127852.57   -34190.624    2505.1836   -36695.807    60.536345    235.61457 
   14500    133.27004    -567.4905    127921.59   -34174.749    2513.4176   -36688.167    60.823852    236.38899 
   14550    135.87656   -408.04231    127887.03   -34136.796    2562.5755   -36699.372    60.825328    241.01233 
   14600    133.96608   -453.73223    127828.02   -34134.482    2526.5446   -36661.027    60.823207    237.62359 
   14650    134.53492    -430.1068    127808.77   -34106.917    2537.2728    -36644.19    60.973454    238.63259 
   14700    136.37597   -212.14036    127749.86   -34103.895    2571.9943   -36675.889    61.367316    241.89817 
   14750    137.54945   -349.37202    127687.56   -34135.105    2594.1256    -36729.23    61.464212    243.97965 
   14800    132.83853    -481.9884    127634.59   -34152.605    2505.2795   -36657.884      61.8158     235.6236 
   14850    135.44751    -327.8219    127655.53   -34149.042    2554.4838   -36703.526    61.856176     240.2513 
   14900    135.05866   -328.91878    127646.76   -34124.421    2547.1503   -36671.571     62.03405    239.56158 
   14950    134.85527   -10.232073    127684.37    -34118.61    2543.3144   -36661.925    62.143444     239.2008 
   15000      138.808    58.059801    127773.55   -34089.986    2617.8613   -36707.847    62.633821    246.21201 
   15050    135.82294   -52.409628    127883.23   -34218.249    2561.5644   -36779.813    62.910328    240.91723 
   15100    137.22502   -22.504269    128012.57   -34125.708    2588.0069   -36713.715    63.239975    243.40417 
   15150    135.76938   -426.64052    127982.42   -34131.071    2560.5542   -36691.625     63.46702    240.82222 
   15200    134.79508    7.0731361    127957.93   -34171.753    2542.1792   -36713.933    63.500785    239.09404 
   15250    135.32949   -449.80704    127997.13   -34194.873     2552.258   -36747.131    63.663624    240.04196 
   15300    137.70711    75.767654    127942.51   -34165.083     2597.099   -36762.182    63.891637    244.25929 
   15350    135.90082    14.232363    127989.33   -34169.348    2563.0331   -36732.382    64.081327    241.05537 
   15400    134.48694   -246.68954    128008.67   -34136.227    2536.3678   -36672.594    64.050492    238.54747 
   15450    137.40083    -276.3646    128004.52   -34072.928    2591.3227    -36664.25    64.292996    243.71603 
   15500    136.71688   -183.06718     127961.1   -34032.361    2578.4236   -36610.785    64.256302    242.50285 
   15550    136.08951   -141.41683     128028.8   -34006.369    2566.5917   -36572.961    64.514181    241.39005 
   15600    135.93662     -195.694    128159.67   -34038.085    2563.7083   -36601.793    64.713682    241.11887 
   15650    135.51758   -345.57234    128254.21   -34042.218    2555.8053   -36598.023    64.769252    240.37559 
   15700      138.153   -481.35083    128170.89   -34071.226    2605.5083   -36676.734    64.626782    245.05019 
   15750    137.66712   -306.46285     128045.9    -34044.78    2596.3449   -36641.125    64.780742    244.18836 
   15800    137.02868   -250.69013    127884.18   -34104.924     2584.304   -36689.228    65.033235    243.05591 
   15850    134.40125   -81.018634    127827.83   -34145.606    2534.7519   -36680.358    65.134944    238.39549 
   15900    137.15407   -271.97913    127745.23   -34164.469    2586.6689   -36751.138    65.304725    243.27833 
   15950    135.05928    -133.0772    127778.74   -34104.967    2547.1621   -36652.129    65.649022    239.56268 
   16000    136.22231   -232.46969    127771.42   -34106.793    2569.0963   -36675.889    65.668728    241.62562 
   16050    134.26052   -305.36741    127755.52   -34102.018    2532.0978   -36634.116    65.775493    238.14587 
   16100    136.51599   -106.71847    127693.58   -34049.764    2574.6349   -36624.399    65.986127    242.14652 
   16150    135.97073   -143.32417     127715.1    -34058.83    2564.3515   -36623.181     66.34199    241.17936 
   16200    133.32515   -359.34799    127638.36   -34102.186     2514.457   -36616.643    66.410377    236.48674 
   16250    136.88166   -410.52063    127549.61   -34107.798    2581.5313   -36689.329    66.663163    242.79514 
   16300    137.28204   -316.83504    127521.41   -34072.957    2589.0824   -36662.039    66.966629    243.50532 
   16350    134.83097    22.754825    127511.99    -34102.08    2542.8561   -36644.937    67.448901     239.1577 
   16400    136.66187   -68.541302    127494.24   -34047.943    2577.3862   -36625.329    67.871604    242.40529 
   16450    134.25246   -96.203862    127472.44   -34109.687    2531.9457   -36641.633    67.995225    238.13157 
   16500    137.30224   -226.63557    127493.31   -34081.147    2589.4633    -36670.61    68.288207    243.54115 
   16550    134.95836   -173.89559    127513.38   -34080.357    2545.2587   -36625.615    68.252744    239.38367 
   16600    136.02781   -172.96865    127544.49   -34115.553    2565.4282   -36680.981    68.350693    241.28062 
   16650    133.64444   -131.80887    127555.86   -34131.691    2520.4787    -36652.17    68.546047    237.05309 
   16700     134.4257   -235.91877    127531.89   -34111.764    2535.2129   -36646.977    68.320051    238.43885 
   16750    136.26985   -432.99332     127428.3   -34074.892    2569.9928   -36644.885     68.26385    241.70993 
   16800    133.59215   -279.79853    127340.09   -34087.342    2519.4925   -36606.835    68.435194    236.96033 
   16850    134.78947    -339.1141    127351.88    -34037.87    2542.0734   -36579.944    68.419153    239.08409 
   16900    133.37983   -262.69417    127377.65   -34034.145    2515.4882   -36549.633    68.540576    236.58373 
   16950    135.89226   -113.61179    127355.95   -34008.869    2562.8717    -36571.74     68.84334    241.04019 
   17000    135.01887   -269.99062    127417.44    -34054.31    2546.3999    -36600.71    68.943884      239.491 
   17050    136.14796   -75.721864     127426.2   -34078.389    2567.6941   -36646.083    69.129108    241.49373 
   17100    134.94132   -60.222397    127466.51   -34091.599    2544.9374   -36636.536     69.53284    239.35345 
   17150    134.81547   -356.34787    127518.74   -34034.003    2542.5638   -36576.567    69.876507    239.13022 
   17200    133.55127   -570.39315    127472.25    -34063.02    2518.7216   -36581.741     70.08423    236.88783 
   17250    135.38174   -442.21897     127485.2   -34080.811    2553.2435   -36634.055    70.216999    240.13464 
   17300     135.4048   -308.39385    127359.45   -34107.213    2553.6784   -36660.892    70.506184    240.17555 
   17350    135.60814   -125.69895     127351.7   -34092.383    2557.5132   -36649.896    70.886307    240.53622 
   17400    133.98332   -366.18744    127434.26   -34101.604    2526.8699   -36628.474    71.412306    237.65419 
   17450    135.27982   -216.50274    127505.29   -34140.304    2551.3214   -36691.625    71.768729    239.95387 
   17500    134.63378   -228.24072    127534.94   -34117.536    2539.1372   -36656.673    72.009575    238.80794 
   17550    134.57415   -480.19264    127443.92   -34157.776    2538.0127   -36695.789    72.269049    238.70218 
   17600    134.52506   -349.74478    127315.83   -34095.311    2537.0868   -36632.398    72.416585    238.61509 
   17650    135.16395   -528.44818    127227.73   -34078.909     2549.136   -36628.045    72.612561    239.74833 
   17700    134.66143   -466.41107    127211.98   -34084.827    2539.6588   -36624.486     72.74817    238.85699 
   17750    134.90213   -250.47176    127231.72   -34037.571    2544.1982   -36581.769    72.750163    239.28393 
   17800    136.33499   -474.16577    127302.38   -34031.433    2571.2214   -36602.654    72.957349    241.82548 
   17850    136.32924    19.108482    127454.95   -34055.167     2571.113   -36626.279    72.948869    241.81529 
   17900    135.32407   -520.57013    127586.68   -34118.454    2552.1559    -36670.61    73.271071    240.03235 
   17950    134.71698   -315.56818    127619.65   -34121.356    2540.7065   -36662.063    73.309387    238.95553 
   18000      135.906   -147.52652    127661.61    -34093.64    2563.1307    -36656.77    73.426764    241.06455 
   18050    134.90402    -89.63451    127679.12    -34083.31    2544.2339   -36627.544    73.841017    239.28729 
   18100    133.34721   -473.83631    127619.54   -34109.641    2514.8731   -36624.514    73.945701    236.52588 
   18150    133.77941   -231.77071    127599.01   -34135.618    2523.0241   -36658.642    73.894276    237.29249 
   18200    132.39064   -503.39916    127627.21    -34150.69    2496.8325   -36647.522    74.014261    234.82915 
   18250    131.71277   -326.84465     127620.3   -34098.609    2484.0482   -36582.657    74.317997    233.62677 
   18300    133.16283   -262.10287    127597.29   -34123.103    2511.3958   -36634.498    74.672321    236.19883 
   18350    133.89166   -473.71202    127553.43   -34157.143    2525.1412   -36682.284    74.951178     237.4916 
   18400    133.85394   -290.56662    127639.58   -34129.896    2524.4297   -36654.326    75.528155    237.42469 
   18450    135.71016   -236.71445    127600.26   -34102.753    2559.4373    -36662.19    75.703862    240.71717 
   18500    134.38555   -120.81346     127660.2   -34098.882    2534.4557   -36633.338    75.737426    238.36764 
   18550    134.26074    -395.8016    127571.22   -34156.673    2532.1018   -36688.775    76.053404    238.14625 
   18600    133.31039   -142.19479    127562.83   -34120.576    2514.1787   -36634.754    76.284535    236.46057 
   18650      134.981    -113.1641    127604.72   -34116.476    2545.6857   -36662.162      76.3399    239.42383 
   18700    137.75987   -221.41375    127689.95   -34082.134    2598.0939   -36680.228    76.388391    244.35287 
   18750    136.16413   -341.51076    127685.31    -34048.46    2567.9991   -36616.459    76.346284    241.52242 
   18800    133.89665    -301.8743    127660.39   -34107.931    2525.2352   -36633.167    76.613485    237.50044 
   18850    134.68266   -209.62363    127687.45   -34073.188     2540.059   -36613.247    76.576812    238.89464 
   18900      133.845   -302.28834    127701.24   -34045.347    2524.2613   -36569.608    76.588447    237.40884 
   18950    139.03781   -400.23605    127763.04   -33994.999    2622.1955   -36617.194    76.902736    246.61964 
   19000    137.97819   -154.48781    127721.69   -33948.967    2602.2115   -36551.178    76.872778    244.74012 
   19050    136.57426   -242.52387    127735.28   -33950.876    2575.7339    -36526.61    77.105216    242.24989 
   19100    138.49208   -254.24133    127662.74   -33990.427    2611.9032    -36602.33    77.106569    245.65164 
   19150    138.93213   -586.74639    127562.66   -34009.929    2620.2023   -36630.131    77.437468    246.43218 
   19200    133.72974   -587.10902    127498.95   -34025.989    2522.0873   -36548.076    77.890183    237.20438 
   19250    130.38607   -205.39748    127380.18   -34064.311    2459.0271   -36523.338    78.120712    231.27352 
   19300    135.31936   -176.80324    127374.95   -34027.376    2552.0671   -36579.443    78.226376      240.024 
   19350    133.16178   -430.44147    127359.94   -34093.079     2511.376   -36604.455     78.66219    236.19697 
   19400    133.63587   -262.33601    127367.87   -34123.663    2520.3172    -36643.98    78.975361     237.0379 
   19450     132.3629   -188.70252    127397.86   -34132.115    2496.3094   -36628.425    79.127162    234.77995 
   19500    132.06624   -43.915742     127562.1   -34159.093    2490.7145   -36649.807     79.44343    234.25375 
   19550    131.85516   -291.76335    127545.54   -34160.128    2486.7337   -36646.861    79.458718    233.87935 
   19600    132.47635   -322.87305    127520.11   -34122.259     2498.449   -36620.708    79.199997    234.98118 
   19650    132.78025   -219.79711    127464.94   -34137.906    2504.1805   -36642.086    79.198693    235.52023 
   19700    132.23537     -426.443    127467.77   -34132.201    2493.9042   -36626.106    79.234474    234.55374 
   19750    138.24348   -297.93145    127443.37   -34102.792    2607.2146   -36710.007    79.351878    245.21068 
   19800    137.55944   -182.62827    127340.43   -34067.739     2594.314   -36662.053    79.433391    243.99736 
   19850    136.41157   -58.912562       127373    -34062.42    2572.6656   -36635.086    79.595717    241.96131 
   19900     136.1773   -612.85985    127373.31   -34010.623    2568.2473    -36578.87    79.621874    241.54577 
   19950    137.14048   -196.31856    127352.64   -33998.627    2586.4125    -36585.04    80.099078    243.25422 
   20000    136.60327   -61.434939    127410.13   -34008.847     2576.281   -36585.128    80.374283    242.30134 
   20050    136.98096   -106.36595    127387.41   -33992.554     2583.404   -36575.958    80.655146    242.97127 
   20100    133.10859   -144.45891    127421.36   -34001.247    2510.3728    -36511.62    80.986098    236.10262 
   20150    134.61998   -336.55731    127384.02   -33979.476    2538.8769   -36518.353    81.123495    238.78346 
   20200     136.1045   -158.79393    127285.37   -33990.144    2566.8743   -36557.018    81.554567    241.41664 
   20250    134.59271   -116.59975    127316.56   -34001.503    2538.3627   -36539.865    81.790381    238.73509 
   20300    135.75689   -81.820273    127381.86   -33987.003    2560.3187   -36547.321    81.958873    240.80008 
   20350    137.79044   -200.30397    127381.21   -33970.547    2598.6706   -36569.218     82.08621     244.4071 
   20400    134.05502   -342.11273    127333.93   -34006.158     2528.222    -36534.38    82.165308    237.78136 
   20450    135.53079   -190.57412     127399.4   -34002.268    2556.0544   -36558.323    82.430479    240.39902 
   20500     135.7332   -450.51036    127364.99   -33969.292    2559.8718   -36529.163     82.71305    240.75805 
   20550    137.25426   -301.44969    127338.58   -34011.448    2588.5585   -36600.006    82.771361    243.45605 
   20600    136.43119    8.6353904    127360.07   -33963.276    2573.0357   -36536.311    83.096856    241.99612 
   20650    136.10699   -355.26442    127457.97   -34005.999    2566.9213    -36572.92    83.541203    241.42105 
   20700    136.49002   -51.714957    127445.14   -34005.266    2574.1451   -36579.411    83.892342    242.10046 
   20750    137.47662   -367.77122    127514.13   -33966.321     2592.752   -36559.073    84.135856    243.85045 
   20800    136.21185   -178.36875    127524.87   -34002.013     2568.899   -36570.912    84.434913    241.60706 
   20850      135.782   -404.83331    127515.69   -33986.296    2560.7923   -36547.088    84.831285    240.84462 
   20900    137.11445   -166.82672    127565.05   -33978.411    2585.9217   -36564.333    84.763806    243.20806 
   20950    137.98228   -226.75149    127606.23   -34005.715    2602.2886   -36608.004    85.092329    244.74738 
   21000     137.7676   -196.71551    127778.45   -34024.589    2598.2399   -36622.829    85.524206    244.36659 
   21050    137.47676   -80.990363    127909.47   -34008.216    2592.7547   -36600.971    85.681899    243.85071 
   21100    137.05559   -124.44101    127871.78   -33972.785    2584.8115   -36557.597    85.890661    243.10364 
   21150    137.78487    -387.4936    127856.67   -33978.305    2598.5656    -36576.87    86.204896    244.39723 
   21200    137.12075   -331.15215     127912.5   -33965.551    2586.0404   -36551.592    86.207999    243.21922 
   21250    138.30954   -287.68677    127910.19   -33938.469    2608.4606    -36546.93    86.212013    245.32786 
   21300    134.11901   -350.62617    127787.58   -33919.737     2529.429   -36449.166    86.396362    237.89487 
   21350    140.15247   -301.53749    127683.08    -33857.64    2643.2175   -36500.858    86.636684    248.59678 
   21400    138.31901   -532.95817    127721.24   -33842.395    2608.6391   -36451.034    86.702573    245.34465 
   21450    140.39293    -38.93475    127724.84    -33854.01    2647.7523   -36501.762    86.635009    249.02328 
   21500    141.35994   -462.65211    127763.71   -33860.306    2665.9898   -36526.296    86.884685    250.73853 
   21550    139.96992   -352.22213    127760.92   -33862.332    2639.7746   -36502.107    87.382119    248.27297 
   21600    139.34337    -525.6344    127659.93   -33872.501    2627.9581   -36500.459    87.643834    247.16162 
   21650    137.92782   -409.23245    127661.19   -33822.397    2601.2615   -36423.658    88.043248    244.65078 
   21700    138.07981   -373.77828    127561.38   -33835.449     2604.128   -36439.577    88.131462    244.92038 
   21750    141.07245   -315.39798    127663.77    -33856.61    2660.5679   -36517.177    88.484864    250.22859 
   21800    137.82876   -709.36132    127664.15   -33914.034    2599.3932   -36513.427    88.645767    244.47506 
   21850    139.09936   -391.52933    127669.04   -33906.428    2623.3562   -36529.784    88.875351     246.7288 
   21900    139.38688   -239.74369    127703.21   -33947.382    2628.7787   -36576.161    89.014945    247.23879 
   21950    136.73399    -390.6323    127728.03   -33950.452    2578.7464   -36529.198    89.165461    242.53322 
   22000    135.89092   -313.86606    127588.87   -33957.101    2562.8464   -36519.947    89.352117     241.0378 
   22050     136.8191   -67.923835    127562.64   -33954.277    2580.3514   -36534.628    89.616594    242.68417 
   22100    134.97744   -720.98689    127479.87   -33995.606    2545.6186   -36541.225    89.802435    239.41752 
   22150     134.3748   -420.08936    127390.41   -33979.486    2534.2529   -36513.739    90.019093    238.34856 
   22200    135.32067   -175.15823    127311.25   -33936.782    2552.0917   -36488.873    90.000873    240.02632 
   22250    138.04689   -364.40315    127287.45   -33969.061     2603.507   -36572.568     90.39172    244.86197 
   22300    138.44484   -250.75522     127334.3   -33933.329    2611.0123   -36544.341    90.709316    245.56785 
   22350    140.13457   -370.95423    127341.21   -33918.119    2642.8798   -36560.999    91.030312    248.56501 
   22400    136.36376   -457.28812    127353.01   -33943.691     2571.764   -36515.455    91.104702    241.87651 
   22450    135.04903   -520.72025    127273.02   -33985.954    2546.9687   -36532.923    91.342517    239.54449 
   22500    131.52081   -285.09387    127281.48   -34013.091     2480.428   -36493.519     91.58884    233.28629 
   22550    135.17646   -272.77533    127366.72   -34005.179     2549.372   -36554.551    92.245034    239.77053 
   22600    133.43352   -117.44923    127470.83   -34017.628    2516.5009   -36534.129    92.368551    236.67898 
   22650    136.77185   -413.21828    127562.48   -33992.936    2579.4604   -36572.396    92.399421    242.60037 
   22700    135.00954   -117.30297    127612.65   -33989.862     2546.224   -36536.086    92.767565    239.47445 
   22750    135.17582   -352.85072    127608.41   -34037.836    2549.3599   -36587.196    92.737287    239.76939 
   22800    136.56613   -478.47801     127595.7   -34005.854    2575.5806   -36581.435    92.838508    242.23547 
   22850    134.86807   -463.79937    127447.55   -34034.693    2543.5559   -36578.249    92.952138    239.22351 
   22900    135.08138   -235.62889    127417.81    -34009.34    2547.5788   -36556.919    92.990939    239.60188 
   22950    135.96042   -373.93587    127347.86   -34028.906    2564.1571   -36593.063    93.036304    241.16108 
   23000    136.16867   -577.64776    127293.02   -34024.823    2568.0847   -36592.907    93.271478    241.53047 
   23050    137.22691   -358.15466    127347.14   -33992.957    2588.0426   -36580.999    93.496581    243.40753 
   23100    137.61707    126.27516    127439.17   -33916.797    2595.4008   -36512.198    93.799549    244.09957 
   23150    140.67712   -141.82122    127511.47   -33858.184    2653.1121   -36511.296    94.071405    249.52737 
   23200    137.11239   -328.33876     127491.1   -33870.361    2585.8827   -36456.243    94.408409    243.20439 
   23250    134.28876    -299.8533    127489.68   -33920.411    2532.6302   -36453.042    94.683694    238.19595 
   23300    135.72703   -541.19689    127381.82   -33950.047    2559.7555   -36509.802    94.421281    240.74711 
   23350    137.82251   -295.13659    127325.54   -33920.065    2599.2753    -36519.34     94.54245    244.46397 
   23400    137.06416   -360.23633    127377.82   -33938.505    2584.9733   -36523.479    94.796329    243.11886 
   23450    135.48571   -225.55277     127436.5   -33941.274    2555.2044   -36496.478     95.34578    240.31907 
   23500    138.13493   -268.18833     127483.3   -33904.214    2605.1674   -36509.381    95.964078    245.01813 
   23550    139.50802   -538.69689    127481.79   -33865.226    2631.0634   -36496.289    96.242609    247.45367 
   23600    138.94241   -275.95411    127485.76   -33923.993    2620.3963   -36544.389    96.446045    246.45042 
   23650     137.9238   -418.61219    127440.27   -33954.822    2601.1857   -36556.008    96.726697    244.64365 
   23700    135.51772   -483.94873    127478.13   -33949.446     2555.808   -36505.254    96.781438    240.37584 
   23750    132.92057    30.433832    127484.82   -33920.679    2506.8268   -36427.506    96.952432    235.76912 
   23800    135.61019   -365.71223    127510.94   -33970.598    2557.5519   -36528.149    97.419518    240.53985 
   23850    136.01257   -463.79953    127436.88   -33970.617    2565.1407   -36535.758    97.921989    241.25359 
   23900    137.18848   -278.42839    127488.02   -33975.064    2587.3178   -36562.381    98.339944    243.33936 
   23950    134.72186   -267.73771    127583.12   -33992.448    2540.7985   -36533.247    98.977254    238.96418 
   24000    136.12075   -391.75565    127541.01   -33972.162    2567.1809   -36539.343    99.237326    241.44547 
   24050    135.88071   -161.84728    127566.92   -33945.005    2562.6538   -36507.659    99.710039    241.01969 
   24100    136.40092   -302.28525    127604.36   -33936.838    2572.4647   -36509.303    100.20186    241.94242 
   24150    137.69371   -256.53117    127677.85   -33958.599    2596.8463   -36555.445    100.75205    244.23552 
   24200    136.73849   -144.47902    127722.98   -33937.228    2578.8312   -36516.059    101.06493    242.54119 
   24250    137.99372   -157.80387    127739.28   -33933.574    2602.5043   -36536.079    101.52498    244.76767 
   24300    136.86677    -258.0835    127803.61   -33964.933    2581.2505   -36546.183    101.73139    242.76873 
   24350    136.66992   -263.46866    127689.87   -33955.084     2577.538   -36532.622    102.00534    242.41956 
   24400    137.17869   -301.65695    127591.86    -33976.42    2587.1332   -36563.553    101.96792      243.322 
   24450    137.59322   -210.83715     127615.6   -33981.463    2594.9511   -36576.415    102.18055    244.05728 
   24500    137.13904   -38.337854    127601.22   -34032.934    2586.3853   -36619.319    102.35544    243.25166 
   24550    134.75399   -395.04722     127629.5   -34039.476    2541.4044    -36580.88     102.4735    239.02117 
   24600    137.30915   -334.89388    127583.87   -33983.609    2589.5937   -36573.202    102.69561    243.55341 
   24650    135.16116   -280.95761    127560.75   -33956.314    2549.0834   -36505.397    103.09303    239.74339 
   24700    135.13982   -248.62045    127517.67   -34003.692    2548.6809   -36552.372    103.28179    239.70553 
   24750    134.78591    -404.3667    127434.67   -34052.688    2542.0063   -36594.694    103.64349    239.07778 
   24800    134.79896   -216.30178    127332.41    -34088.67    2542.2525   -36630.923    103.67253    239.10093 
   24850    134.00268   -396.07144    127242.65   -34028.712    2527.2349   -36555.947    103.74131    237.68852 
   24900    133.51145   -21.975211    127140.38   -34076.826    2517.9706   -36594.796    104.18489     236.8172 
   24950    131.77378   -18.919111    127252.64   -34087.447    2485.1988   -36572.645    104.29897    233.73498 
   25000    132.91514   -107.69919    127236.12   -34072.332    2506.7243   -36579.056    104.39064    235.75948 
   25050    136.02825    44.584023    127214.68   -34064.059    2565.4363   -36629.495    104.52979    241.28139 
   25100    134.44924   -285.51886    127179.17   -34048.062     2535.657   -36583.719     104.5687    238.48062 
   25150    132.67752   -34.723703    127192.66   -34120.178     2502.243   -36622.421    104.68112    235.33801 
   25200    134.06066   -184.67696    127291.84   -34061.811    2528.3284   -36590.139    104.70843    237.79136 
   25250    135.73868   -353.13262    127280.38   -34037.379    2559.9751   -36597.354    104.86045    240.76776 
   25300    132.82125   -216.71726    127350.54   -34052.057    2504.9537   -36557.011    105.00063    235.59295 
   25350    135.38881   -311.04362    127388.58   -34056.705    2553.3768   -36610.082    105.17236    240.14718 
   25400    135.83304   -261.64579    127417.81   -34016.435    2561.7547   -36578.189    105.38255    240.93513 
   25450    135.24493   -100.63635    127477.17   -34017.399    2550.6633   -36568.062    105.71381    239.89197 
   25500    138.99946   -522.81291    127518.31    -33984.41    2621.4721   -36605.882      106.008     246.5516 
   25550    136.26203   -142.84201     127450.5   -33957.149    2569.8453   -36526.994    106.15086    241.69606 
   25600    139.34181    -310.6135     127523.7   -33957.885    2627.9287   -36585.813    106.27114    247.15885 
   25650    136.47406    6.1191734    127589.53   -33990.959    2573.8441   -36564.803    106.59409    242.07215 
   25700    134.99325    39.536271    127629.77   -33994.882    2545.9168   -36540.799    106.77976    239.44556 
   25750    137.78094   -50.549265    127673.73   -33991.226    2598.4914   -36589.718    107.03551    244.39025 
   25800    137.28214   -316.53897    127774.71   -33990.004    2589.0842   -36579.089    107.26455    243.50549 
   25850    135.46811   -490.42623    127783.87    -33986.99    2554.8724   -36541.863    107.27812    240.28785 
   25900    138.75188    -340.6296    127708.11   -34006.345    2616.8028   -36623.147    107.40678    246.11245 
   25950    136.91223   -218.21783    127650.23   -34019.809    2582.1079   -36601.917     107.7128    242.84937 
   26000    133.72152   -200.43537    127649.89   -34115.637    2521.9325    -36637.57    107.72139    237.18982 
   26050    131.02477   -318.09566    127682.88    -34103.19    2471.0728   -36574.263    108.09208    232.40642 
   26100    134.19747    -273.1681    127668.96   -34070.728    2530.9086   -36601.636    108.00483    238.03403 
   26150      135.402   -141.36769    127683.44   -34049.922    2553.6255   -36603.547    107.94517    240.17058 
   26200    134.40634   -140.91654    127754.32   -34076.336    2534.8478   -36611.184    108.37531    238.40452 
   26250    132.51527   -662.53351    127599.54   -34128.552     2499.183   -36627.735    108.39106    235.05021 
   26300    133.67026   -289.82519    127422.89   -34147.596    2520.9657   -36668.562    108.55356    237.09889 
   26350    132.56006   -305.94129    127355.07   -34150.574    2500.0278   -36650.602    108.58695    235.12967 
   26400    134.31345   -502.13182    127348.56    -34182.03     2533.096   -36715.126    108.76831    238.23976 
   26450    133.10195   -243.19356    127290.53   -34148.438    2510.2476   -36658.686    109.05615    236.09084 
   26500    136.94823   -14.452717    127383.56   -34091.544    2582.7868    -36674.33     109.1926    242.91321 
   26550    132.05303    13.691146    127510.73   -34103.221    2490.4654   -36593.687     109.4422    234.23032 
   26600    132.81121   -145.02439    127584.03    -34080.89    2504.7643   -36585.654    109.64181    235.57514 
   26650    134.92497   -28.705678    127718.36   -34084.524    2544.6289   -36629.153    109.89896    239.32444 
   26700    135.52362   -82.432356    127840.72   -34089.176    2555.9193   -36645.095    110.02471    240.38631 
   26750    133.82788   -200.41903    127854.58   -34113.436    2523.9384   -36637.375    110.27532    237.37848 
   26800    136.31652   -319.33986    127861.54     -34093.9    2570.8729   -36664.773    110.74328    241.79271 
   26850    134.92037   -293.18106    127788.68   -34138.403    2544.5421   -36682.945    110.97001    239.31628 
   26900    133.38216   -163.46084    127696.47    -34124.06    2515.5321   -36639.592    111.40687    236.58786 
   26950    137.44701   -109.42729    127697.39   -34062.219    2592.1937   -36654.413    111.41322    243.79794 
   27000    132.58039   -296.67094    127724.63    -34098.07    2500.4112   -36598.481    111.48635    235.16572 
   27050    134.96102   -296.63175    127740.87   -34083.585    2545.3088   -36628.894    111.73936    239.38838 
   27100    132.84384   -545.00883     127713.4   -34072.272    2505.3798   -36577.652    111.95461    235.63302 
   27150    134.47863   -161.14882    127674.05   -34074.836    2536.2112   -36611.047     112.0569    238.53275 
   27200    137.33416   -312.21372    127602.61   -34007.939    2590.0653   -36598.004    112.43153    243.59777 
   27250    135.58619   -64.494262    127558.92   -34034.093    2557.0992   -36591.193    112.90068    240.49728 
   27300    136.36002   -142.42837    127600.57   -34034.055    2571.6934   -36605.748    113.21771    241.86987 
   27350    136.30836   -119.09634    127616.54   -34029.679    2570.7191   -36600.398     113.4844    241.77825 
   27400    134.74307   -395.36867    127614.43   -34065.932    2541.1984    -36607.13      114.072     239.0018 
   27450    137.25662   -147.71848    127627.55   -34002.767     2588.603    -36591.37    114.47648    243.46023 
   27500    134.35728   -187.35531    127602.19   -34040.255    2533.9225   -36574.177    114.93679    238.31749 
   27550    135.55298    -270.5145     127551.9   -34042.389    2556.4729   -36598.862    115.16877    240.43837 
   27600    133.84743   -325.69968    127524.77   -34056.346     2524.307   -36580.653    115.45615    237.41314 
   27650    136.47586   -258.72845    127474.79   -34050.923    2573.8781   -36624.801    115.78781    242.07534 
   27700    136.75379    -256.5365    127542.22   -34044.335    2579.1197   -36623.454    115.93649    242.56832 
   27750    137.68043   -404.54261    127578.66   -34019.061    2596.5957   -36615.657    116.18152    244.21196 
   27800     136.6905   -98.096542     127549.1   -34031.568    2577.9261   -36609.494    116.69388    242.45607 
   27850    136.88676   -457.39524    127587.71   -34022.093    2581.6276   -36603.721    117.10338    242.80419 
   27900    132.98253   -39.196074     127593.7   -34053.585    2507.9953   -36561.581    117.40456    235.87902 
   27950    137.27945   -282.01494    127576.13   -34000.384    2589.0335   -36589.418     117.8211    243.50072 
   28000    135.09344   -258.95695    127614.39   -34024.504    2547.8062   -36572.311    118.01414    239.62326 
   28050    135.73557   -104.14804    127554.28    -34054.63    2559.9166   -36614.546    118.22698    240.76226 
   28100    132.54223   -212.40609     127614.2    -34091.34    2499.6914   -36591.032    118.23401    235.09803 
   28150    135.76988   -175.03927    127680.88    -34037.67    2560.5636   -36598.234     118.3175    240.82311 
   28200    133.11241   -347.97956       127697   -34074.332    2510.4448   -36584.777    118.72681     236.1094 
   28250    135.08181   -290.33145    127662.89   -34092.939    2547.5869   -36640.526    118.71759    239.60264 
   28300    135.13906   -394.78163    127607.45    -34037.72    2548.6667   -36586.386    119.00418    239.70419 
   28350    136.79457   -473.01186    127632.75   -34001.981    2579.8888   -36581.869    119.20675    242.64066 
   28400    135.41027    34.013345    127679.83   -33980.062    2553.7815   -36533.843    119.24442    240.18525 
   28450    135.83112   -245.36403    127794.81   -33962.524    2561.7186   -36524.243    118.97121    240.93174 
   28500    138.49312   -551.41768    127828.77   -33957.417    2611.9229    -36569.34    118.92543    245.65349 
   28550    137.37117   -110.82108    127853.17   -33972.726    2590.7634    -36563.49     119.2636    243.66342 
   28600    136.78006   -103.81325     127797.9   -33944.063    2579.6151   -36523.678    119.23371    242.61492 
   28650    137.95882   -104.32325    127856.93   -33952.336    2601.8461   -36554.182     119.4193    244.70576 
   28700    134.23394   -160.52237    127841.64    -33976.11    2531.5965   -36507.707    119.44444    238.09873 
   28750    134.30897   -260.74785    127844.23   -34030.941    2533.0114   -36563.952    119.69361     238.2318 
   28800    135.88036   -380.13846    127835.83   -34027.639    2562.6471   -36590.286      119.922    241.01907 
   28850     134.0454   -318.21621    127813.77   -34043.372    2528.0406   -36571.413    120.04532    237.76429 
   28900    133.21281   -248.73989    127806.53   -34027.453    2512.3384   -36539.792    120.16467    236.28749 
   28950    133.36644   -170.46764    127893.15   -34048.638    2515.2357   -36563.874    120.46174    236.55999 
   29000    136.09491   -479.52707    127902.92   -33976.389    2566.6936   -36543.083    120.83548    241.39964 
   29050    133.59683   -479.35189     127789.6   -34033.714    2519.5808   -36553.294    120.79837    236.96864 
   29100    134.36512   -350.39602    127714.33   -34009.446    2534.0703   -36543.516    120.87055     238.3314 
   29150    135.49716    -402.1272    127629.94   -33990.211    2555.4203   -36545.631    120.93705    240.33937 
   29200    137.11479   -275.30575    127526.97   -34004.608    2585.9281   -36590.536    120.96305    243.20866 
   29250    134.12063   -107.30583     127519.2   -34020.549    2529.4595   -36550.009    121.38961    237.89774 
   29300    135.45721   -160.02523    127561.47    -34066.72    2554.6668   -36621.387    121.54205    240.26851 
   29350    135.28942   -13.469347    127620.76   -34051.612    2551.5024   -36603.114    121.62485     239.9709 
   29400    135.90775   -224.26232    127734.23   -34084.615    2563.1638   -36647.779    121.89037    241.06766 
   29450    133.17211   -67.738906    127811.36   -34083.446    2511.5707   -36595.017    121.98811    236.21529 
   29500    134.45538   -293.88375    127813.94   -34122.476    2535.7727   -36658.249    122.11439     238.4915 
   29550    132.42442   -243.42545    127775.86   -34134.356    2497.4695   -36631.825    121.99156    234.88906 
   29600    135.27262   -353.93104    127809.28    -34068.34    2551.1856   -36619.526    122.22803     239.9411 
   29650    133.79528   -229.85421    127823.12   -34098.339    2523.3234   -36621.662     122.5953    237.32064 
   29700     131.4104   -270.04806     127730.9   -34167.421    2478.3456   -36645.767    122.99412    233.09044 
   29750     134.7758   -324.21581    127761.01   -34168.917    2541.8157   -36710.733    123.24788    239.05985 
   29800     135.6072   -222.67044    127752.62   -34109.497    2557.4956   -36666.992    123.22773    240.53456 
   29850    135.03675   -267.03892    127729.71   -34113.584    2546.7371   -36660.321    123.63353    239.52272 
   29900    136.37009   -254.13412     127689.7   -34104.627    2571.8833   -36676.511     123.7136    241.88774 
   29950    135.77895   -374.77243    127683.03   -34117.864    2560.7347   -36678.599    124.08018     240.8392 
   30000    134.38057   -134.90838    127677.36   -34095.676    2534.3618   -36630.038    124.46529    238.35881 
   30050    133.46598   -288.58867    127679.22   -34077.689     2517.113   -36594.802    124.63966    236.73654 
   30100    134.39581   -179.94025    127691.68    -34071.55    2534.6492   -36606.199    124.77276    238.38583 
   30150    137.97717    40.169013    127715.78   -34041.357    2602.1921   -36643.549    125.09508    244.73831 
   30200    135.37403    14.436159    127705.86   -34086.862     2553.098    -36639.96    125.40311    240.12096 
   30250    137.73397     9.686033    127736.27    -34075.62    2597.6055   -36673.226    125.65326    244.30693 
   30300     134.3581   -117.37572    127755.07   -34141.236    2533.9381   -36675.174    125.87794    238.31896 
   30350    135.29147   -286.67457    127673.47    -34109.92    2551.5409   -36661.461     125.9061    239.97452 
   30400    133.54832    39.536415    127711.49   -34041.196    2518.6659   -36559.862    126.14508    236.88259 
   30450    137.12206   -208.33218    127751.76   -34083.725    2586.0651    -36669.79    126.23848    243.22154 
   30500    134.96628   -196.31333    127831.93   -34088.157    2545.4081   -36633.565    126.31794    239.39772 
   30550    134.79554   -369.62257    127864.06    -34062.37     2542.188   -36604.558    126.37755    239.09487 
   30600     138.3632   -478.49002    127849.04   -34042.992    2609.4725   -36652.465    126.50077    245.42303 
   30650    135.23409   -181.13933    127916.07   -34075.409    2550.4588   -36625.868    127.00615    239.87274 
   30700    135.70103   -160.49987    127932.66    -34017.83    2559.2651   -36577.095    127.21529    240.70098 
   30750     133.1584   -494.35193    127910.43   -33991.913    2511.3123   -36503.225    127.20791    236.19098 
   30800    137.74373    -477.1174    127845.38   -33946.555    2597.7895   -36544.344    127.44038    244.32424 
   30850    136.91234   -346.12844    127797.41   -34027.471    2582.1099   -36609.581     127.7902    242.84955 
   30900    134.77258   -227.67437    127785.84   -34016.075     2541.755    -36557.83     128.1279    239.05415 
   30950    137.47513   -281.01515    127843.16    -33983.81    2592.7238   -36576.534    128.59855    243.84781 
   31000    137.91346   -318.64539    127804.12   -33948.365    2600.9907   -36549.356    128.51554     244.6253 
   31050    137.23222   -342.59159    127727.38   -33988.055    2588.1428   -36576.197    128.37566    243.41695 
   31100    134.23233   -600.38437    127646.37   -34037.248    2531.5661   -36568.814    128.40011    238.09587 
   31150    133.25437   -255.49481    127604.68   -34062.723    2513.1221   -36575.845    128.42245     236.3612 
   31200    137.45049   -254.99858    127664.31   -34055.378    2592.2591   -36647.637    128.68868     243.8041 
   31250    134.50746   -142.36816    127746.68   -34042.774    2536.7549   -36579.529    129.03596    238.58388 
   31300    134.49795   -224.89578     127734.9   -34009.166    2536.5755   -36545.742     129.4252      238.567 
   31350    136.21075   -323.21665    127786.96   -34012.018    2568.8783   -36580.896    129.56899    241.60511 
   31400    135.43586   -380.36783    127860.35   -33998.848    2554.2642   -36553.112    129.37975    240.23064 
   31450    139.83821   -382.78336    127868.91   -33986.322    2637.2906   -36623.613    129.60622    248.03935 
   31500    139.17625   -309.99963    127908.79   -33956.911    2624.8063   -36581.717    129.78245    246.86519 
   31550    136.72359    189.15892     127936.2   -33999.681    2578.5501   -36578.232     129.9343    242.51475 
   31600    135.67526   -280.88234    128029.71   -34028.297    2558.7792   -36587.077       130.45    240.65528 
   31650     136.2005   -240.72726    128031.48   -34052.111    2568.6849   -36620.796    130.75895    241.58693 
   31700    138.48051   -412.24056    128043.14   -34071.186    2611.6849   -36682.871    130.86829    245.63111 
   31750    134.19822   -366.89527       128077   -34030.848    2530.9229   -36561.771    130.99955    238.03537 
   31800    137.11602   -312.18424    128022.45   -34056.595    2585.9513   -36642.546    131.06804    243.21084 
   31850    136.21672   -493.22208    128095.83   -34105.016    2568.9909   -36674.007    131.18316     241.6157 
   31900    133.27374   -550.33244    128003.01   -34076.859    2513.4875   -36590.347    131.07237    236.39557 
   31950    136.26678   -412.31113    127943.08   -34018.455     2569.935    -36588.39    131.58087     241.7045 
   32000    133.98393   -555.82418    127815.85   -34041.381    2526.8813   -36568.262     131.7713    237.65526 
   32050    138.84817   -378.07482    127673.78   -34001.581    2618.6188     -36620.2    131.85286    246.28325 
   32100     135.4279   -302.87851     127597.1    -34003.32    2554.1141   -36557.434     131.8932    240.21652 
   32150     138.0082   -311.21051    127494.87   -33996.533    2602.7773    -36599.31    131.99247    244.79334 
   32200    131.76903   -537.90798    127390.94   -34010.272    2485.1093   -36495.382     132.0545    233.72656 
   32250     136.5253   -77.676287    127374.05    -34030.24    2574.8105   -36605.051    132.23543    242.16304 
   32300    135.14359   -21.548119    127441.12   -34054.489     2548.752   -36603.241    132.40401    239.71222 
   32350    138.17043   -201.52547    127471.74   -33999.936     2605.837   -36605.773    132.39975    245.08111 
   32400    134.52623   -341.11847    127464.12   -34014.057    2537.1088   -36551.166      132.716    238.61717 
   32450    136.69474   -273.11205    127391.92   -33969.043    2578.0061   -36547.049    132.61462    242.46359 
   32500    134.88396   -186.83387     127429.2   -33932.397    2543.8556   -36476.253    132.76486    239.25171 
   32550    135.05955   -281.74414    127399.07   -33981.559    2547.1672   -36528.726    132.71243    239.56316 
   32600    134.28444   -399.10517    127414.58   -34030.259    2532.5487   -36562.808     132.9569    238.18829 
   32650    134.55952   -152.34478    127358.62   -34016.711    2537.7367   -36554.448    133.04898    238.67622 
   32700    135.26298   -266.46119    127311.56   -33935.694    2551.0036   -36486.698     133.1862    239.92399 
   32750    134.70836   -287.94731    127258.46   -33926.733    2540.5438   -36467.277    133.45718    238.94023 
   32800     136.2493   -103.51292    127257.74   -33983.624    2569.6053   -36553.229    133.38631    241.67348 
   32850    135.21301   -322.90856    127341.98   -33986.003    2550.0612   -36536.064    133.44389    239.83535 
   32900    136.69699    -73.50033    127360.75   -33984.785    2578.0486   -36562.833    133.38674    242.46758 
   32950    137.03627   -244.08142    127418.03   -33982.978    2584.4472   -36567.425    133.69222    243.06938 
   33000    132.95406   -278.85108    127439.85   -34012.874    2507.4585   -36520.333     133.7736    235.82853 
   33050    136.31379   -244.65867    127471.17   -33996.999    2570.8216   -36567.821    133.93789    241.78788 
   33100    133.95168   -209.04656    127562.54   -34002.236    2526.2731    -36528.51    134.23128    237.59806 
   33150    137.90139   -148.61344    127651.11   -34009.862     2600.763   -36610.625    134.65512     244.6039 
   33200    135.41615   -73.689073    127648.93   -34018.495    2553.8923   -36572.387     135.0935    240.19567 
   33250     136.8644   -248.85795     127667.7   -34005.066    2581.2058   -36586.272    135.36027    242.76452 
   33300    136.00392    -155.6775    127602.62   -33981.694    2564.9776   -36546.672    135.34473    241.23825 
   33350     138.9143   -253.17511    127637.29   -33984.579     2619.866   -36604.445    135.37074    246.40055 
   33400    133.56859   -243.40655    127626.93   -33989.403    2519.0483   -36508.452    135.46754    236.91856 
   33450    133.55916   -328.68662    127548.49   -34040.901    2518.8704   -36559.772    135.61803    236.90183 
   33500    134.72507   -553.42697    127547.86   -34032.681    2540.8589    -36573.54    136.05091    238.96987 
   33550    131.75426   -475.87412     127477.2   -34058.747    2484.8307   -36543.578    135.83684    233.70037 
   33600    135.76222   -588.98281    127319.27   -34045.565    2560.4191   -36605.984    135.93155    240.80952 
   33650    133.26182   -382.40078    127216.01   -34000.021    2513.2626   -36513.284    136.11077    236.37441 
   33700    133.83852   -316.38913    127164.68    -33982.94    2524.1391   -36507.079    136.42814    237.39735 
   33750    133.61103   -559.88794     127097.6   -34005.177    2519.8485   -36525.025    136.76631    236.99382 
   33800    137.16617   -313.04651    127084.01   -34026.122    2586.8971   -36613.019    136.97825    243.29979 
   33850    134.80194   -162.75552    127178.08   -34014.249    2542.3087   -36556.557    137.24603    239.10622 
   33900    134.74042   -99.175143    127270.71   -33944.013    2541.1484   -36485.162    137.30945    238.99709 
   33950    137.21142   -170.63109    127317.48   -33920.431    2587.7506   -36508.181    137.38583    243.38006 
[...]
   92000    133.22242   -434.05618    127528.96   -34044.329    2512.5196   -36556.848    376.30072    236.30453 
   92050    132.61638   -245.82622    127446.81   -34030.047    2501.0899   -36531.137    376.74926    235.22956 
   92100    133.47004   -377.87696    127499.23   -34017.299    2517.1896   -36534.488    377.12159    236.74375 
   92150    132.87844   -118.02525    127532.13   -34021.087    2506.0323    -36527.12    377.55049     235.6944 
   92200    134.23577   -209.43147    127571.42   -33997.416    2531.6309   -36529.047    377.58811    238.10196 
   92250    134.07955   -388.03414    127589.21     -33987.7    2528.6847   -36516.385    377.99048    237.82487 
   92300    132.41084   -88.287711    127545.72   -33993.063    2497.2135   -36490.277    377.97459    234.86498 
   92350    133.44778   -313.40948    127617.16   -33976.854    2516.7697   -36493.624    378.31961    236.70426 
   92400    136.11198   -48.629228    127717.14   -33931.166    2567.0156   -36498.182    378.84681    241.42992 
   92450    136.64537   -134.00475    127791.32   -33955.965     2577.075    -36533.04    378.95822    242.37602 
   92500    134.61059   -6.8856632    127804.39   -34011.798       2538.7   -36550.498    378.69086    238.76681 
   92550    136.71069   -127.54781    127718.97   -33999.299    2578.3069   -36577.606    378.76406    242.49188 
   92600    138.20082   -159.69402    127783.13     -33992.7    2606.4101    -36599.11    379.02101    245.13501 
   92650    136.43568     -303.789    127803.43   -34008.419    2573.1204   -36581.539     380.0022    242.00408 
   92700    135.73756   -39.493411    127760.31   -34025.099     2559.954   -36585.053    380.17379    240.76577 
   92750    137.86324   -372.32218    127793.22   -33976.622    2600.0435   -36576.665    380.36362    244.53622 
   92800    135.91109   -514.84756    127710.69   -33934.417    2563.2267   -36497.644    380.63371    241.07357 
   92850    137.30812   -594.36349    127665.46    -33974.23    2589.5742   -36563.804    380.20399    243.55158 
   92900    137.05362   -365.09548    127704.71   -33959.499    2584.7745   -36544.274    380.09608    243.10016 
   92950    138.23903   -292.29399    127717.34   -33964.662    2607.1307   -36571.793    380.01567    245.20278 
   93000    136.70593   -90.818489     127794.4   -33952.963    2578.2171    -36531.18    379.69193    242.48344 
   93050    135.57142   -393.20828    127808.46   -33921.152    2556.8208   -36477.972    380.12776    240.47109 
   93100    138.07592   -375.38919    127748.05   -33907.441    2604.0546   -36511.495    379.92364    244.91347 
   93150    137.54491   -261.74722    127735.27   -33945.391      2594.04   -36539.431    380.17865    243.97159 
   93200    136.97396    -342.0661    127651.28   -33958.278     2583.272    -36541.55    380.31375    242.95885 
   93250    133.80553   -190.71373    127589.38   -34018.628    2523.5167   -36542.145    380.28383    237.33882 
   93300    135.35681    -192.5714    127529.53   -34007.647    2552.7733    -36560.42    380.27945    240.09042 
   93350    133.50419    -423.3379     127569.6   -34009.179    2517.8337   -36527.013     380.7042    236.80433 
   93400    133.14637   -265.70418    127435.93   -34086.278    2511.0854   -36597.363    381.23558    236.16964 
   93450    131.37187   -269.01806    127364.66   -34123.782    2477.6189   -36601.401    381.19714    233.02209 
   93500    135.70045   -219.98189    127234.06   -34116.713    2559.2543   -36675.967    380.89244    240.69996 
   93550    134.88546   -112.63902    127277.63   -34082.067    2543.8838   -36625.951    381.46704    239.25436 
   93600    134.46201   -267.02657    127207.08   -34040.825    2535.8978   -36576.723    381.38145    238.50326 
   93650    135.50153   -264.27782    127191.43   -34052.815    2555.5026   -36608.318    381.85206    240.34712 
   93700    137.43521   -198.40159    127155.75   -34044.142    2591.9711   -36636.113    381.78184    243.77701 
   93750    134.11431   -188.08231     127143.5   -34063.996    2529.3403   -36593.336    382.00671    237.88653 
   93800    136.79551    52.837735    127143.84   -34071.079    2579.9066   -36650.986    382.05492    242.64234 
   93850     138.0447    3.3361057    127270.36   -34036.569    2603.4658   -36640.035    382.51678     244.8581 
   93900    137.74035   -165.44078     127356.1   -34007.796    2597.7258   -36605.522    382.52124    244.31824 
   93950    135.43639   -347.18301    127311.83   -34035.385    2554.2741   -36589.659    382.79991    240.23157 
   94000    135.05045   -160.52647    127296.64   -34033.884    2546.9955   -36580.879    382.40783    239.54702 
   94050    135.65966   -332.20824     127282.4    -34026.76    2558.4849   -36585.244    382.50509     240.6276 
   94100    136.90639   -439.70803    127203.05   -34047.198    2581.9977   -36629.196    382.80499      242.839 
   94150    133.45188   -212.26817    127224.54   -34027.253    2516.8471     -36544.1    382.83262    236.71154 
   94200    134.43217   -15.032972    127221.53   -33996.502    2535.3349   -36531.837    383.08362    238.45033 
   94250    134.58328    126.01008     127229.6   -34018.864    2538.1848   -36557.049    383.39124    238.71836 
   94300    139.67149   -11.687954    127356.69   -33993.014    2634.1464    -36627.16     383.8715    247.74363 
   94350    133.99413    8.2280893       127428   -34017.079    2527.0737   -36544.152    384.07612    237.67335 
   94400    134.40386   -341.34851    127460.12   -34010.825     2534.801   -36545.626    383.73172    238.40011 
   94450    136.91661   -292.15164    127451.77   -33949.362    2582.1905   -36531.553    384.34957    242.85714 
   94500     136.9011   -153.84201    127458.13   -33935.329     2581.898   -36517.227    384.35606    242.82962 
   94550    136.52514   -254.50966    127523.32   -33947.318    2574.8075   -36522.125    384.79416    242.16276 
   94600    138.96467   -132.06958    127477.09   -33985.836    2620.8161   -36606.652    385.11692    246.48991 
   94650    136.16569    10.609931    127548.51   -33982.102    2568.0283   -36550.131    385.48601    241.52517 
   94700    137.49174   -79.088376    127601.14   -33974.956    2593.0373   -36567.993    385.74003    243.87728 
   94750     134.5965   -158.18852     127596.9   -33998.516    2538.4342   -36536.951    386.02504    238.74182 
   94800    136.40587   -285.71714    127604.91   -34050.251    2572.5582   -36622.809    386.36286    241.95121 
   94850    132.52782   -330.43001     127629.4   -34049.127    2499.4196   -36548.547    386.64155    235.07247 
   94900    134.48309   -348.20024    127551.56   -33980.513    2536.2953   -36516.808    386.71869    238.54065 
   94950    136.26287   -35.900685    127460.39   -33950.964    2569.8613   -36520.825    386.53597    241.69756 
   95000    135.02707   -22.005966    127487.47   -33953.739    2546.5546   -36500.293    386.73573    239.50555 
   95050    133.26548   -295.61891    127555.66   -34017.107    2513.3316   -36530.439    386.79966     236.3809 
   95100     135.8728   -291.66094    127614.43   -33989.499    2562.5046   -36552.004    387.26689    241.00566 
   95150     137.2791   -77.747601    127650.16   -33986.119    2589.0269   -36575.146    387.74567    243.50011 
   95200    134.53138   -447.42083    127613.92   -33987.266     2537.206   -36524.472    388.14462    238.62631 
   95250    132.23148   -276.14756    127655.88   -33978.996    2493.8309   -36472.827    388.55559    234.54684 
   95300     135.2906   -369.48395     127619.5   -33981.546    2551.5245   -36533.071    388.50311    239.97298 
   95350    135.21599   -220.73567    127555.33   -33969.428    2550.1175   -36519.546    387.79671    239.84065 
   95400    138.67357   -533.96267    127497.76    -33957.08     2615.326   -36572.406    388.48982    245.97356 
   95450    137.48822   -150.48933    127512.39   -33963.887    2592.9708   -36556.858    388.39891    243.87103 
   95500    137.01961   -236.48917    127523.64   -33986.808     2584.133   -36570.941    389.01786    243.03983 
   95550    135.41585    -302.7827    127512.37   -34008.588    2553.8867   -36562.474    388.98925    240.19514 
   95600    135.96961    -242.8588    127544.84    -34010.69    2564.3305   -36575.021    388.86688    241.17739 
   95650    134.59234   -176.27475    127555.79   -34055.402    2538.3558   -36593.758    389.44121    238.73444 
   95700    133.44522   -440.73442    127455.01   -34054.392    2516.7216   -36571.113    389.37754    236.69973 
   95750    137.24686   -383.07425    127458.64   -34021.742    2588.4189   -36610.161    389.39756    243.44292 
   95800    132.13798   -149.29818    127499.28   -34022.805    2492.0675   -36514.873     390.1067      234.381 
   95850    133.24675   -500.25596     127422.8   -34062.796    2512.9785   -36575.775    390.14554    236.34769 
   95900    133.24071    -396.3123    127407.26   -34115.016    2512.8644    -36627.88    389.99545    236.33696 
   95950    135.46004   -509.23689    127421.07   -34103.682    2554.7202   -36658.403    390.21991    240.27353 
   96000    133.93576   -392.26041    127318.32   -34126.989    2525.9729   -36652.962    389.81378    237.56982 
   96050    130.02396   -79.851583    127260.26   -34138.862     2452.198    -36591.06     390.2771    230.63124 
   96100    130.13535   -228.04709    127288.95   -34141.343    2454.2988   -36595.642    390.60275    230.82881 
   96150    131.22665   -175.43493    127354.33   -34145.905    2474.8801   -36620.785    390.45193    232.76451 
   96200    129.79763   -243.21853    127354.14   -34156.398    2447.9294   -36604.328    390.62263    230.22977 
   96250    132.13331   -185.54937    127340.61   -34159.191    2491.9795   -36651.171    391.19572    234.37271 
   96300    130.32264   -333.58518    127376.62    -34127.88    2457.8309   -36585.711    391.36259    231.16101 
   96350    135.66072    -79.66801     127336.4   -34055.188     2558.505   -36613.692    391.20472    240.62949 
   96400    133.56203    -174.5474    127361.08   -34075.723    2518.9245   -36594.648    391.61626    236.90692 
   96450    137.65603   -265.13098    127323.46    -33994.72    2596.1356   -36590.855    392.05142    244.16868 
   96500     134.6185   -93.193143     127336.4    -34027.91    2538.8491   -36566.759     392.8292    238.78084 
   96550    134.75096   -355.61473    127387.21   -34067.867    2541.3472   -36609.214     392.7647    239.01579 
   96600    137.08982   -88.206159     127372.2   -34029.262    2585.4571   -36614.719    392.69085    243.16436 
   96650    134.65183    -316.6931    127437.58    -34019.06    2539.4777   -36558.538    392.92726    238.83996 
   96700    133.41106   -336.27526    127378.76   -34060.261    2516.0773   -36576.338    393.13971    236.63913 
   96750    133.16724   -384.26001    127235.92   -34081.968     2511.479   -36593.447    392.81534    236.20666 
   96800    133.32823    66.858782    127236.17   -34079.089    2514.5151   -36593.604    392.47179     236.4922 
   96850      137.662     1.327175    127282.13    -34083.11    2596.2482   -36679.358     393.0597    244.17927 
   96900    136.24026   -253.44211    127299.96   -34034.538    2569.4348   -36603.973    393.41433    241.65745 
   96950    136.63781   -366.10725    127322.06   -34074.107    2576.9324   -36651.039    393.43193    242.36261 
   97000    132.04529   -234.93327    127362.42   -34139.587    2490.3194   -36629.906    393.52425    234.21658 
   97050    133.41478   -575.15197    127347.75   -34118.722    2516.1475    -36634.87    393.78318    236.64573 
   97100    129.99949    -345.6553    127250.16   -34088.699    2451.7365   -36540.435    393.85575    230.58783 
   97150     134.4966    10.582779    127303.12   -34054.571    2536.5501   -36591.121    394.47679    238.56462 
   97200    134.45038    81.958964    127280.88   -34063.432    2535.6784    -36599.11    394.88795    238.48263 
   97250    134.25212   -320.66542    127321.41   -34044.115    2531.9393   -36576.054    394.92037    238.13097 
   97300    134.62424   -474.29421    127289.12   -34057.123    2538.9573    -36596.08    394.70683    238.79101 
   97350    136.17583    -174.5731    127282.97   -34029.612    2568.2197   -36597.832     394.9299    241.54317 
   97400    135.68344   -253.76522    127260.45   -34038.264    2558.9334   -36597.197    395.42322    240.66979 
   97450    133.92428   -70.766938    127120.12   -34052.492    2525.7564   -36578.248    395.32437    237.54946 
   97500    134.47123   -561.64682    127097.53   -34027.897    2536.0715   -36563.969    395.30663    238.51961 
   97550    133.90261   -109.75858    127079.13   -34061.666    2525.3477   -36587.014    395.54373    237.51102 
   97600    132.78278   -143.61629    127118.14   -34052.828    2504.2281   -36557.056    395.55493    235.52471 
   97650    134.33675   -97.372073    127109.49   -34041.605    2533.5353    -36575.14    395.40735    238.28107 
   97700    136.94672   -323.81082    127090.62   -34020.885    2582.7583   -36603.643    395.58788    242.91054 
   97750     136.6748   -117.44468    126988.07   -34023.061      2577.63   -36600.691    396.02187    242.42822 
   97800    136.08109   -494.98162    127042.32   -34099.525    2566.4329   -36665.958    396.41785    241.37512 
   97850    133.24728   -180.25282    127100.79   -34065.342    2512.9884    -36578.33    396.65256    236.34862 
   97900    136.45159   -174.39893    127093.05    -34061.37    2573.4204   -36634.791    396.66765     242.0323 
   97950    136.15242   -88.774052    127134.63   -34013.481    2567.7781   -36581.259    396.69463    241.50164 
   98000    138.39659   -186.28599    127195.01   -33988.089    2610.1023   -36598.191    396.86553    245.48226 
   98050    139.12227   -258.96789    127193.01   -33983.746    2623.7883   -36607.534    396.51779    246.76945 
   98100    137.40886   -215.59384    127196.87   -34002.952    2591.4741   -36594.426    396.31377    243.73026 
   98150    135.74381   -103.24553    127095.77   -34009.084     2560.072   -36569.156    396.69722    240.77687 
   98200    136.76193   -250.45505    127167.14   -34014.158    2579.2732   -36593.431    397.33418    242.58277 
   98250    134.38662   -31.581952    127194.48   -34027.445     2534.476    -36561.92    397.66969    238.36954 
   98300    136.01754   -29.010392    127317.69   -33973.772    2565.2345   -36539.007    397.66255    241.26241 
   98350    136.64173   -19.406627    127482.23   -34017.212    2577.0064   -36594.219    398.22563    242.36956 
   98400    133.64302   -41.912529    127543.36    -34037.99     2520.452   -36558.442    399.01724    237.05058 
   98450    134.33694   -279.00633    127538.15   -34071.165     2533.539   -36604.704    399.61026    238.28142 
   98500    135.43376   -95.862337    127595.14   -34052.087    2554.2245   -36606.311    399.82533    240.22691 
   98550    133.17295   -164.52509     127728.4   -34067.724    2511.5866    -36579.31    399.91957    236.21678 
   98600    137.80352   -145.05921       127889   -34105.842    2598.9172   -36704.759    399.94065     244.4303 
   98650    134.25703    -223.2964    127930.69   -34156.506    2532.0319   -36688.538    400.30664    238.13968 
   98700    132.07543   -234.92205    127914.31    -34131.46    2490.8878   -36622.348    400.69378    234.27004 
   98750    132.42383   -214.46518    127923.89   -34182.364    2497.4586   -36679.823    400.77552    234.88803 
   98800     133.8146   -131.38526    128007.46   -34174.956    2523.6878   -36698.643    400.96593     237.3549 
   98850    132.26508    235.82487    128061.41    -34136.68    2494.4645   -36631.144    401.18251    234.60643 
   98900    132.70406   -361.83968    128143.73   -34133.144    2502.7435   -36635.887    401.48722    235.38508 
   98950    131.61098   -610.03254    128123.93   -34155.088    2482.1285   -36637.217    401.35308    233.44623 
   99000    134.17583   -289.30137    128089.81   -34120.408    2530.5005   -36650.908    401.33466    237.99565 
   99050    132.99026   -409.08406    128032.88    -34129.85    2508.1411   -36637.991    401.36128    235.89273 
   99100    135.86491   -212.78805    128008.59   -34071.501    2562.3558   -36633.856    401.24989    240.99166 
   99150    134.25502   -149.10036    128097.72   -34102.351     2531.994   -36634.345    401.03641    238.13612 
   99200    135.54673   -245.43485    128087.23    -34045.47     2556.355   -36601.825    401.50116    240.42729 
   99250    137.48042   -44.827412    128130.98    -34100.17    2592.8236   -36692.994     401.0389    243.85719 
   99300    133.84095     47.64918    128144.84    -34108.06    2524.1849   -36632.245     401.0831    237.40166 
   99350    136.59163    18.119043    128190.32   -34064.414    2576.0615   -36640.476    401.40742     242.2807 
   99400    136.61408   -549.79435     128185.3   -34046.041    2576.4849   -36622.526    401.97045    242.32052 
   99450    136.32709   -246.52056    128179.78    -34009.91    2571.0724   -36580.982     402.2875    241.81147 
   99500    139.07438   -263.76097    128133.54   -34052.223     2622.885   -36675.108    402.41358    246.68449 
   99550    136.75227   -360.48206    128123.19   -34080.059     2579.091    -36659.15    402.54844    242.56562 
   99600    138.34114   -212.39428    128205.72   -34043.343    2609.0566   -36652.399    402.44202    245.38391 
   99650    138.21647   -277.40997    128239.63   -34014.976    2606.7052   -36621.681    402.86933    245.16276 
   99700    134.46514    -334.1875    128363.18   -34049.886    2535.9568   -36585.843    403.46983    238.50881 
   99750    138.78957   -402.34718    128350.96   -33995.626    2617.5137    -36613.14    403.83683    246.17931 
   99800    135.37811   -638.05337    128318.47   -34032.271    2553.1751   -36585.447    403.89814    240.12821 
   99850    136.16974   -532.47824    128341.83    -34011.16    2568.1048   -36579.265    404.08044    241.53236 
   99900    134.91348   -598.48156    128280.55   -34044.893    2544.4124   -36589.305    404.47584    239.30407 
   99950    135.10758   -547.03606     128183.4   -34032.784    2548.0729   -36580.857    404.81971    239.64835 
  100000    139.01613   -102.58852     128199.4   -34035.255    2621.7865   -36657.042     404.4984    246.58117 
Loop time of 57.0828 on 90 procs for 100000 steps with 6328 atoms

Performance: 756.795 ns/day, 0.032 hours/ns, 1751.840 timesteps/s
97.3% CPU use with 90 MPI tasks x no OpenMP threads

MPI task timing breakdown:
Section |  min time  |  avg time  |  max time  |%varavg| %total
---------------------------------------------------------------
Pair    | 7.5867     | 18.775     | 40.165     | 298.4 | 32.89
Neigh   | 0.55826    | 1.3024     | 3.2447     |  78.2 |  2.28
Comm    | 6.0754     | 19.272     | 42.267     | 308.9 | 33.76
Output  | 0.15153    | 0.15448    | 0.16574    |   0.5 |  0.27
Modify  | 3.4565     | 16.765     | 38.923     | 379.0 | 29.37
Other   |            | 0.8145     |            |       |  1.43

Nlocal:    70.3111 ave 159 max 42 min
Histogram: 59 1 0 9 6 0 0 0 10 5
Nghost:    714.756 ave 1042 max 446 min
Histogram: 30 0 0 21 9 0 0 0 8 22
Neighs:    0 ave 0 max 0 min
Histogram: 90 0 0 0 0 0 0 0 0 0
FullNghs:  5755.69 ave 19087 max 1585 min
Histogram: 60 0 0 0 15 0 0 0 1 14

Total # of neighbors = 518012
Ave neighs/atom = 81.8603
Neighbor list builds = 6005
Dangerous builds = 0

write_data		${DIR}/data.eq-${NAME}-${TEMP}
write_data		run_5/data.eq-${NAME}-${TEMP}
write_data		run_5/data.eq-het_freeze_5-${TEMP}
write_data		run_5/data.eq-het_freeze_5-240
undump          1

reset_timestep  0

unfix           2
unfix           3
unfix           4


################################################
#######         Run Simulation         #########
################################################

log				${DIR}/log.run_${NAME}
log				run_5/log.run_${NAME}
log				run_5/log.run_het_freeze_5
