LAMMPS data file via write_data, version 16 Mar 2018, timestep = 6000000

5021 atoms
2 atom types

0.0000000000000000e+00 4.9219999999999999e+01 xlo xhi
0.0000000000000000e+00 4.9019635930410494e+01 ylo yhi
1.7281369072599517e-01 3.9827186309261819e+01 zlo zhi

Masses

1 18.015
2 12.01

Atoms # atomic

201 2 0.0000000000000000e+00 2.8417180249513345e+00 1.9745905015479173e+00 0 0 0
203 2 0.0000000000000000e+00 0.0000000000000000e+00 1.9745905015479173e+00 0 0 0
205 2 1.2305000000000001e+00 7.1042950623783474e-01 1.9745905015479173e+00 0 0 0
212 2 1.2305000000000001e+00 2.1312885187134998e+00 1.9745905015479173e+00 0 0 0
214 2 2.4610000000000003e+00 2.8417180249513345e+00 1.9745905015479173e+00 0 0 0
216 2 2.4610000000000003e+00 0.0000000000000000e+00 1.9745905015479173e+00 0 0 0
218 2 3.6915000000000004e+00 7.1042950623783474e-01 1.9745905015479173e+00 0 0 0
233 2 3.6914999999999996e+00 2.1312885187134998e+00 1.9745905015479173e+00 0 0 0
235 2 4.9220000000000006e+00 2.8417180249513332e+00 1.9745905015479173e+00 0 0 0
237 2 4.9220000000000006e+00 0.0000000000000000e+00 1.9745905015479173e+00 0 0 0
239 2 6.1524999999999999e+00 7.1042950623783407e-01 1.9745905015479173e+00 0 0 0
262 2 6.1524999999999999e+00 2.1312885187134989e+00 1.9745905015479173e+00 0 0 0
264 2 7.3829999999999991e+00 2.8417180249513345e+00 1.9745905015479173e+00 0 0 0
266 2 7.3829999999999991e+00 0.0000000000000000e+00 1.9745905015479173e+00 0 0 0
268 2 8.6134999999999984e+00 7.1042950623783407e-01 1.9745905015479173e+00 0 0 0
299 2 8.6134999999999984e+00 2.1312885187135002e+00 1.9745905015479173e+00 0 0 0
208 2 0.0000000000000000e+00 4.2625770374269996e+00 1.9745905015479173e+00 0 0 0
210 2 1.2305000000000001e+00 4.9730065436648339e+00 1.9745905015479173e+00 0 0 0
225 2 1.2305000000000001e+00 6.3938655561404980e+00 1.9745905015479173e+00 0 0 0
229 2 2.4610000000000003e+00 4.2625770374269996e+00 1.9745905015479173e+00 0 0 0
231 2 3.6914999999999996e+00 4.9730065436648339e+00 1.9745905015479173e+00 0 0 0
254 2 3.6914999999999996e+00 6.3938655561404980e+00 1.9745905015479173e+00 0 0 0
206 2 0.0000000000000000e+00 7.1042950623783341e+00 1.9745905015479173e+00 0 0 0
227 2 2.4610000000000003e+00 7.1042950623783341e+00 1.9745905015479173e+00 0 0 0
258 2 4.9220000000000006e+00 4.2625770374269978e+00 1.9745905015479173e+00 0 0 0
260 2 6.1524999999999999e+00 4.9730065436648339e+00 1.9745905015479173e+00 0 0 0
291 2 6.1524999999999999e+00 6.3938655561404980e+00 1.9745905015479173e+00 0 0 0
295 2 7.3829999999999991e+00 4.2625770374269996e+00 1.9745905015479173e+00 0 0 0
297 2 8.6135000000000002e+00 4.9730065436648339e+00 1.9745905015479173e+00 0 0 0
336 2 8.6135000000000002e+00 6.3938655561404980e+00 1.9745905015479173e+00 0 0 0
256 2 4.9220000000000006e+00 7.1042950623783341e+00 1.9745905015479173e+00 0 0 0
293 2 7.3830000000000009e+00 7.1042950623783341e+00 1.9745905015479173e+00 0 0 0
221 2 0.0000000000000000e+00 8.5251540748539991e+00 1.9745905015479173e+00 0 0 0
223 2 1.2305000000000001e+00 9.2355835810918343e+00 1.9745905015479173e+00 0 0 0
250 2 2.4610000000000003e+00 8.5251540748539991e+00 1.9745905015479173e+00 0 0 0
252 2 3.6915000000000004e+00 9.2355835810918343e+00 1.9745905015479173e+00 0 0 0
219 2 0.0000000000000000e+00 1.1366872099805333e+01 1.9745905015479173e+00 0 0 0
246 2 1.2305000000000001e+00 1.0656442593567498e+01 1.9745905015479173e+00 0 0 0
248 2 2.4610000000000003e+00 1.1366872099805333e+01 1.9745905015479173e+00 0 0 0
283 2 3.6914999999999996e+00 1.0656442593567499e+01 1.9745905015479173e+00 0 0 0
287 2 4.9220000000000006e+00 8.5251540748539991e+00 1.9745905015479173e+00 0 0 0
289 2 6.1524999999999999e+00 9.2355835810918343e+00 1.9745905015479173e+00 0 0 0
332 2 7.3830000000000009e+00 8.5251540748539991e+00 1.9745905015479173e+00 0 0 0
334 2 8.6134999999999984e+00 9.2355835810918343e+00 1.9745905015479173e+00 0 0 0
285 2 4.9220000000000006e+00 1.1366872099805333e+01 1.9745905015479173e+00 0 0 0
328 2 6.1524999999999999e+00 1.0656442593567499e+01 1.9745905015479173e+00 0 0 0
330 2 7.3829999999999991e+00 1.1366872099805333e+01 1.9745905015479173e+00 0 0 0
375 2 8.6134999999999984e+00 1.0656442593567498e+01 1.9745905015479173e+00 0 0 0
202 2 0.0000000000000000e+00 1.4208590124756650e+00 5.2741169687076992e+00 0 0 0
204 2 0.0000000000000000e+00 0.0000000000000000e+00 5.2741169687076992e+00 0 0 0
213 2 1.2305000000000001e+00 2.1312885187134998e+00 5.2741169687076992e+00 0 0 0
215 2 2.4610000000000003e+00 1.4208590124756650e+00 5.2741169687076992e+00 0 0 0
217 2 2.4610000000000003e+00 0.0000000000000000e+00 5.2741169687076992e+00 0 0 0
234 2 3.6914999999999996e+00 2.1312885187134998e+00 5.2741169687076992e+00 0 0 0
211 2 1.2305000000000001e+00 3.5521475311891644e+00 5.2741169687076992e+00 0 0 0
232 2 3.6914999999999996e+00 3.5521475311891644e+00 5.2741169687076992e+00 0 0 0
530 2 0.0000000000000000e+00 2.8417180249513345e+00 8.5736434358675897e+00 0 0 0
531 2 0.0000000000000000e+00 0.0000000000000000e+00 8.5736434358675897e+00 0 0 0
532 2 1.2305000000000001e+00 7.1042950623783474e-01 8.5736434358675897e+00 0 0 0
536 2 1.2305000000000001e+00 2.1312885187134998e+00 8.5736434358675897e+00 0 0 0
537 2 2.4610000000000003e+00 2.8417180249513345e+00 8.5736434358675897e+00 0 0 0
538 2 2.4610000000000003e+00 0.0000000000000000e+00 8.5736434358675897e+00 0 0 0
539 2 3.6915000000000004e+00 7.1042950623783474e-01 8.5736434358675897e+00 0 0 0
547 2 3.6914999999999996e+00 2.1312885187134998e+00 8.5736434358675897e+00 0 0 0
236 2 4.9220000000000006e+00 1.4208590124756650e+00 5.2741169687076992e+00 0 0 0
238 2 4.9220000000000006e+00 0.0000000000000000e+00 5.2741169687076992e+00 0 0 0
263 2 6.1524999999999999e+00 2.1312885187134989e+00 5.2741169687076992e+00 0 0 0
265 2 7.3829999999999991e+00 1.4208590124756659e+00 5.2741169687076992e+00 0 0 0
267 2 7.3829999999999991e+00 0.0000000000000000e+00 5.2741169687076992e+00 0 0 0
300 2 8.6134999999999984e+00 2.1312885187135002e+00 5.2741169687076992e+00 0 0 0
261 2 6.1524999999999999e+00 3.5521475311891644e+00 5.2741169687076992e+00 0 0 0
298 2 8.6134999999999984e+00 3.5521475311891657e+00 5.2741169687076992e+00 0 0 0
548 2 4.9220000000000006e+00 2.8417180249513332e+00 8.5736434358675897e+00 0 0 0
549 2 4.9220000000000006e+00 0.0000000000000000e+00 8.5736434358675897e+00 0 0 0
550 2 6.1524999999999999e+00 7.1042950623783407e-01 8.5736434358675897e+00 0 0 0
562 2 6.1524999999999999e+00 2.1312885187134989e+00 8.5736434358675897e+00 0 0 0
563 2 7.3829999999999991e+00 2.8417180249513345e+00 8.5736434358675897e+00 0 0 0
564 2 7.3829999999999991e+00 0.0000000000000000e+00 8.5736434358675897e+00 0 0 0
565 2 8.6134999999999984e+00 7.1042950623783407e-01 8.5736434358675897e+00 0 0 0
581 2 8.6134999999999984e+00 2.1312885187135002e+00 8.5736434358675897e+00 0 0 0
207 2 0.0000000000000000e+00 5.6834360499026637e+00 5.2741169687076992e+00 0 0 0
209 2 0.0000000000000000e+00 4.2625770374269996e+00 5.2741169687076992e+00 0 0 0
226 2 1.2305000000000001e+00 6.3938655561404980e+00 5.2741169687076992e+00 0 0 0
228 2 2.4610000000000003e+00 5.6834360499026637e+00 5.2741169687076992e+00 0 0 0
230 2 2.4610000000000003e+00 4.2625770374269996e+00 5.2741169687076992e+00 0 0 0
255 2 3.6914999999999996e+00 6.3938655561404980e+00 5.2741169687076992e+00 0 0 0
224 2 1.2305000000000001e+00 7.8147245686161639e+00 5.2741169687076992e+00 0 0 0
253 2 3.6914999999999996e+00 7.8147245686161639e+00 5.2741169687076992e+00 0 0 0
534 2 0.0000000000000000e+00 4.2625770374269996e+00 8.5736434358675897e+00 0 0 0
535 2 1.2305000000000001e+00 4.9730065436648339e+00 8.5736434358675897e+00 0 0 0
543 2 1.2305000000000001e+00 6.3938655561404980e+00 8.5736434358675897e+00 0 0 0
545 2 2.4610000000000003e+00 4.2625770374269996e+00 8.5736434358675897e+00 0 0 0
546 2 3.6914999999999996e+00 4.9730065436648339e+00 8.5736434358675897e+00 0 0 0
558 2 3.6914999999999996e+00 6.3938655561404980e+00 8.5736434358675897e+00 0 0 0
533 2 0.0000000000000000e+00 7.1042950623783341e+00 8.5736434358675897e+00 0 0 0
544 2 2.4610000000000003e+00 7.1042950623783341e+00 8.5736434358675897e+00 0 0 0
257 2 4.9220000000000006e+00 5.6834360499026637e+00 5.2741169687076992e+00 0 0 0
259 2 4.9220000000000006e+00 4.2625770374269978e+00 5.2741169687076992e+00 0 0 0
292 2 6.1524999999999999e+00 6.3938655561404980e+00 5.2741169687076992e+00 0 0 0
294 2 7.3829999999999991e+00 5.6834360499026637e+00 5.2741169687076992e+00 0 0 0
296 2 7.3829999999999991e+00 4.2625770374269996e+00 5.2741169687076992e+00 0 0 0
337 2 8.6135000000000002e+00 6.3938655561404980e+00 5.2741169687076992e+00 0 0 0
290 2 6.1524999999999999e+00 7.8147245686161639e+00 5.2741169687076992e+00 0 0 0
335 2 8.6135000000000002e+00 7.8147245686161639e+00 5.2741169687076992e+00 0 0 0
560 2 4.9220000000000006e+00 4.2625770374269978e+00 8.5736434358675897e+00 0 0 0
561 2 6.1524999999999999e+00 4.9730065436648339e+00 8.5736434358675897e+00 0 0 0
577 2 6.1524999999999999e+00 6.3938655561404980e+00 8.5736434358675897e+00 0 0 0
579 2 7.3829999999999991e+00 4.2625770374269996e+00 8.5736434358675897e+00 0 0 0
580 2 8.6135000000000002e+00 4.9730065436648339e+00 8.5736434358675897e+00 0 0 0
600 2 8.6135000000000002e+00 6.3938655561404980e+00 8.5736434358675897e+00 0 0 0
559 2 4.9220000000000006e+00 7.1042950623783341e+00 8.5736434358675897e+00 0 0 0
578 2 7.3830000000000009e+00 7.1042950623783341e+00 8.5736434358675897e+00 0 0 0
220 2 0.0000000000000000e+00 9.9460130873296642e+00 5.2741169687076992e+00 0 0 0
222 2 0.0000000000000000e+00 8.5251540748539991e+00 5.2741169687076992e+00 0 0 0
249 2 2.4610000000000003e+00 9.9460130873296642e+00 5.2741169687076992e+00 0 0 0
251 2 2.4610000000000003e+00 8.5251540748539991e+00 5.2741169687076992e+00 0 0 0
245 2 1.2305000000000001e+00 1.2077301606043163e+01 5.2741169687076992e+00 0 0 0
247 2 1.2305000000000001e+00 1.0656442593567498e+01 5.2741169687076992e+00 0 0 0
282 2 3.6914999999999996e+00 1.2077301606043163e+01 5.2741169687076992e+00 0 0 0
284 2 3.6914999999999996e+00 1.0656442593567499e+01 5.2741169687076992e+00 0 0 0
541 2 0.0000000000000000e+00 8.5251540748539991e+00 8.5736434358675897e+00 0 0 0
542 2 1.2305000000000001e+00 9.2355835810918343e+00 8.5736434358675897e+00 0 0 0
556 2 2.4610000000000003e+00 8.5251540748539991e+00 8.5736434358675897e+00 0 0 0
557 2 3.6915000000000004e+00 9.2355835810918343e+00 8.5736434358675897e+00 0 0 0
540 2 0.0000000000000000e+00 1.1366872099805333e+01 8.5736434358675897e+00 0 0 0
554 2 1.2305000000000001e+00 1.0656442593567498e+01 8.5736434358675897e+00 0 0 0
555 2 2.4610000000000003e+00 1.1366872099805333e+01 8.5736434358675897e+00 0 0 0
573 2 3.6914999999999996e+00 1.0656442593567499e+01 8.5736434358675897e+00 0 0 0
286 2 4.9220000000000006e+00 9.9460130873296642e+00 5.2741169687076992e+00 0 0 0
288 2 4.9220000000000006e+00 8.5251540748539991e+00 5.2741169687076992e+00 0 0 0
331 2 7.3830000000000009e+00 9.9460130873296642e+00 5.2741169687076992e+00 0 0 0
333 2 7.3830000000000009e+00 8.5251540748539991e+00 5.2741169687076992e+00 0 0 0
327 2 6.1524999999999999e+00 1.2077301606043163e+01 5.2741169687076992e+00 0 0 0
329 2 6.1524999999999999e+00 1.0656442593567499e+01 5.2741169687076992e+00 0 0 0
374 2 8.6135000000000002e+00 1.2077301606043163e+01 5.2741169687076992e+00 0 0 0
376 2 8.6134999999999984e+00 1.0656442593567498e+01 5.2741169687076992e+00 0 0 0
575 2 4.9220000000000006e+00 8.5251540748539991e+00 8.5736434358675897e+00 0 0 0
576 2 6.1524999999999999e+00 9.2355835810918343e+00 8.5736434358675897e+00 0 0 0
598 2 7.3830000000000009e+00 8.5251540748539991e+00 8.5736434358675897e+00 0 0 0
599 2 8.6134999999999984e+00 9.2355835810918343e+00 8.5736434358675897e+00 0 0 0
574 2 4.9220000000000006e+00 1.1366872099805333e+01 8.5736434358675897e+00 0 0 0
596 2 6.1524999999999999e+00 1.0656442593567499e+01 8.5736434358675897e+00 0 0 0
597 2 7.3829999999999991e+00 1.1366872099805333e+01 8.5736434358675897e+00 0 0 0
620 2 8.6134999999999984e+00 1.0656442593567498e+01 8.5736434358675897e+00 0 0 0
2445 1 1.9478153340326634e+00 2.9211635577343222e+00 1.1442298073730679e+01 1 1 0
2207 1 9.0895500056194156e-01 2.2155520114794740e+00 1.4905569650817391e+01 0 1 0
3775 1 3.1457030053562018e+00 3.6791326395675599e+00 1.3859784691688233e+01 1 4 0
1218 1 4.9086506222727229e+00 2.9923534296658683e+00 1.1125701267864397e+01 2 1 0
1126 1 3.0801403812818257e-01 1.0554805716354855e+01 1.7320821055580200e+01 0 -1 0
1351 1 5.1355684442139875e+00 2.4888362083587512e+00 1.5068455259191683e+01 -1 1 0
1283 1 4.9132708665949032e+00 7.9479852935252477e+00 1.8366528935517636e+01 -2 0 0
2225 1 7.2135201778079541e+00 6.7890226802206088e+00 1.7829515755376818e+01 0 2 0
918 1 7.5018836458114464e+00 4.0505440456195609e+00 1.8311175435928998e+01 2 1 1
3608 1 9.4302280059641284e+00 3.2328594441329339e+00 1.1137990872021657e+01 2 0 0
3599 1 2.7380178257701244e+00 6.4492277605154191e+00 1.4234016412289078e+01 1 1 0
4836 1 9.6862401158761990e+00 1.1622785496074206e+01 1.4942901032680624e+01 -1 2 0
2174 1 7.0284223882882939e+00 4.4598986415806570e+00 1.4276389988399330e+01 1 0 0
142 1 6.9768393058750311e+00 4.6197628372416375e+00 1.1583186720757224e+01 0 1 1
34 1 6.3808696423481059e+00 7.6967936521499594e+00 1.1448607916498466e+01 0 1 0
2276 1 4.7807333042560423e+00 8.0487990059158641e+00 1.3849688118382092e+01 0 -1 0
1235 1 7.0347405402675447e+00 7.1300241641613562e+00 1.5223125980369613e+01 1 0 -1
4907 1 9.7718865951323082e+00 3.0922682116090692e+00 1.7127970539645528e+01 0 -1 0
1117 1 4.1376160316906757e-01 7.9446438166244793e+00 1.7874532504473326e+01 1 1 0
919 1 9.6535905854827746e+00 1.1483396330092045e+01 1.7691562531879324e+01 1 1 0
939 1 4.7669701314895132e+00 1.0951093026751854e+01 1.4786128838419661e+01 -2 0 0
2692 1 8.8309803516656853e+00 9.3646068984249506e+00 1.1600489528808774e+01 -2 0 0
2384 1 2.2665403293619071e+00 1.2031911814158088e+01 1.4761426986964644e+01 0 0 -1
4923 1 9.0281339184974208e+00 9.0488491854266009e+00 1.4286094239576526e+01 -2 1 -1
1358 1 4.2291677266052513e-01 2.5085697204380799e+00 1.7478356300172873e+01 1 0 0
3470 1 5.0244506701362948e+00 2.7209105704904730e+00 1.7706890658043530e+01 2 -1 -1
3462 1 8.1878518069822963e+00 1.2073796357165362e+01 1.1358742543266935e+01 0 -1 0
2420 1 4.9101901189055095e+00 1.0767680245923108e+01 1.7557256045704751e+01 0 -1 -1
1321 1 2.5255242913664171e+00 4.1654641909141530e+00 1.8031787531586275e+01 0 -1 0
1133 1 4.2650688689589011e-01 7.5064960035580217e+00 1.3138713388322111e+01 1 0 -1
4943 1 2.8111696994739597e+00 6.7492711338633118e+00 1.7180763285695594e+01 1 0 -1
1320 1 5.7396025944888551e+00 5.9208306858264767e-02 1.8481260295009140e+01 -1 0 0
2579 1 9.5408579398965738e+00 8.5677304986522174e+00 1.8271946714036797e+01 -2 0 -1
3444 1 5.5858693542566833e+00 3.1599779722425941e-01 1.1653200807853207e+01 0 0 1
2542 1 9.4859939018210770e+00 2.9943652501264166e+00 1.4204010346806431e+01 1 1 -1
2363 1 1.1468798444722552e+00 2.8395289967684447e-02 1.1362694031524125e+01 1 2 0
132 1 9.3728493418431824e-01 2.4618885932348844e+00 2.1796160037411507e+01 0 1 0
3461 1 1.1325017898841847e+00 2.3022551282148944e+00 2.4797271119287057e+01 1 0 0
3713 1 3.0302412854145144e+00 3.8960812797183415e+00 2.0817535086569659e+01 -1 3 0
1386 1 5.4293178782520286e+00 2.6639224677032489e+00 2.1792015455423289e+01 1 -1 1
1262 1 5.7468014079262879e+00 2.8140495021226402e+00 2.4694187400811259e+01 0 1 -1
3970 1 2.6594465897595816e+00 6.4850243684185331e+00 2.1844074490345701e+01 1 0 0
3581 1 2.6504547690096425e+00 6.6431047016260658e+00 2.4657159662544569e+01 1 2 0
1073 1 9.7713650521190321e+00 8.5648393676614383e+00 2.0840377788092113e+01 1 -3 -1
1210 1 5.0109185654945856e+00 8.1013294928733437e+00 2.1215376344643062e+01 1 0 0
1022 1 7.7149295175284420e+00 4.4417204190030288e+00 2.0976059855078397e+01 1 1 0
2160 1 7.5911895129713338e+00 6.9921152620458242e+00 2.1571021329217274e+01 -2 1 0
1220 1 7.7749751418571291e+00 6.8253509089397273e+00 2.4454540105001772e+01 1 -1 -1
2315 1 5.3732924557768778e+00 5.5402871699620482e+00 2.5318032285639639e+01 -1 0 0
1312 1 4.8783040371961519e+00 1.0843986207460130e+01 2.4479374358221399e+01 -2 0 0
3810 1 1.8350027305805966e-01 7.6906755084586242e+00 2.0740923599499894e+01 1 2 0
1394 1 9.3307815895377733e+00 1.1340539197138586e+01 2.8619651533579727e+01 2 2 1
1306 1 7.2573053661305078e+00 9.3732117175703351e+00 2.5323091801735579e+01 -2 -1 0
3762 1 9.5603598205964087e+00 1.1244187864240310e+01 2.4345592778046296e+01 0 0 0
3431 1 4.7699522195447521e+00 1.0860698620720147e+01 2.1475076322860613e+01 -1 -2 0
4873 1 9.1792688283423640e+00 1.1178550943076322e+01 2.1792396201501997e+01 1 1 0
4969 1 3.4804286300102452e+00 1.3639042014283180e+00 2.5662147770862390e+01 2 1 0
1344 1 3.3533985890875631e+00 1.0819700058055224e+00 2.8621534239244312e+01 0 -2 0
2446 1 8.5837522826317902e-01 2.0478055900772159e+00 2.9337040086839842e+01 -1 -2 -1
1315 1 8.2088547002686294e+00 1.8571410974630485e+00 2.5437183784683192e+01 -1 1 0
4784 1 5.6165407935768759e+00 2.7939310389862988e+00 2.9111324782262777e+01 -1 0 0
2364 1 7.7762530202755746e+00 1.6038569456531895e+00 2.8343725686103316e+01 -2 0 0
4660 1 4.6635949661634984e-01 5.0085644514265475e+00 2.5743281089993999e+01 0 -3 0
4989 1 2.7932645035268537e+00 6.3804854449633188e+00 2.8991839510162787e+01 2 0 0
945 1 6.1735273616247266e-01 4.6056402614669070e+00 2.8429949899129852e+01 1 2 -1
1012 1 5.2651746758424931e+00 5.4377180224566066e+00 2.8013626118373615e+01 1 1 -1
4729 1 7.4943534307482480e+00 6.8737703757388928e+00 2.9006271411543434e+01 -3 -1 0
956 1 2.2190044579324453e-01 1.0401952100078002e+01 2.1704328880171161e+01 1 1 0
2473 1 2.3777985426748978e+00 9.4210944451582055e+00 2.7921791101807667e+01 2 -1 1
3487 1 2.6438036156683857e+00 9.3583502357532709e+00 2.5311128878915689e+01 -2 1 0
3851 1 4.7112851639120699e+00 1.0969564915360879e+01 2.8724055167974619e+01 -2 0 0
2556 1 7.3090609408320732e+00 9.5842980497173276e+00 2.8143171374907649e+01 -1 -1 0
4790 1 8.3139499034894648e-02 1.0499526685501429e+01 2.8490126770191761e+01 -3 0 -1
2401 1 5.7376411500943920e+00 1.7662598677651795e-01 2.1276454361328682e+01 0 3 0
2559 1 3.6233962294758659e+00 1.2679812400675954e+00 3.2695811489732115e+01 0 1 0
2308 1 9.8571301874823170e-01 2.5619073653610394e+00 3.2577437834438584e+01 0 1 0
4758 1 5.7899102021091151e+00 2.8974291689754250e+00 3.1871115240497851e+01 0 -1 0
1026 1 8.2353346497318025e+00 1.6235326214957424e+00 3.2482975556415944e+01 2 2 0
3550 1 2.9661827565934691e+00 7.0685975949653779e+00 3.1721345409234804e+01 2 1 0
987 1 7.4109976956008250e-01 5.5163060244015361e+00 3.2923902372964257e+01 2 1 1
1139 1 5.2512644490605904e+00 5.5106500183989464e+00 3.2641473613697464e+01 -1 1 0
4803 1 7.6998976085137070e+00 7.0237123520674176e+00 3.1774819956548985e+01 1 1 -1
97 1 6.8864370027157493e+00 9.7009201051271869e+00 3.5136115229583254e+01 1 2 0
199 1 2.6440415858193518e+00 1.0104896088672104e+01 3.2277254843123508e+01 2 0 0
3450 1 5.1364674290998975e+00 1.1141745672388433e+01 3.1474336698596392e+01 -1 -1 0
4894 1 7.2309507832858380e+00 9.6782076073694228e+00 3.2445869143067121e+01 -1 0 -1
4864 1 9.3383561506233512e+00 1.1372731895622950e+01 3.1564622345894957e+01 2 1 0
1075 1 3.3395021305825834e+00 1.5295816803757967e+00 3.5355177917675618e+01 3 2 0
1039 1 3.2783371681051205e+00 1.1960896107171439e+00 3.8568540803108334e+01 2 1 -1
1368 1 9.5402307367866790e-01 2.6741866319892429e+00 3.8518709210346017e+01 1 0 0
4999 1 1.0089132436379373e+00 2.9602446380135667e+00 3.5664679692354703e+01 0 -1 0
1086 1 8.4619259774182076e+00 1.7155894989787712e+00 3.5228774193765879e+01 2 1 0
4791 1 5.5082922436942097e+00 2.6554899393744225e+00 3.8560525338121209e+01 1 0 0
69 1 5.8367853767336078e+00 2.6443177852285160e+00 3.6047928394972217e+01 -2 2 1
2408 1 8.1724009522376715e+00 1.4740614973583419e+00 3.8886757177728427e+01 -1 0 0
4628 1 5.0390388103865602e-01 5.3010233474905766e+00 3.8868101697179519e+01 1 2 1
3803 1 3.0155526377378905e+00 7.1159099615722763e+00 3.6138575484789207e+01 0 1 0
4634 1 2.5045993068901584e+00 6.9089020694398711e+00 3.9089940158249121e+01 2 -1 -1
958 1 6.1349185099122194e-01 5.6504903548944556e+00 3.5731682113461964e+01 0 0 1
1449 1 5.3712608279827894e+00 5.4088354401437577e+00 3.5231541145948299e+01 -1 2 1
1369 1 4.8037729147946342e+00 5.3661389096976615e+00 3.8628743334556823e+01 1 1 -1
60 1 7.5496550788408925e+00 6.9071029924088645e+00 3.5599637396644724e+01 1 1 0
3586 1 7.3088490759560489e+00 6.8873569867869184e+00 3.8346529875766514e+01 2 1 -1
1318 1 2.5931665985778265e+00 9.6492767829787347e+00 3.5095135062922786e+01 1 0 0
1482 1 4.5429389163369072e+00 1.1323790610001884e+01 3.5874385780658166e+01 1 3 -1
1487 1 4.6132060747261381e+00 1.1464820212610483e+01 3.8711797622733485e+01 -3 3 1
1478 1 2.3972303673345103e+00 9.9070621694429448e+00 3.9072209306146874e+01 1 -1 0
3698 1 6.6904094708372446e+00 9.5923141857981076e+00 3.8891465843947756e+01 2 -1 -1
2387 1 9.2378233352481409e+00 1.1171618640074767e+01 3.5965683422989073e+01 2 1 -1
3959 1 9.1155641995325425e+00 1.0983487930371329e+01 3.8930312977372097e+01 2 2 1
2690 1 9.5360677075537552e+00 5.9429695339840771e+00 3.9386099493889972e+01 1 1 -1
1406 1 1.6449378239617556e-02 1.0365878487151011e+01 3.1203818375477113e+01 2 -2 1
1080 1 9.4225902370891290e-02 1.0646836497918747e+01 3.5685424475882371e+01 -1 -2 -1
242 2 0.0000000000000000e+00 1.2787731112280996e+01 1.9745905015479173e+00 0 0 0
244 2 1.2305000000000001e+00 1.3498160618518829e+01 1.9745905015479173e+00 0 0 0
279 2 2.4610000000000003e+00 1.2787731112280996e+01 1.9745905015479173e+00 0 0 0
281 2 3.6915000000000004e+00 1.3498160618518829e+01 1.9745905015479173e+00 0 0 0
240 2 0.0000000000000000e+00 1.5629449137232333e+01 1.9745905015479173e+00 0 0 0
275 2 1.2305000000000001e+00 1.4919019630994494e+01 1.9745905015479173e+00 0 0 0
277 2 2.4610000000000003e+00 1.5629449137232328e+01 1.9745905015479173e+00 0 0 0
320 2 3.6915000000000004e+00 1.4919019630994494e+01 1.9745905015479173e+00 0 0 0
324 2 4.9220000000000006e+00 1.2787731112280996e+01 1.9745905015479173e+00 0 0 0
326 2 6.1524999999999990e+00 1.3498160618518829e+01 1.9745905015479173e+00 0 0 0
371 2 7.3829999999999991e+00 1.2787731112280996e+01 1.9745905015479173e+00 0 0 0
373 2 8.6135000000000002e+00 1.3498160618518835e+01 1.9745905015479173e+00 0 0 0
322 2 4.9220000000000006e+00 1.5629449137232333e+01 1.9745905015479173e+00 0 0 0
367 2 6.1524999999999990e+00 1.4919019630994494e+01 1.9745905015479173e+00 0 0 0
369 2 7.3829999999999991e+00 1.5629449137232333e+01 1.9745905015479173e+00 0 0 0
414 2 8.6135000000000002e+00 1.4919019630994494e+01 1.9745905015479173e+00 0 0 0
271 2 0.0000000000000000e+00 1.7050308149707998e+01 1.9745905015479173e+00 0 0 0
316 2 2.4610000000000003e+00 1.7050308149707998e+01 1.9745905015479173e+00 0 0 0
269 2 0.0000000000000000e+00 1.9892026174659328e+01 1.9745905015479173e+00 0 0 0
273 2 1.2305000000000001e+00 1.7760737655945832e+01 1.9745905015479173e+00 0 0 0
312 2 1.2305000000000001e+00 1.9181596668421495e+01 1.9745905015479173e+00 0 0 0
314 2 2.4610000000000003e+00 1.9892026174659328e+01 1.9745905015479173e+00 0 0 0
318 2 3.6914999999999996e+00 1.7760737655945832e+01 1.9745905015479173e+00 0 0 0
359 2 3.6914999999999996e+00 1.9181596668421495e+01 1.9745905015479173e+00 0 0 0
363 2 4.9220000000000006e+00 1.7050308149707998e+01 1.9745905015479173e+00 0 0 0
410 2 7.3830000000000009e+00 1.7050308149707998e+01 1.9745905015479173e+00 0 0 0
361 2 4.9220000000000006e+00 1.9892026174659328e+01 1.9745905015479173e+00 0 0 0
365 2 6.1524999999999999e+00 1.7760737655945832e+01 1.9745905015479173e+00 0 0 0
406 2 6.1524999999999999e+00 1.9181596668421495e+01 1.9745905015479173e+00 0 0 0
408 2 7.3829999999999991e+00 1.9892026174659328e+01 1.9745905015479173e+00 0 0 0
412 2 8.6134999999999984e+00 1.7760737655945832e+01 1.9745905015479173e+00 0 0 0
448 2 8.6135000000000002e+00 1.9181596668421495e+01 1.9745905015479173e+00 0 0 0
306 2 0.0000000000000000e+00 2.4154603212086325e+01 1.9745905015479173e+00 0 0 0
308 2 0.0000000000000000e+00 2.1312885187134999e+01 1.9745905015479173e+00 0 0 0
310 2 1.2304999999999993e+00 2.2023314693372832e+01 1.9745905015479173e+00 0 0 0
351 2 1.2304999999999993e+00 2.3444173705848499e+01 1.9745905015479173e+00 0 0 0
353 2 2.4610000000000003e+00 2.4154603212086325e+01 1.9745905015479173e+00 0 0 0
355 2 2.4610000000000003e+00 2.1312885187134995e+01 1.9745905015479173e+00 0 0 0
357 2 3.6914999999999996e+00 2.2023314693372832e+01 1.9745905015479173e+00 0 0 0
398 2 3.6915000000000004e+00 2.3444173705848499e+01 1.9745905015479173e+00 0 0 0
400 2 4.9220000000000006e+00 2.4154603212086325e+01 1.9745905015479173e+00 0 0 0
402 2 4.9220000000000006e+00 2.1312885187134995e+01 1.9745905015479173e+00 0 0 0
404 2 6.1524999999999990e+00 2.2023314693372832e+01 1.9745905015479173e+00 0 0 0
440 2 6.1524999999999999e+00 2.3444173705848499e+01 1.9745905015479173e+00 0 0 0
442 2 7.3830000000000009e+00 2.4154603212086336e+01 1.9745905015479173e+00 0 0 0
444 2 7.3829999999999991e+00 2.1312885187134999e+01 1.9745905015479173e+00 0 0 0
446 2 8.6135000000000002e+00 2.2023314693372832e+01 1.9745905015479173e+00 0 0 0
474 2 8.6134999999999984e+00 2.3444173705848499e+01 1.9745905015479173e+00 0 0 0
243 2 0.0000000000000000e+00 1.2787731112280996e+01 5.2741169687076992e+00 0 0 0
280 2 2.4610000000000003e+00 1.2787731112280996e+01 5.2741169687076992e+00 0 0 0
241 2 0.0000000000000000e+00 1.4208590124756663e+01 5.2741169687076992e+00 0 0 0
276 2 1.2305000000000001e+00 1.4919019630994494e+01 5.2741169687076992e+00 0 0 0
278 2 2.4610000000000003e+00 1.4208590124756663e+01 5.2741169687076992e+00 0 0 0
321 2 3.6915000000000004e+00 1.4919019630994494e+01 5.2741169687076992e+00 0 0 0
552 2 0.0000000000000000e+00 1.2787731112280996e+01 8.5736434358675897e+00 0 0 0
553 2 1.2305000000000001e+00 1.3498160618518829e+01 8.5736434358675897e+00 0 0 0
571 2 2.4610000000000003e+00 1.2787731112280996e+01 8.5736434358675897e+00 0 0 0
572 2 3.6915000000000004e+00 1.3498160618518829e+01 8.5736434358675897e+00 0 0 0
551 2 0.0000000000000000e+00 1.5629449137232333e+01 8.5736434358675897e+00 0 0 0
569 2 1.2305000000000001e+00 1.4919019630994494e+01 8.5736434358675897e+00 0 0 0
570 2 2.4610000000000003e+00 1.5629449137232328e+01 8.5736434358675897e+00 0 0 0
592 2 3.6915000000000004e+00 1.4919019630994494e+01 8.5736434358675897e+00 0 0 0
325 2 4.9220000000000006e+00 1.2787731112280996e+01 5.2741169687076992e+00 0 0 0
372 2 7.3829999999999991e+00 1.2787731112280996e+01 5.2741169687076992e+00 0 0 0
323 2 4.9220000000000006e+00 1.4208590124756663e+01 5.2741169687076992e+00 0 0 0
368 2 6.1524999999999990e+00 1.4919019630994494e+01 5.2741169687076992e+00 0 0 0
370 2 7.3830000000000009e+00 1.4208590124756663e+01 5.2741169687076992e+00 0 0 0
415 2 8.6135000000000002e+00 1.4919019630994494e+01 5.2741169687076992e+00 0 0 0
594 2 4.9220000000000006e+00 1.2787731112280996e+01 8.5736434358675897e+00 0 0 0
595 2 6.1524999999999990e+00 1.3498160618518829e+01 8.5736434358675897e+00 0 0 0
618 2 7.3829999999999991e+00 1.2787731112280996e+01 8.5736434358675897e+00 0 0 0
619 2 8.6135000000000002e+00 1.3498160618518835e+01 8.5736434358675897e+00 0 0 0
593 2 4.9220000000000006e+00 1.5629449137232333e+01 8.5736434358675897e+00 0 0 0
616 2 6.1524999999999990e+00 1.4919019630994494e+01 8.5736434358675897e+00 0 0 0
617 2 7.3829999999999991e+00 1.5629449137232333e+01 8.5736434358675897e+00 0 0 0
640 2 8.6135000000000002e+00 1.4919019630994494e+01 8.5736434358675897e+00 0 0 0
272 2 0.0000000000000000e+00 1.7050308149707998e+01 5.2741169687076992e+00 0 0 0
274 2 1.2305000000000001e+00 1.6339878643470165e+01 5.2741169687076992e+00 0 0 0
317 2 2.4610000000000003e+00 1.7050308149707998e+01 5.2741169687076992e+00 0 0 0
319 2 3.6915000000000004e+00 1.6339878643470165e+01 5.2741169687076992e+00 0 0 0
270 2 0.0000000000000000e+00 1.8471167162183658e+01 5.2741169687076992e+00 0 0 0
313 2 1.2305000000000001e+00 1.9181596668421495e+01 5.2741169687076992e+00 0 0 0
315 2 2.4610000000000003e+00 1.8471167162183658e+01 5.2741169687076992e+00 0 0 0
360 2 3.6914999999999996e+00 1.9181596668421495e+01 5.2741169687076992e+00 0 0 0
567 2 0.0000000000000000e+00 1.7050308149707998e+01 8.5736434358675897e+00 0 0 0
590 2 2.4610000000000003e+00 1.7050308149707998e+01 8.5736434358675897e+00 0 0 0
566 2 0.0000000000000000e+00 1.9892026174659328e+01 8.5736434358675897e+00 0 0 0
568 2 1.2305000000000001e+00 1.7760737655945832e+01 8.5736434358675897e+00 0 0 0
588 2 1.2305000000000001e+00 1.9181596668421495e+01 8.5736434358675897e+00 0 0 0
589 2 2.4610000000000003e+00 1.9892026174659328e+01 8.5736434358675897e+00 0 0 0
591 2 3.6914999999999996e+00 1.7760737655945832e+01 8.5736434358675897e+00 0 0 0
612 2 3.6914999999999996e+00 1.9181596668421495e+01 8.5736434358675897e+00 0 0 0
364 2 4.9220000000000006e+00 1.7050308149707998e+01 5.2741169687076992e+00 0 0 0
366 2 6.1524999999999999e+00 1.6339878643470165e+01 5.2741169687076992e+00 0 0 0
411 2 7.3830000000000009e+00 1.7050308149707998e+01 5.2741169687076992e+00 0 0 0
413 2 8.6134999999999984e+00 1.6339878643470165e+01 5.2741169687076992e+00 0 0 0
362 2 4.9220000000000006e+00 1.8471167162183658e+01 5.2741169687076992e+00 0 0 0
407 2 6.1524999999999999e+00 1.9181596668421495e+01 5.2741169687076992e+00 0 0 0
409 2 7.3829999999999991e+00 1.8471167162183658e+01 5.2741169687076992e+00 0 0 0
449 2 8.6135000000000002e+00 1.9181596668421495e+01 5.2741169687076992e+00 0 0 0
614 2 4.9220000000000006e+00 1.7050308149707998e+01 8.5736434358675897e+00 0 0 0
638 2 7.3830000000000009e+00 1.7050308149707998e+01 8.5736434358675897e+00 0 0 0
613 2 4.9220000000000006e+00 1.9892026174659328e+01 8.5736434358675897e+00 0 0 0
615 2 6.1524999999999999e+00 1.7760737655945832e+01 8.5736434358675897e+00 0 0 0
636 2 6.1524999999999999e+00 1.9181596668421495e+01 8.5736434358675897e+00 0 0 0
637 2 7.3829999999999991e+00 1.9892026174659328e+01 8.5736434358675897e+00 0 0 0
639 2 8.6134999999999984e+00 1.7760737655945832e+01 8.5736434358675897e+00 0 0 0