
# Create simulation box and atoms

read_data data.ML_graphite_m500atm_240K
  orthogonal box = (0 0 1.53529) to (49.22 49.0196 38.4647)
  5 by 4 by 4 MPI processor grid
  reading atoms ...
  5021 atoms
  reading velocities ...
  5021 velocities
group water type 1
2261 atoms in group water
group graphite type 2
2760 atoms in group graphite

# Define potential

pair_style sw
pair_coeff * * MLC_e.sw mW C


# Fix graphite atoms in place

fix 5 graphite setforce 0.0 0.0 0.0
velocity graphite set 0.0 0.0 0.0


# Equilibration of molecular water

# Add velocity/set timestep

velocity	    water create ${TEMP} ${SEED} rot yes dist gaussian
velocity	    water create 240 ${SEED} rot yes dist gaussian
velocity	    water create 240 15485 rot yes dist gaussian
timestep	    5.0

# Define output

compute			1 water msd
compute			3 water temp
thermo	    	50
thermo_style	custom step temp press vol etotal ke pe c_1[4] c_3

# Neighbor lists

neigh_modify    delay 0 every 1 check yes

# Set fixes

fix             1 water momentum 10 linear 1 1 1 rescale
fix             2 water nve
fix             3 water temp/csvr ${TEMP} ${TEMP} 500.0 ${SEED}
fix             3 water temp/csvr 240 ${TEMP} 500.0 ${SEED}
fix             3 water temp/csvr 240 240 500.0 ${SEED}
fix             3 water temp/csvr 240 240 500.0 15485
fix             4 water press/berendsen z ${PRES} ${PRES} 1000.0 modulus 20000
fix             4 water press/berendsen z -500 ${PRES} 1000.0 modulus 20000
fix             4 water press/berendsen z -500 -500 1000.0 modulus 20000

# Run 0.5 ns equilibration

dump		    1 all atom 2000 ${DIR}/eq.${NAME}-${TEMP}.dump
dump		    1 all atom 2000 run_8/eq.${NAME}-${TEMP}.dump
dump		    1 all atom 2000 run_8/eq.het_freeze_8-${TEMP}.dump
dump		    1 all atom 2000 run_8/eq.het_freeze_8-240.dump

reset_timestep  0

run	            100000
Neighbor list info ...
  update every 1 steps, delay 0 steps, check yes
  max neighbors/atom: 2000, page size: 100000
  master list distance cutoff = 6.67472
  ghost atom cutoff = 6.67472
  binsize = 3.33736, bins = 15 15 12
  1 neighbor lists, perpetual/occasional/extra = 1 0 0
  (1) pair sw, perpetual
      attributes: full, newton on
      pair build: full/bin/atomonly
      stencil: full/bin/3d
      bin: standard
Per MPI rank memory allocation (min/avg/max) = 4.069 | 4.188 | 4.476 Mbytes
Step Temp Press Volume TotEng KinEng PotEng c_1[4] c_3 
       0    108.04781   -816.58172    89101.337   -21796.007    1616.7914   -23412.799            0          240 
      50    106.65494   -906.75113    89101.193   -21808.203    1595.9489   -23404.152    0.4978795     236.9061 
     100    106.12296   -903.90854    88987.068   -21850.986    1587.9886   -23438.974   0.79896926    235.72446 
     150    106.79426   -471.90305    88981.123   -21862.685    1598.0337   -23460.718   0.99886423    237.21558 
     200    106.22329   -550.07444    88969.287   -21826.313    1589.4899   -23415.803    1.1997064    235.94732 
     250     105.8274   -578.59807    88958.805    -21796.19    1583.5659   -23379.756    1.3724914    235.06794 
     300    105.65376   -437.68114    88961.487    -21765.53    1580.9677   -23346.498     1.573717    234.68226 
     350     108.8271   -717.89322    88936.855   -21753.371    1628.4524   -23381.823    1.7532989    241.73099 
     400    107.34729    -533.4411    88899.682   -21787.665     1606.309   -23393.974    1.9762005    238.44397 
     450    103.95715   -788.47844    88901.888   -21816.477    1555.5801   -23372.057    2.2320476    230.91367 
     500    109.28128   -674.06429    88872.604   -21812.951    1635.2487   -23448.199    2.3934277    242.73984 
     550    107.72265   -428.10542    88914.435   -21806.343    1611.9258   -23418.268    2.5980604    239.27775 
     600    108.59746   -879.81572    88984.537   -21798.343    1625.0162   -23423.359    2.7701137    241.22091 
     650     107.6226    -615.8994    89041.356    -21803.42    1610.4287   -23413.849    2.9351567    239.05552 
     700    105.34163   -585.06866    89000.362   -21812.265    1576.2971   -23388.562     3.189612    233.98894 
     750    108.55514   -782.00018    88975.702   -21837.193    1624.3829   -23461.576    3.3645367     241.1269 
     800    106.54593   -597.78818    89003.208   -21855.635    1594.3178   -23449.953    3.5268916    236.66398 
     850    108.28914   -644.79936    88998.367   -21826.562    1620.4025   -23446.965     3.674152    240.53605 
     900    106.75896   -418.36133    89067.292   -21800.632    1597.5054   -23398.138    3.8094975    237.13715 
     950    108.10412   -883.38589    89133.862     -21764.3     1617.634   -23381.934    4.0285126    240.12508 
    1000    110.43557   -451.46367    89211.814   -21767.138    1652.5211   -23419.659    4.2605099    245.30379 
    1050    109.04927   -484.05517    89181.811   -21795.228    1631.7768   -23427.005    4.4228986    242.22448 
    1100     109.0802   -688.45621    89214.327   -21835.026    1632.2398   -23467.266    4.5624537    242.29319 
    1150    106.08792   -976.79844    89277.082   -21830.487    1587.4642   -23417.951    4.6799975    235.64661 
    1200    106.71241   -887.14312    89286.086   -21830.537    1596.8089   -23427.346    4.7993112    237.03375 
    1250    104.22644    -907.3759    89315.786   -21870.244    1559.6097   -23429.853    4.9673465    231.51183 
    1300    109.93064   -883.57816    89272.385   -21796.717    1644.9654   -23441.682    5.1329577    244.18221 
    1350     108.3343   -1209.8776    89266.781   -21810.757    1621.0784   -23431.836    5.2943404    240.63638 
    1400     110.2652   -643.06559    89300.291   -21803.641    1649.9717   -23453.613      5.49481    244.92535 
    1450    112.53062   -616.40466      89342.4   -21770.664    1683.8706   -23454.535    5.7049843    249.95739 
    1500    109.69348   -856.48174    89310.968   -21767.958    1641.4166   -23409.375    5.8285365    243.65542 
    1550    109.48486   -702.82885    89313.688   -21756.268    1638.2949   -23394.563    6.0521648    243.19203 
    1600    107.09422   -868.32596     89310.88   -21790.041    1602.5222   -23392.563    6.2079861    237.88186 
    1650    108.05047   -763.72852    89275.242   -21823.386    1616.8312   -23440.217    6.3090141     240.0059 
    1700    110.43266   -395.44993    89319.809   -21786.971    1652.4774   -23439.449    6.5137928    245.29732 
    1750    105.25157   -594.66635    89351.519   -21788.745    1574.9493   -23363.695    6.7096291    233.78888 
    1800    111.85197   -834.54747    89326.843   -21793.629    1673.7155   -23467.345    6.8297798    248.44994 
    1850    107.62548   -698.82374    89292.634   -21781.135    1610.4718   -23391.606    7.0724305     239.0619 
    1900    111.09886    -625.2389     89278.71   -21763.436    1662.4462   -23425.882    7.2227693     246.7771 
    1950    109.84861   -623.74081    89275.043   -21821.749    1643.7379   -23465.486     7.419429          244 
    2000    109.85193   -741.13553    89199.189   -21799.605    1643.7876   -23443.393    7.6020001    244.00738 
    2050    110.20687   -619.07245    89108.969   -21779.133    1649.0989   -23428.231    7.7511884     244.7958 
    2100    108.77056   -842.13733    89104.314    -21807.43    1627.6064   -23435.036    7.8315221     241.6054 
    2150    109.62535   -870.28441    89090.257   -21789.698    1640.3972   -23430.095    7.9101154     243.5041 
    2200    110.08193    -689.4851    89146.218   -21740.414    1647.2292   -23387.643    8.0532897    244.51826 
    2250    107.77218   -492.03332    89202.307   -21751.163     1612.667    -23363.83    8.2331966    239.38777 
    2300    111.17267   -632.48328    89227.364   -21714.955    1663.5507   -23378.506    8.3663186    246.94106 
    2350    109.45886   -698.37726    89186.206   -21753.057    1637.9058   -23390.963     8.620584    243.13428 
    2400    108.97829    -693.5257    89202.791   -21734.475    1630.7147   -23365.189     8.767208    242.06681 
    2450    114.05669    -706.5474    89233.907    -21730.41    1706.7062   -23437.117    8.9719641    253.34715 
    2500    108.82122   -1047.1089    89268.807   -21753.266    1628.3644    -23381.63    9.2449695    241.71793 
    2550    108.15524   -800.04119    89193.368   -21748.001    1618.3989     -23366.4    9.3640366    240.23862 
    2600     108.7015   -1048.1102    89145.294   -21747.038    1626.5729   -23373.611    9.4998393    241.45199 
    2650    106.55576   -1127.5451    89163.653    -21735.02    1594.4649   -23329.485    9.6816523    236.68581 
    2700    112.00797   -783.65939    89167.541   -21657.127      1676.05   -23333.177    9.8246681    248.79647 
    2750    108.11387   -412.86857    89217.497   -21687.005    1617.7799   -23304.784    9.9887186    240.14675 
    2800    109.93764    -787.6502    89162.076   -21707.494    1645.0701   -23352.565    10.147935    244.19776 
    2850    106.14613   -688.82202    89122.485   -21741.041    1588.3352   -23329.377     10.28735    235.77591 
    2900    110.34646   -725.38517    89114.206   -21732.565    1651.1876   -23383.752    10.367306    245.10584 
    2950    105.46297   -863.63982    89070.243   -21729.335    1578.1127   -23307.448    10.671498    234.25845 
    3000     110.0626   -815.47994    89050.056   -21747.777      1646.94   -23394.717    10.730622    244.47533 
    3050    108.06034   -812.56876    88983.197   -21726.908    1616.9789   -23343.887    10.856769    240.02784 
    3100    107.25122   -521.93706    88938.723   -21761.206    1604.8715   -23366.077    10.897448    238.23058 
    3150    108.37218   -554.76165    88911.342   -21753.482    1621.6452   -23375.127     11.00497    240.72051 
    3200    105.30354   -815.16087    88892.927   -21741.037    1575.7271   -23316.764    11.237009    233.90433 
    3250    109.67171   -697.48239    88894.895   -21732.306    1641.0908   -23373.397    11.441358    243.60706 
    3300    110.93248   -626.83384    88843.832   -21729.317    1659.9566   -23389.274    11.695179    246.40754 
    3350    108.61592   -626.57813    88851.052   -21724.095    1625.2924   -23349.387    11.909359    241.26192 
    3400    108.51162   -807.67162    88841.472   -21723.215    1623.7317   -23346.947     12.08604    241.03024 
    3450    110.48992   -487.38093    88867.729   -21710.108    1653.3343   -23363.442    12.310821    245.42451 
    3500    108.80689   -825.37468    88779.202   -21733.314    1628.1501   -23361.464    12.519083    241.68611 
    3550    111.13432   -628.72716    88798.564   -21717.614    1662.9769   -23380.591     12.76661    246.85588 
    3600     108.2961   -658.84126    88773.654   -21756.895    1620.5067   -23377.402    12.800024     240.5515 
    3650    106.83626   -1058.3461    88760.806    -21794.34    1598.6622   -23393.002    13.164974    237.30886 
    3700    108.94876   -692.39377    88781.968   -21795.804     1630.273   -23426.077     13.35824    242.00123 
    3750    105.40607   -687.79394    88822.545   -21827.477    1577.2612   -23404.738    13.389178    234.13206 
    3800    103.70525   -638.00182     88798.65   -21781.978    1551.8108   -23333.788    13.612621    230.35414 
    3850    107.75423   -511.92746    88870.516   -21754.663    1612.3984   -23367.061    13.767261     239.3479 
    3900    107.75725   -708.77381    88904.373   -21730.343    1612.4436   -23342.787    13.814698     239.3546 
    3950     108.1805   -951.47309    88995.097   -21768.508     1618.777   -23387.285    13.909486    240.29475 
    4000    107.46753   -760.99871    89030.577   -21774.329    1608.1083   -23382.437    14.051572    238.71107 
    4050    107.99552   -486.04433    89051.367   -21768.693     1616.009   -23384.702    14.296997    239.88386 
    4100    112.59252    -853.9613    89072.779   -21736.913    1684.7969    -23421.71    14.541971    250.09489 
    4150    108.31025   -924.95561    89025.002    -21728.67    1620.7185   -23349.388    14.744491    240.58296 
    4200    108.82185   -662.56583    89025.696   -21722.188    1628.3739   -23350.562    14.968574    241.71933 
    4250    109.01527   -760.48353     89001.84   -21745.377    1631.2681   -23376.646    15.148352    242.14895 
    4300     107.2792   -729.08079    89065.671   -21756.947    1605.2901   -23362.237     15.37246    238.29273 
    4350    108.46351     -738.715    89071.992   -21740.928    1623.0118   -23363.939    15.330059    240.92337 
    4400      107.484   -892.11725    89018.099   -21764.539    1608.3547   -23372.893    15.450916    238.74764 
    4450    104.97349   -792.09262    89004.715    -21796.91    1570.7882   -23367.698    15.736922    233.17119 
    4500    105.48749   -519.16752    88951.656   -21807.852    1578.4796   -23386.332    15.748896    234.31292 
    4550     108.3676   -634.11248    88968.055   -21802.055    1621.5766   -23423.631    15.632455    240.71033 
    4600    109.46696   -746.91288    88984.091   -21769.802    1638.0271   -23407.829    15.818171    243.15227 
    4650    107.44637   -593.32055    89045.994   -21790.062    1607.7917   -23397.853     15.91237    238.66406 
    4700    106.18463   -789.75081    89103.248   -21836.438    1588.9114   -23425.349     16.02246    235.86144 
    4750    104.63408   -763.65062    89116.413   -21834.268    1565.7095   -23399.977    16.262154    232.41729 
    4800    103.93992   -733.94239    89134.321   -21864.645    1555.3223   -23419.967    16.367857     230.8754 
    4850    109.03768   -879.52067    89100.311   -21825.929    1631.6034   -23457.532    16.570048    242.19873 
    4900    106.86995   -821.37375    89117.912   -21840.303    1599.1663    -23439.47    16.711548     237.3837 
    4950    107.49049   -516.46927    89159.934   -21814.466    1608.4518   -23422.918    16.861855    238.76206 
    5000    105.89025   -706.84102    89217.057   -21776.681    1584.5064   -23361.187    17.187077    235.20756 
    5050    107.27152   -580.37177    89219.001   -21774.375    1605.1752    -23379.55    17.275351    238.27567 
    5100    105.04351   -961.01033     89153.92   -21827.066    1571.8361   -23398.903    17.473897    233.32675 
    5150    110.18019   -753.74032    89099.675   -21828.427    1648.6997   -23477.127    17.748358    244.73654 
    5200    108.53161   -430.88926     89163.99   -21795.625    1624.0307   -23419.656    17.744802    241.07463 
    5250    109.34591   -862.50159    89160.039   -21784.801    1636.2157   -23421.017    17.835663     242.8834 
    5300    108.82992   -695.38116    89076.332   -21792.769    1628.4947   -23421.264    17.921854    241.73726 
    5350    107.02836   -774.81649    89033.325   -21792.157    1601.5367   -23393.694    18.154252    237.73556 
    5400    109.96876   -394.88828    89025.164   -21754.306    1645.5358   -23399.842    18.424353    244.26688 
    5450    109.27807   -1089.3924    89068.174   -21738.562    1635.2006   -23373.763    18.728825     242.7327 
    5500    112.36016   -896.94874     89030.76    -21736.96    1681.3199   -23418.279    19.023557    249.57876 
    5550    110.03541   -822.27294    88992.518   -21760.806    1646.5331   -23407.339    19.324038    244.41493 
    5600    109.89233   -836.68603    88982.407   -21765.829    1644.3922   -23410.222    19.464572    244.09712 
    5650    112.67392    -585.7505    89009.098   -21730.702     1686.015   -23416.717    19.683886    250.27571 
    5700    108.51186   -414.23786    89120.456   -21732.351    1623.7353   -23356.087    19.782291    241.03078 
    5750    109.65048   -489.33152    89210.629   -21731.525    1640.7732   -23372.298    20.005434    243.55991 
    5800    108.67385   -773.92614    89192.965   -21749.837    1626.1593   -23375.996    20.174213    241.39059 
    5850    107.97391   -626.13071    89225.517   -21715.269    1615.6856   -23330.955    20.276286    239.83586 
    5900    108.95625    -825.1831    89208.475   -21740.784     1630.385   -23371.169    20.280144    242.01786 
    5950    109.09141   -1024.2964    89165.466   -21706.122    1632.4075   -23338.529    20.356815    242.31809 
    6000     114.4914   -831.00649    89148.838   -21705.619    1713.2111    -23418.83    20.362617    254.31275 
    6050    110.36201   -488.53665    89169.743   -21719.876    1651.4204   -23371.296    20.478455     245.1404 
    6100    108.77245   -1000.8473    89148.165   -21766.067    1627.6346   -23393.702    20.641608     241.6096 
    6150    109.51258   -624.24123    89105.534   -21794.399    1638.7098   -23433.109    20.728692    243.25362 
    6200    105.29741   -761.45438    89129.285   -21840.263    1575.6353   -23415.898    20.595206    233.89071 
    6250     104.4151   -759.15438      89242.1   -21819.964    1562.4328   -23382.397    20.842765    231.93089 
    6300     107.2926   -642.08832    89307.994   -21831.481    1605.4907   -23436.971    21.061963     238.3225 
    6350     105.5866   -893.05368    89345.737   -21857.023    1579.9626   -23436.986    21.237126    234.53306 
    6400    105.41315   -736.58603    89358.422   -21855.664    1577.3672   -23433.031    21.209198    234.14779 
    6450    108.32294   -852.07573    89311.066   -21813.053    1620.9083   -23433.961    21.267003    240.61113 
    6500    109.82165   -810.29656    89223.415   -21810.635    1643.3346    -23453.97    21.452392    243.94013 
    6550    106.59604    -665.3697    89229.255   -21815.449    1595.0676   -23410.516    21.549629    236.77527 
    6600    109.25412   -822.12601    89267.032   -21830.229    1634.8421   -23465.071    21.658106    242.67949 
    6650    106.62327   -1197.4891    89153.835   -21813.056     1595.475   -23408.531    21.921357    236.83575 
    6700    108.76871   -1205.6435    88987.294   -21824.078    1627.5787   -23451.657    22.245046    241.60129 
    6750    105.78046   -836.07492     88898.59   -21831.631    1582.8635   -23414.494    22.562306    234.96368 
    6800    105.98721   -693.14756    88932.292   -21815.691    1585.9572   -23401.648    22.610039    235.42292 
    6850     108.6977   -620.41907     88973.34    -21744.75    1626.5161   -23371.266    22.760364    241.44355 
    6900     108.3554   -494.66473    88999.079   -21729.441     1621.394   -23350.835    22.839347    240.68323 
    6950    110.23651   -734.71151    89061.473   -21737.834    1649.5424   -23387.376    22.948939    244.86164 
    7000    108.31566   -1061.8346    89105.594   -21777.502    1620.7995   -23398.301    23.047775    240.59497 
    7050    108.18771   -989.38103    89044.508   -21800.016    1618.8849   -23418.901    23.198944    240.31076 
    7100    106.78285   -637.23778    89016.079   -21822.362    1597.8629   -23420.225    23.356465    237.19022 
    7150    104.79808   -902.69022    89064.379   -21804.708    1568.1635   -23372.872    23.466654    232.78157 
    7200    107.65163   -728.05932    89009.752   -21781.642    1610.8632   -23392.505    23.571745       239.12 
    7250    110.18171   -734.46497     89062.93   -21767.687    1648.7223    -23416.41    23.567363     244.7399 
    7300    111.37048   -832.36896    89113.898   -21744.885    1666.5107   -23411.396    23.760021    247.38044 
    7350    108.67218   -985.90144    89048.248   -21811.373    1626.1343   -23437.508    23.940877    241.38688 
    7400     106.6891   -692.35874    89030.489    -21800.12    1596.4601    -23396.58    23.976309    236.98199 
    7450    107.03657   -843.19464    89057.276   -21829.945    1601.6595   -23431.605    24.136391     237.7538 
    7500    108.57585   -917.33946    89097.471   -21818.778    1624.6928   -23443.471    24.340048    241.17291 
    7550    107.23716   -584.35228     89066.66   -21825.305     1604.661   -23429.966    24.585106    238.19935 
    7600     110.0313   -547.37405    89110.587   -21799.195    1646.4717   -23445.667    25.038028    244.40582 
    7650    105.52244   -976.36559    89170.502   -21814.813    1579.0026   -23393.816     25.19768    234.39055 
    7700    107.88858   -703.26801    89205.093    -21800.53    1614.4088   -23414.939    25.268588    239.64632 
    7750    107.82281   -809.13057     89232.04   -21806.857    1613.4245   -23420.282     25.29394    239.50022 
    7800      108.535   -798.30419    89196.753    -21807.89    1624.0816   -23431.972    25.456602    241.08218 
    7850    109.13041   -864.37293    89243.656   -21806.251     1632.991   -23439.242    25.551744    242.40471 
    7900    108.27874   -713.37247    89302.917   -21837.682    1620.2469   -23457.929    25.725702    240.51295 
    7950    109.35749   -782.33685    89339.025    -21822.39     1636.389   -23458.779    25.716868    242.90912 
    8000    107.78822   -690.94997    89369.325   -21842.758     1612.907   -23455.665    25.758968     239.4234 
    8050    111.97466   -907.01631    89440.251   -21798.461    1675.5514   -23474.013    25.962021    248.72247 
    8100    105.21002   -863.76248    89451.258   -21809.364    1574.3277   -23383.692    26.252228     233.6966 
    8150    109.02747   -930.51726    89436.781   -21771.155    1631.4506   -23402.605    26.366121    242.17605 
    8200    110.16573   -798.77805    89390.639   -21797.989    1648.4832   -23446.472    26.589608    244.70441 
    8250    110.73508   -954.56898    89379.203   -21776.004    1657.0028   -23433.007    26.821766    245.96907 
    8300    109.74959   -851.96634    89368.937   -21813.848    1642.2562   -23456.104    26.898205    243.78006 
    8350    107.21766   -542.07835    89384.834   -21818.797    1604.3693   -23423.167    27.064134    238.15604 
    8400    107.90256   -939.68925    89402.304   -21801.283    1614.6179   -23415.901    27.114822    239.67736 
    8450    109.59822   -1199.3834    89391.383   -21804.462    1639.9912   -23444.453    27.318523    243.44383 
    8500    110.77077   -903.32504    89361.408   -21774.256    1657.5369   -23431.793    27.312034    246.04835 
    8550    110.21317   -957.62359     89339.27   -21767.808    1649.1931   -23417.001     27.67794    244.80978 
    8600     109.1319   -914.67651    89363.265   -21796.716    1633.0134    -23429.73    27.740567    242.40803 
    8650    106.84069   -993.62991    89316.212   -21798.083    1598.7285   -23396.811    27.878327     237.3187 
    8700    111.10139   -976.71404     89256.95   -21775.618    1662.4841   -23438.102    28.312617    246.78273 
    8750    108.41259   -956.95542    89312.851   -21779.745    1622.2498   -23401.995    28.577518    240.81026 
    8800    106.85284   -754.18656    89325.481   -21777.383    1598.9103   -23376.293    28.646018     237.3457 
    8850    108.05852   -777.21689    89374.007   -21797.569    1616.9517   -23414.521    28.794446     240.0238 
    8900    108.07642   -789.62494    89460.778   -21807.747    1617.2195   -23424.967    28.974672    240.06355 
    8950    107.25951   -819.62553    89541.995   -21777.217    1604.9955   -23382.213    29.196497    238.24899 
    9000    113.51034   -1025.1164     89538.67   -21725.587    1698.5309   -23424.118    29.118613    252.13359 
    9050    109.06671    -955.1774     89457.59   -21752.041    1632.0379   -23384.078    29.253805    242.26322 
    9100    108.68316   -1048.2821    89484.377   -21816.675    1626.2986   -23442.974    29.356732    241.41127 
    9150    105.30737   -875.77419    89429.887   -21822.885    1575.7844   -23398.669    29.496063    233.91284 
    9200    106.81769   -528.51946    89442.555   -21813.283    1598.3843   -23411.667    29.862767    237.26762 
    9250    104.00287   -976.73176    89417.535   -21852.146    1556.2643    -23408.41    29.936644    231.01523 
    9300    105.54685   -520.58257    89410.403   -21853.622    1579.3678   -23432.989    30.086589    234.44477 
    9350    108.63051   -522.02949     89455.54   -21865.292    1625.5107   -23490.802    30.107227    241.29431 
    9400    104.62558   -754.31955    89454.654   -21893.757    1565.5823    -23459.34    30.224053    232.39842 
    9450    105.56323   -701.56545    89433.965   -21905.804     1579.613   -23485.417    30.267444    234.48117 
    9500     107.7112   -953.21438    89417.697    -21896.44    1611.7544   -23508.194    30.338008    239.25231 
    9550    106.57499   -890.63377     89397.03     -21852.5    1594.7526   -23447.253    30.455532    236.72852 
    9600    108.46282   -589.25528    89418.776   -21868.657    1623.0014   -23491.659    30.471435    240.92183 
    9650    106.76606   -646.54301    89522.895    -21885.44    1597.6117   -23483.052      30.5138    237.15293 
    9700    107.27822   -549.93649     89503.21   -21822.972    1605.2755   -23428.248    30.666279    238.29056 
    9750    110.95753   -961.65178    89602.278   -21772.423    1660.3315   -23432.754    30.787284    246.46319 
    9800    107.96119   -708.02311    89569.523   -21790.963    1615.4953   -23406.458    30.976425    239.80761 
    9850    106.34335   -687.45227    89584.114   -21786.118    1591.2864   -23377.405    31.248844    236.21399 
    9900     107.2528   -783.53844    89669.802   -21797.839    1604.8951   -23402.734    31.414961    238.23409 
    9950    105.77549   -554.01892    89790.589    -21819.48    1582.7892   -23402.269    31.599735    234.95264 
   10000    110.25651   -824.33611    89779.948   -21800.699    1649.8417    -23450.54    31.886223    244.90606 
   10050    105.03473   -813.48866    89723.034   -21827.345    1571.7046   -23399.049    32.165805    233.30723 
   10100    107.06022   -947.15969     89726.46   -21831.429    1602.0135   -23433.443     32.50088    237.80634 
   10150    107.83478   -964.92338    89638.269   -21827.846    1613.6037   -23441.449    32.860683    239.52682 
   10200    107.91531   -803.95438    89639.082   -21804.232    1614.8087    -23419.04    33.285125    239.70569 
   10250    107.04928    -1004.792    89704.739   -21789.314    1601.8497   -23391.163    33.881225    237.78202 
   10300    108.09132   -1004.3998    89719.877   -21774.956    1617.4425   -23392.399    34.130559    240.09666 
   10350    108.27933   -1286.7921    89665.019   -21778.947    1620.2558   -23399.203    34.223319    240.51426 
   10400    106.32336   -991.79558    89578.352   -21766.281    1590.9874   -23357.268    34.569545     236.1696 
   10450    107.28577   -897.23371    89472.733   -21755.405    1605.3884   -23360.793    34.759322    238.30732 
   10500    108.19631   -760.23664    89508.608   -21758.555    1619.0136   -23377.568    34.963617    240.32987 
   10550    109.04825   -779.53539    89483.904   -21786.039    1631.7616   -23417.801    35.210607    242.22221 
   10600    108.36344   -541.47308    89468.886   -21738.815    1621.5143   -23360.329    35.612839    240.70109 
   10650    105.82832   -739.42754    89446.327   -21746.711    1583.5796    -23330.29    35.862257    235.06998 
   10700    108.25808    -570.0729    89450.076    -21716.73    1619.9378   -23336.668    36.085459    240.46706 
   10750    111.34754    -847.5598    89524.293   -21674.708    1666.1675   -23340.875     36.37938     247.3295 
   10800    112.48742   -1032.7189    89495.773   -21650.267    1683.2243   -23333.492    36.586463    249.86144 
   10850    111.50561   -913.30119    89488.556   -21682.731    1668.5327   -23351.263    36.576813     247.6806 
   10900    111.24559   -956.90437    89459.907   -21708.117    1664.6419   -23372.759    36.875088    247.10303 
   10950    110.76377   -1053.6784    89507.361   -21735.058    1657.4322   -23392.491    37.167934    246.03281 
   11000    108.91686    -746.1082    89551.677   -21753.773    1629.7956   -23383.568     37.23575    241.93038 
   11050    110.15713    -910.6165     89542.87   -21736.288    1648.3545   -23384.642    37.454232     244.6853 
   11100    106.14412   -1283.7299    89541.654   -21749.075    1588.3052    -23337.38    37.632446    235.77144 
   11150    106.94182   -752.85162    89626.393    -21779.93    1600.2418   -23380.172    37.643702    237.54334 
   11200    108.63139   -700.86332    89648.418   -21788.206    1625.5239    -23413.73    37.742933    241.29628 
   11250      110.264   -813.00247    89711.621   -21754.399    1649.9537   -23404.353    37.768016    244.92268 
   11300    110.12508   -837.90339    89854.874   -21726.288     1647.875   -23374.163     37.87576    244.61412 
   11350    108.60108   -1232.7042    89754.561   -21794.935    1625.0703   -23420.006    38.041458    241.22895 
   11400    110.35693   -1280.6485    89710.424   -21737.953    1651.3443   -23389.298     38.05473    245.12911 
   11450    108.23416   -811.62303    89657.019   -21813.498    1619.5798   -23433.077    38.038614    240.41392 
   11500    108.40313   -994.72342    89626.826     -21861.6    1622.1082   -23483.708    38.279219    240.78924 
   11550    105.63836   -1046.8004    89571.962   -21856.521    1580.7371   -23437.259    38.354943    234.64803 
   11600     106.7986   -1377.7427    89462.779   -21838.159    1598.0986   -23436.257    38.319198    237.22521 
   11650    106.94694    -729.2755    89379.321   -21849.316    1600.3184   -23449.634    38.317846    237.55472 
   11700    107.40647    -859.5585    89388.407   -21905.469    1607.1946   -23512.663     38.57152    238.57544 
   11750    105.83317   -658.73795    89402.387   -21841.024    1583.6522   -23424.676    38.826529    235.08075 
   11800    107.38703   -746.00522    89525.898   -21841.791    1606.9036   -23448.695    38.932658    238.53225 
   11850    107.03149   -1036.8247    89519.332   -21848.771    1601.5835   -23450.354    39.264045     237.7425 
   11900    106.70091   -769.15174    89489.528   -21835.143    1596.6368    -23431.78    39.462175    237.00822 
   11950    106.88367   -632.47247    89525.407   -21827.582    1599.3715   -23426.953     39.77083    237.41416 
   12000    106.13064   -1071.4299    89494.022   -21880.766    1588.1036   -23468.869    40.142381    235.74152 
   12050    107.51694   -899.92687     89501.84   -21877.171    1608.8476   -23486.018    40.144956    238.82081 
   12100    106.00687   -713.96959    89498.909   -21830.086    1586.2514   -23416.337    40.170348    235.46659 
   12150    104.39009   -733.13944    89547.885   -21857.643    1562.0584   -23419.701    40.350103    231.87532 
   12200    107.23351   -671.88722    89522.105   -21848.713    1604.6065    -23453.32     40.64614    238.19125 
   12250    108.02873   -851.78677    89552.228   -21878.043    1616.5058   -23494.549     40.63503    239.95761 
   12300    105.68831   -992.92349    89488.196   -21874.255    1581.4847    -23455.74    40.567739      234.759 
   12350    107.12484   -670.16922     89485.31   -21853.013    1602.9803   -23455.993      40.4816    237.94986 
   12400    108.12091   -1036.7339    89457.107   -21806.656    1617.8853   -23424.541     40.51805    240.16238 
   12450    107.90189   -1179.1156    89391.226   -21874.431     1614.608   -23489.039    40.778756    239.67589 
   12500    109.68741   -811.89815    89398.608   -21879.786    1641.3258   -23521.112    40.783133    243.64194 
   12550    109.42422   -775.27011    89417.482   -21869.158    1637.3875   -23506.546    41.070815    243.05734 
   12600    106.93374   -843.78661    89441.384   -21853.207    1600.1208   -23453.327    41.208084    237.52538 
   12650    107.71211   -844.21502    89536.857   -21814.748     1611.768   -23426.516    41.286083    239.25433 
   12700    106.20848   -1246.2103    89505.415   -21838.594    1589.2683   -23427.863    41.418869    235.91441 
   12750    105.13912   -854.79288    89376.469   -21844.974    1573.2668   -23418.241    41.620926    233.53911 
   12800    106.36221   -807.17559     89354.03   -21839.687    1591.5687   -23431.256    41.899641    236.25589 
   12850     105.0532   -805.34617     89318.18   -21848.526    1571.9811   -23420.507    42.228011    233.34826 
   12900    109.35896   -842.67593    89340.021   -21854.978    1636.4111   -23491.389    42.441808    242.91239 
   12950    108.73567   -926.74644     89333.67   -21841.997    1627.0843   -23469.081    42.595645    241.52791 
   13000    104.60341   -1206.4122    89320.753   -21839.823    1565.2505   -23405.074    42.695482    232.34917 
   13050     105.7304   -852.24679    89296.426   -21858.299    1582.1145   -23440.413    42.726977    234.85248 
   13100    106.49329    -974.1088    89314.583   -21859.137    1593.5301   -23452.667    43.013187    236.54704 
   13150    105.65444   -767.78778    89288.685   -21828.416    1580.9778   -23409.394    43.158526    234.68376 
   13200    107.23479   -849.73137    89306.324   -21797.653    1604.6257   -23402.279    43.320777     238.1941 
   13250    107.98092    -979.0543    89302.416   -21777.482    1615.7904   -23393.272    43.441058    239.85142 
   13300    109.12967   -1016.2242    89322.968     -21780.7      1632.98    -23413.68     43.46451    242.40308 
   13350    105.39728   -1142.4457     89259.09   -21793.508    1577.1297   -23370.637    43.296007    234.11254 
   13400    105.82765   -1065.4725    89194.188   -21818.631    1583.5697   -23402.201    43.574431    235.06851 
   13450    107.07322   -1000.8695    89170.419   -21821.819     1602.208   -23424.027    43.634971    237.83522 
   13500    107.77091   -1137.2361    89092.441   -21770.631    1612.6479   -23383.279    43.936017    239.38493 
   13550    109.84077   -1115.6515    88980.231   -21786.499    1643.6207    -23430.12    44.017151     243.9826 
   13600    108.80364   -1149.5116    88945.105    -21781.62    1628.1013   -23409.722    44.199748    241.67888 
   13650    108.93694   -763.71437    88940.623   -21798.607    1630.0961   -23428.703    44.535809    241.97498 
   13700    109.69135   -948.52172    88981.396   -21746.943    1641.3848   -23388.328    44.850219    243.65071 
   13750    110.88529   -724.77458    88996.766   -21723.156    1659.2506   -23382.406    44.851363    246.30273 
   13800    108.89944   -824.08441    89035.616   -21745.377    1629.5349   -23374.912    44.964317    241.89167 
   13850    107.51059    -781.5478    89053.136    -21764.24    1608.7526   -23372.992    45.071277    238.80671 
   13900    110.17099   -1151.5788    89014.095   -21766.129    1648.5619   -23414.691    45.394375    244.71609 
   13950    105.66616   -787.51133    88942.102   -21815.986    1581.1532   -23397.139    45.611761    234.70979 
   14000    110.30754   -572.20417    89021.858   -21842.309    1650.6053   -23492.915    45.605999    245.01941 
   14050    105.07473   -810.98053    89041.583   -21885.258    1572.3032   -23457.561    45.630024    233.39608 
   14100    104.94842   -677.33605    89028.545   -21913.863    1570.4132   -23484.276    45.874413    233.11552 
   14150    105.53961   -649.79025    89080.011   -21916.459    1579.2596   -23495.719    46.038116     234.4287 
   14200     106.1132    -681.2721    89144.606   -21936.584    1587.8426   -23524.427    46.309107    235.70278 
   14250    105.55753   -769.81997    89181.496   -21928.752    1579.5276    -23508.28    46.351855    234.46849 
   14300    106.00655   -773.79379    89101.277   -21890.136    1586.2467   -23476.383    46.323049    235.46588 
   14350    105.24809   -878.28403    89139.674   -21897.827    1574.8974   -23472.724    46.279415    233.78116 
   14400    108.19258   -722.85005     89156.54   -21901.461    1618.9577   -23520.419    46.326942    240.32157 
   14450    106.25871   -886.40625    89115.846   -21915.689    1590.0199   -23505.709    46.344611    236.02598 
   14500    106.41066   -1005.9306    89113.475   -21919.624    1592.2937   -23511.918    46.253711    236.36351 
   14550    106.76127   -642.11857    89113.257   -21884.206      1597.54   -23481.746    46.392466    237.14229 
   14600    107.43487   -785.75365    89101.905   -21863.385    1607.6195   -23471.005    46.578137    238.63851 
   14650    106.66514   -810.99894    89159.202   -21884.063    1596.1016   -23480.164    46.796201    236.92877 
   14700    105.44777    -965.8077     89235.55   -21842.735    1577.8852    -23420.62    47.003538    234.22468 
   14750    105.91954   -1076.3894    89186.318    -21857.77    1584.9447   -23442.715    47.106793    235.27261 
   14800    105.90568   -1009.2836    89095.191   -21903.569    1584.7372   -23488.306     47.15891    235.24181 
   14850    105.89213   -627.01636    89132.827   -21897.024    1584.5346   -23481.558    47.445048    235.21173 
   14900    105.46487   -947.55309    89198.257   -21863.123    1578.1411   -23441.264    47.635208    234.26267 
   14950    109.59924   -837.23385    89160.947   -21823.649    1640.0065   -23463.656    47.443665     243.4461 
   15000    108.43514   -865.37105    89208.793   -21812.319    1622.5873   -23434.906    47.475936    240.86036 
   15050    111.69177   -846.31794    89245.677   -21770.858    1671.3183   -23442.176    47.599347     248.0941 
   15100    109.21786   -755.77892     89279.43   -21746.229    1634.2996   -23380.529    47.529628    242.59897 
   15150    107.84384    -892.6777    89370.994   -21752.807    1613.7392   -23366.546    47.713274    239.54693 
   15200    107.85361   -963.04118    89427.185   -21792.581    1613.8855   -23406.466    47.822519    239.56865 
   15250    108.42591   -1080.3217    89404.591    -21815.49    1622.4492   -23437.939    48.102814    240.83985 
   15300    107.74624    -1003.786    89352.858   -21792.113    1612.2788   -23404.392    48.283346    239.33015 
   15350     107.7006   -684.15087     89380.33   -21789.828    1611.5958   -23401.424    48.594013    239.22876 
   15400    105.55651   -856.30785    89360.734   -21808.766    1579.5123   -23388.278    48.848021    234.46622 
   15450    109.11129   -561.74776    89352.094   -21722.225     1632.705    -23354.93    49.124756    242.36225 
   15500    108.27293   -888.60832    89393.007   -21727.586      1620.16   -23347.746    49.365899    240.50004 
   15550    110.62523   -879.88926      89435.2   -21709.814    1655.3591   -23365.173    49.607459    245.72507 
   15600    111.31713   -1292.4053    89360.222   -21729.374    1665.7124   -23395.086    49.797282    247.26194 
   15650    108.79656   -1027.9875    89246.871   -21746.667    1627.9954   -23374.662    49.874348    241.66315 
   15700    109.68156    -1121.896    89173.294     -21739.5    1641.2383   -23380.738    50.098021    243.62896 
   15750    110.28217    -1093.686    89064.478   -21733.868    1650.2256   -23384.093    50.306768    244.96305 
   15800    108.42346   -941.34364    89035.537   -21760.595    1622.4125   -23383.007    50.568689    240.83441 
   15850    108.02898     -883.977     89034.74   -21807.061    1616.5096    -23423.57     50.66437    239.95817 
   15900    105.98459   -713.31388    89007.037   -21777.464    1585.9181   -23363.382    50.836455     235.4171 
   15950    109.05102   -778.64119    89013.455   -21783.509    1631.8031   -23415.312    51.159158    242.22838 
   16000    107.81343   -899.16661    89023.112   -21799.218    1613.2842   -23412.502    51.221403    239.47939 
   16050    109.13603   -790.19572    89054.386   -21804.903    1633.0751   -23437.979     51.39429    242.41719 
   16100    105.89246   -896.53244     89100.76   -21836.196    1584.5394   -23420.736    51.441431    235.21245 
   16150    104.81153   -817.92001    89148.362   -21844.174    1568.3648   -23412.539    51.634872    232.81146 
   16200    104.53978   -1180.6286    89069.423   -21813.839    1564.2983   -23378.137    51.894486    232.20782 
   16250    107.69411   -796.80761    89039.662   -21819.467    1611.4987   -23430.966    52.024651    239.21434 
   16300    108.62443   -556.72443    89054.128   -21806.526    1625.4197   -23431.946    52.105203     241.2808 
   16350    106.59392    -838.4287    89145.991   -21781.109    1595.0358   -23376.145    52.604956    236.77056 
   16400    108.92667     -730.098    89148.287    -21783.49    1629.9423   -23413.432    52.827586    241.95215 
   16450     109.7793   -627.67129    89202.209   -21773.678    1642.7008   -23416.379    53.044646    243.84606 
   16500    107.96978   -618.18537    89240.232   -21796.825    1615.6238   -23412.449    53.000999    239.82669 
   16550    109.08049   -920.81462    89238.133   -21778.416     1632.244    -23410.66    53.088001    242.29382 
   16600    107.47734   -1057.1476    89213.604   -21790.193     1608.255   -23398.448    53.213868    238.73285 
   16650    107.69317   -564.76502    89181.318   -21773.373    1611.4847   -23384.858    53.295316    239.21227 
   16700    105.59211   -1020.1163    89166.531   -21806.467    1580.0451   -23386.512    53.362231    234.54531 
   16750     111.0164   -1049.7474     89138.98   -21784.227    1661.2123    -23445.44    53.647229    246.59394 
   16800     111.0352   -729.80382    89146.544   -21766.156    1661.4937    -23427.65    53.871691    246.63571 
   16850    108.37567   -1081.5514    89145.478   -21794.914    1621.6973   -23416.611    54.110057    240.72825 
   16900    106.25007    -802.9162    89100.454   -21790.451    1589.8907   -23380.342    54.199775     236.0068 
   16950    110.84561   -1088.2008     89097.93   -21768.662    1658.6567   -23427.318    54.173932    246.21458 
   17000    108.68568   -798.69962    89084.031   -21733.005    1626.3362   -23359.342    54.109726    241.41686 
   17050    107.84748   -916.63997    88996.698   -21722.557    1613.7938   -23336.351    54.064263    239.55503 
   17100    110.71261   -932.52406    88905.935   -21737.559    1656.6665   -23394.226    54.256912    245.91915 
   17150    108.43456   -966.68478    88833.803   -21780.235    1622.5786   -23402.814     54.51132    240.85906 
   17200    107.98035   -548.72656    88855.413    -21783.38    1615.7819   -23399.162    54.687254    239.85015 
   17250    107.98178   -1000.8461    88839.282   -21797.628    1615.8034   -23413.431    54.735414    239.85334 
   17300    108.55723   -511.25811    88853.555   -21752.516    1624.4142    -23376.93    54.589572    241.13155 
   17350    106.42941   -963.01812    88905.449   -21765.044    1592.5742   -23357.618    54.604843    236.40516 
   17400     110.3635   -497.72074      88992.7   -21787.595    1651.4426   -23439.038    54.859134    245.14371 
   17450    108.70957   -774.99001    89078.744   -21823.908    1626.6938   -23450.602    55.149155    241.46994 
   17500    105.39624   -950.35077    89037.072    -21860.01    1577.1141   -23437.124     55.41605    234.11022 
   17550    107.00577   -591.81187     89109.14   -21833.116    1601.1987   -23434.315     55.62279    237.68539 
   17600    106.49187   -736.59931    89154.294   -21816.639    1593.5088   -23410.148    55.762056    236.54388 
   17650    107.07525   -705.38695     89128.27   -21782.232    1602.2383    -23384.47    56.005386    237.83971 
   17700    108.91029   -779.90804     89117.86   -21790.491    1629.6973   -23420.188    56.154348    241.91578 
   17750    107.49428   -539.98052    89140.765     -21829.9    1608.5085   -23438.409    56.336061    238.77047 
   17800    107.50579   -633.67057    89251.125    -21861.23    1608.6807    -23469.91    56.568212    238.79604 
   17850    106.04764   -1157.8246    89256.769   -21861.107    1586.8615   -23447.968    56.734084    235.55715 
   17900     108.4347   -696.31371     89228.78   -21822.144    1622.5807   -23444.725    56.739132    240.85937 
   17950    110.50471   -619.99761    89225.887   -21781.875    1653.5556    -23435.43    57.000669    245.45736 
   18000    102.47174   -1145.9063    89235.529   -21841.026    1533.3529   -23374.379    56.904028    227.61421 
   18050    108.51838   -857.99169    89239.354    -21848.32    1623.8328   -23472.152    56.892417    241.04524 
   18100    108.10406    -991.5243    89276.943   -21815.987    1617.6332   -23433.621    57.048413    240.12496 
   18150    106.64941   -903.49572     89246.59   -21820.656    1595.8662   -23416.522    57.360982    236.89382 
   18200    106.81872   -567.67462     89293.79   -21804.485    1598.3998   -23402.884    57.719281    237.26991 
   18250    110.11307   -863.33767    89285.726   -21802.855    1647.6952   -23450.551    57.723151    244.58743 
   18300    108.49347   -777.77555    89354.266   -21789.119      1623.46   -23412.579    58.125922    240.98991 
   18350    109.61692   -784.19009    89412.045   -21787.524    1640.2711   -23427.795    58.345817    243.48538 
   18400    107.58553   -479.54883    89396.776   -21790.961    1609.8739   -23400.835    58.575275    238.97316 
   18450    110.38661   -415.47986    89439.207   -21823.167    1651.7885   -23474.955    58.632742    245.19504 
   18500    109.28787   -781.10849    89474.286   -21823.194    1635.3473   -23458.541    58.700183    242.75448 
   18550    108.30346   -844.49601    89497.121   -21822.146    1620.6169   -23442.763    58.813606    240.56786 
   18600    108.10638   -595.03847    89519.944   -21827.258    1617.6679   -23444.926    58.906814    240.13011 
   18650    108.11121    -524.3916    89475.698   -21839.194    1617.7401   -23456.935    58.928459    240.14083 
   18700    106.79708   -926.03002    89497.057    -21840.77    1598.0759   -23438.846     59.14425    237.22183 
   18750    106.03769   -1005.1339    89479.557   -21866.226    1586.7127   -23452.939    59.211716    235.53505 
   18800    106.61925   -642.69127    89467.022   -21853.761    1595.4149   -23449.176    59.000074    236.82683 
   18850    108.68609     -1013.88     89494.97   -21810.067    1626.3424    -23436.41    58.887878    241.41778 
   18900    110.83472   -995.34705    89434.815    -21811.43    1658.4938   -23469.924    58.953552     246.1904 
   18950    107.54823   -849.67342    89398.291   -21808.747    1609.3159   -23418.063    59.172086    238.89032 
   19000     110.4852   -1004.5817    89439.253   -21797.079    1653.2637   -23450.343    59.355615    245.41403 
   19050    109.75153   -721.72543     89461.72   -21823.963    1642.2852   -23466.248     59.40299    243.78436 
   19100    109.67252   -789.53861    89507.796   -21813.543    1641.1031   -23454.646    59.669414    243.60888 
   19150    106.21018   -759.05536    89524.442    -21830.37    1589.2937   -23419.664     59.94886    235.91819 
   19200    108.15768   -626.90711     89625.38   -21839.068    1618.4355   -23457.504    60.067899    240.24406 
   19250    107.17737   -840.15745    89656.717   -21879.206    1603.7664   -23482.972    60.205987    238.06655 
   19300    107.00112   -1009.0592    89608.127   -21888.287     1601.129   -23489.416    60.358164    237.67505 
   19350    106.82493   -649.09556    89592.568   -21914.688    1598.4927    -23513.18    60.380155     237.2837 
   19400    106.50982   -362.74508    89625.106   -21916.158    1593.7775   -23509.935    60.604974    236.58376 
   19450    106.53393   -986.14611    89608.302   -21907.443    1594.1382   -23501.581    60.953761    236.63731 
   19500    111.72008   -896.84114    89518.584   -21824.234    1671.7421   -23495.976    61.065242      248.157 
   19550    109.54833   -831.82207    89507.549   -21813.476    1639.2447   -23452.721    61.040231    243.33302 
   19600    109.08553   -996.16498    89526.255   -21807.472    1632.3194   -23439.791    61.277652    242.30502 
   19650    108.79627   -897.16759    89488.254   -21809.937    1627.9911   -23437.928    61.403839    241.66251 
   19700    109.75018   -688.18506    89470.694   -21763.276    1642.2651   -23405.541    61.573008    243.78138 
   19750    108.76905   -496.31894    89461.328   -21759.423    1627.5838   -23387.007    61.762457    241.60205 
   19800    110.44207   -1016.2536    89450.023   -21737.541    1652.6183   -23390.159    61.851306    245.31823 
   19850     108.1793   -948.19735     89379.89   -21727.563     1618.759   -23346.321    61.946666    240.29207 
   19900    112.20379   -954.23877    89386.687   -21686.522      1678.98   -23365.502    62.072486    249.23142 
   19950    110.04492   -606.12379    89376.983   -21702.486    1646.6755   -23349.161     62.08786    244.43607 
   20000    110.85979   -1124.6346    89405.061   -21702.198     1658.869   -23361.067    62.396955    246.24609 
   20050    108.14036   -690.66322    89373.494   -21753.047    1618.1763   -23371.223     62.43669    240.20558 
   20100    107.11343   -973.11052    89355.348   -21765.468    1602.8096   -23368.277    62.483421    237.92451 
   20150    109.03273   -1133.2582    89270.833   -21741.238    1631.5293   -23372.767    62.702203    242.18774 
   20200    111.01751   -834.00882    89294.413   -21730.443     1661.229   -23391.672    63.031153    246.59642 
   20250    109.40419   -715.40803    89424.155   -21746.424    1637.0879   -23383.511    63.284148    243.01286 
   20300    109.13122    -789.9391    89451.919   -21802.174    1633.0031   -23435.178    63.471206    242.40651 
   20350    109.32547   -874.03483    89442.964   -21773.873    1635.9098   -23409.783    63.478521    242.83798 
   20400    110.55367   -1024.6979    89447.489   -21736.015    1654.2883   -23390.303    63.602755    245.56612 
   20450    108.40124   -852.73034    89404.837   -21735.514    1622.0799   -23357.594    63.704416    240.78505 
   20500    112.10335   -787.63982    89466.607   -21733.712    1677.4771   -23411.189    64.002742    249.00832 
   20550    108.37756    -801.8901    89526.826    -21765.02    1621.7256   -23386.746    64.062124    240.73245 
   20600    107.19168   -1253.1923    89460.262     -21797.4    1603.9806   -23401.381    64.184099    238.09834 
   20650    110.87896   -890.89304    89426.311   -21765.738    1659.1557   -23424.894    63.880944    246.28866 
   20700    110.17927   -1149.3016    89314.022    -21779.91    1648.6859   -23428.595     63.88501    244.73449 
   20750    108.30584   -1066.9697    89310.443   -21765.013    1620.6525   -23385.666    64.013383    240.57315 
   20800    106.35828   -898.81905    89275.493    -21739.54    1591.5098    -23331.05    64.106143    236.24714 
   20850    111.64586    -867.8001    89244.208    -21752.92    1670.6313   -23423.551    64.485279    247.99212 
   20900    110.72261   -899.13653    89277.411    -21725.76    1656.8162   -23382.576    64.875426    245.94138 
   20950    105.87456   -818.70741    89348.482   -21776.188    1584.2717    -23360.46    65.245591    235.17271 
   21000    108.20783   -677.15054    89385.537   -21789.799    1619.1858   -23408.985    65.164329    240.35544 
   21050    107.92011   -801.12356     89355.38   -21784.604    1614.8805   -23399.484    65.430115    239.71634 
   21100    105.35281   -918.04307    89369.776   -21785.533    1576.4643   -23361.997    65.573012    234.01376 
   21150    105.34273   -434.38219    89333.759   -21778.294    1576.3135   -23354.607    66.000818    233.99138 
   21200    109.03823   -589.98663    89368.118   -21779.008    1631.6117   -23410.619    66.097643    242.19996 
   21250    106.37417   -638.16155    89406.062   -21780.449    1591.7476   -23372.197    66.130835    236.28244 
   21300    110.45473    -679.9235    89490.402   -21788.923    1652.8077   -23441.731    66.362569    245.34635 
   21350    107.29131   -969.92774    89482.062     -21775.7    1605.4714   -23381.172    66.589868    238.31965 
   21400    109.45493   -625.40816    89477.529   -21791.385    1637.8471   -23429.232    66.907143    243.12556 
   21450    105.70221   -703.05706    89515.617    -21822.16    1581.6926   -23403.853      66.9702    234.78986 
   21500    107.35548   -720.80365    89515.085   -21815.527    1606.4315   -23421.958    67.206029    238.46216 
   21550     106.9598   -955.96076    89507.504    -21815.65    1600.5108   -23416.161    67.203231    237.58328 
   21600    108.27908   -681.55311    89538.028    -21799.38     1620.252   -23419.632    67.392062     240.5137 
   21650    109.54107   -819.50828    89524.446   -21858.528     1639.136   -23497.664    67.697741    243.31689 
   21700    106.96986   -872.20931    89548.732   -21815.814    1600.6613   -23416.475    67.899424    237.60562 
   21750    106.60053   -919.39161    89520.329   -21868.207    1595.1347   -23463.342    68.234018    236.78524 
   21800    107.78991   -657.94596    89551.201    -21868.39    1612.9322   -23481.323    68.332209    239.42714 
   21850    108.31314   -752.81639    89597.285   -21859.366    1620.7616   -23480.127    68.303888    240.58936 
   21900    104.80164   -737.00154    89576.939   -21872.727    1568.2168   -23440.944    68.420711    232.78948 
   21950    110.45816   -1006.3401    89485.699   -21835.089    1652.8591   -23487.949    68.774602    245.35397 
   22000    106.38128   -808.55477    89394.924   -21836.954    1591.8539   -23428.807    68.871056    236.29823 
   22050    107.17918   -720.20567    89413.873   -21811.923    1603.7936   -23415.716    68.919286    238.07058 
   22100    108.19724   -912.34654    89390.729   -21817.931    1619.0274   -23436.958    68.749165    240.33192 
   22150    106.36834   -966.93015    89370.336   -21776.675    1591.6604   -23368.336    68.975479     236.2695 
   22200    105.54716   -732.99887    89355.129   -21797.282    1579.3725   -23376.655    69.259765    234.44546 
   22250    109.86328   -763.65036    89419.106   -21788.498    1643.9574   -23432.455    69.546797    244.03259 
   22300    107.49857   -1009.3422    89430.838   -21803.946    1608.5727   -23412.519    69.793684       238.78 
   22350    106.32728   -938.43905    89379.901   -21800.026     1591.046   -23391.072    69.854457     236.1783 
   22400    105.09667   -1106.3709     89323.77   -21799.178    1572.6315   -23371.809    70.231292    233.44481 
   22450    108.90062   -1213.4612    89280.829   -21827.467    1629.5526    -23457.02     70.49535     241.8943 
   22500    108.16714   -937.32153    89210.339   -21814.386     1618.577   -23432.963    70.830064    240.26506 
   22550    107.90612   -1005.5831    89184.767   -21831.554    1614.6712   -23446.225    70.885797    239.68527 
   22600    108.03959   -966.78187    89153.597    -21801.12    1616.6684   -23417.789    71.150078    239.98174 
   22650    106.58778   -951.40886    89122.481   -21873.731    1594.9441   -23468.675    71.145387    236.75694 
   22700    105.45826   -777.91773     89059.47     -21893.8    1578.0423   -23471.842    71.093095      234.248 
   22750    102.32647   -1168.0481    89042.745    -21885.15    1531.1792   -23416.329    71.325159    227.29154 
   22800    106.94089   -1042.5619    88988.336   -21893.293    1600.2278   -23493.521    71.192888    237.54127 
   22850    108.48259   -910.25278    88917.569   -21901.308    1623.2973   -23524.605    70.826248    240.96575 
   22900    107.97206   -660.42502    88880.568   -21894.435    1615.6579   -23510.093    70.908137    239.83174 
   22950    107.90824   -565.74091    88931.679   -21890.983    1614.7029   -23505.686    71.106932    239.68998 
   23000    107.95717   -436.67163    89021.848   -21868.363    1615.4351   -23483.798    71.263059    239.79867 
   23050    108.96303   -500.86751    89120.494   -21849.734    1630.4865    -23480.22     71.50836    242.03293 
   23100    110.51275   -759.45822    89172.553   -21821.128     1653.676   -23474.804     71.62271    245.47523 
   23150    107.75726   -510.88134    89243.091   -21851.538    1612.4437   -23463.981    71.499077    239.35462 
   23200    110.02082   -731.53761    89276.159   -21861.643    1646.3148   -23507.958    71.581539    244.38252 
   23250    107.43746    -891.7357     89327.59    -21840.12    1607.6583   -23447.779    71.503346    238.64426 
   23300    107.39909   -790.47653    89316.592   -21894.729    1607.0842   -23501.813    71.670354    238.55904 
   23350    107.38349   -1064.2171    89325.446   -21897.986    1606.8507   -23504.836     72.00824    238.52438 
   23400    103.79959   -814.73508    89307.735    -21914.53    1553.2224   -23467.752    72.163902    230.56368 
   23450    104.86558   -787.41632    89279.649   -21889.238    1569.1736   -23458.412    72.189457    232.93151 
   23500    106.90688   -967.60331    89197.079   -21859.311    1599.7189    -23459.03    72.380159    237.46573 
   23550    107.34113   -1011.4708    89164.969   -21836.297    1606.2169   -23442.514    72.242874     238.4303 
   23600    105.91181   -559.74626    89167.866   -21832.987     1584.829   -23417.816    72.212987    235.25544 
   23650    106.84489   -794.37655    89196.645   -21844.417    1598.7912   -23443.209    72.126282    237.32802 
   23700    108.04178   -808.98336    89185.785   -21841.413    1616.7011   -23458.114    71.951762    239.98661 
   23750     107.3683   -799.72282    89193.947   -21876.056    1606.6235   -23482.679    72.195852    238.49066 
   23800    105.78194   -828.06629    89108.522   -21908.831    1582.8856   -23491.717    72.222962    234.96696 
   23850    106.20002   -669.98446    89101.695   -21856.586    1589.1417   -23445.727    72.356867    235.89562 
   23900    109.46609   -943.68812    89113.967   -21829.313    1638.0141   -23467.327    72.369183    243.15035 
   23950    107.82121   -675.27881    89107.615   -21858.768    1613.4007   -23472.169    72.282321    239.49668 
   24000    102.52959   -670.21394    89165.985   -21896.252    1534.2186    -23430.47    72.583158    227.74272 
   24050    107.24661   -774.83016    89213.641   -21898.476    1604.8025   -23503.279     72.96793    238.22035 
   24100    106.22283   -745.98214     89306.91   -21873.927     1589.483    -23463.41    72.874421    235.94628 
   24150    105.98555    -658.7535    89317.254   -21842.865    1585.9325   -23428.798     73.03118    235.41924 
   24200    106.38956   -842.40437     89357.07   -21817.728     1591.978   -23409.706     73.08226    236.31664 
   24250    110.45535   -361.97715    89401.667   -21811.226    1652.8171   -23464.043    73.358836    245.34773 
   24300     108.3344   -566.52312    89497.456   -21813.693    1621.0798   -23434.773    73.406158    240.63659 
   24350    107.97137   -679.74862    89503.826   -21827.033    1615.6476   -23442.681    73.814383    239.83022 
   24400    107.98896   -701.60788    89528.435   -21826.498    1615.9107   -23442.408    73.865635    239.86927 
   24450    111.30344   -945.44976    89539.107   -21843.384    1665.5075   -23508.891    74.174929    247.23153 
   24500    106.76315   -965.38536    89502.576    -21831.67    1597.5681   -23429.238    74.336365    237.14646 
   24550    108.76875   -1194.8804    89507.569   -21810.154    1627.5792   -23437.733    74.460815    241.60137 
   24600    108.52295   -1014.3478    89424.469   -21861.266    1623.9012   -23485.167    74.665115    241.05539 
   24650    105.56694   -925.68954    89357.459   -21880.542    1579.6685   -23460.211     74.50529     234.4894 
   24700    107.70867   -801.11724    89413.411   -21869.193    1611.7167    -23480.91    74.794241     239.2467 
   24750    105.12137   -675.42808    89383.994   -21867.631    1573.0012   -23440.632    74.981217    233.49969 
   24800    106.98694   -524.80108    89403.499   -21863.496    1600.9169   -23464.413    74.970773    237.64355 
   24850    108.55158   -861.16105     89392.24   -21855.987    1624.3297   -23480.316     75.16792    241.11901 
   24900    106.28244   -955.49592    89333.073   -21875.136    1590.3749   -23465.511    74.883854    236.07869 
   24950    107.69935   -936.08191    89351.292   -21891.636    1611.5772   -23503.214    75.070663    239.22599 
   25000    106.53809   -961.33103    89362.235   -21934.402    1594.2004   -23528.602    75.308807    236.64654 
   25050    103.27442   -1064.6717    89355.104   -21912.472    1545.3639   -23457.836    74.991738    229.39716 
   25100    107.33979    -776.0734    89316.612   -21915.177    1606.1969   -23521.374    75.295719    238.42733 
   25150    107.06858   -1086.5499     89283.99   -21861.126    1602.1385   -23463.264    75.459737     237.8249 
   25200    109.32995   -944.41598     89321.96   -21859.244    1635.9769   -23495.221    75.720908    242.84793 
   25250    108.73353   -716.33749    89394.373   -21872.664    1627.0523   -23499.716    75.621113    241.52316 
   25300    106.75072   -1023.9093    89383.256   -21878.125    1597.3822   -23475.507     76.00673    237.11886 
   25350    108.23796   -678.11482    89411.165    -21880.56    1619.6367   -23500.196     76.20472    240.42237 
   25400    104.17841    -993.7476    89469.937   -21884.454     1558.891   -23443.345     76.16252    231.40514 
   25450    106.65702   -789.55863    89495.861    -21859.13      1595.98    -23455.11    76.098572    236.91072 
   25500    107.16434   -1042.2307    89515.133   -21837.731    1603.5714   -23441.303    76.524952     238.0376 
   25550    107.59122   -777.42425    89537.383   -21828.067    1609.9591   -23438.026    76.917651     238.9858 
   25600    107.75615   -874.08945    89557.484   -21833.958    1612.4271   -23446.386    77.141477    239.35216 
   25650    110.14843   -849.04973    89540.067   -21803.117    1648.2244   -23451.341    77.327849    244.66599 
   25700    105.41035   -856.85186    89530.389   -21781.382    1577.3253   -23358.708    77.479735    234.14157 
   25750    108.02957   -626.68971    89550.335   -21767.812    1616.5185    -23384.33     77.53995    239.95949 
   25800    107.49749   -743.34503    89553.579   -21744.926    1608.5565   -23353.483    77.601163     238.7776 
   25850    109.69313   -534.70318    89519.153   -21785.855    1641.4115   -23427.266    77.738681    243.65466 
   25900    106.31133   -704.32508    89559.251   -21805.861    1590.8072   -23396.668    77.969089    236.14286 
   25950    108.35683   -753.06384    89515.593   -21824.651    1621.4155   -23446.067    78.206862    240.68641 
   26000    108.39192   -599.75721    89518.752   -21806.482    1621.9405   -23428.422    78.398172    240.76435 
   26050    107.50816   -962.60996    89524.775   -21821.651    1608.7163   -23430.367    78.573912    238.80131 
   26100    107.25153   -877.24016    89491.996   -21827.242    1604.8761   -23432.118     78.73646    238.23128 
   26150    106.38842   -875.79575    89444.497   -21851.693    1591.9608   -23443.654    78.664182     236.3141 
   26200    110.22809   -850.31307     89467.54   -21856.819    1649.4163   -23506.235    78.466953    244.84292 
   26250    104.01106   -953.01506    89459.227   -21826.449    1556.3868   -23382.836     78.45507    231.03342 
   26300    108.28927   -976.10907    89493.713    -21825.91    1620.4045   -23446.315    78.440068    240.53634 
   26350    103.31807   -754.26274    89460.897   -21870.947    1546.0171   -23416.964    78.459949    229.49411 
   26400     107.0097   -746.11889    89500.193    -21849.75    1601.2575   -23451.007    78.509335    237.69411 
   26450    107.20732   -969.79409    89548.121   -21827.159    1604.2146   -23431.373    78.612575    238.13307 
   26500     107.0643    -628.7692    89571.302   -21806.683    1602.0745   -23408.758    78.474575     237.8154 
   26550    107.07834    -676.9695    89631.189   -21809.722    1602.2846   -23412.006    78.664628    237.84659 
   26600    107.84923   -903.84628    89644.869   -21780.847    1613.8198   -23394.667    78.977725     239.5589 
   26650    108.39631   -1013.8733    89621.398   -21765.749    1622.0062   -23387.755    79.311067     240.7741 
   26700    110.89199   -883.23175    89657.865    -21793.76    1659.3507   -23453.111     79.44831     246.3176 
   26750    109.03838   -862.87369    89662.072    -21809.96    1631.6139   -23441.574    79.439714    242.20029 
   26800    107.60209   -821.81801    89734.157   -21827.906    1610.1218   -23438.028    79.423823    239.00996 
   26850     107.6846   -851.30273     89803.66   -21836.961    1611.3564   -23448.317    79.520993    239.19323 
   26900    107.43765   -960.10622    89707.225   -21900.022    1607.6611   -23507.683    79.603197    238.64468 
   26950    106.62531    -618.2303    89637.896   -21881.299    1595.5056   -23476.804    79.815678     236.8403 
   27000    107.32708   -824.92756    89604.747    -21853.95    1606.0066   -23459.957    79.730095    238.39908 
   27050    105.96464    -433.7581    89633.255   -21829.459    1585.6196   -23415.078    80.049099    235.37279 
   27100    109.23559   -669.20148    89637.824   -21866.755    1634.5649    -23501.32    79.959399    242.63834 
   27150    104.81824    -1293.362    89628.447   -21895.056    1568.4652   -23463.521     80.07528    232.82637 
   27200    107.29434    -861.6448    89636.894   -21888.757    1605.5168   -23494.273    80.148952    238.32637 
   27250    106.58605   -736.45834    89628.025   -21871.832    1594.9181    -23466.75    80.386148    236.75308 
   27300    107.08489   -811.10424    89658.059   -21866.414    1602.3826   -23468.796    80.419176    237.86113 
   27350    107.14878   -763.46233    89686.931   -21881.439    1603.3387   -23484.777    80.471417    238.00305 
   27400    105.90572   -1012.5065    89625.648   -21899.247    1584.7378   -23483.985    80.061962     235.2419 
   27450    106.88925    -800.5902    89566.944   -21918.102    1599.4551   -23517.557    80.142907    237.42657 
   27500    105.14308   -782.46257     89570.29   -21951.194     1573.326    -23524.52    80.219328     233.5479 
   27550    105.74443   -1004.7739    89625.848   -21931.382    1582.3244   -23513.707     80.33417    234.88365 
   27600    102.28096   -774.77386    89637.223   -21976.144    1530.4981   -23506.643    80.705144    227.19044 
   27650    100.95125   -1229.5138    89563.744   -21997.703    1510.6008   -23508.304    81.059232    224.23685 
   27700    103.53073   -805.47593    89576.891    -21985.69    1549.1993   -23534.889    80.885735    229.96649 
   27750    103.92423   -602.59074    89614.649   -21970.799    1555.0874   -23525.887    80.841987    230.84054 
   27800    107.19618   -896.71977    89608.794   -21936.234    1604.0479   -23540.282    81.013995    238.10833 
   27850    105.96762   -1214.3494    89651.355    -21896.25    1585.6641   -23481.914    81.157514     235.3794 
   27900    104.45748   -946.50904    89615.269   -21925.934    1563.0669   -23489.001    81.427714    232.02502 
   27950    108.31679   -1116.0952    89581.337   -21913.779    1620.8164   -23534.595    81.477375    240.59748 
   28000    106.52551   -947.41365    89606.379   -21921.907    1594.0122   -23515.919     81.60615    236.61861 
   28050    104.74919   -846.81835    89643.957   -21907.267    1567.4319   -23474.699    81.646848    232.67298 
   28100    107.49921   -831.27376    89645.204    -21855.33    1608.5824   -23463.912    81.785284    238.78144 
   28150    107.47114   -1021.6974    89650.436   -21852.779    1608.1623   -23460.942    81.909517    238.71909 
   28200    107.87286   -652.94747    89663.096   -21862.588    1614.1735   -23476.761    81.807006    239.61139 
   28250    109.07509   -655.34752    89725.682   -21870.653    1632.1633   -23502.816     81.94735    242.28184 
   28300    107.02464   -648.27663    89787.068    -21833.89    1601.4811   -23435.371    81.930814     237.7273 
   28350    108.68423   -953.50632    89779.864   -21812.134    1626.3146   -23438.449    82.285894    241.41365 
   28400    108.93152     -955.878     89780.94   -21806.329     1630.015   -23436.344    82.381905    241.96294 
   28450    107.67691   -762.82284    89791.183     -21798.2    1611.2413   -23409.441    82.548909    239.17613 
   28500     108.2008   -738.26348    89898.303   -21782.888    1619.0807   -23401.968    82.693994    240.33984 
   28550    107.26919   -674.06812    89934.293   -21834.705    1605.1404   -23439.846     82.82216     238.2705 
   28600    109.35041    -801.2525    89923.549   -21841.102     1636.283   -23477.385    83.077173    242.89338 
   28650    110.59216   -962.65807    89875.147   -21836.737    1654.8642   -23491.602    83.258919    245.65161 
   28700     112.0736   -993.27234    89885.888   -21795.671     1677.032   -23472.703    83.609833    248.94225 
   28750    106.84729    -908.1976    89917.667   -21811.368    1598.8272   -23410.195    83.578223    237.33335 
   28800    107.71346    -799.5171    89839.538   -21827.275    1611.7883   -23439.064     84.13839    239.25734 
   28850    105.27829   -994.58113    89776.218   -21904.648    1575.3492   -23479.997    84.268835    233.84823 
   28900    109.21888   -787.60994    89649.033   -21913.831    1634.3149   -23548.146    84.444611    242.60123 
   28950    107.33723   -784.24885    89721.387   -21912.957    1606.1585   -23519.115    84.573972    238.42163 
   29000    107.52543   -821.66812    89782.653   -21901.541    1608.9747   -23510.515    84.941135    238.83967 
   29050    102.50344   -910.67246    89865.687   -21899.988    1533.8272   -23433.815    85.112594    227.68462 
   29100    106.92434   -929.62002    89916.764   -21885.836    1599.9801   -23485.816    85.097441     237.5045 
   29150     107.5754   -843.19375    89874.681   -21884.266    1609.7224   -23493.988    85.136245    238.95067 
   29200    105.30227    -896.9314    89857.923    -21906.54    1575.7081   -23482.248    85.396677    233.90151 
   29250    105.43204   -974.92208    89780.984   -21921.196    1577.6499   -23498.846    85.531995    234.18976 
   29300     105.4944    -1136.758    89736.655   -21921.107     1578.583    -23499.69     85.46481    234.32827 
   29350    106.07095   -1023.0893    89691.014   -21908.588    1587.2103   -23495.798    85.666626    235.60893 
   29400    109.83749   -850.36908    89673.036   -21877.877    1643.5716   -23521.448    86.136307    243.97531 
   29450    107.79511   -993.48289    89613.051   -21863.707    1613.0101   -23476.717    86.196946     239.4387 
   29500    110.57084   -635.75503     89595.63   -21810.403    1654.5452   -23464.948    85.943063    245.60425 
   29550    106.59592   -1124.7974    89701.406   -21840.486    1595.0658   -23435.552    86.270129    236.77501 
   29600    106.68865   -743.30268     89701.48   -21807.154    1596.4534   -23403.607    86.336596    236.98098 
   29650    107.68038   -922.18003    89774.742   -21805.588    1611.2933   -23416.882     86.52066    239.18385 
   29700    107.92522   -731.41547    89808.458   -21834.765    1614.9569   -23449.722    87.075159    239.72769 
   29750    110.61962   -824.08617    89706.315    -21831.66     1655.275   -23486.935    87.092808     245.7126 
   29800    107.85775   -848.10761    89694.065   -21860.424    1613.9474   -23474.372    87.235918    239.57783 
   29850    108.67428   -748.60747    89658.279   -21831.636    1626.1657   -23457.801    87.394074    241.39155 
   29900    104.81177   -1075.3746     89602.64   -21866.327    1568.3683   -23434.695     87.93179    232.81198 
   29950    107.70282   -883.94143    89560.993    -21876.15    1611.6291   -23487.779    88.036912    239.23371 
   30000    105.97937     -745.156    89486.498   -21890.404    1585.8399   -23476.244    87.939959    235.40549 
   30050     105.5644   -781.52173    89495.126   -21865.405    1579.6304   -23445.036    88.235358    234.48375 
   30100    106.91838   -1078.9532    89498.429    -21881.61     1599.891   -23481.501    88.450431    237.49128 
   30150    108.59068   -727.98174    89496.254   -21885.606    1624.9148   -23510.521     88.94296    241.20586 
   30200    105.52933   -677.29825    89531.064   -21927.064    1579.1057    -23506.17    89.029458    234.40586 
   30250    104.12536   -430.43206    89586.723    -21920.31    1558.0971   -23478.407    89.242374     231.2873 
   30300    105.14335   -870.94621    89565.543   -21900.327    1573.3301   -23473.657    89.132243    233.54851 
   30350    108.90224   -833.88559    89497.554   -21873.587    1629.5768   -23503.163    89.645154    241.89789 
   30400    107.33692     -753.832    89478.087   -21883.483    1606.1538   -23489.637    89.622893    238.42094 
   30450    105.93594   -643.35329    89514.477   -21887.388      1585.19   -23472.578    89.584103    235.30902 
   30500    105.78889   -539.12612    89530.652   -21888.534    1582.9896   -23471.523    89.645202     234.9824 
   30550      106.519   -805.57412     89528.02   -21855.429    1593.9147   -23449.344    89.765458    236.60414 
   30600    108.21151   -1213.0153    89474.009   -21830.576    1619.2409   -23449.817    90.027286    240.36362 
   30650    110.28974   -750.55385    89420.648    -21788.68    1650.3389   -23439.019    90.159687    244.97986 
   30700    107.99728   -1041.3826    89374.406   -21796.367    1616.0352   -23412.402    90.113871    239.88776 
   30750     109.5141   -810.42557    89377.325    -21835.54    1638.7325   -23474.273    90.353567    243.25698 
   30800    106.50928   -964.07276    89303.023   -21833.771    1593.7694    -23427.54    90.516678    236.58257 
   30850    109.39588   -1046.4695    89247.608   -21835.274    1636.9635   -23472.237    90.630347    242.99439 
   30900     107.0721    -899.4031    89243.308   -21833.623    1602.1912   -23435.814    90.681689    237.83272 
   30950    108.35216   -908.37896    89266.308   -21847.999    1621.3456   -23469.345    90.479867    240.67603 
   31000    107.94439   -664.73657    89296.035   -21855.516    1615.2438    -23470.76    90.672434    239.77028 
   31050     108.3041   -999.54323    89325.761   -21863.324    1620.6264   -23483.951    91.147205    240.56928 
   31100    107.60115   -707.45079    89292.012   -21891.392    1610.1077   -23501.499    91.239222    239.00786 
   31150    104.22783   -635.77719    89319.111   -21925.352    1559.6305   -23484.982    91.190824    231.51492 
   31200    105.38438   -820.70462    89284.629    -21927.58    1576.9367   -23504.517    91.545215    234.08388 
   31250    106.71739   -1096.8666    89320.976   -21906.845    1596.8834   -23503.728    92.046526    237.04482 
   31300    107.63915   -1096.6507    89310.506   -21868.763    1610.6763   -23479.439    92.288923    239.09226 
   31350    104.34374    -968.7079    89318.733   -21875.371    1561.3649   -23436.736    92.317695    231.77237 
   31400    109.38953   -1070.3015    89322.625   -21830.914    1636.8684   -23467.782    92.436357    242.98028 
   31450     109.3686   -615.36601     89328.84    -21772.97    1636.5552   -23409.526    92.873684    242.93379 
   31500    112.08945   -885.29498    89334.895   -21782.727    1677.2691   -23459.996     92.97623    248.97744 
   31550     109.6997    -801.7136    89310.649   -21776.609    1641.5097   -23418.118    92.843761    243.66925 
   31600    107.44911   -700.26905    89329.168   -21811.456    1607.8326   -23419.289    92.667807    238.67014 
   31650    107.15513   -878.24362     89397.16   -21816.824    1603.4337   -23420.258    93.162201    238.01716 
   31700    106.88839   -726.60538    89347.637   -21829.505    1599.4422   -23428.947    93.243706    237.42466 
   31750    108.79739   -736.50929     89386.09   -21810.007    1628.0078   -23438.015    93.646848      241.665 
   31800    109.66764   -967.86729     89433.72   -21827.888      1641.03   -23468.918    93.766852    243.59803 
   31850      110.707    -513.3948    89476.012   -21804.384    1656.5827   -23460.967    94.001832    245.90671 
   31900    109.42113   -776.17664    89504.879   -21775.876    1637.3413   -23413.217    94.350432    243.05048 
   31950    111.44424   -786.79519    89539.852   -21742.935    1667.6145    -23410.55    94.495685     247.5443 
   32000     110.9025   -889.09787    89476.892   -21798.828     1659.508   -23458.336    94.832562    246.34094 
   32050    110.96651   -727.37982    89465.799   -21796.508    1660.4659   -23456.974    95.067052    246.48314 
   32100    110.19828   -761.52583    89446.066    -21765.77    1648.9703    -23414.74    94.921172    244.77671 
   32150    110.76654    -781.2972     89524.63   -21805.322    1657.4735   -23462.795    95.192106    246.03895 
   32200     109.4201   -818.87049    89639.666   -21793.453    1637.3258   -23430.779    95.201341    243.04818 
   32250    108.40244   -1015.2626    89615.226   -21832.204     1622.098   -23454.302    95.202403    240.78773 
   32300    108.20609   -787.77136    89656.599   -21805.021    1619.1599   -23424.181     95.08948    240.35159 
   32350     108.7851   -971.96869    89708.511   -21806.095    1627.8239   -23433.919    95.134447    241.63769 
   32400    108.76016    -1098.179    89691.244   -21795.519    1627.4508    -23422.97    95.200014    241.58231 
   32450    106.68453   -1016.7905    89664.816   -21844.722    1596.3917   -23441.114    95.653808    236.97184 
   32500    107.17126   -1222.6247    89642.096   -21819.785     1603.675    -23423.46    95.831552    238.05297 
   32550    107.11161   -706.77032    89655.288   -21811.874    1602.7824   -23414.657    96.097535    237.92047 
   32600    108.42787   -739.25414    89743.791   -21758.122    1622.4785   -23380.601    96.126308    240.84421 
   32650    108.93254    -892.3948    89807.262    -21771.95    1630.0302    -23401.98    96.387296    241.96519 
   32700     108.7218    -1151.776    89781.184    -21741.56    1626.8767   -23368.437    96.432424    241.49709 
   32750    110.61833    -918.1848     89721.24   -21726.966    1655.2558   -23382.221     96.51144    245.70975 
   32800    107.57384    -802.5929    89718.894   -21750.314    1609.6991   -23360.014    96.894277    238.94721 
   32850    110.31424   -1117.4231    89764.373   -21780.941    1650.7054   -23431.647    97.071339    245.03428 
   32900    108.31335   -1095.5646    89770.549   -21808.648    1620.7648   -23429.412    96.873881    240.58983 
   32950    105.33028   -990.20323    89676.713   -21846.622    1576.1272   -23422.749    96.836286    233.96372 
   33000    105.24609    -1023.787    89689.416   -21836.835    1574.8674   -23411.703    97.246221    233.77671 
   33050    109.19694   -678.84545     89674.38    -21846.12    1633.9866   -23480.106    97.334936    242.55249 
   33100    106.83808   -878.40559    89671.768    -21867.69    1598.6895    -23466.38    97.469766    237.31291 
   33150    108.83863   -948.18902    89663.904   -21837.487    1628.6249   -23466.112    97.383713     241.7566 
   33200    110.08214   -1017.6846    89592.839   -21802.333    1647.2324   -23449.565    97.371367    244.51873 
   33250    111.09487   -762.48567    89537.285   -21798.524    1662.3866    -23460.91    97.815393    246.76826 
   33300    106.30301   -1119.8183    89440.222   -21844.129    1590.6828   -23434.812    97.935542    236.12439 
   33350    111.49899   -1153.3777    89389.777   -21837.134    1668.4337   -23505.568    98.196373    247.66591 
   33400    107.73182   -1003.2093    89291.513   -21817.898     1612.063   -23429.961    98.204812    239.29812 
   33450    110.35372   -714.31519    89236.933   -21832.344    1651.2963    -23483.64    98.310329    245.12199 
   33500    110.09457   -761.97289    89240.015   -21815.393    1647.4184   -23462.811    98.491424    244.54635 
   33550    107.86166    -458.7088    89289.281   -21780.705    1614.0058   -23394.711    98.650531    239.58651 
   33600    112.36776   -923.08331    89273.404   -21795.749    1681.4336   -23477.182    98.663096    249.59564 
   33650    108.69077   -957.56129    89260.228   -21816.609    1626.4124   -23443.021    99.014578    241.42817 
   33700    106.33952   -695.92014    89271.723   -21885.303    1591.2291   -23476.532    99.299881    236.20547 
   33750    107.31182   -568.80038    89231.079   -21885.332    1605.7783    -23491.11    99.516214    238.36519 
   33800    105.34649   -883.03975    89241.309   -21876.587    1576.3698   -23452.957    99.906599    233.99973 
   33850     106.8638   -793.14004    89296.018   -21833.776    1599.0742    -23432.85    99.901566    237.37002 
   33900    107.85501   -1119.4655    89326.382   -21859.126    1613.9064   -23473.032    99.600276    239.57174 
   33950    105.59703   -1376.0666    89267.258   -21883.424    1580.1187   -23463.543    99.737915    234.55624 
[...]
   92000    107.38928   -964.99715    89214.807   -21773.773    1606.9374   -23380.711    263.70374    238.53725 
   92050    105.83695   -1081.6534     89145.98   -21740.483    1583.7088   -23324.191    263.88443    235.08915 
   92100    108.95081   -1114.0207    89091.057   -21724.995    1630.3036   -23355.299    264.11683    242.00578 
   92150    108.99092   -814.91857    89062.449   -21755.483    1630.9038   -23386.387    264.27198    242.09488 
   92200    109.13451   -897.79789    89054.195   -21767.286    1633.0524   -23400.338    264.49617    242.41382 
   92250    107.30632   -853.43322    89037.287   -21810.066    1605.6959   -23415.762    264.90021    238.35297 
   92300    106.26348   -896.37406     89099.78   -21806.241    1590.0913   -23396.333    264.96844    236.03658 
   92350    105.26754    -825.3935    89076.338    -21780.09    1575.1883   -23355.278    265.75569    233.82435 
   92400    108.14018   -902.74018    89024.759   -21809.853    1618.1736   -23428.027    265.53338    240.20517 
   92450    109.02118   -902.66355    89024.063   -21783.816    1631.3566   -23415.172    265.71062    242.16209 
   92500    106.66789   -742.78694     89103.51   -21814.581    1596.1427   -23410.724    265.78296    236.93487 
   92550    107.64312   -539.89843    89192.028   -21797.923    1610.7358   -23408.658    265.30686     239.1011 
   92600    106.62163   -979.15343    89305.596   -21758.484    1595.4505   -23353.935    265.35406    236.83212 
   92650    110.79825   -764.27848    89312.802     -21740.9    1657.9481   -23398.848    265.76747    246.10939 
   92700    109.40089   -983.01827    89253.202   -21727.457    1637.0384   -23364.495    266.02599    243.00551 
   92750    109.70794   -792.07817    89195.928   -21735.288     1641.633   -23376.921    265.85852    243.68754 
   92800    108.57525   -671.94822    89231.637   -21766.195    1624.6838   -23390.879    266.23723    241.17157 
   92850    110.55866   -424.17557    89277.335   -21766.662     1654.363   -23421.025    266.67497    245.57721 
   92900    106.78374   -737.37499    89337.138   -21768.158    1597.8762   -23366.034    266.92914    237.19219 
   92950    106.86046   -785.71796    89361.835   -21790.685    1599.0243   -23389.709    266.96432    237.36262 
   93000    107.65252    -513.2521    89466.339   -21768.158    1610.8765   -23379.034    267.02969    239.12198 
   93050    107.86725   -754.36266     89508.15   -21737.137    1614.0896   -23351.226     267.0619    239.59894 
   93100    110.33225   -700.78702     89538.79   -21762.972    1650.9751   -23413.947    267.48801     245.0743 
   93150    109.15833   -944.71673    89475.072   -21769.765    1633.4088   -23403.174    267.83899    242.46673 
   93200    108.50127   -846.09114    89473.508   -21816.314    1623.5768   -23439.891    267.72747    241.00724 
   93250    108.41152   -708.52837    89484.755   -21822.482    1622.2338   -23444.716    268.09535    240.80789 
   93300    107.62876   -839.40172    89405.411   -21843.872    1610.5208   -23454.393    268.82861    239.06919 
   93350    108.04997   -808.77659    89409.749   -21840.944    1616.8236   -23457.767    269.47248    240.00479 
   93400    107.86393   -760.47197    89391.825   -21860.323    1614.0399   -23474.363    269.46561    239.59156 
   93450    107.20318   -491.11703    89377.488   -21824.807    1604.1526    -23428.96    270.02323    238.12387 
   93500    109.24116   -825.17154    89419.054   -21836.388    1634.6482   -23471.036    270.29189    242.65071 
   93550    108.42002   -793.68018    89443.288   -21810.527     1622.361   -23432.887    270.29934    240.82676 
   93600     108.9387   -614.88082    89490.109   -21780.535    1630.1223   -23410.657    269.53543    241.97887 
   93650    107.07783   -716.29016    89562.033   -21820.391    1602.2769   -23422.667    269.78191    237.84544 
   93700    108.25186    -752.9911    89544.783   -21820.116    1619.8447   -23439.961    269.79476    240.45324 
   93750    108.59057   -658.12791    89507.288   -21804.224    1624.9131   -23429.137    268.93004    241.20561 
   93800    109.32161   -973.09837     89476.73   -21855.013    1635.8521   -23490.865    269.07377    242.82941 
   93850    109.89688   -1039.4016    89465.536   -21817.915    1644.4602   -23462.375    269.14138    244.10722 
   93900    110.29654   -852.09299    89501.439   -21801.303    1650.4407   -23451.744    268.43048    244.99498 
   93950    108.80117   -874.43436    89475.669   -21799.463    1628.0643   -23427.527    268.75968    241.67338 
   94000    107.69277   -919.96128    89501.784   -21812.878    1611.4787   -23424.357    268.73606    239.21137 
   94050    107.74746   -995.71111     89441.11    -21855.92    1612.2971   -23468.217     268.4973    239.33286 
   94100    107.80512   -774.18527    89363.574   -21839.971    1613.1599   -23453.131    268.56737    239.46093 
   94150     109.1456   -745.79275    89369.562    -21812.78    1633.2184   -23445.998     268.9763    242.43847 
   94200    108.47044   -1035.2454    89415.254    -21830.31    1623.1155   -23453.425      268.914    240.93877 
   94250     109.4875   -562.92695     89414.79   -21843.294    1638.3345   -23481.628    269.00463     243.1979 
   94300     107.9153   -835.92575    89390.274   -21851.909    1614.8086   -23466.718    269.46509    239.70567 
   94350    106.39273   -837.88391    89367.379   -21905.199    1592.0253   -23497.224    269.51382    236.32368 
   94400    108.80529   -847.38165    89375.087   -21873.538     1628.126   -23501.664    269.80416    241.68254 
   94450    105.28162   -677.78146    89383.438   -21895.642    1575.3991   -23471.042    269.99374    233.85564 
   94500    107.93684   -913.23568    89421.105   -21902.117    1615.1309   -23517.248    270.42166    239.75351 
   94550    103.83561   -933.84818    89425.364   -21910.275    1553.7614   -23464.036    270.84767     230.6437 
   94600    105.47816   -829.78092    89474.872   -21915.718      1578.34   -23494.058    270.89639    234.29219 
   94650    104.27471   -1013.2125     89553.46   -21899.993    1560.3319   -23460.325    271.48005    231.61904 
   94700    108.25156   -1002.3697    89532.066   -21843.314    1619.8402   -23463.154    271.70807    240.45258 
   94750    110.61413   -1050.0328    89457.447   -21814.381     1655.193   -23469.574    271.82251    245.70042 
   94800      109.402   -1129.2692    89505.174   -21817.761     1637.055   -23454.816    272.58533    243.00797 
   94850    108.24258   -832.79102    89495.971   -21808.627    1619.7058   -23428.333    272.50956    240.43263 
   94900    109.22786   -952.67661    89488.068   -21843.574    1634.4493   -23478.023     272.6617    242.62118 
   94950     108.4027   -1048.7414    89468.406   -21834.298    1622.1019   -23456.399    272.83437     240.7883 
   95000    108.38185   -1370.4757     89437.77   -21820.907    1621.7899   -23442.697    272.61407    240.74199 
   95050    108.22014   -725.00379    89403.819   -21778.273      1619.37   -23397.643    273.08081    240.38278 
   95100    109.16528   -629.66627    89432.882   -21809.827    1633.5128   -23443.339    273.14615    242.48217 
   95150    109.08203   -772.84653    89450.312   -21815.312    1632.2671   -23447.579    272.89716    242.29726 
   95200    110.19039   -999.34622    89512.884   -21779.786    1648.8523   -23428.638    273.06543    244.75919 
   95250    109.34543   -1080.0836    89480.077   -21792.201    1636.2085    -23428.41    273.57724    242.88232 
   95300     107.1112    -648.1394    89402.244   -21786.243    1602.7762   -23389.019    273.31597    237.91956 
   95350    106.77674   -418.92715    89468.456   -21818.885    1597.7715   -23416.656    273.45635    237.17665 
   95400    107.36375   -829.86689    89492.496   -21834.095    1606.5554   -23440.651     274.0625    238.48054 
   95450    107.28269   -734.21426    89482.988    -21851.33    1605.3423   -23456.672    273.79967    238.30048 
   95500    108.72735   -645.97835    89459.198   -21882.797    1626.9598   -23509.756     274.0345    241.50942 
   95550    108.43863   -1040.4772    89503.795   -21871.147    1622.6395   -23493.787     274.7332    240.86811 
   95600    108.48101   -626.78257    89502.321   -21875.436    1623.2736    -23498.71    274.46728    240.96224 
   95650    105.82093   -715.63286    89544.718   -21898.513    1583.4691   -23481.982    274.13823    235.05358 
   95700    109.23381    -784.9801    89606.313   -21836.147    1634.5384   -23470.685    274.77094     242.6344 
   95750    107.60993   -670.17736    89672.386   -21889.783     1610.239   -23500.022    275.29054    239.02736 
   95800    107.34289   -602.93214    89696.333   -21907.158    1606.2432   -23513.401    275.64875    238.43421 
   95850    110.07032   -784.13836    89781.213   -21895.753    1647.0556   -23542.809    275.52223    244.49248 
   95900    107.41744   -653.78951    89771.415   -21915.387    1607.3588   -23522.746    275.54918    238.59981 
   95950    105.00699   -1102.5971    89788.463   -21928.265    1571.2895   -23499.554    275.60239    233.24561 
   96000    104.25834   -626.29454      89753.6   -21915.574     1560.087   -23475.661    275.14027    231.58268 
   96050    107.96231   -786.25302    89744.901   -21927.686     1615.512   -23543.198    275.25451    239.81009 
   96100    104.79276   -789.67019    89778.608   -21904.244     1568.084   -23472.328    274.76279    232.76977 
   96150    106.64635   -890.14787    89727.558   -21853.857    1595.8204   -23449.677    274.44038    236.88703 
   96200    108.28929   -965.58148    89692.523   -21835.632    1620.4047   -23456.037    274.62421    240.53638 
   96250    109.48146   -706.88164    89694.645   -21855.618    1638.2441   -23493.862    275.08689    243.18449 
   96300    109.68662   -753.36272     89660.21   -21846.728    1641.3139   -23488.042    274.49808    243.64018 
   96350     105.9467   -884.50828    89711.353    -21845.74     1585.351   -23431.091    274.63311    235.33293 
   96400    107.50938   -1031.9674    89671.647   -21842.038    1608.7345   -23450.773    275.07029    238.80402 
   96450    107.07935   -839.09535    89684.732   -21868.085    1602.2996   -23470.385    275.23825    237.84881 
   96500    106.60662   -1000.5874    89736.982   -21878.448    1595.2259   -23473.674    275.32037    236.79877 
   96550    109.07086   -844.53828    89719.981   -21852.434    1632.0999   -23484.534    275.48902    242.27244 
   96600    102.40789    -500.8396    89761.696   -21879.169    1532.3976   -23411.566    275.90721     227.4724 
   96650    106.74934    -442.7547    89859.875   -21914.859    1597.3615    -23512.22    275.75076    237.11578 
   96700    106.31236   -766.37956    89833.862   -21916.277    1590.8226   -23507.099    275.68552    236.14514 
   96750    104.29573   -824.38178    89872.192   -21960.403    1560.6466    -23521.05    276.64166    231.66574 
   96800    106.05405   -661.62308     89947.33   -21925.832    1586.9574   -23512.789    276.51766    235.57139 
   96850    105.68933   -818.10459    89953.218    -21897.54    1581.4999    -23479.04    276.24552    234.76125 
   96900    105.18466   -571.12905    89935.437   -21879.404    1573.9481   -23453.352    277.03131    233.64026 
   96950    107.44687   -821.13333     89890.46   -21869.153    1607.7992   -23476.952    277.29388    238.66518 
   97000    111.03711   -927.61176    89898.665   -21889.339    1661.5223   -23550.861    277.26371    246.63996 
   97050    111.94515   -904.08428    89934.633   -21821.248    1675.1099   -23496.358    277.75184    248.65692 
   97100    109.04945   -1109.6175    89937.379   -21845.156    1631.7797   -23476.936    277.67269    242.22489 
   97150    109.81613   -1093.3623    89961.045   -21840.435    1643.2519   -23483.687    278.00644    243.92786 
   97200    107.77423   -704.26338    89984.836   -21869.651    1612.6976   -23482.349    278.49361    239.39231 
   97250    109.64956   -928.88047    90005.152   -21845.605    1640.7594   -23486.365    278.64769    243.55787 
   97300    113.52272   -745.47461    89967.272   -21818.427    1698.7161   -23517.143    278.42446    252.16108 
   97350    108.50689   -806.93053    89953.974    -21864.08    1623.6609   -23487.741    278.40338    241.01973 
   97400    108.42369   -837.32172    89953.711   -21874.724     1622.416    -23497.14    278.78239    240.83493 
   97450    108.24066   -919.79356    89952.308   -21914.371    1619.6771   -23534.048    278.68392    240.42837 
   97500    106.86494   -1200.0311    89900.689   -21910.407    1599.0913   -23509.498    278.76569    237.37257 
   97550    105.95736   -886.54417    89846.432   -21885.709    1585.5106   -23471.219    278.97228    235.35661 
   97600    107.30551     -832.449    89872.439   -21873.225    1605.6839   -23478.909    278.77019    238.35119 
   97650    108.46474   -1258.0059    89876.575   -21890.208    1623.0301   -23513.238    278.79324    240.92609 
   97700    108.74559   -943.08952    89956.011    -21882.51    1627.2328   -23509.743      278.977    241.54994 
   97750    107.14164   -665.38318    90043.588   -21895.195    1603.2318   -23498.427    278.90215    237.98718 
   97800    105.11009   -554.09033    90024.188   -21894.409    1572.8323   -23467.242    278.61397    233.47461 
   97850    107.64066   -810.75599    90033.554   -21867.347    1610.6989   -23478.046    278.51938    239.09563 
   97900    106.96331   -641.75887    89983.348   -21897.857    1600.5633    -23498.42    278.42655    237.59107 
   97950    107.97113   -824.91486    89945.771   -21909.751     1615.644   -23525.395    278.76409    239.82968 
   98000    106.29741   -736.75852    89910.629   -21857.873    1590.5989   -23448.472    278.94899    236.11194 
   98050    108.26807   -800.16655    89890.146   -21853.565    1620.0872   -23473.652    279.23122    240.48925 
   98100    107.96443   -835.24475     89894.38   -21840.749    1615.5437   -23456.293    278.94348    239.81479 
   98150    106.12583   -891.12138    89797.318   -21864.264    1588.0315   -23452.295     278.9182    235.73082 
   98200    107.62811     -796.611     89792.31   -21911.102    1610.5112   -23521.613    278.70419    239.06775 
   98250    108.24342   -967.40247    89749.459    -21903.04    1619.7184   -23522.758    278.84183    240.43449 
   98300    109.38559    -610.6448    89777.823   -21934.439    1636.8095   -23571.248    278.64208    242.97154 
   98350     106.1427   -659.77488    89781.445   -21950.997     1588.284   -23539.281    278.74882    235.76831 
   98400    103.81084    -744.8119    89767.343   -21963.909    1553.3908     -23517.3    278.63627    230.58868 
   98450    104.62482   -772.85955    89792.566   -21993.959    1565.5709    -23559.53    278.82046    232.39673 
   98500      106.355   -807.92132    89760.619   -21959.335    1591.4608   -23550.795     278.6286    236.23987 
   98550    106.28053   -851.38913    89696.749   -21944.618    1590.3464   -23534.964    278.82837    236.07445 
   98600    106.78636   -990.81908    89663.444   -21977.801    1597.9155   -23575.716    278.73618    237.19802 
   98650    107.93704   -845.17574    89657.522   -21904.394    1615.1339   -23519.528    278.74965    239.75396 
   98700     104.3974   -810.98172    89594.734   -21956.632    1562.1679     -23518.8    278.86854    231.89158 
   98750    104.43762   -762.14845    89566.596   -21923.051    1562.7697   -23485.821    279.64298     231.9809 
   98800     105.7432   -655.74594    89576.996   -21921.088     1582.306   -23503.394     279.6427    234.88091 
   98850    106.70617   -767.37715    89635.163   -21933.288    1596.7156   -23530.003    280.25271    237.01991 
   98900    104.81666    -838.0851    89634.536   -21948.289    1568.4415   -23516.731     280.3144    232.82284 
   98950    107.55772   -718.06776    89671.472    -21888.76    1609.4578   -23498.218    280.43092    238.91139 
   99000    106.83693   -793.36157    89679.399   -21907.508    1598.6723    -23506.18    279.99413    237.31036 
   99050    107.71307   -663.54462    89668.721   -21946.036    1611.7824   -23557.818    280.27374    239.25646 
   99100    106.95019   -1119.0768    89592.593   -21948.523     1600.367    -23548.89    280.25502    237.56193 
   99150    107.33632   -831.61206    89537.631   -21914.824    1606.1449   -23520.969    279.71434    238.41962 
   99200    109.49238   -622.20534    89520.179    -21929.09    1638.4074   -23567.498     279.5017    243.20873 
   99250    104.65875   -696.08848    89453.508   -21914.299    1566.0786   -23480.378    279.14801    232.47208 
   99300    108.53933   -818.98223    89399.386   -21933.393    1624.1464   -23557.539    279.58256    241.09179 
   99350    104.96996   -701.77533    89348.779   -21950.888    1570.7355   -23521.623    279.31629    233.16337 
   99400    105.78671   -729.14542    89312.369   -21960.202     1582.957   -23543.159    279.14699    234.97755 
   99450    105.88253    -811.1201     89326.69   -21936.948    1584.3908   -23521.339     279.5863     235.1904 
   99500    108.70122   -505.40529    89413.541   -21911.824    1626.5688   -23538.393     279.5323    241.45139 
   99550    111.50703   -312.24276    89498.402   -21887.334    1668.5539   -23555.888    279.83154    247.68375 
   99600    106.52187   -914.48691    89590.794       -21936    1593.9578   -23529.958    280.10675    236.61053 
   99650    105.62286    -688.4137    89589.824   -21928.116    1580.5052   -23508.621    279.77682     234.6136 
   99700    108.74082   -964.40468    89605.286   -21877.588    1627.1613   -23504.749    279.88275    241.53934 
   99750    108.43064   -715.90714    89624.215   -21918.422    1622.5199   -23540.942    279.83763    240.85035 
   99800    107.03646   -654.52553    89726.275   -21852.037    1601.6578   -23453.695    280.07217    237.75355 
   99850    110.61386    -486.4963    89719.373   -21845.721    1655.1889   -23500.909    280.11125    245.69981 
   99900    104.99197   -1036.4161    89669.028   -21867.211    1571.0649   -23438.276    280.10025    233.21226 
   99950    108.07108   -820.10358    89605.755   -21848.314    1617.1397   -23465.454    280.70377     240.0517 
  100000    110.52445   -862.46345    89675.187   -21804.251     1653.851   -23458.102    280.52877    245.50121 
Loop time of 43.4968 on 80 procs for 100000 steps with 5021 atoms

Performance: 993.177 ns/day, 0.024 hours/ns, 2299.022 timesteps/s
100.0% CPU use with 80 MPI tasks x no OpenMP threads

MPI task timing breakdown:
Section |  min time  |  avg time  |  max time  |%varavg| %total
---------------------------------------------------------------
Pair    | 6.1881     | 18.068     | 25.383     | 173.2 | 41.54
Neigh   | 0.46672    | 1.2126     | 3.4274     |  93.9 |  2.79
Comm    | 10.216     | 17.267     | 29.019     | 168.8 | 39.70
Output  | 0.11884    | 0.12298    | 0.28611    |   5.2 |  0.28
Modify  | 4.0056     | 5.9449     | 7.5019     |  40.0 | 13.67
Other   |            | 0.881      |            |       |  2.03

Nlocal:    62.7625 ave 144 max 29 min
Histogram: 47 13 0 0 0 0 0 0 5 15
Nghost:    671.212 ave 841 max 389 min
Histogram: 20 0 0 0 0 0 0 40 0 20
Neighs:    0 ave 0 max 0 min
Histogram: 80 0 0 0 0 0 0 0 0 0
FullNghs:  5942.4 ave 18751 max 1099 min
Histogram: 60 0 0 0 0 0 0 0 0 20

Total # of neighbors = 475392
Ave neighs/atom = 94.6807
Neighbor list builds = 5754
Dangerous builds = 0

write_data		${DIR}/data.eq-${NAME}-${TEMP}
write_data		run_8/data.eq-${NAME}-${TEMP}
write_data		run_8/data.eq-het_freeze_8-${TEMP}
write_data		run_8/data.eq-het_freeze_8-240
undump          1

reset_timestep  0

unfix           2
unfix           3
unfix           4


################################################
#######         Run Simulation         #########
################################################

log				${DIR}/log.run_${NAME}
log				run_8/log.run_${NAME}
log				run_8/log.run_het_freeze_8
