
# Create simulation box and atoms

read_data data.graphite_substrate_500
  orthogonal box = (0 0 -0.518223) to (49.22 49.0196 60.5802)
  4 by 4 by 4 MPI processor grid
  reading atoms ...
  6750 atoms
  reading velocities ...
  6750 velocities
group water type 1
3990 atoms in group water
group graphite type 2
2760 atoms in group graphite

# Define potential

pair_style sw
pair_coeff * * mWC.sw mW C
Reading potential file mWC.sw with DATE: 2019-02-27


# Fix graphite atoms in place

fix 5 graphite setforce 0.0 0.0 0.0
velocity graphite set 0.0 0.0 0.0


# Equilibration of molecular water

# Add velocity/set timestep

velocity	    water create ${TEMP} ${SEED} rot yes dist gaussian
velocity	    water create 225 ${SEED} rot yes dist gaussian
velocity	    water create 225 20253 rot yes dist gaussian
timestep	    5.0

# Define output

compute			1 water msd
compute			3 water temp
thermo	    	50
thermo_style	custom step temp press vol etotal ke pe c_1[4] c_3

# Neighbor lists

neigh_modify    delay 0 every 1 check yes

# Set fixes

fix             1 water momentum 10 linear 1 1 1 rescale
fix             2 water nve
fix             3 water temp/csvr ${TEMP} ${TEMP} 500.0 ${SEED}
fix             3 water temp/csvr 225 ${TEMP} 500.0 ${SEED}
fix             3 water temp/csvr 225 225 500.0 ${SEED}
fix             3 water temp/csvr 225 225 500.0 20253
fix             4 water press/berendsen z ${PRES} ${PRES} 1000.0 modulus 20000
fix             4 water press/berendsen z -500 ${PRES} 1000.0 modulus 20000
fix             4 water press/berendsen z -500 -500 1000.0 modulus 20000

# Run 0.5 ns equilibration

dump		    1 all atom 2000 ${DIR}/eq.${NAME}-${TEMP}.dump
dump		    1 all atom 2000 run_16/eq.${NAME}-${TEMP}.dump
dump		    1 all atom 2000 run_16/eq.het_freeze_16-${TEMP}.dump
dump		    1 all atom 2000 run_16/eq.het_freeze_16-225.dump

reset_timestep  0

run	            100000
Neighbor list info ...
  update every 1 steps, delay 0 steps, check yes
  max neighbors/atom: 2000, page size: 100000
  master list distance cutoff = 7.76
  ghost atom cutoff = 7.76
  binsize = 3.88, bins = 13 13 16
  1 neighbor lists, perpetual/occasional/extra = 1 0 0
  (1) pair sw, perpetual
      attributes: full, newton on
      pair build: full/bin/atomonly
      stencil: full/bin/3d
      bin: standard
Per MPI rank memory allocation (min/avg/max) = 4.083 | 4.203 | 4.508 Mbytes
Step Temp Press Volume TotEng KinEng PotEng c_1[4] c_3 
       0    132.98637   -1273.0418    147415.06    -35990.25    2675.3515   -38665.602            0          225 
      50    175.40247   -1313.8403    146864.24   -36419.379     3528.657   -39948.036   0.84984515    296.76393 
     100    167.52814   -1350.8847    146526.48   -36791.314    3370.2452   -40161.559    1.8950458    283.44132 
     150    160.72762   -1222.3183    146029.51   -37110.826    3233.4359   -40344.262    2.7340633     271.9355 
     200    159.18135   -844.05919    145632.25    -37395.71    3202.3288   -40598.039    3.4813745    269.31937 
     250    153.37925   -1075.5002    145423.05   -37610.307    3085.6051   -40695.912    4.1658328    259.50277 
     300    150.83498   -1026.1783    145144.11   -37779.114    3034.4208   -40813.535    4.8284819    255.19812 
     350    150.82173   -1226.2795    144864.92   -37961.257    3034.1542   -40995.411    5.4185047     255.1757 
     400    145.85853   -1037.4964    144609.77   -38136.084    2934.3072   -41070.391    6.0610434    246.77845 
     450    144.05067   -1043.5233    144385.78   -38237.506    2897.9376   -41135.443    6.6930257    243.71973 
     500    145.98256   -1267.8541     144169.3    -38375.05    2936.8022   -41311.852    7.1885795    246.98828 
     550    143.53656   -885.20767    144048.81   -38426.475    2887.5948    -41314.07    7.6920213    242.84989 
     600    142.76086   -941.16336    143956.89   -38533.751    2871.9897   -41405.741    8.1440164    241.53749 
     650    142.77886   -1068.2739    143865.16   -38619.726    2872.3519   -41492.078    8.6166998    241.56795 
     700     140.7908   -794.93652    143684.55   -38647.933    2832.3571    -41480.29    9.0290683    238.20434 
     750    139.93487   -808.83989     143502.6   -38744.254    2815.1379   -41559.392    9.4324027    236.75619 
     800    142.16179   -922.88921     143388.9   -38780.735     2859.938   -41640.673    9.8591005    240.52392 
     850    139.77026   -668.46499    143310.59   -38806.041    2811.8264   -41617.867    10.230278    236.47768 
     900    136.56743   -705.82554     143163.6   -38914.788    2747.3934   -41662.182    10.490134     231.0588 
     950    139.03125   -684.85983    143098.23   -38926.681    2796.9594    -41723.64    10.781617    235.22736 
    1000    137.05076   -610.25115    143043.16   -39064.218    2757.1168   -41821.335    11.148961    231.87655 
    1050    137.06091   -768.47836    143052.27   -39098.387    2757.3211   -41855.708    11.522749    231.89373 
    1100    135.93115   -814.06781    143022.96   -39172.505    2734.5932   -41907.098    11.890584    229.98229 
    1150    136.52784   -758.28166    142929.88   -39151.204     2746.597   -41897.801    12.235943    230.99182 
    1200    135.04224   -549.96217    142931.22   -39199.134    2716.7104   -41915.844    12.521666    228.47833 
    1250     135.0812   -571.27624    142911.18   -39283.127    2717.4944   -42000.621    12.791166    228.54426 
    1300    135.72251   -865.71063    142741.65   -39288.033    2730.3958   -42018.429    12.966919    229.62929 
    1350    136.45705   -875.90235    142685.95   -39259.889    2745.1729   -42005.061    13.214724    230.87205 
    1400    132.90583   -733.08506    142624.31   -39306.618    2673.7314   -41980.349    13.431596    224.86374 
    1450    136.36686   -801.75728     142573.6   -39296.701    2743.3585   -42040.059    13.702108    230.71946 
    1500    135.11093   -603.27739    142625.88   -39278.339    2718.0923   -41996.431    13.880255    228.59454 
    1550    131.52568   -700.31995    142654.19   -39323.024    2645.9662    -41968.99    14.123338    222.52866 
    1600    133.25951   -796.03669    142605.43   -39318.641    2680.8465   -41999.488    14.398628    225.46214 
    1650    132.55635   -712.85687    142544.77   -39288.161    2666.7006   -41954.861    14.733116    224.27245 
    1700      135.842   -610.90231    142614.14   -39323.398    2732.7998   -42056.198    14.944715    229.83146 
    1750    133.59747   -792.66714    142616.61   -39317.432    2687.6454   -42005.077    15.100536    226.03393 
    1800    134.59495   -520.44648    142684.26   -39321.441    2707.7122   -42029.153    15.221961    227.72157 
    1850     134.5559   -623.16418    142711.35   -39339.556    2706.9266   -42046.483    15.433838     227.6555 
    1900    132.17872   -766.82168    142719.17   -39344.958    2659.1037   -42004.062    15.651055    223.63354 
    1950    132.17306    -701.4775    142746.02   -39396.922    2658.9898   -42055.912    15.920244    223.62396 
    2000    133.96554   -685.21286    142695.45   -39403.965    2695.0501   -42099.015    16.101724    226.65667 
    2050    130.97678   -649.55929    142739.94   -39421.916    2634.9237   -42056.839    16.299941    221.59997 
    2100    134.59269   -656.85454    142748.58   -39426.548    2707.6668   -42134.215     16.53118    227.71775 
    2150    133.50415   -783.92644    142737.64   -39436.353     2685.768   -42122.121    16.824008    225.87604 
    2200    135.64809   -686.12745    142715.85   -39413.832    2728.8986    -42142.73    17.047054    229.50337 
    2250    136.48227   -563.67314    142765.28   -39415.447    2745.6804   -42161.127    17.244709    230.91473 
    2300    134.85198   -784.02413    142689.71   -39452.926     2712.883   -42165.809    17.552811    228.15644 
    2350    132.66114   -343.46108    142701.79   -39459.969    2668.8087   -42128.778    17.689517    224.44974 
    2400    134.35099    -585.7447    142733.99   -39439.244    2702.8043   -42142.048    17.849659    227.30881 
    2450    133.93279    -772.1034    142688.11   -39443.309    2694.3912     -42137.7    18.020342    226.60125 
    2500    134.37667   -707.48987    142620.09   -39499.864    2703.3209   -42203.185    18.333512    227.35225 
    2550    134.55932   -596.35407    142615.23   -39513.235    2706.9953   -42220.231    18.667359    227.66128 
    2600    131.08715   -681.79916    142689.04    -39476.69    2637.1441   -42113.834    18.737584    221.78671 
    2650    136.28419   -701.17113    142655.08   -39449.649    2741.6953   -42191.344    18.900227    230.57959 
    2700    134.72109    -434.4694    142727.74   -39420.525    2710.2497   -42130.774    19.031424    227.93497 
    2750    133.03218   -577.24408    142814.37   -39444.664    2676.2731   -42120.937    19.286573    225.07751 
    2800    135.64855   -819.91843    142817.37   -39427.576    2728.9079   -42156.484    19.521381    229.50415 
    2850      135.744   -490.98808    142827.18   -39410.631    2730.8282   -42141.459    19.665124    229.66565 
    2900    133.38751   -702.12122    142915.02   -39449.881    2683.4214   -42133.303    20.015007    225.67869 
    2950    136.36906   -560.22239    142929.46   -39460.837    2743.4028    -42204.24    20.351811    230.72319 
    3000    131.54453   -634.80524    143003.62   -39526.914    2646.3454    -42173.26    20.606582    222.56056 
    3050    132.64347   -481.25947    143024.14   -39500.145    2668.4533   -42168.599    20.753367    224.41985 
    3100    133.99815   -637.13702    143006.52   -39492.127    2695.7061   -42187.833    21.086331    226.71184 
    3150     134.2998   -831.11139    142866.03   -39478.999    2701.7746   -42180.773    21.329848     227.2222 
    3200    134.19696   -756.99848     142799.3   -39516.934    2699.7057    -42216.64    21.464594    227.04821 
    3250    135.95496   -615.77072    142808.73   -39424.812    2735.0721   -42159.884    21.642882    230.02257 
    3300    135.52482   -434.15247    142861.86   -39458.463    2726.4187   -42184.882    21.875438    229.29481 
    3350    132.57398   -704.69583     142874.5    -39490.53    2667.0554   -42157.586    22.098678    224.30229 
    3400    135.53823   -718.60235     142878.5   -39478.238    2726.6886   -42204.926    22.279063     229.3175 
    3450    135.58787   -586.82629    142861.72   -39516.983    2727.6871    -42244.67    22.426177    229.40148 
    3500    133.25407   -641.96499    142871.74   -39533.369    2680.7369   -42214.106    22.401975    225.45292 
    3550    132.37943   -705.66022    142900.88   -39538.695    2663.1415   -42201.837    22.575599    223.97312 
    3600    134.27605   -577.41361    142793.35   -39565.981    2701.2967   -42267.277    22.706629    227.18202 
    3650    131.92807    -676.3613    142799.97   -39571.104    2654.0613   -42225.166    22.711343    223.20947 
    3700    131.86962   -659.38161    142823.05   -39561.148    2652.8854   -42214.033    22.936782    223.11057 
    3750    133.87087    -698.4092    142805.89   -39541.195    2693.1455    -42234.34    23.208296    226.49649 
    3800    132.82814   -852.57202    142744.75   -39515.012    2672.1683   -42187.181     23.48491    224.73229 
    3850    134.14834   -531.60899    142752.51   -39524.612    2698.7274    -42223.34    23.817996    226.96594 
    3900    136.27617   -799.78177     142714.8   -39470.661    2741.5341   -42212.196    24.103827    230.56603 
    3950     134.4501   -694.54958    142711.03   -39449.884    2704.7981   -42154.682    24.390448    227.47649 
    4000    134.40156   -612.30957    142665.06   -39449.306    2703.8216   -42153.127    24.706902    227.39436 
    4050    134.98442    -589.2583    142611.36   -39462.473    2715.5473    -42178.02    24.864498     228.3805 
    4100    133.04527   -751.67282    142571.26   -39464.134    2676.5365   -42140.671    24.999934    225.09966 
    4150    132.69381   -670.37406    142544.19   -39523.595     2669.466   -42193.061    25.269723    224.50502 
    4200    134.92855   -474.05948    142596.93   -39536.081    2714.4233   -42250.504    25.341754    228.28598 
    4250     131.5387   -348.79097    142763.28   -39513.853     2646.228   -42160.081    25.601353    222.55068 
    4300     130.3252   -672.89951    142802.95   -39488.914    2621.8155   -42110.729     25.95124    220.49756 
    4350    129.51894   -741.50027    142766.56   -39522.337    2605.5956   -42127.932    26.160534    219.13345 
    4400    132.30491   -799.95196    142747.65   -39536.499    2661.6423   -42198.141    26.149402    223.84704 
    4450    133.13253   -839.34789    142691.81   -39546.346    2678.2919   -42224.638    26.366673    225.24729 
    4500    130.89313   -805.22025    142553.19   -39580.739    2633.2408    -42213.98    26.694856    221.45844 
    4550    130.86518   -653.49856    142571.26   -39568.829    2632.6786   -42201.508    26.788107    221.41116 
    4600    134.46432   -923.10758    142495.08   -39587.773    2705.0842   -42292.857    27.113389    227.50055 
    4650    132.06188    -589.4221     142409.4   -39582.755    2656.7531   -42239.508    27.330826    223.43585 
    4700     132.9634   -517.80891    142408.41   -39570.805    2674.8895   -42245.694    27.602982    224.96115 
    4750    132.68956   -595.84382    142384.34   -39573.397    2669.3805   -42242.777    27.753445    224.49783 
    4800    132.41392   -638.45516     142367.4   -39599.127    2663.8353   -42262.962    27.980946    224.03147 
    4850    133.00378   -745.10181    142341.39   -39564.507    2675.7017   -42240.209    28.176336    225.02945 
    4900    136.91759   -631.49056    142379.88   -39527.539    2754.4379   -42281.977    28.393418    231.65125 
    4950    132.28069   -589.27731    142426.07    -39505.06    2661.1551   -42166.215    28.565756    223.80606 
    5000    132.42555   -564.78617       142476    -39548.46    2664.0692   -42212.529    28.647244    224.05115 
    5050    132.44021   -626.60419    142578.49   -39580.296    2664.3641    -42244.66    28.693339    224.07595 
    5100    134.07136   -647.87394    142658.81   -39599.278    2697.1788   -42296.457    28.783509     226.8357 
    5150    134.58629   -622.91804    142668.93   -39571.211    2707.5379   -42278.749     28.93472    227.70691 
    5200     133.8369   -651.00422    142684.04   -39608.556    2692.4621   -42301.018     29.14081    226.43902 
    5250    132.88657   -664.65418    142766.95    -39611.73    2673.3439   -42285.074    29.273925    224.83115 
    5300    133.62594   -746.53754    142808.37   -39551.266    2688.2181   -42239.484    29.399153    226.08209 
    5350    134.60495   -708.00593    142856.41   -39532.402    2707.9134   -42240.315     29.60226    227.73849 
    5400    132.69183   -654.99411    142867.69   -39494.466    2669.4261   -42163.892    29.859919    224.50167 
    5450    134.87904   -708.86699    142846.62   -39489.051    2713.4273   -42202.478     30.08928    228.20222 
    5500     135.1146   -677.99481    142722.64   -39501.232    2718.1662   -42219.398    30.418195    228.60076 
    5550    134.27689   -494.99055    142715.47     -39485.9    2701.3136   -42187.213    30.651859    227.18344 
    5600    136.71265   -533.31916     142674.7   -39517.431     2750.315   -42267.746    30.807979    231.30451 
    5650    133.88319   -708.45027    142654.73    -39548.12    2693.3932   -42241.514      31.1085    226.51733 
    5700     134.8705   -723.13677    142667.38   -39564.823    2713.2556   -42278.078    31.190974    228.18777 
    5750    133.28109   -473.64687    142651.82   -39592.042    2681.2806   -42273.322    31.395318    225.49864 
    5800    131.95605    -604.3843    142722.84   -39601.474    2654.6241   -42256.098    31.625484     223.2568 
    5850    133.13435   -754.34498    142706.58   -39578.461    2678.3286    -42256.79    31.868973    225.25038 
    5900    134.72868   -686.99384    142676.28   -39555.794    2710.4025   -42266.196    32.175418    227.94783 
    5950    130.78119   -496.21431    142676.17   -39575.904    2630.9889   -42206.893    32.345863    221.26905 
    6000    134.62132   -531.78634    142665.22   -39569.537    2708.2427    -42277.78    32.420856    227.76618 
    6050    131.65644   -636.87169    142700.08    -39559.04    2648.5968   -42207.637    32.725967    222.74989 
    6100    135.05503   -646.90553    142680.56    -39569.54    2716.9679   -42286.508    32.758259    228.49998 
    6150    131.06465   -844.71955    142621.14   -39618.653    2636.6913   -42255.345    33.080024    221.74864 
    6200    129.59597   -645.11695     142614.1   -39645.456    2607.1452   -42252.601    33.210326    219.26377 
    6250      133.604   -652.70123    142662.59   -39626.371    2687.7767   -42314.148    33.335339    226.04497 
    6300    132.40062   -713.15516     142609.2   -39623.666    2663.5678   -42287.234    33.568911    224.00898 
    6350    132.43742    -704.9857    142535.73   -39661.115    2664.3081   -42325.423    33.615893    224.07123 
    6400    133.30137    -505.9006    142599.92   -39677.128    2681.6887   -42358.817    33.859765    225.53296 
    6450    132.60855   -502.94213    142656.68   -39644.129    2667.7508   -42311.879    33.944814    224.36077 
    6500    135.23725   -528.53783    142720.32   -39601.659    2720.6336   -42322.293    34.001875    228.80827 
    6550     133.5128   -639.14522    142770.25   -39592.866     2685.942   -42278.808    34.062768    225.89067 
    6600    132.06594   -497.45115    142804.87   -39562.183    2656.8349   -42219.018     34.11544    223.44273 
    6650    134.58026   -762.14054     142762.9   -39529.978    2707.4166   -42237.395    34.406005    227.69671 
    6700    134.47519   -670.98791    142731.69   -39559.713    2705.3029   -42265.016    34.796774    227.51895 
    6750    133.64752    -646.0016    142711.15   -39516.047    2688.6523   -42204.699     35.05207    226.11861 
    6800    134.20031   -425.10035    142708.57   -39514.182    2699.7731   -42213.956    35.156646    227.05388 
    6850    131.61388   -637.96088    142723.06   -39561.377    2647.7406   -42209.118    35.411349    222.67789 
    6900    132.79292   -530.73914    142730.99   -39618.264    2671.4599   -42289.724    35.604864    224.67271 
    6950     130.3834   -598.97668     142752.1   -39627.164    2622.9863    -42250.15    35.809885    220.59603 
    7000    130.55791    -643.5419    142809.75   -39621.079    2626.4971   -42247.576    36.084256    220.89129 
    7050    131.35979   -817.54704    142808.88   -39649.308    2642.6289   -42291.937    36.193781    222.24799 
    7100    133.90978    -404.0075    142839.62   -39553.435    2693.9282   -42247.363    36.337685    226.56232 
    7150    133.20246   -772.02682    142853.74   -39589.218    2679.6988   -42268.917    36.480943    225.36561 
    7200    133.25119   -572.43517    142827.01   -39619.098    2680.6791   -42299.777    36.710029    225.44805 
    7250      129.844   -730.56003    142782.21   -39685.274    2612.1349   -42297.409    36.896417    219.68341 
    7300    130.60868   -696.16902    142712.17   -39650.291    2627.5185   -42277.809    37.114424    220.97719 
    7350    135.16332   -762.79709    142711.63   -39615.742    2719.1463   -42334.888    37.257705    228.68319 
    7400    132.85413   -539.51511    142699.62   -39649.453    2672.6913   -42322.144    37.378396    224.77627 
    7450    129.71871   -579.39817    142759.23   -39685.224    2609.6145   -42294.839     37.55902    219.47144 
    7500    128.72377    -713.9674    142706.83   -39656.457    2589.5987   -42246.056    37.795851     217.7881 
    7550    130.78132   -813.01741    142748.77   -39641.071    2630.9915   -42272.062    37.922682    221.26927 
    7600    130.23264   -556.97598    142796.82   -39643.989    2619.9534   -42263.943    38.071742    220.34096 
    7650    135.12095   -630.53857    142813.84   -39624.878     2718.294   -42343.172    38.317568    228.61151 
    7700    133.23157   -442.95957    142832.44   -39591.225    2680.2844   -42271.509    38.420376    225.41486 
    7750     134.8924   -523.48686    142893.99   -39604.554     2713.696   -42318.251    38.314171    228.22481 
    7800    132.99675   -720.06472    142866.17   -39609.155    2675.5605   -42284.715    38.724382    225.01757 
    7850    131.96074   -699.39451    142821.72   -39639.145    2654.7186   -42293.863    39.090555    223.26474 
    7900    130.88224   -768.48928    142813.45   -39592.422    2633.0219   -42225.444    39.295626    221.44003 
    7950    132.33373   -753.44042    142779.94   -39586.843     2662.222   -42249.065    39.725418    223.89579 
    8000    134.75066   -858.61283    142771.05   -39553.123    2710.8448   -42263.968    40.046336    227.98502 
    8050    132.79227   -626.85483    142758.03   -39537.236    2671.4468   -42208.683    40.205538     224.6716 
    8100    134.69052   -844.65751    142720.53   -39561.012    2709.6348   -42270.646    40.278296    227.88326 
    8150     133.9075   -692.25957    142727.24   -39557.542    2693.8825   -42251.424    40.466716    226.55847 
    8200    132.29793   -688.33087       142779   -39569.072    2661.5018   -42230.574    40.601287    223.83522 
    8250    133.16016   -748.08928    142770.79   -39546.948    2678.8477   -42225.796    40.775452    225.29403 
    8300    133.74552   -904.38409    142727.23   -39553.535    2690.6238   -42244.159    41.000242    226.28442 
    8350     132.4891     -632.301    142705.22    -39525.65    2665.3478   -42190.997     41.43175    224.15867 
    8400    133.83317   -663.66327    142769.25   -39531.361     2692.387   -42223.748    41.643107     226.4327 
    8450    130.80844   -591.64708    142781.31    -39599.27    2631.5372   -42230.807    41.802286    221.31516 
    8500    130.44151   -622.09149    142876.29   -39596.812    2624.1553   -42220.967     42.13536    220.69434 
    8550     133.2528   -454.57283    142961.52   -39551.443    2680.7115   -42232.155    42.305723    225.45078 
    8600    133.16669   -434.34559    143004.85   -39544.643    2678.9791   -42223.623    42.553271    225.30508 
    8650    132.11306   -786.98185     143069.2   -39558.152    2657.7827   -42215.935    42.758215    223.52244 
    8700    135.41609    -590.1364    143105.92   -39561.541    2724.2313   -42285.772    42.671344    229.11084 
    8750    134.77389   -685.51944    143157.92   -39516.702    2711.3119   -42228.014    42.583755    228.02431 
    8800    136.06768   -448.39675    143190.16   -39535.926    2737.3399   -42273.266    42.738838    230.21329 
    8850    135.62225   -470.93082    143278.26   -39529.236    2728.3789   -42257.614    42.961962    229.45966 
    8900    134.32869   -631.55924    143331.97   -39636.256    2702.3557   -42338.612     43.04757    227.27108 
    8950    134.71444   -745.68546    143356.06   -39664.442    2710.1161   -42374.558    43.188162    227.92374 
    9000    130.93724   -680.97742    143309.18   -39691.085    2634.1282   -42325.213    43.411915    221.53307 
    9050    131.65703   -634.49274    143372.38   -39592.005    2648.6086   -42240.614    43.570583    222.75089 
    9100    134.50372   -776.86731     143382.5   -39613.871    2705.8768   -42319.748    43.855928    227.56721 
    9150    132.26836   -747.53538    143409.59   -39635.968    2660.9069   -42296.875     44.14924    223.78519 
    9200    131.74926   -799.46555    143480.05    -39682.77     2650.464   -42333.234    44.257105    222.90693 
    9250    131.95976   -920.36787    143391.22   -39681.919    2654.6988   -42336.618    44.625467    223.26308 
    9300    133.41603    -666.8177    143336.88   -39725.429    2683.9952   -42409.424    44.889091    225.72694 
    9350     133.9025   -738.58584    143334.75   -39711.619    2693.7818   -42405.401    45.097174       226.55 
    9400    128.65858   -760.94523    143249.12   -39706.424    2588.2874   -42294.711    45.593967    217.67781 
    9450    129.61918   -662.75258    143163.63   -39724.242    2607.6122   -42331.854    45.861069    219.30304 
    9500     132.5931    -632.7799     143108.2   -39703.977      2667.44   -42371.417    46.043556    224.33463 
    9550    131.60937   -580.42519    143137.97    -39685.06    2647.6497   -42332.709    46.159697    222.67025 
    9600    131.74091   -685.23486    143154.17   -39660.133     2650.296   -42310.429    46.392731     222.8928 
    9650    134.21538   -645.73938    143163.98   -39682.928    2700.0762   -42383.004     46.69236    227.07937 
    9700    130.78285   -608.32997    143234.26   -39714.469    2631.0223   -42345.491    46.797911    221.27187 
    9750    130.95524    -517.9894    143221.35    -39747.86    2634.4903   -42382.351    46.732251    221.56353 
    9800    129.76982   -506.54237    143279.44   -39721.996    2610.6426   -42332.639     46.92395     219.5579 
    9850    134.63261   -664.21299    143372.04   -39650.421    2708.4697   -42358.891    46.941789    227.78527 
    9900    133.36322    -583.9481    143375.74   -39632.661    2682.9329   -42315.593    47.162268     225.6376 
    9950    132.72161   -767.05966    143425.04   -39638.954    2670.0253    -42308.98    47.287117    224.55206 
   10000    130.25782   -625.12529     143386.7    -39648.95    2620.4599    -42269.41    47.334065    220.38355 
   10050    132.83193   -563.79038    143370.34   -39664.843    2672.2447   -42337.088    47.517838    224.73871 
   10100    131.75704   -473.16044    143372.03   -39632.449    2650.6205    -42283.07    47.720852    222.92009 
   10150    132.15602   -669.99672    143408.94   -39636.949    2658.6471   -42295.596    47.918042    223.59514 
   10200     132.0303   -746.53958    143427.64   -39684.629    2656.1178   -42340.747    48.202677    223.38243 
   10250    129.76047   -884.62886    143368.34    -39688.52    2610.4545   -42298.974    48.546407    219.54209 
   10300    136.23897   -596.20351    143382.22   -39636.395    2740.7857   -42377.181    48.743839    230.50308 
   10350    135.17995   -653.81861     143413.6   -39646.011     2719.481   -42365.492    48.877421    228.71133 
   10400      133.052   -609.40682    143457.55   -39669.195     2676.672   -42345.867    49.049618    225.11105 
   10450    132.49806    -545.0206     143400.4   -39644.549    2665.5281   -42310.077    49.219992    224.17384 
   10500     132.6432   -655.19229    143403.77   -39689.149    2668.4479   -42357.597    49.300128    224.41939 
   10550     132.3565   -647.66143    143277.97   -39709.731    2662.6801   -42372.411    49.403751    223.93432 
   10600    133.50389   -771.67964    143263.09   -39683.291    2685.7629   -42369.054    49.493651     225.8756 
   10650    131.93644   -766.51158    143296.97   -39705.607    2654.2296   -42359.837    49.446979    223.22362 
   10700    130.29124   -842.12134    143158.13   -39756.671    2621.1324   -42377.803    49.660117    220.44011 
   10750    130.46573   -745.65851    143125.75   -39768.959    2624.6426   -42393.601    49.810441    220.73532 
   10800     129.8335   -785.07373    143047.43   -39703.687    2611.9237   -42315.611    50.006043    219.66565 
   10850    133.05003   -783.08237    143039.93    -39682.75    2676.6323   -42359.382    50.329346    225.10772 
   10900    132.14259   -867.63992    143054.67   -39684.319    2658.3768   -42342.696    50.236129    223.57241 
   10950    131.34998   -793.57604    143046.83   -39673.052    2642.4315   -42315.484    50.434686    222.23139 
   11000    130.59308   -704.37858    143006.07   -39641.199    2627.2047   -42268.404    50.766559    220.95079 
   11050    132.93317   -749.82346    142986.36   -39646.511    2674.2814   -42320.792    50.720209       224.91 
   11100     133.5177   -606.33529    143007.75    -39617.23    2686.0405   -42303.271    51.109086    225.89895 
   11150    133.91031   -595.71638    143086.65   -39631.526     2693.939   -42325.465    51.189852    226.56322 
   11200    132.40577   -490.08913    143119.48   -39627.388    2663.6713   -42291.059    51.077413    224.01768 
   11250    135.01879    -693.3874    143173.24   -39646.793    2716.2389   -42363.032    51.368901    228.43867 
   11300    132.81859    -910.6465    143235.15   -39610.062    2671.9763   -42282.038    51.740874    224.71614 
   11350    131.55052   -662.07876    143237.67   -39644.432    2646.4659   -42290.898    51.988185    222.57069 
   11400    132.09641   -839.75595    143198.64   -39627.067    2657.4479   -42284.515    52.110014    223.49429 
   11450    133.26637   -630.35181    143201.33   -39620.716    2680.9844     -42301.7    52.215217    225.47373 
   11500    132.14376   -710.55751    143253.73   -39635.295    2658.4004   -42293.696    52.214401    223.57439 
   11550    133.17688   -697.68875    143258.52   -39635.323    2679.1841   -42314.508    52.421229    225.32232 
   11600    132.29975   -647.91897    143258.87   -39647.549    2661.5386   -42309.087     52.47445    223.83831 
   11650    135.22247    -470.7295    143345.33   -39591.964    2720.3363     -42312.3    52.746234    228.78326 
   11700    133.71411   -673.95009    143409.79   -39612.673    2689.9919   -42302.665    52.889509    226.23127 
   11750    135.56392   -755.05197     143432.4   -39606.644    2727.2054   -42333.849    53.073387    229.36097 
   11800    135.79653   -760.74056    143408.36   -39633.437     2731.885   -42365.322    53.375459    229.75453 
   11850    136.94441   -611.54399    143402.06   -39621.499    2754.9774   -42376.476     53.74195    231.69663 
   11900    134.09115   -743.74648    143454.15   -39641.669    2697.5771   -42339.246    53.885608    226.86919 
   11950    135.35288   -339.43068     143492.6   -39624.309    2722.9597   -42347.269    53.962812     229.0039 
   12000    137.76584   -635.44639    143517.93     -39634.8    2771.5026   -42406.303    54.105774    233.08641 
   12050     133.4611   -576.31791    143555.99   -39667.419    2684.9019   -42352.321    54.317803     225.8032 
   12100    130.97532   -763.36943    143585.49   -39675.613    2634.8943   -42310.507    54.739194     221.5975 
   12150    134.92148   -715.06463    143515.06   -39612.818    2714.2812   -42327.099    54.618552    228.27403 
   12200    134.42108   -543.73933    143492.89   -39618.525    2704.2144   -42322.739    54.788553     227.4274 
   12250    135.09796   -461.83749    143506.59   -39572.515    2717.8315   -42290.346    55.074283    228.57261 
   12300    133.18899   -680.49345    143530.76   -39582.544    2679.4279   -42261.972    55.405707    225.34282 
   12350    133.47106   -709.34865    143498.35   -39605.991    2685.1023   -42291.094    55.617494    225.82005 
   12400    134.67518   -534.76399    143526.93   -39570.722    2709.3262   -42280.049    55.830156     227.8573 
   12450    133.60619   -630.03867    143620.09   -39615.236    2687.8207   -42303.057    56.055843    226.04867 
   12500    131.03261   -631.56891    143649.57   -39624.172    2636.0469   -42260.219    55.981778    221.69443 
   12550    132.78633    -727.0819    143563.91   -39658.339    2671.3273   -42329.666    55.981326    224.66156 
   12600    134.32075   -697.20049    143575.35    -39584.92     2702.196   -42287.116    56.088998    227.25765 
   12650    133.51659   -745.16638    143562.64   -39547.348    2686.0182   -42233.366     56.12968    225.89708 
   12700    136.83951   -606.05387    143577.16   -39546.828    2752.8671   -42299.695    56.192257    231.51914 
   12750    133.30287   -510.32867    143540.09   -39578.643    2681.7187   -42260.361    56.302357    225.53549 
   12800    134.49956   -805.91881    143499.21   -39568.261    2705.7932   -42274.055    56.198061    227.56018 
   12850    131.42106   -829.44866    143471.12   -39564.079    2643.8616   -42207.941    56.486585    222.35166 
   12900     130.8113   -720.64534    143455.97   -39586.292    2631.5946   -42217.887    56.775116    221.31999 
   12950     135.3365   -650.72551    143351.11     -39545.5    2722.6302    -42268.13    57.049003    228.97619 
   13000    136.08187   -648.00548    143303.33   -39522.375    2737.6252       -42260    57.403907    230.23728 
   13050    138.05352   -794.05857    143263.67   -39578.596    2777.2898   -42355.886    57.515355    233.57312 
   13100    133.23137   -585.92754    143230.22   -39598.353    2680.2803   -42278.634    57.551496    225.41451 
   13150    134.44092   -731.73087    143298.19   -39595.155    2704.6136   -42299.769    57.665068    227.46097 
   13200    133.58041   -851.98061    143241.04   -39617.752    2687.3022   -42305.054    57.944386    226.00506 
   13250    131.58401   -800.37417    143149.88    -39624.47    2647.1397   -42271.609    58.281424    222.62735 
   13300    133.45579   -832.77854    143071.21    -39639.69    2684.7952   -42324.485    58.819225    225.79422 
   13350    132.45896   -804.12314    143049.87   -39648.275    2664.7414   -42313.017    58.987147    224.10767 
   13400    129.86032   -774.85356    143028.86   -39657.726    2612.4633   -42270.189    59.362095    219.71103 
   13450    131.34762   -778.37558    143065.31   -39626.098    2642.3841   -42268.482    59.630594     222.2274 
   13500    133.53388   -750.47569    143133.09   -39624.275    2686.3661   -42310.641    59.876581    225.92634 
   13550    133.22165   -823.05578    143143.82   -39619.494    2680.0848   -42299.579    60.205187    225.39807 
   13600    134.36419   -770.54703    143101.08   -39604.102    2703.0698   -42307.172    60.371941    227.33114 
   13650    133.71038   -821.98902    143064.03   -39593.558    2689.9169   -42283.475    60.676564    226.22496 
   13700    132.32571   -661.24283     143081.1   -39573.664    2662.0608   -42235.725    60.999733    223.88224 
   13750    134.33041    -698.7074    143094.03   -39564.831    2702.3902   -42267.221    60.999919    227.27398 
   13800    132.92767   -829.43277    143117.37   -39594.454    2674.1707   -42268.625    61.373011    224.90069 
   13850    133.52057   -573.55423    143165.02    -39589.32    2686.0983   -42275.419    61.743604    225.90382 
   13900    133.50773   -555.65086    143148.04   -39555.152    2685.8401   -42240.992    61.946428     225.8821 
   13950    135.61275   -573.57252    143254.29   -39586.065    2728.1878   -42314.253    62.029235    229.44359 
   14000    132.76539   -617.98089    143346.67   -39624.749    2670.9061   -42295.655    61.997585    224.62613 
   14050    131.76795   -828.74586    143340.23   -39612.207      2650.84   -42263.047     62.08682    222.93856 
   14100    131.90271   -749.88152    143309.89   -39669.494    2653.5512   -42323.045    62.306484    223.16656 
   14150    129.99243   -618.58195    143288.44   -39671.674    2615.1209   -42286.795    62.416106    219.93454 
   14200    132.51888   -859.13792    143269.55   -39649.488    2665.9469   -42315.435    62.764298    224.20906 
   14250    131.15439   -494.44658    143240.47   -39654.807    2638.4967   -42293.303    62.999053    221.90046 
   14300    131.08788   -926.91329     143255.2    -39664.97    2637.1588   -42302.129    63.266048    221.78795 
   14350    130.26809   -768.30093    143226.28   -39685.936    2620.6665   -42306.602    63.761502    220.40093 
   14400     130.5453   -706.99956    143248.26    -39715.82    2626.2434   -42342.063    63.711484    220.86995 
   14450    134.06095   -748.27483    143278.71   -39721.348    2696.9693   -42418.317    63.657403    226.81808 
   14500    132.52883   -788.58711    143246.01   -39740.615     2666.147   -42406.762    63.878621    224.22589 
   14550    129.42652   -537.52404    143236.79   -39725.658    2603.7364   -42329.395    64.017384    218.97709 
   14600    130.83003   -719.80986    143233.13   -39691.319    2631.9714    -42323.29    64.028473    221.35169 
   14650    134.15029   -911.64069    143174.63   -39681.665    2698.7666   -42380.431    64.339768    226.96924 
   14700    132.87429   -801.31717    143158.57   -39700.777    2673.0967   -42373.874    64.617539    224.81037 
   14750    131.84987    -710.2113    143112.12   -39719.029    2652.4881   -42371.517     64.78082    223.07716 
   14800    132.11378   -895.57243    143073.05   -39702.106    2657.7973   -42359.903    64.986619    223.52367 
   14850    133.42958   -756.26456    143016.37   -39682.525    2684.2679   -42366.793    64.926886    225.74987 
   14900    131.30915   -686.12144    143038.09   -39661.973    2641.6101   -42303.583    64.896562     222.1623 
   14950    131.25632   -790.19556     143007.6   -39677.078    2640.5473   -42317.626    64.781342    222.07292 
   15000    130.41494   -748.69838    142952.75   -39666.637    2623.6208   -42290.258     64.98569    220.64939 
   15050    133.34624   -640.10585    142982.35   -39653.782    2682.5913   -42336.373    65.208782    225.60887 
   15100    132.68484   -810.79637    143026.48   -39660.321    2669.2855   -42329.606    65.377801    224.48984 
   15150    133.01937   -586.35022    143033.38   -39634.595    2676.0154   -42310.611     65.62125    225.05583 
   15200    133.86519   -465.15683    143056.66    -39633.72    2693.0312   -42326.752    65.594476    226.48688 
   15250    133.36298   -629.07979    143096.54   -39615.697     2682.928   -42298.625     65.68103    225.63719 
   15300    133.65887   -679.54817     143061.4   -39584.768    2688.8806   -42273.649    65.731601    226.13781 
   15350    136.68734   -604.55082    143133.39   -39579.985    2749.8057    -42329.79     65.62528    231.26168 
   15400    132.44288   -818.23742    143136.88   -39614.648    2664.4178   -42279.066    65.715269    224.08046 
   15450    132.93858    -713.7139    143104.11   -39616.552    2674.3902   -42290.943    65.708741    224.91915 
   15500    133.16402   -691.71102    143168.58   -39606.176    2678.9254   -42285.102    65.982266    225.30057 
   15550    132.69276   -650.66972    143269.39   -39571.554    2669.4449   -42240.999    66.200217    224.50325 
   15600    133.96272   -688.52716    143287.13   -39619.015    2694.9933   -42314.008    66.165134     226.6519 
   15650    135.49397   -670.19079    143290.73   -39641.357    2725.7981   -42367.155    66.278731    229.24261 
   15700    132.77967    -789.7659    143286.21   -39623.029    2671.1932   -42294.223    66.439215    224.65028 
   15750    132.68472   -657.83521    143268.36   -39650.737    2669.2831   -42320.021    66.710323    224.48964 
   15800    133.15482   -648.92533       143291   -39604.409    2678.7404   -42283.149    66.898187      225.285 
   15850     134.9564   -711.95511    143325.45    -39619.21    2714.9837   -42334.194    66.944693     228.3331 
   15900    131.93123   -631.60255     143330.9   -39671.129    2654.1248   -42325.253    67.036514    223.21481 
   15950     129.9398   -718.19264    143349.11   -39662.448    2614.0623    -42276.51    67.264944    219.84551 
   16000    134.72474   -655.71063    143353.79   -39624.888    2710.3233   -42335.212    67.367861    227.94116 
   16050    133.97831   -622.06712    143365.73   -39571.814    2695.3069   -42267.121    67.644947    226.67827 
   16100    136.60006   -889.28677     143231.4   -39527.372    2748.0499   -42275.422    68.064974    231.11401 
   16150    133.87808    -675.6285    143141.62   -39518.907    2693.2906   -42212.198    68.250567    226.50869 
   16200    133.22346   -525.56844    143129.13   -39573.514    2680.1212   -42253.635    68.681841    225.40113 
   16250    134.65981    -733.3803     143074.5   -39627.973    2709.0169    -42336.99    68.772111    227.83129 
   16300    134.08088   -861.61905    143030.98   -39677.725    2697.3703   -42375.095    68.953831     226.8518 
   16350    131.59595   -764.81122     143005.1   -39689.752    2647.3799   -42337.132    69.092977    222.64755 
   16400    128.77774   -813.13212    142956.57    -39663.39    2590.6845   -42254.075     69.35784    217.87941 
   16450     130.9121   -644.49383    142936.04   -39661.725    2633.6225   -42295.348    69.562382    221.49055 
   16500    133.65184   -645.58782    142944.01   -39668.926    2688.7392   -42357.665    69.632497    226.12592 
   16550    132.21973   -629.48138    142975.91    -39600.54    2659.9287   -42260.469    69.772405    223.70292 
   16600    133.76083   -533.82511    143085.56   -39598.356    2690.9319   -42289.288    69.961151    226.31032 
   16650    133.62146   -774.11328    143061.49   -39580.935     2688.128   -42269.063    70.088555    226.07451 
   16700    133.84981   -781.07385    143105.76   -39576.818    2692.7219    -42269.54    70.292114    226.46086 
   16750    130.76777   -876.74487    143043.99    -39604.96     2630.719   -42235.679    70.538085    221.24635 
   16800    131.64842   -635.39989    142986.36   -39604.001    2648.4353   -42252.437    70.830235    222.73632 
   16850    133.72656   -687.44972    142988.41   -39578.068    2690.2424    -42268.31    71.119578    226.25234 
   16900    132.91986    -770.7494    142999.53   -39638.063    2674.0137   -42312.077    71.405526    224.88748 
   16950    131.45105   -704.88956    143041.07   -39627.727    2644.4647   -42272.192    71.491715    222.40239 
   17000    132.10282    -694.8059    143075.08   -39614.382    2657.5768   -42271.959    71.711458    223.50513 
   17050    131.35018   -783.14126    143025.84   -39649.046    2642.4355   -42291.481    71.962501    222.23173 
   17100    131.17966   -627.12645    143025.77    -39642.02    2639.0051   -42281.025     72.08719    221.94323 
   17150    131.92533   -370.25278    143083.66   -39683.337     2654.006   -42337.343     72.10588    223.20482 
   17200    128.79295   -480.66325    143097.59   -39701.168    2590.9905   -42292.159    72.256995    217.90515 
   17250    131.74594   -404.28367    143003.73   -39661.143    2650.3973   -42311.541    72.470364    222.90132 
   17300    131.37249   -462.20586    142993.05   -39646.322    2642.8843   -42289.207    72.535009    222.26947 
   17350       132.94    -662.1053    142962.76   -39586.756    2674.4187   -42261.175    72.858519    224.92155 
   17400    134.53846   -699.53464    142912.51   -39551.492    2706.5757   -42258.068    72.963621    227.62598 
   17450    132.74561   -750.28034    142824.41   -39554.702    2670.5082    -42225.21    73.258484    224.59267 
   17500    134.09826   -552.32779    142790.13   -39536.875      2697.72   -42234.595    73.396738    226.88122 
   17550    132.32095   -679.60893    142793.39   -39547.456     2661.965   -42209.421    73.595978    223.87418 
   17600    135.23293   -640.22999    142769.98   -39519.585    2720.5468   -42240.132     73.60904    228.80097 
   17650    134.43598   -876.25507    142719.44   -39537.995     2704.514   -42242.509     73.81577     227.4526 
   17700     135.9877   -655.78248    142702.97   -39489.251    2735.7309   -42224.982    74.065986    230.07797 
   17750     134.2385   -710.86869    142744.04   -39476.933    2700.5413   -42177.474    74.179253    227.11849 
   17800    134.42388   -469.91625    142795.05   -39475.177    2704.2706   -42179.447    74.456324    227.43212 
   17850    131.98734   -889.55241    142818.23   -39534.429    2655.2537   -42189.683    74.733871    223.30975 
   17900    133.68927   -582.78377    142745.18   -39546.553    2689.4922   -42236.045    74.861484    226.18924 
   17950    132.26004   -688.59859    142709.69   -39598.052    2660.7397   -42258.792    75.063566    223.77113 
   18000    132.00913   -768.89669    142610.32    -39604.66     2655.692   -42260.352    75.440643    223.34661 
   18050     132.7328   -791.24492    142511.12   -39583.131    2670.2503   -42253.382    75.610306    224.57098 
   18100    133.61845   -638.74821    142482.92   -39604.612    2688.0675   -42292.679    75.766511    226.06943 
   18150    133.88098   -552.78883    142523.88   -39575.759    2693.3488   -42269.108      75.9263    226.51359 
   18200    132.21035    -792.3303    142504.45    -39618.03      2659.74    -42277.77    76.065728    223.68705 
   18250    133.36058    -526.0763     142495.7   -39628.351    2682.8798   -42311.231    76.302989    225.63313 
   18300    132.61823   -720.54893     142487.1   -39637.672    2667.9456   -42305.618    76.494608    224.37715 
   18350    130.71947   -623.38768    142447.09    -39620.93    2629.7472   -42250.677    76.932884    221.16463 
   18400    131.75092   -683.01065    142525.55   -39599.944    2650.4974   -42250.441    76.950128    222.90974 
   18450    134.68101   -583.58755    142542.86   -39603.551    2709.4435   -42312.994    76.855185    227.86717 
   18500    134.62741   -699.04843    142557.48   -39555.293    2708.3651   -42263.658    77.040888    227.77648 
   18550    133.59302    -551.6671    142584.09   -39537.908    2687.5559   -42225.464     77.29076     226.0264 
   18600    133.64517   -704.09502     142640.1   -39520.005     2688.605    -42208.61    77.393034    226.11463 
   18650    133.98793   -856.64815    142554.33    -39494.62    2695.5005   -42190.121    77.635455    226.69455 
   18700     134.7444   -674.10948    142495.24   -39464.524    2710.7187   -42175.242    78.040075    227.97442 
   18750    135.85353   -681.53432     142438.1    -39450.46    2733.0317   -42183.491    78.256206    229.85097 
   18800    135.21486   -732.46847    142504.62   -39471.883    2720.1831   -42192.066    78.372544    228.77039 
   18850    133.10691   -777.68913    142491.36   -39527.124    2677.7766     -42204.9    78.733984    225.20395 
   18900    131.77499   -578.57771    142481.98   -39512.226    2650.9816   -42163.208    78.846834    222.95047 
   18950    132.60121   -589.50597    142583.62   -39537.867    2667.6032    -42205.47     79.09447    224.34836 
   19000    131.11342   -719.44644    142611.85   -39558.715    2637.6726   -42196.388    79.350012    221.83116 
   19050    134.18803   -740.74773    142638.09   -39530.113    2699.5259   -42229.639    79.654849    227.03309 
   19100    136.44335   -603.80331    142741.89   -39555.146    2744.8974   -42300.043    79.585272    230.84888 
   19150    132.25407   -544.72164     142841.1   -39557.069    2660.6196   -42217.689    79.761809    223.76103 
   19200    130.41295   -634.08271     142807.2   -39617.827    2623.5809   -42241.408    79.851765    220.64603 
   19250    132.23535   -671.97194    142801.53   -39593.587    2660.2429    -42253.83    79.894292    223.72935 
   19300    130.09335   -683.88822    142814.54   -39651.583    2617.1513   -42268.734    80.021946    220.10529 
   19350    130.47844   -724.60905     142717.1       -39675    2624.8982   -42299.898    80.329055    220.75682 
   19400    131.42486   -753.65382    142667.34   -39687.446     2643.938   -42331.384    80.447376    222.35809 
   19450    130.99662   -660.29316    142611.21   -39683.358    2635.3229   -42318.681     80.59822    221.63355 
   19500    131.78186   -612.27187    142655.04   -39664.203    2651.1199   -42315.322    80.953145     222.9621 
   19550    133.47962   -637.95532    142710.94   -39629.764    2685.2744   -42315.039    80.915389    225.83453 
   19600    132.19449   -470.91327    142779.71   -39751.209    2659.4209    -42410.63    81.015768    223.66022 
   19650    130.64653    -548.8556    142833.05   -39734.995    2628.2798   -42363.275    81.152666    221.04122 
   19700    131.57707   -597.81086    142857.37   -39707.119         2647   -42354.119    81.160013     222.6156 
   19750    131.02711   -762.45105    142814.02     -39744.6    2635.9361   -42380.536    81.525779    221.68512 
   19800    132.90119    -573.6687    142841.43   -39670.935     2673.638   -42344.573    81.732857    224.85589 
   19850     132.8854   -681.02108     142837.5   -39660.206    2673.3204   -42333.526    81.835096    224.82917 
   19900    131.65704   -818.57364    142871.23   -39637.831    2648.6088    -42286.44    81.890271    222.75091 
   19950    132.19758   -735.88687    142823.73   -39609.472    2659.4831   -42268.955    82.060111    223.66544 
   20000    133.41715   -751.53814    142786.54   -39629.348    2684.0178   -42313.366    82.061666    225.72884 
   20050    133.88426   -552.93091    142785.92   -39586.247    2693.4148   -42279.661    82.199157    226.51914 
   20100    131.61377   -601.62198    142740.68   -39565.962    2647.7383     -42213.7    82.429293     222.6777 
   20150    135.01018     -597.808    142837.58   -39591.806    2716.0656   -42307.872    82.825064     228.4241 
   20200    136.51349   -548.00061    142886.55   -39556.695    2746.3083   -42303.003    83.021125    230.96754 
   20250    134.40805   -422.49771    142946.68   -39528.451    2703.9522   -42232.403     83.27734    227.40534 
   20300    133.14663   -724.68583     143029.9   -39593.965    2678.5757   -42272.541    83.340537    225.27115 
   20350    133.01358    -667.9099    143031.85   -39559.772     2675.899   -42235.671    83.388085    225.04604 
   20400    132.56207   -510.30206    143059.49   -39525.749    2666.8158   -42192.565    83.477443    224.28214 
   20450    135.82892   -675.28186    143034.17   -39538.353    2732.5366    -42270.89    83.701171    229.80933 
   20500    133.87851   -559.37023    142992.08   -39596.119    2693.2992   -42289.419    83.885807    226.50942 
   20550    134.55893   -759.12049    142990.92   -39542.593    2706.9876   -42249.581    84.131243    227.66063 
   20600    134.10537    -691.7348    142931.64   -39569.439    2697.8629   -42267.302    84.474149    226.89323 
   20650    131.49187   -695.74579    142930.25    -39579.21     2645.286   -42224.496    84.526841    222.47145 
   20700    132.99988    -781.7223    142874.36   -39574.818    2675.6234   -42250.441    84.649731    225.02286 
   20750    132.75583   -478.19966    142867.53   -39581.325    2670.7137   -42252.039    84.723674    224.60995 
   20800    130.27626   -612.67559    142911.15   -39631.119    2620.8309    -42251.95    84.754495    220.41475 
   20850    131.83008   -820.65265    142883.09   -39669.534      2652.09   -42321.624    84.990939    223.04368 
   20900    134.03358   -621.81577    142860.49   -39650.561    2696.4188    -42346.98    85.234963    226.77178 
   20950     133.5763   -586.42625    142846.66    -39661.71    2687.2195    -42348.93    85.462148    225.99811 
   21000    131.35594   -718.98898    142787.97    -39660.08    2642.5514   -42302.631    85.708759    222.24147 
   21050    136.33344   -712.93323    142833.85   -39621.694    2742.6862   -42364.381     85.82784    230.66292 
   21100    135.51262   -527.08161    142848.89   -39603.473    2726.1734   -42329.647     85.95938    229.27417 
   21150    132.12108   -705.27094     142852.7   -39606.449    2657.9441   -42264.393    86.014338    223.53602 
   21200    132.72008   -696.21612    142807.72    -39577.39    2669.9946   -42247.385    86.195628    224.54947 
   21250     134.7557   -622.08539    142762.15   -39572.004    2710.9461    -42282.95    86.458286    227.99354 
   21300    132.72217   -684.21261    142753.43   -39594.549    2670.0365   -42264.586    86.772385      224.553 
   21350    134.55075   -760.37343    142740.89    -39620.77     2706.823   -42327.593     87.01106    227.64679 
   21400    135.64903   -630.16929    142675.24   -39637.923    2728.9176   -42366.841    87.450601    229.50497 
   21450    132.89543   -660.18786    142624.53   -39659.656     2673.522   -42333.178    87.579099    224.84614 
   21500    131.14271   -687.38077    142627.93   -39653.122    2638.2618   -42291.384    87.640216    221.88071 
   21550    130.81696   -749.76935    142551.09   -39666.846    2631.7086   -42298.555     87.91564    221.32958 
   21600    131.91687   -555.68762    142604.62   -39632.097    2653.8359   -42285.933     88.20383    223.19051 
   21650    133.53964    -517.9399    142668.87    -39634.38     2686.482   -42320.862     88.13528    225.93608 
   21700    133.84419   -494.24743    142764.35   -39635.458    2692.6088   -42328.067     88.27357    226.45135 
   21750    133.55033   -533.47559     142807.3   -39638.229     2686.697   -42324.926    88.430511    225.95416 
   21800    131.72357   -567.68445    142875.11   -39671.588    2649.9471   -42321.535    88.701032    222.86346 
   21850    132.62078    -593.4371    142904.47   -39733.254    2667.9969   -42401.251    88.754051    224.38147 
   21900    130.90306   -429.55557    142903.54   -39711.127    2633.4406   -42344.568    89.015443    221.47525 
   21950    134.52468   -622.77579    142879.87   -39668.908    2706.2985   -42375.206    89.446102    227.60267 
   22000    132.93777   -531.26601    142944.09   -39658.317    2674.3739   -42332.691    89.633197    224.91778 
   22050    134.17417   -493.28057    142994.19   -39670.009    2699.2472   -42369.256    89.652721    227.00965 
   22100    131.63939   -675.26039    142956.78   -39675.161    2648.2537   -42323.415    89.838877    222.72104 
   22150    133.84651   -472.23459    143026.26   -39675.745    2692.6555     -42368.4    89.851173    226.45528 
   22200    131.41079   -620.21172    143030.29   -39682.406    2643.6548   -42326.061    89.935755    222.33427 
   22250    129.84062   -709.57172    143083.93   -39700.878     2612.067   -42312.945    89.985306     219.6777 
   22300    134.91454   -769.08515    143148.12   -39645.702    2714.1416   -42359.844    90.132131    228.26228 
   22350    130.25315   -559.12548    143133.01   -39695.672     2620.366   -42316.038    90.197951    220.37565 
   22400     133.3839   -655.17388    143171.26   -39673.654    2683.3489   -42357.003    90.575948    225.67259 
   22450    134.55365   -648.20915     143142.3   -39611.033    2706.8814   -42317.914    90.848927    227.65169 
   22500    135.14529   -590.44582    143058.41   -39625.345    2718.7835   -42344.129    91.056405    228.65268 
   22550    131.94804   -461.25014    143043.98   -39669.095     2654.463   -42323.558    91.328528    223.24325 
   22600    130.81945    -670.1354    143014.67   -39699.665    2631.7586   -42331.423    91.777461    221.33379 
   22650    130.30472     -695.178    142933.97   -39721.524    2621.4036   -42342.928    91.873678    220.46292 
   22700    129.35113   -494.60472    142898.07   -39697.719    2602.2198   -42299.939    92.013918    218.84954 
   22750    131.46842   -584.60097    142894.98   -39721.545    2644.8143    -42366.36    92.506641    222.43179 
   22800    130.03458   -740.28312    142884.44   -39650.561    2615.9689    -42266.53    92.694203    220.00585 
   22850    131.47415   -632.28532    142886.92   -39649.262    2644.9295   -42294.191    92.950586    222.44147 
   22900     132.0207   -626.55948     142902.7   -39668.495    2655.9247    -42324.42    93.341633    223.36619 
   22950    133.75775   -664.46979    142932.59   -39632.158    2690.8697   -42323.027    93.323313     226.3051 
   23000    134.45316   -637.42214    142956.58   -39619.561    2704.8597   -42324.421    93.171831    227.48167 
   23050    134.60183   -656.06412    143063.85   -39630.852    2707.8505   -42338.702     93.23237     227.7332 
   23100    133.32662   -791.31206    143088.86   -39616.472    2682.1966   -42298.668    93.489634    225.57568 
   23150    132.41866   -622.02798    143072.61   -39542.534    2663.9307   -42206.465    93.760912     224.0395 
   23200    139.04628   -649.22274    143135.88   -39483.732    2797.2618   -42280.994    94.139186    235.25278 
   23250     134.7801   -760.34798    143166.11   -39524.387    2711.4368   -42235.824    94.415882    228.03481 
   23300    134.02218   -711.86826     143107.3   -39559.344    2696.1895   -42255.533    94.795801    226.75249 
   23350    133.73538   -553.06015    143153.29   -39570.255    2690.4197   -42260.675      95.0521    226.26725 
   23400    134.39373   -572.64032     143225.5     -39606.4     2703.664   -42310.064    95.187286    227.38111 
   23450    132.72651   -732.31314    143238.85   -39624.859    2670.1239   -42294.983    95.726897    224.56035 
   23500    133.73223   -728.01675    143220.47   -39609.697    2690.3564   -42300.053    95.752111    226.26193 
   23550    132.53504   -620.54623    143236.04   -39588.516     2666.272   -42254.788    95.801528     224.2364 
   23600     133.8171   -778.01548    143249.46   -39551.069    2692.0639   -42243.133    95.861357    226.40552 
   23650    133.00172   -647.68148    143316.98   -39587.875    2675.6604   -42263.535    95.983002    225.02597 
   23700    133.33953   -704.74482    143236.04   -39627.214    2682.4564    -42309.67    96.218831    225.59752 
   23750    132.40685   -445.73758    143269.75   -39670.828     2663.693   -42334.521    96.315046    224.01951 
   23800    133.29948   -609.05892    143291.43   -39655.271    2681.6506   -42336.922    96.429995    225.52975 
   23850    132.38922   -884.22588    143256.91   -39655.696    2663.3383   -42319.035    96.581082    223.98968 
   23900    132.03143   -679.65395    143301.73   -39652.851    2656.1406   -42308.992    96.696359    223.38434 
   23950    130.32705   -697.92875    143301.28    -39632.48    2621.8528   -42254.333    96.781834    220.50069 
   24000    130.87833   -712.90525    143317.62   -39624.662    2632.9431   -42257.605    96.979826     221.4334 
   24050    132.00872   -697.72153    143314.22   -39642.711    2655.6838   -42298.394    97.077349    223.34592 
   24100    132.59104   -867.64274    143279.57   -39657.674    2667.3985   -42325.072    97.450043    224.33114 
   24150    135.60951   -479.01418    143289.94   -39629.058    2728.1225   -42357.181    97.811577    229.43809 
   24200     133.3883    -851.0683    143363.24   -39642.821    2683.4375   -42326.259     97.84294    225.68004 
   24250    133.77031   -606.06238    143366.72   -39583.126    2691.1225   -42274.248    98.143108    226.32636 
   24300    132.02631   -789.78086    143328.76   -39623.367    2656.0375   -42279.404    98.464803    223.37567 
   24350    130.89716    -678.8909    143365.25   -39666.077    2633.3219   -42299.399    98.570067    221.46526 
   24400     131.7048   -864.03418    143359.52   -39672.904    2649.5696   -42322.474    98.508518    222.83171 
   24450    132.39988   -648.03208    143288.35   -39689.881    2663.5529   -42353.434    98.678326    224.00772 
   24500    129.62253   -524.33745    143358.01   -39741.709    2607.6796   -42349.389      98.8758    219.30872 
   24550    129.65488   -683.44259    143372.08   -39691.114    2608.3305   -42299.445    99.148989    219.36345 
   24600     131.2496   -695.39182     143333.4   -39688.345    2640.4122   -42328.757    99.728694    222.06156 
   24650    133.63758   -631.33428    143275.76   -39679.851    2688.4523   -42368.303    100.05015    226.10179 
   24700      133.729    -617.7352    143290.83   -39657.537    2690.2914   -42347.828    100.07491    226.25646 
   24750    132.26091   -791.26685     143279.8    -39661.38    2660.7571   -42322.137    100.23426    223.77259 
   24800    131.92362   -666.62001    143276.88   -39631.541    2653.9716   -42285.512    100.25679    223.20193 
   24850    134.89598   -708.40194    143299.53   -39616.265    2713.7682   -42330.033    100.42237    228.23088 
   24900    132.39201   -716.39667    143349.35   -39593.918    2663.3946   -42257.312    100.55736    223.99441 
   24950    134.17219   -865.60428    143280.23   -39582.307    2699.2073   -42281.515    100.51754    227.00629 
   25000    131.94597   -597.64115    143331.93   -39613.475    2654.4213   -42267.896    100.73236    223.23974 
   25050    130.25131   -584.65832    143317.03   -39652.541     2620.329    -42272.87    100.99954    220.37254 
   25100    129.99936   -619.70429    143296.83   -39665.657    2615.2603   -42280.917     101.1037    219.94626 
   25150    131.97243    -516.7082    143266.12   -39656.627    2654.9537    -42311.58      101.372    223.28452 
   25200    133.41921   -480.04262    143296.29   -39622.685    2684.0592   -42306.744    101.58726    225.73233 
   25250    130.89646   -639.27858    143243.19   -39659.037    2633.3078   -42292.345    101.54821    221.46407 
   25300    129.76339   -487.53637    143171.06   -39682.233    2610.5134   -42292.747      101.644    219.54704 
   25350    132.94902   -795.28903    143164.77   -39659.803    2674.6001   -42334.403    101.86849     224.9368 
   25400    134.20906   -686.32321    143140.57   -39668.014    2699.9489   -42367.963    102.17331    227.06867 
   25450     133.1953   -678.26583    143146.63    -39673.41    2679.5547   -42352.964    102.33879    225.35349 
   25500    132.25794    -682.7803    143175.16   -39705.722    2660.6975   -42366.419    102.64106    223.76758 
   25550     130.0554   -728.09899    143094.24   -39716.577    2616.3878   -42332.965    102.62415    220.04108 
   25600    132.43234   -512.81599    143071.73   -39706.658    2664.2058   -42370.863    103.05813    224.06263 
   25650    129.38462   -577.46221    143037.41   -39710.475    2602.8934   -42313.368    103.14276    218.90619 
   25700    131.80673   -459.58604    143042.01   -39697.459    2651.6201   -42349.079    103.45702    223.00416 
   25750    132.76327   -441.47435    143086.63   -39675.112    2670.8634   -42345.975    103.37974    224.62254 
   25800    133.08487   -644.32599     143181.2   -39665.953    2677.3331   -42343.286    103.62594    225.16665 
   25850    129.49055   -572.85351    143198.34   -39641.828    2605.0244   -42246.852    103.95148    219.08541 
   25900    132.24979   -728.77639    143178.86   -39654.095    2660.5335   -42314.629     103.8497    223.75379 
   25950      132.259   -506.44186    143160.23   -39640.147    2660.7186   -42300.866    103.87642    223.76936 
   26000    131.75964   -524.11217    143200.31   -39636.065    2650.6729   -42286.737    104.00151     222.9245 
   26050    132.61506   -628.77137    143298.27   -39642.773    2667.8817   -42310.655    103.96192    224.37178 
   26100    131.70971   -517.64366    143343.23   -39593.938    2649.6684   -42243.606    104.20969    222.84002 
   26150    131.55569   -590.71989    143337.41   -39569.136    2646.5699   -42215.706    104.21851    222.57943 
   26200     132.6476   -465.47938    143326.04   -39604.605    2668.5363   -42273.142    104.51008    224.42683 
   26250    132.55276   -713.69588    143394.58   -39578.784    2666.6285   -42245.413    104.74208    224.26638 
   26300    134.14612   -889.43117    143317.58   -39573.274    2698.6828   -42271.957    104.95772    226.96219 
   26350    134.62959   -804.02484    143320.05   -39516.907     2708.409   -42225.316    105.18009    227.78017 
   26400    135.30875   -744.48789    143312.69   -39482.735     2722.072   -42204.807    105.44389    228.92924 
   26450    133.81378   -813.85939    143364.14   -39501.694    2691.9969   -42193.691    105.50076    226.39989 
   26500    130.39034   -728.45171    143391.12   -39517.388     2623.126   -42140.514     105.4903    220.60777 
   26550    134.01733   -782.59232    143375.34   -39455.819    2696.0919   -42151.911    105.83859    226.74428 
   26600    132.76886   -761.36999       143396   -39514.694    2670.9757    -42185.67    106.03428    224.63199 
   26650    134.81542   -706.38055    143368.59       -39486    2712.1475   -42198.148    106.33574    228.09458 
   26700    134.12501   -644.18311    143396.64   -39506.114    2698.2581   -42204.372     106.4735    226.92647 
   26750    133.60356   -566.80632    143423.07   -39493.343    2687.7679   -42181.111    106.50002    226.04423 
   26800    136.49492   -607.96597    143465.81   -39526.978    2745.9348   -42272.913    106.55846    230.93613 
   26850    132.95436   -682.21911    143428.92   -39553.021    2674.7076   -42227.728    107.00804    224.94584 
   26900    135.88334   -930.18423    143384.83   -39569.045    2733.6313   -42302.676    107.15039    229.90139 
   26950    133.84051   -772.40795    143348.03   -39561.577    2692.5347   -42254.112    107.39048    226.44512 
   27000    134.35573   -611.49397    143363.06   -39573.585    2702.8996   -42276.485    107.51091    227.31682 
   27050    134.53089   -881.66267    143301.72   -39558.246    2706.4234    -42264.67    107.76718    227.61318 
   27100    135.21802    -654.3325    143239.46   -39512.596    2720.2467   -42232.842    107.64539    228.77573 
   27150    136.32965    -695.3317    143275.18   -39541.255    2742.6101   -42283.865    107.66663    230.65651 
   27200    135.01492   -497.88778    143291.92   -39543.483     2716.161   -42259.644    107.61024    228.43212 
   27250    132.95762   -848.04605    143345.81   -39579.873    2674.7731   -42254.647    107.67208    224.95135 
   27300    132.86626    -638.0262    143343.62   -39582.962    2672.9354   -42255.897    107.81717     224.7968 
   27350     132.4045   -696.08168    143294.59   -39526.051    2663.6458   -42189.697    107.94464    224.01553 
   27400    131.73367   -842.78145    143229.49   -39566.853    2650.1505   -42217.003    108.16083    222.88056 
   27450    132.06057   -643.76754    143202.81    -39593.84    2656.7268   -42250.567    108.16945    223.43364 
   27500    133.58273   -635.97947    143215.93   -39560.423    2687.3489   -42247.772    108.25823    226.00899 
   27550    135.02065   -652.69907    143287.32   -39564.344    2716.2763    -42280.62    108.39317    228.44181 
   27600    132.27692   -753.97079    143303.09   -39595.308    2661.0792   -42256.387    108.61324    223.79968 
   27650    134.44748   -588.81724    143293.97   -39598.282    2704.7455   -42303.027    108.61101    227.47206 
   27700    131.97664   -526.90601    143319.01   -39638.263    2655.0384   -42293.301    108.70754    223.29164 
   27750     135.6245   -512.99712    143459.91   -39619.106    2728.4242    -42347.53    108.89277    229.46347 
   27800    131.84764   -771.24098     143382.5   -39621.825    2652.4433   -42274.268    108.93328    223.07339 
   27850    135.34042   -685.95466    143377.08   -39622.262    2722.7092   -42344.972    109.19671    228.98283 
   27900    131.16816   -765.13804    143387.69   -39646.775    2638.7738   -42285.548    109.40302    221.92377 
   27950    133.12962   -670.55285    143287.63   -39650.818    2678.2334   -42329.051    109.58078    225.24237 
   28000    134.04455   -782.75898    143233.92   -39636.803    2696.6396   -42333.442    109.63758    226.79035 
   28050    131.78015   -788.17636     143258.7   -39577.622    2651.0854   -42228.707    109.81757    222.95919 
   28100    130.03674   -762.46838    143231.74   -39591.891    2616.0125   -42207.904    109.87763    220.00952 
   28150    131.92737   -769.13826    143189.02   -39621.472    2654.0471   -42275.519    109.92732    223.20827 
   28200    132.64335   -532.65295    143194.51   -39612.561    2668.4508   -42281.011    110.10012    224.41964 
   28250    133.67588   -626.70495    143201.02   -39588.504    2689.2229   -42277.727    110.23477    226.16659 
   28300    135.97267   -762.52575    143090.15   -39526.625    2735.4284   -42262.053    110.67907    230.05253 
   28350    133.09387   -648.49045    143055.48   -39548.735    2677.5142   -42226.249    110.64139    225.18188 
   28400    138.35193   -470.18053    143083.98   -39541.148    2783.2932   -42324.441    110.88525    234.07801 
   28450    133.33203   -651.89759     143088.3   -39600.668    2682.3054   -42282.974    111.00024    225.58483 
   28500    137.29728    -469.0448     143165.6   -39573.484    2762.0763    -42335.56     110.9775    232.29365 
   28550    133.69186   -573.44557    143208.73   -39629.465    2689.5443   -42319.009    111.08867    226.19363 
   28600    132.01711   -602.59725     143174.8   -39629.642    2655.8524   -42285.494    111.34449     223.3601 
   28650    132.37836   -803.30321    143096.39   -39619.411      2663.12   -42282.531    111.69634    223.97131 
   28700    133.22427   -679.97634    143055.16   -39584.961    2680.1376   -42265.098    111.80075    225.40251 
   28750    132.53842   -555.21166    143039.26   -39592.854    2666.3399   -42259.194    111.91124    224.24211 
   28800    135.42303    -509.5716    143044.72    -39593.98    2724.3711   -42318.351    111.93148     229.1226 
   28850    130.90443   -571.92984    142991.77   -39598.229    2633.4682   -42231.697     112.1817    221.47756 
   28900    131.88318   -621.43212    142984.28   -39583.341    2653.1581   -42236.499    112.28375    223.13351 
   28950    131.80191   -716.23578    142975.86   -39566.456    2651.5233   -42217.979    112.45765    222.99602 
   29000    133.20622   -816.62141    142895.53   -39639.071    2679.7744   -42318.845    112.65584    225.37196 
   29050    131.82592    -562.8049    142933.28    -39621.96    2652.0062   -42273.967    112.95412    223.03663 
   29100    133.44029   -661.30326    142945.71   -39575.582    2684.4833   -42260.066    113.56968    225.76799 
   29150    133.87636   -669.71559    142935.01    -39609.21    2693.2559   -42302.466    113.92914    226.50578 
   29200    132.93304   -654.41937    142951.63   -39589.805    2674.2787   -42264.084    114.37869    224.90978 
   29250     132.4907   -580.05131    143012.63   -39573.087      2665.38   -42238.467    114.40945    224.16138 
   29300    136.27755   -812.50145    142975.57   -39617.746    2741.5619   -42359.308    114.81957    230.56836 
   29350    133.51003   -545.11084    143019.14   -39587.819    2685.8864   -42273.705    115.05089    225.88599 
   29400    132.37216   -535.88148    143198.65   -39600.679    2662.9953   -42263.674    114.94951    223.96082 
   29450    136.03617   -690.47642    143257.31   -39609.818    2736.7059   -42346.524    115.11999    230.15997 
   29500    133.69601   -693.07246    143263.31   -39620.005    2689.6277   -42309.633    115.24592    226.20064 
   29550    134.85435   -813.36386    143286.77   -39610.287    2712.9307   -42323.218    115.17747    228.16045 
   29600    131.77321   -668.34444    143196.63   -39592.106    2650.9458   -42243.052    115.39063    222.94745 
   29650    133.99427   -706.66043    143245.66   -39594.947     2695.628   -42290.576    115.67726    226.70528 
   29700    132.75938   -733.59828    143279.01   -39578.164    2670.7851   -42248.949    115.92763    224.61596 
   29750     134.6799   -672.56737    143348.09   -39559.896    2709.4211   -42269.317    116.06677    227.86529 
   29800    133.37942   -562.84403    143444.93   -39589.689    2683.2588   -42272.948     115.9995    225.66501 
   29850    135.11591   -922.19493    143425.91   -39556.265    2718.1926   -42274.457    116.02976    228.60298 
   29900    133.81158   -674.91746    143448.34   -39590.309    2691.9528   -42282.261     116.1605    226.39618 
   29950    134.63312   -823.16871    143433.76   -39623.729      2708.48   -42332.209    116.20629    227.78614 
   30000    135.48649   -624.00631    143435.62   -39585.724    2725.6476   -42311.372     116.5758    229.22995 
   30050    133.34177   -842.46893    143395.83   -39615.492    2682.5013   -42297.993    116.75653     225.6013 
   30100    136.06701   -859.77353     143418.4    -39572.68    2737.3263   -42310.006    116.77439    230.21215 
   30150    136.78014   -682.05138    143401.94   -39584.107    2751.6727   -42335.779    117.10304    231.41869 
   30200    134.78942   -750.39077    143425.92   -39596.022    2711.6245   -42307.646    117.28136    228.05059 
   30250    135.37085   -822.09518    143436.67    -39603.05    2723.3213   -42326.371    117.47897    229.03431 
   30300    132.24683   -786.06412    143360.61   -39558.771     2660.474   -42219.245    117.74172    223.74878 
   30350    132.27262   -854.11487    143348.35   -39574.334    2660.9927   -42235.327    117.84832     223.7924 
   30400      130.978   -696.37746    143325.13   -39659.791    2634.9483   -42294.739    118.12896    221.60204 
   30450    129.79645   -746.80693    143351.22     -39685.1    2611.1785   -42296.278    118.46494    219.60298 
   30500    130.54454   -796.73066     143346.3   -39685.567    2626.2281   -42311.795    118.87735    220.86866 
   30550    132.18455   -866.66754    143310.01   -39694.376    2659.2211   -42353.597    119.15509    223.64341 
   30600    133.74624    -754.6406    143346.29   -39706.428    2690.6383   -42397.066    119.33932    226.28563 
   30650    133.18118   -798.94168    143363.38   -39724.398    2679.2707   -42403.669    119.43112    225.32961 
   30700    131.25749   -646.94985    143337.88   -39723.709    2640.5709    -42364.28    119.48674    222.07491 
   30750    132.05666   -630.16669    143296.08   -39716.331    2656.6481    -42372.98    119.64895    223.42702 
   30800    132.14192   -608.95368    143292.12   -39709.829    2658.3634   -42368.192    119.63442    223.57128 
   30850    131.85517   -676.77249    143285.25   -39692.972    2652.5946   -42345.567    119.63335    223.08612 
   30900    130.91261   -584.28253    143223.25   -39676.211    2633.6328   -42309.844    119.62439    221.49141 
   30950    133.92107   -722.98484    143279.53   -39660.448    2694.1553   -42354.604    119.49584    226.58142 
   31000    131.90733   -613.10958    143248.01   -39645.691     2653.644   -42299.335    119.46769    223.17437 
   31050    132.72962   -664.80386    143246.67   -39639.111    2670.1864   -42309.297    119.70096    224.56561 
   31100    133.12199   -797.91432    143254.67   -39636.962      2678.08   -42315.042    119.83417    225.22947 
   31150     132.0319   -622.21679    143249.09    -39679.99    2656.1501    -42336.14    119.89014    223.38514 
   31200    133.62551     -710.665    143253.75   -39649.917    2688.2095   -42338.126    120.14029    226.08137 
   31250    134.76473   -544.22085    143287.63   -39611.738    2711.1278   -42322.866    120.22764    228.00882 
   31300    133.42674    -690.1956    143315.09   -39634.013    2684.2108   -42318.223     120.4308    225.74507 
   31350    133.00853   -663.87213    143226.67   -39614.406    2675.7973   -42290.203    120.74838    225.03749 
   31400    133.85561   -495.45685    143250.83   -39617.993    2692.8386   -42310.831    120.98096    226.47068 
   31450    132.64609    -552.9251    143247.61   -39640.963    2668.5059   -42309.469     121.2171    224.42428 
   31500    132.73083   -780.35014    143279.41   -39653.968    2670.2108   -42324.179    121.44914    224.56766 
   31550    132.34121   -725.28461    143296.96   -39660.108    2662.3726    -42322.48    121.47746    223.90845 
   31600    133.43114     -628.476    143238.15   -39674.702    2684.2992   -42359.001    121.52413    225.75251 
   31650    134.61246   -617.79119    143248.01   -39608.012    2708.0643   -42316.076    121.71994    227.75118 
   31700    133.06221   -564.81896    143291.76   -39620.112    2676.8773    -42296.99    122.31906    225.12832 
   31750    134.09609   -546.52601     143329.2   -39654.842    2697.6764   -42352.519    122.80116    226.87754 
   31800    132.12596   -698.38538    143456.42   -39696.012    2658.0422   -42354.054    122.81994    223.54426 
   31850    135.43084   -715.54256    143438.01    -39713.36    2724.5281   -42437.888    122.70323     229.1358 
   31900    133.19034   -794.37399     143451.7   -39717.368    2679.4549   -42396.823    123.08475     225.3451 
   31950    132.39537   -707.57245    143434.94   -39716.956    2663.4622   -42380.418    123.06881    224.00009 
   32000    132.06102    -665.6146     143481.3   -39689.295    2656.7358    -42346.03    123.36766     223.4344 
   32050     133.7913   -820.51352    143426.12   -39668.469    2691.5448   -42360.014    123.83204    226.36187 
   32100    133.52468   -835.79777    143402.87    -39687.15     2686.181   -42373.331    123.79979    225.91077 
   32150     133.9466   -758.13019    143418.23   -39703.779    2694.6691   -42398.448    124.08868    226.62462 
   32200    129.35485   -712.62827    143365.91   -39725.118    2602.2945   -42327.412    124.17527    218.85583 
   32250    131.79053   -694.12129    143333.98   -39714.329    2651.2944   -42365.623    124.49866    222.97677 
   32300    133.80784   -475.52462    143324.14   -39683.612    2691.8775    -42375.49    124.99039    226.38985 
   32350    131.53728   -759.13115       143332   -39711.209    2646.1996   -42357.409    125.09362    222.54829 
   32400    131.29207   -944.40744    143328.34   -39673.551    2641.2666   -42314.818    125.27091    222.13342 
   32450    134.45884   -606.89295    143331.39   -39665.722     2704.974   -42370.696      125.274    227.49128 
   32500    133.43698   -569.22511    143325.87   -39672.778    2684.4167   -42357.195    125.33765    225.76239 
   32550    133.33427    -461.9152    143329.45   -39633.758    2682.3505   -42316.108     125.4316    225.58862 
   32600    129.76304   -716.59164    143374.15   -39656.476    2610.5063   -42266.982     125.5169    219.54645 
   32650    132.12616   -701.23416    143325.84   -39642.062    2658.0462   -42300.108    125.29941     223.5446 
   32700    133.06344   -658.88474    143304.63     -39679.2     2676.902   -42356.102    125.35501     225.1304 
   32750    133.82306   -708.77889    143302.44   -39646.919    2692.1837   -42339.103    125.77262     226.4156 
   32800    132.35024   -741.51312    143319.45   -39666.958    2662.5542   -42329.513     126.1379    223.92373 
   32850    136.45861   -701.72425    143374.25   -39580.984    2745.2042   -42326.188    126.36873    230.87469 
   32900    135.50245    -530.6051    143372.69   -39568.747    2725.9687   -42294.716    126.66619    229.25696 
   32950    137.72918     -604.882    143447.14   -39526.749     2770.765   -42297.514    126.57232    233.02438 
   33000    134.86622   -696.66203    143449.78   -39600.741    2713.1694   -42313.911    126.75295    228.18053 
   33050    133.93761   -773.78448    143404.24   -39575.187    2694.4881   -42269.675    127.18899    226.60941 
   33100    136.64723   -609.26879    143339.58   -39620.818     2748.999   -42369.817    127.18037    231.19383 
   33150    136.25646   -851.46999    143346.85    -39639.58    2741.1375   -42380.718    127.39756    230.53267 
   33200    136.73093   -874.15665    143271.75   -39580.253    2750.6827   -42330.936    127.54902    231.33543 
   33250    133.37493   -634.89695    143243.47    -39621.11    2683.1683   -42304.278    127.49942     225.6574 
   33300    133.73095   -724.15059    143177.33    -39623.99    2690.3307   -42314.321    127.75645    226.25977 
   33350    133.66415   -667.43099    143091.91   -39623.278    2688.9868   -42312.265    127.92808    226.14674 
   33400    132.79454   -725.89264    143091.54    -39617.31    2671.4924   -42288.803    127.89257    224.67544 
   33450    135.17257   -605.50276    143055.68   -39567.586    2719.3325   -42286.918     128.2158    228.69885 
   33500     136.2141   -596.98896    143048.85   -39541.015    2740.2853     -42281.3    128.11767      230.461 
   33550    132.83684   -592.92326     143039.3   -39523.082    2672.3433   -42195.425      128.221    224.74701 
   33600    134.52727   -650.09062    143096.15   -39524.536    2706.3506   -42230.887    128.76366    227.60706 
   33650    135.25612   -677.56369    143077.73    -39495.41    2721.0131   -42216.423     128.8706    228.84019 
   33700      136.013   -656.08774    143143.48   -39469.755    2736.2397   -42205.995    129.17776    230.12076 
   33750    133.81609   -426.88251    143200.59   -39498.846    2692.0434   -42190.889    129.73872     226.4038 
   33800    135.82751   -740.69211    143157.72   -39537.534    2732.5082   -42270.043    129.96236    229.80693 
   33850    134.92359   -665.51607    143155.91   -39502.793    2714.3235   -42217.116    129.89326    228.27758 
   33900    133.53067    -553.1844    143114.15   -39482.511    2686.3016   -42168.813    130.38305    225.92091 
   33950    136.18439   -791.79968    143077.34   -39457.886    2739.6876   -42197.574    130.70808    230.41074 
[...]
   92000    136.89107   -520.25708    143379.38   -39581.884    2753.9043   -42335.789    328.71182    231.60637 
   92050    132.71126   -577.29408    143404.97    -39619.64    2669.8171   -42289.458    329.16567    224.53455 
   92100    134.45344   -644.05606    143406.98   -39629.442    2704.8653   -42334.308    329.56996    227.48214 
   92150    133.21041   -755.21375    143461.15   -39636.663    2679.8588   -42316.522    330.09927    225.37906 
   92200    131.85755   -556.90496    143484.62   -39621.086    2652.6426   -42273.728    330.15541    223.09015 
   92250    131.84995   -706.17139    143429.95    -39610.08    2652.4897    -42262.57    330.23332     223.0773 
   92300     132.7768   -706.15922    143430.98   -39616.803    2671.1356   -42287.939    330.64185    224.64544 
   92350    133.61832   -665.34134    143406.18   -39574.076    2688.0648    -42262.14    330.95092     226.0692 
   92400    133.85813   -577.99152    143432.86   -39617.745    2692.8892   -42310.634    331.14622    226.47494 
   92450    129.96702   -684.55054    143400.79   -39664.292    2614.6099   -42278.902    331.29482    219.89156 
   92500    132.36165   -558.48855    143437.33   -39628.858    2662.7837   -42291.641    331.00181    223.94303 
   92550    134.91012   -684.45967    143439.41   -39590.347    2714.0525     -42304.4    331.48336    228.25479 
   92600    132.03987   -734.80582    143401.72   -39596.764    2656.3104   -42253.074    331.89884    223.39862 
   92650    132.89093   -639.46073    143352.88   -39597.602    2673.4315   -42271.034    331.94225    224.83852 
   92700    130.67097   -684.16005    143338.07   -39611.888    2628.7716    -42240.66    332.34705    221.08257 
   92750    132.13513   -683.40811    143316.96   -39619.608    2658.2267   -42277.834    332.54022    223.55978 
   92800    134.14915   -525.37211     143273.3   -39623.479    2698.7438   -42322.223    332.62306    226.96731 
   92850    131.35827   -682.11821    143289.55   -39601.944    2642.5984   -42244.542    332.76011    222.24542 
   92900    132.63114   -671.58241     143239.4   -39545.583    2668.2053   -42213.788    332.99122    224.39899 
   92950    133.27727   -766.69555    143201.42   -39522.914    2681.2038   -42204.117    333.02467    225.49218 
   93000    135.03494   -895.70868    143162.91   -39515.604    2716.5637   -42232.168    333.13412    228.46599 
   93050    132.36945   -737.54776    143158.58   -39539.144    2662.9407   -42202.085    333.36344    223.95624 
   93100    134.01189   -693.48754    143204.63   -39545.437    2695.9825    -42241.42    333.16471    226.73509 
   93150    135.54212    -575.4486    143215.07   -39524.216    2726.7668   -42250.983    333.03085    229.32408 
   93200     132.2083   -628.43983    143243.08   -39556.788    2659.6987   -42216.487    333.48964    223.68358 
   93250    136.25414   -698.47682    143284.58   -39534.154    2741.0909   -42275.245    333.28345    230.52875 
   93300    135.52024   -568.86031    143350.79   -39472.337    2726.3267   -42198.664     333.5105    229.28707 
   93350    135.33778   -527.85227    143448.48   -39456.775    2722.6561   -42179.431    334.13449    228.97837 
   93400    132.72537   -579.78635     143430.6   -39520.217     2670.101   -42190.318    334.50678    224.55842 
   93450     133.9517   -787.72305    143395.31     -39503.7    2694.7717   -42198.471    334.96396    226.63325 
   93500    134.76486    -682.5844    143371.88   -39539.213    2711.1303   -42250.344    334.96571    228.00903 
   93550    134.60667   -646.22781    143344.38   -39525.911    2707.9479   -42233.859    335.07609    227.74139 
   93600    132.04436   -836.55328    143320.43    -39581.41    2656.4008   -42237.811    335.09458    223.40622 
   93650    135.00774   -638.61661    143355.03   -39520.361    2716.0165   -42236.378    335.47726    228.41997 
   93700    133.83244   -675.33137    143365.79   -39536.128    2692.3723     -42228.5    335.54373    226.43147 
   93750     132.1641   -870.30962    143270.17   -39564.144    2658.8097   -42222.954    335.81317    223.60881 
   93800    134.51743   -649.55895    143233.22   -39521.769    2706.1527   -42227.922       335.55    227.59041 
   93850    132.90451   -719.06706    143300.07   -39588.016    2673.7047   -42261.721     335.8628     224.8615 
   93900    133.55046    -860.7199     143263.7   -39535.997    2686.6996   -42222.697     335.9657    225.95439 
   93950    133.75187   -757.39198    143179.55   -39515.771    2690.7516   -42206.523    335.98739    226.29516 
   94000     132.3476   -678.55895    143227.28   -39518.582    2662.5011   -42181.083    336.24628    223.91926 
   94050    131.58007   -746.97613    143171.12   -39550.243    2647.0603   -42197.303    336.82389    222.62068 
   94100    131.55046    -853.9055    143082.36   -39515.988    2646.4647   -42162.453    336.51668    222.57058 
   94150    133.91269   -671.38459    142994.84   -39529.393    2693.9868    -42223.38     337.1433    226.56724 
   94200    133.34158   -700.79598    142979.01   -39524.007    2682.4976   -42206.505    337.07381    225.60099 
   94250    133.31579    -660.3245    142979.87   -39497.857    2681.9788   -42179.836    337.23061    225.55736 
   94300    136.43535   -610.62088    143037.39   -39495.159    2744.7363   -42239.895    337.42483    230.83534 
   94350    132.76387   -892.31376    143006.38   -39485.675    2670.8753    -42156.55      337.617    224.62355 
   94400    134.28684   -562.94715    142960.22   -39464.936    2701.5138    -42166.45    337.86969    227.20027 
   94450    134.00857   -770.34638    142941.64   -39514.223    2695.9157   -42210.139    337.84372    226.72946 
   94500    131.96616   -558.00763    142939.02    -39496.04    2654.8276   -42150.867    338.20243    223.27391 
   94550    133.93574   -650.47234    142884.08   -39509.074    2694.4504   -42203.525    338.67485    226.60624 
   94600    133.42073   -587.96008    142916.22   -39512.174    2684.0899   -42196.264    338.58965     225.7349 
   94650    132.60775   -701.13983    142967.07   -39453.639    2667.7347   -42121.373    338.91737    224.35941 
   94700    136.83325   -859.68867    142952.79   -39450.284    2752.7412   -42203.025    339.45031    231.50855 
   94750    133.76073   -566.86741    142904.87   -39475.622    2690.9298   -42166.552    339.50994    226.31015 
   94800    130.29455   -566.80104    142870.03   -39510.293    2621.1988   -42131.492    339.66206     220.4457 
   94850    134.33891   -559.95651    142824.78   -39507.854    2702.5614   -42210.416    339.73834    227.28838 
   94900    130.20519   -486.78147    142783.28   -39560.171    2619.4012   -42179.572    340.15759    220.29452 
   94950    132.37354   -661.46815    142809.64   -39542.959     2663.023   -42205.982     340.6776    223.96315 
   95000    133.27711   -645.19672    142839.73   -39487.435    2681.2005   -42168.636    341.26633     225.4919 
   95050    135.13895   -595.69864    142840.06   -39446.917    2718.6561   -42165.573      341.521    228.64196 
   95100    135.49559   -844.33143    142837.07   -39492.233    2725.8308   -42218.064    341.88429    229.24536 
   95150    133.55504   -765.34819     142802.6   -39558.314    2686.7918   -42245.106    342.46892    225.96214 
   95200    133.69024    -435.7712    142879.99   -39520.234    2689.5116   -42209.745    342.29301    226.19088 
   95250    134.34966   -424.24712    142979.89   -39538.314    2702.7776   -42241.091    342.24816    227.30656 
   95300    132.46554   -790.64769    143048.16   -39541.602    2664.8737   -42206.476    342.69265     224.1188 
   95350     134.0362   -537.41583    143102.16   -39497.847    2696.4714   -42194.319    342.98819    226.77621 
   95400    133.66794   -702.65919    143146.49   -39517.722     2689.063   -42206.785    343.65376    226.15315 
   95450    133.06072   -586.11813    143130.71   -39506.525    2676.8473   -42183.372    344.15102     225.1258 
   95500     135.8348   -586.69296    143199.82   -39472.866    2732.6549   -42205.521    344.36294    229.81927 
   95550    134.29392   -553.16284    143214.19   -39490.615    2701.6562   -42192.271    344.15352    227.21225 
   95600    134.24049   -717.99862    143225.46   -39467.891    2700.5812   -42168.472     344.4276    227.12184 
   95650    133.57104   -620.40762    143250.07   -39476.808    2687.1137   -42163.922    344.92238    225.98921 
   95700     133.7175   -698.60083    143250.78   -39478.168    2690.0601   -42168.228     345.5412    226.23701 
   95750    130.11344   -750.56587    143199.84    -39524.04    2617.5555   -42141.596    345.99772    220.13929 
   95800    133.10558   -815.63637    143177.71   -39512.404    2677.7497   -42190.154    345.88553    225.20169 
   95850    132.21975   -709.34844    143089.02   -39515.838    2659.9291   -42175.767    346.16791    223.70295 
   95900    131.03729   -532.57551    143066.33   -39533.159    2636.1409   -42169.299    346.68713    221.70234 
   95950    131.73779   -662.73179    143193.23   -39528.837    2650.2333    -42179.07    347.19724    222.88753 
   96000    133.29947   -627.99861    143210.61   -39447.696    2681.6504   -42129.346    347.30292    225.52974 
   96050    134.97773   -664.78634    143174.62   -39478.042    2715.4128   -42193.455    347.61666    228.36919 
   96100    132.38299   -471.48697    143163.92   -39481.994    2663.2132   -42145.207    347.67102    223.97915 
   96150    133.55033   -673.75247    143155.92   -39443.433     2686.697    -42130.13    347.48816    225.95416 
   96200    135.75357   -651.56555    143106.75   -39430.139    2731.0207   -42161.159    347.60694    229.68183 
   96250    136.07469   -682.41023    143087.94   -39435.941    2737.4808   -42173.422     347.1249    230.22514 
   96300    132.25242   -565.56375    143052.67    -39419.54    2660.5864   -42080.127    347.36289    223.75824 
   96350    133.58593   -558.31395    143082.42   -39463.905    2687.4133   -42151.319    347.32976    226.01441 
   96400    135.22944   -604.72478    143000.39   -39453.983    2720.4765   -42174.459     347.9005    228.79506 
   96450    136.71333   -652.01809    143049.08   -39430.832    2750.3287   -42181.161    348.40551    231.30566 
   96500    136.98066    -947.6782    143057.36   -39442.946    2755.7066   -42198.653    348.50234    231.75795 
   96550    135.74889   -721.75705    143049.31   -39414.247    2730.9266   -42145.174    348.38597    229.67392 
   96600    133.96839   -656.65333    143046.17   -39453.617    2695.1073   -42148.724    348.60875    226.66148 
   96650    132.54074   -725.40355    143014.54   -39523.736    2666.3866   -42190.123    348.78986    224.24604 
   96700    133.14922   -778.68126    143019.45   -39546.814    2678.6276   -42225.442    348.96669    225.27552 
   96750    133.08148   -646.27311    142986.17   -39602.713    2677.2649   -42279.978     349.4895    225.16091 
   96800     132.3371   -535.00954    143017.54   -39595.943    2662.2898   -42258.233    349.87038    223.90149 
   96850    133.45758   -696.25746    142942.45   -39550.317    2684.8311   -42235.148    349.44697    225.79725 
   96900    131.85367   -631.32461     142988.3   -39605.915    2652.5646    -42258.48     349.6907    223.08359 
   96950    133.34598   -535.65461    142998.18    -39580.47     2682.586   -42263.056    349.49594    225.60842 
   97000     132.5521    -570.7371    143023.11   -39623.857    2666.6152   -42290.472    349.21772    224.26527 
   97050    130.87299   -772.91247    143051.41   -39623.242    2632.8357   -42256.078    349.04982    221.42437 
   97100    132.54675   -792.67941    143029.32   -39637.856    2666.5074   -42304.364    348.81435     224.2562 
   97150    132.09389   -700.30185    142942.64   -39585.292    2657.3971   -42242.689    349.50972    223.49001 
   97200    133.14024   -712.04832    142978.43   -39617.516     2678.447   -42295.963     349.5346    225.26033 
   97250    131.64983    -529.0405    142962.24   -39605.336    2648.4638     -42253.8    349.77941    222.73871 
   97300    134.79815   -489.27466    143086.47   -39536.172    2711.8001   -42247.972    350.15656    228.06536 
   97350    131.61155   -600.36389    143119.29   -39581.293    2647.6937   -42228.987    350.92088    222.67395 
   97400    133.41658   -810.53702    143112.21   -39583.385    2684.0062   -42267.391    351.52771    225.72787 
   97450    132.45655    -701.3091    143101.84   -39582.423    2664.6929   -42247.116    351.46732     224.1036 
   97500    134.51887   -527.39411    143121.73   -39565.914    2706.1816   -42272.096    351.27015    227.59284 
   97550    135.84051   -625.54987     143175.8   -39567.537    2732.7696   -42300.307    351.50856    229.82892 
   97600    134.95835    -590.6941    143157.61   -39566.858    2715.0229   -42281.881    351.28528    228.33641 
   97650    133.38477   -538.10469    143206.19   -39568.991    2683.3664   -42252.357    351.56299    225.67406 
   97700    133.25933   -571.02221    143314.07   -39583.718    2680.8429   -42264.561    351.71571    225.46183 
   97750    133.06404   -767.34445     143305.7    -39633.12     2676.914   -42310.034    351.84507    225.13141 
   97800    129.84678   -612.86045    143271.04   -39591.484    2612.1909   -42203.675     352.2093    219.68812 
   97850    132.37964   -538.40893    143330.14   -39614.356    2663.1457   -42277.502    351.78023    223.97348 
   97900    133.43027   -686.73361    143461.27   -39541.555    2684.2817   -42225.837     352.1878    225.75103 
   97950    133.28382    -556.5816    143441.45   -39553.414    2681.3355    -42234.75    352.04392    225.50326 
   98000    133.75804   -806.04241    143444.56   -39544.014    2690.8757   -42234.889    352.22214     226.3056 
   98050    132.40476   -591.76294    143430.49   -39573.643    2663.6511   -42237.294     352.6184    224.01598 
   98100    132.61717   -713.42763    143418.32   -39626.275    2667.9243     -42294.2    352.82139    224.37536 
   98150    134.22222   -673.59174    143515.15   -39622.468    2700.2138   -42322.682    353.23495    227.09094 
   98200    133.07041   -753.38516    143460.88   -39618.298    2677.0423    -42295.34    353.29797    225.14219 
   98250    132.92216   -672.07742     143432.8   -39567.894    2674.0599   -42241.954    353.09136    224.89137 
   98300    135.65328   -788.88486    143483.24   -39538.455    2729.0031   -42267.458    353.38628    229.51215 
   98350    135.53509   -774.83376    143460.99   -39554.866    2726.6253   -42281.491    353.95008    229.31218 
   98400    134.69729    -642.9912    143421.48   -39559.017    2709.7711   -42268.788    354.31487    227.89472 
   98450    132.36722   -731.18692     143400.3   -39621.715    2662.8957   -42284.611    354.66033    223.95245 
   98500    134.86044    -748.3548    143348.02   -39659.518    2713.0531   -42372.571    354.83583    228.17074 
   98550    132.98098    -669.7769    143365.86   -39661.201    2675.2432   -42336.444    354.34499    224.99089 
   98600     131.4271   -759.10697    143332.84   -39691.317    2643.9829     -42335.3    354.40803    222.36186 
   98650    131.92777   -581.38196    143302.72    -39637.71    2654.0553   -42291.765    354.63897    223.20896 
   98700    132.88686    -362.0735    143357.73    -39690.56    2673.3496   -42363.909    355.25403    224.83164 
   98750    134.24351    -745.1854    143424.04   -39698.155    2700.6421   -42398.797    355.60718    227.12696 
   98800    130.35842   -641.66421    143445.29   -39726.458    2622.4838   -42348.942    355.67307    220.55376 
   98850    131.74314   -528.58142    143466.94   -39731.836    2650.3409   -42382.177    355.96641    222.89658 
   98900    132.57667   -655.04099    143450.75   -39710.915    2667.1093   -42378.025    356.15615    224.30682 
   98950    129.76511   -796.32042    143435.89   -39725.475     2610.548   -42336.023    356.07459    219.54995 
   99000    130.96613   -633.22548    143398.29    -39757.13    2634.7094   -42391.839    355.67874    221.58196 
   99050    133.43965   -748.69665    143428.56   -39724.613    2684.4704   -42409.083    355.54306    225.76691 
   99100    131.93842   -697.45661    143401.97   -39673.441    2654.2694   -42327.711    355.99661    223.22697 
   99150    131.68503   -670.45721    143358.52   -39623.503    2649.1718   -42272.675    356.13209    222.79826 
   99200    132.70643   -628.14669    143311.08   -39626.243    2669.7199   -42295.963       356.38    224.52637 
   99250    132.05196   -840.41839    143342.79   -39660.317    2656.5537   -42316.871    356.91215    223.41908 
   99300    132.48022   -725.39114    143321.96   -39600.658     2665.169   -42265.827    356.79503    224.14364 
   99350    130.90636   -687.08049    143273.11   -39584.025    2633.5071   -42217.532    356.95135    221.48084 
   99400    132.68099   -633.61024    143344.65    -39598.76     2669.208   -42267.968    357.03733    224.48332 
   99450    132.21467   -802.65407    143406.81   -39580.543    2659.8269    -42240.37     357.5978    223.69436 
   99500    132.63568   -531.87182     143442.5   -39543.892    2668.2966   -42212.188    357.69007    224.40667 
   99550    132.43446   -563.59305    143501.18   -39484.022    2664.2485   -42148.271    358.04701    224.06622 
   99600    136.58365   -687.26287    143585.56   -39456.989    2747.7198   -42204.709    358.23169    231.08625 
   99650    135.45216   -721.22892    143556.52   -39442.195    2724.9571   -42167.152    358.61642    229.17188 
   99700    134.02419   -739.27272       143564   -39447.124    2696.2299   -42143.354    358.07859    226.75589 
   99750    134.32633    -783.0379    143507.91   -39523.758    2702.3082   -42226.066    358.06439    227.26708 
   99800    133.67182   -646.74768    143455.74   -39566.815    2689.1411   -42255.956    358.09409    226.15971 
   99850     132.4844    -594.1978    143497.05   -39539.011    2665.2532   -42204.264    358.15524    224.15072 
   99900     131.9378   -810.13592    143395.62   -39541.242    2654.2569   -42195.499    357.61494    223.22592 
   99950     134.4865   -608.00516    143409.61   -39525.876    2705.5304   -42231.407    357.89016    227.53807 
  100000    132.76243   -639.84058    143390.53   -39542.608    2670.8464   -42213.454    357.97478    224.62111 
Loop time of 189.596 on 64 procs for 100000 steps with 6750 atoms

Performance: 227.853 ns/day, 0.105 hours/ns, 527.439 timesteps/s
100.0% CPU use with 64 MPI tasks x no OpenMP threads

MPI task timing breakdown:
Section |  min time  |  avg time  |  max time  |%varavg| %total
---------------------------------------------------------------
Pair    | 35.209     | 89.058     | 148.2      | 565.4 | 46.97
Neigh   | 1.2912     | 2.6368     | 6.0358     |  89.9 |  1.39
Comm    | 27.994     | 85.582     | 142.48     | 557.1 | 45.14
Output  | 0.12828    | 0.1294     | 0.14202    |   0.5 |  0.07
Modify  | 7.1676     | 11.46      | 20.517     | 137.3 |  6.04
Other   |            | 0.7292     |            |       |  0.38

Nlocal:    105.469 ave 176 max 67 min
Histogram: 30 2 0 13 3 0 0 0 7 9
Nghost:    996.188 ave 1350 max 675 min
Histogram: 32 0 0 0 0 0 0 0 14 18
Neighs:    0 ave 0 max 0 min
Histogram: 64 0 0 0 0 0 0 0 0 0
FullNghs:  12553.9 ave 27672 max 4159 min
Histogram: 32 0 0 0 14 2 0 0 4 12

Total # of neighbors = 803450
Ave neighs/atom = 119.03
Neighbor list builds = 6141
Dangerous builds = 0

write_data		${DIR}/data.eq-${NAME}-${TEMP}
write_data		run_16/data.eq-${NAME}-${TEMP}
write_data		run_16/data.eq-het_freeze_16-${TEMP}
write_data		run_16/data.eq-het_freeze_16-225
undump          1

reset_timestep  0

unfix           2
unfix           3
unfix           4


################################################
#######         Run Simulation         #########
################################################

log				${DIR}/log.run_${NAME}
log				run_16/log.run_${NAME}
log				run_16/log.run_het_freeze_16
