LAMMPS data file via write_data, version 16 Mar 2018, timestep = 100000

6768 atoms
2 atom types

0.0000000000000000e+00 4.9219999999999999e+01 xlo xhi
0.0000000000000000e+00 4.9019635930410494e+01 ylo yhi
-1.5299867711075521e-01 6.0214998677112050e+01 zlo zhi

Masses

1 18.015
2 12.01

Atoms # atomic

105 1 4.0960526970501672e+00 9.9219330867369160e-01 1.3352793149941462e+00 1 1 1
3367 1 1.0835759664793320e+01 3.7013318023716546e-01 1.0431059195660472e+01 0 -1 1
4753 1 3.5078369802460962e-01 1.0888493157950931e+01 8.8133298914778742e+00 0 0 1
3444 1 6.1383509592053258e+00 1.7185068053941739e+00 3.1944181944172749e+00 0 1 0
522 1 7.9025789222453300e+00 3.8616017689179842e+00 1.1583623432484986e+00 1 0 0
5082 1 9.1604003068676025e+00 1.7227759341089319e+00 2.4448300442127926e+00 1 -1 1
5156 1 7.2617441748746900e+00 1.0381935764445153e+01 1.2283927036094408e+01 0 1 0
3536 1 9.3225353358613354e+00 2.0689885056629378e+00 4.9599071113906694e+00 1 0 0
3635 1 7.3407227109437712e-01 9.1348241657437406e+00 1.3323444251647951e+01 3 1 0
5481 1 1.0832187312702302e+00 4.0881666092948077e+00 1.7038037276592295e+00 0 -1 0
1667 1 3.6447405222897982e+00 4.0567744643998873e+00 2.5817024283966186e+00 0 1 1
480 1 4.1687764641813745e+00 6.5798671046130552e+00 1.9338061030656428e+00 -1 1 1
1649 1 6.7312739252918883e+00 6.0061829832850817e+00 2.4801895437151291e+00 1 -1 1
3467 1 1.0296136422473458e+01 4.6522700544110407e+00 3.0537221051170166e-01 1 0 1
5555 1 1.0211011421044892e+01 7.0181072501650208e+00 3.0964533690213809e+00 0 0 0
375 1 8.0836739975956373e+00 8.0749622720687722e+00 1.3950232043950337e+00 0 0 0
6601 1 1.3231152768077250e+00 8.9474453798187650e+00 3.5877883211467965e+00 0 0 1
5061 1 2.4857093728966331e+00 1.1678290401243991e+01 4.2593274749627419e-01 1 1 1
4859 1 3.5466718829140480e+00 9.6226505160428424e+00 1.9306434165772228e+00 0 1 1
1865 1 7.4530345392228609e-02 9.0131303200407853e+00 5.8925242698771896e-01 0 0 0
5259 1 5.6037347008017457e+00 1.0445947256808422e+01 3.6227333103895396e+00 1 0 1
2014 1 7.5298339275155897e+00 1.2100427171512933e+01 2.6639133860175052e-01 0 0 0
1997 1 7.9040408546853751e+00 1.0316889786799132e+01 2.3974744276624036e+00 -1 0 0
3206 1 1.0221140443955996e+01 1.0624091443499402e+01 3.5920609331419251e+00 0 0 1
1982 1 7.9640781916100767e-01 2.6581208971916288e+00 5.3552188138751822e+00 0 2 1
1980 1 3.0984154052170494e+00 1.0462674023559371e+01 1.4694003278104763e+01 0 0 0
5012 1 1.6648365146802035e-01 1.8943031582131515e+00 2.8716957631693161e+00 1 0 1
5149 1 8.3054250019123117e+00 3.8369609554886086e-01 6.6635580462427129e+00 1 1 0
2310 1 5.9407027994968429e+00 1.3828050567424164e+00 5.9410397815225888e+00 0 0 1
173 1 8.3476082629019182e+00 1.0293654401814563e+00 9.3123180555524332e+00 0 2 0
403 1 1.0928506705306303e+01 3.2603466815934401e+00 1.1319359242900642e+01 2 1 0
11 1 2.8692181410661539e+00 4.4951834927067376e+00 5.1198452850627492e+00 0 1 0
3353 1 2.0385134800190650e+00 6.9795910612162126e+00 5.4073992648907092e+00 0 0 1
1741 1 5.0946869904576619e+00 3.8801058981917889e+00 6.3364852292297815e+00 1 1 0
6457 1 4.9947977039766149e+00 4.3092257036075949e+00 9.2274271664213057e+00 0 0 1
5028 1 6.8778639816283276e+00 5.8980391794915121e+00 5.0168798470315048e+00 -1 0 1
4867 1 1.1119186076099869e+01 6.2888116011509663e+00 7.4069584285964378e+00 0 -1 1
1369 1 1.0006254846849258e+01 5.6653812728379647e+00 1.0019345997069747e+01 1 1 0
2123 1 7.7167123301285727e+00 7.3071036965259770e+00 9.6326692456770484e+00 0 1 0
3500 1 9.6064562518469430e+00 5.1430631970689715e+00 5.2903519182906633e+00 0 0 1
5125 1 1.2186812529997031e+01 6.3237623993613976e+00 1.2328774876355950e+00 1 0 0
3606 1 4.8252885434451226e-01 2.0824308091315498e+00 1.0302581547532101e+01 1 1 0
6666 1 2.6634648731527863e+00 1.0571182909862262e+01 7.1789989770532516e+00 0 0 1
1483 1 3.8467072173018817e+00 8.3320872250300191e+00 6.7152889094626635e+00 0 1 1
3053 1 6.4386783466038695e+00 8.6390386974231141e+00 5.6497902143348977e+00 0 2 1
3716 1 1.1870222075131100e+01 2.1365117689965536e+00 5.8585779244756475e+00 -1 0 1
5085 1 1.0993710157935745e+01 9.1138416037896466e+00 7.7338099673920571e+00 1 0 1
1403 1 8.0122884552582594e+00 9.3038601529287490e+00 7.7995817296119503e+00 2 -1 1
1723 1 1.1662571060847588e+01 8.8440550642500284e+00 4.9886986998282294e+00 0 1 1
2141 1 3.2271391970814589e+00 2.5987114337876021e+00 1.0795586679069546e+01 0 0 0
233 1 3.4507108184656006e+00 2.6093800824550772e+00 1.3677053069670727e+01 -1 1 0
1758 1 4.0488422541190561e+00 1.4200807656777803e-01 7.4761801167421096e+00 0 1 0
3102 1 1.0544279210065412e+01 1.0025961468011561e+01 1.3724516697521562e+01 0 1 1
3795 1 8.0245138922304218e+00 5.7470449659033225e+00 1.4169649810854642e+01 1 1 0
3043 1 7.6666560711275684e+00 3.7368042027253341e+00 1.0114803002847621e+01 0 1 1
3797 1 7.8943733814717598e+00 3.6721113853458753e+00 1.2782532468433194e+01 0 0 0
3131 1 1.1836884165501639e+01 1.2068579731530809e+01 7.7366347520671006e+00 0 1 1
1807 1 4.5300355668763386e+00 6.7102916384495170e+00 1.3442745690795940e+01 0 1 0
112 1 1.4911620529009631e-01 1.1361838840031361e+01 1.1825154739388198e+01 0 0 0
28 1 1.1613422162434134e+01 1.1369213830430525e+01 1.2364868890417426e+00 1 -1 0
3214 1 2.0678545713782408e+00 6.7298843861141524e+00 1.2772210476905617e+01 2 1 1
3506 1 6.6350689713129907e-01 4.5059432051860160e+00 1.4042856384194359e+01 1 0 0
3639 1 3.6225919571673248e+00 1.0476696677893012e+01 1.1423873825372858e+01 0 1 0
3054 1 1.8541641924449921e+00 8.0482657214042419e+00 1.0064384598458801e+01 0 2 1
2345 1 4.2958310836599498e+00 6.8793143052898769e+00 8.9267231457931597e+00 0 1 0
5243 1 1.2032678322937940e+01 6.6652034080856906e+00 1.1889932995014311e+01 2 0 1
5554 1 5.2944094071230348e+00 8.0838208220975307e+00 1.1449290918237288e+01 1 0 0
3108 1 1.1450598356535332e+01 2.1500126483030124e+00 1.3471857521119470e+00 -1 0 1
3940 1 8.8007018966707715e+00 7.7777886698836802e+00 1.2595803077599934e+01 1 0 1
2129 1 5.3241060064335466e+00 4.2826241243188212e+00 1.2708225301344408e+01 0 0 1
1409 1 9.5625599284901757e+00 2.1123888802637110e+00 1.4447092992561762e+01 -1 0 1
6705 1 1.4304950004992008e+00 4.4455447380470048e-01 1.4309207993636409e+01 0 0 1
6564 1 4.3718841661792034e+00 1.1903651593409371e+01 9.0971636307716519e+00 0 1 1
17 1 7.1333224181847132e+00 1.1624955767823774e+01 8.8316876931009567e+00 0 0 0
286 1 1.2083057267778084e+01 7.8613433815392932e+00 1.4409763822359373e+01 1 0 0
54 1 5.3811147854186048e-01 1.2034061311264761e+01 3.5297821315310696e+00 1 0 1
2114 1 4.1330145113235304e+00 1.6263533809267634e+00 1.8255478340829562e+01 1 0 1
6661 1 2.4552438928117617e+00 5.9433326869954008e+00 1.7705266002629159e+01 0 -1 1
3435 1 1.2040157305363401e+00 1.0973569279607907e+00 1.8431227892762784e+01 0 -1 0
3941 1 8.4208263168759494e+00 1.2239149557693048e+00 2.4256859432492888e+01 0 1 0
3237 1 3.7567127775924622e+00 3.7508997766408525e+00 1.6432401461701144e+01 0 0 0
799 2 9.8440000000000012e+00 1.1366872099805333e+01 2.6806494782045444e+01 0 0 0
1608 1 7.7400617117605668e+00 3.8573237165314724e+00 1.7491734518805735e+01 1 1 1
6656 1 8.2986043021813813e+00 1.3753413946773789e+00 1.6968263111475718e+01 0 0 1
371 1 1.3433466643360497e+00 7.8398139416534667e+00 1.9319331350765552e+01 0 1 0
1595 1 6.0247947337521257e+00 3.8628578576099843e+00 1.9527031759107640e+01 0 0 1
5480 1 5.9299398920815660e+00 5.5155246041727537e+00 1.6286095211993480e+01 2 2 0
4740 1 9.7581716346647411e+00 4.9198625030176952e+00 1.8777659924952651e+01 0 0 1
5473 1 8.4160813118912934e+00 7.9639335751066920e+00 1.7296039318285594e+01 0 1 0
1811 1 6.6646486397832982e-01 3.3136504852973365e+00 2.3327696437725166e+01 3 2 0
3679 1 5.2902155552880870e-01 5.2444400248050069e+00 2.1064021705563238e+01 1 0 0
5391 1 3.7428956577867933e+00 7.9291424126988304e+00 1.6026553176789029e+01 0 0 0
6496 1 5.8336925436202836e-01 2.3169263186898905e+00 1.6179906383263088e+01 1 0 1
2168 1 5.8638996456575398e+00 9.1574636941086283e+00 1.7014499577950943e+01 0 -1 1
3073 1 5.2187252860379427e+00 9.5366427271325911e+00 1.9805792735120082e+01 -1 1 1
800 2 9.8440000000000012e+00 9.9460130873296642e+00 3.0031000000000560e+01 0 0 0
6467 1 1.0758490260953462e+01 9.1441003297755810e+00 2.0484334122323769e+01 0 1 1
1949 1 9.4957260567538313e+00 1.0806153490804887e+01 1.7388362591068180e+01 0 1 0
756 2 8.6134999999999984e+00 9.2355835810918343e+00 2.6806494782045444e+01 0 0 0
1678 1 2.5321551171279131e+00 4.5357049272869236e+00 2.4748501618179969e+01 1 1 1
5552 1 3.8643190133817713e+00 2.0733140555549889e+00 2.4293433122540851e+01 0 1 0
3466 1 2.8869242052604598e+00 1.8728226865415618e+00 2.1630438048432229e+01 2 0 0
5532 1 1.2280024646317527e+01 1.1496579399317376e+01 1.6703233506198384e+01 1 0 0
3474 1 6.7512627313506153e+00 2.0118503713895861e+00 2.1038299475188495e+01 0 0 0
5201 1 6.3411536979864325e+00 3.0536405658280024e+00 2.3633463020589517e+01 1 1 0
2078 1 1.0162512226427365e+01 6.2784045629172054e+00 1.5990506321396850e+01 1 0 0
289 1 9.3554992957219394e+00 1.8722483333566851e+00 2.1649500327526482e+01 0 1 0
1655 1 1.0968565087338488e+01 3.9590345825089743e+00 2.2894285176850797e+01 0 1 1
797 2 8.6134999999999984e+00 1.0656442593567498e+01 2.6806494782045444e+01 0 0 0
1939 1 3.6617273367344545e+00 8.4312741751262887e+00 2.3354005376821490e+01 0 0 0
5154 1 3.2727435494506745e+00 4.5491366508877915e+00 2.0101214772412188e+01 1 0 0
1458 1 1.2210294444627474e+00 6.9655830814068915e+00 2.3810122013085561e+01 0 0 1
3860 1 7.2197761401626614e+00 5.8743058168971043e+00 2.3629907307969756e+01 1 0 0
3413 1 6.5280203738986051e+00 6.2517930963741568e+00 2.1122492797075072e+01 1 -1 0
2128 1 4.1172490418873027e+00 7.5050490568877732e+00 2.0976995786653561e+01 1 0 0
5044 1 8.6957743426569181e+00 7.3609306518584381e+00 1.9861989086709663e+01 0 3 0
1509 1 9.9183479177318912e+00 6.2176914532606675e+00 2.4300666497489818e+01 0 0 1
4880 1 1.1000831113634244e+00 1.0365451626618849e+01 1.6861563451975499e+01 0 -1 0
6690 1 2.4902058508567726e+00 1.0971588204588146e+01 2.3570053285548514e+01 1 0 1
846 2 1.2304999999999998e+01 1.1366872099805333e+01 2.6806494782045444e+01 0 0 0
5207 1 6.3850290298728023e+00 8.2684728052806928e+00 2.4333492439424656e+01 1 0 0
6709 1 7.9781705447333646e+00 1.0066234239293269e+01 2.3402015480818473e+01 1 1 0
798 2 8.6134999999999984e+00 1.0656442593567498e+01 3.0031000000000560e+01 0 0 0
802 2 9.8440000000000012e+00 8.5251540748539956e+00 3.0031000000000560e+01 0 0 0
3532 1 1.0497674125986556e+01 1.1875668284192782e+01 2.0531518997086671e+01 1 1 1
4807 1 1.0236361823626957e+01 8.8938547156819574e+00 2.3067712966749621e+01 0 0 1
4953 1 6.8656037571822806e+00 1.0891458311050030e+01 2.1067964225397166e+01 0 1 1
623 2 0.0000000000000000e+00 2.8417180249513345e+00 2.6806494782045444e+01 0 0 0
625 2 0.0000000000000000e+00 0.0000000000000000e+00 2.6806494782045444e+01 0 0 0
627 2 1.2305000000000001e+00 7.1042950623783474e-01 2.6806494782045444e+01 0 0 0
634 2 1.2305000000000001e+00 2.1312885187134998e+00 2.6806494782045444e+01 0 0 0
636 2 2.4610000000000003e+00 2.8417180249513345e+00 2.6806494782045444e+01 0 0 0
638 2 2.4610000000000003e+00 0.0000000000000000e+00 2.6806494782045444e+01 0 0 0
640 2 3.6915000000000004e+00 7.1042950623783474e-01 2.6806494782045444e+01 0 0 0
655 2 3.6914999999999996e+00 2.1312885187134998e+00 2.6806494782045444e+01 0 0 0
624 2 0.0000000000000000e+00 1.4208590124756650e+00 3.0031000000000560e+01 0 0 0
626 2 0.0000000000000000e+00 0.0000000000000000e+00 3.0031000000000560e+01 0 0 0
633 2 1.2305000000000001e+00 3.5521475311891644e+00 3.0031000000000560e+01 0 0 0
635 2 1.2305000000000001e+00 2.1312885187134998e+00 3.0031000000000560e+01 0 0 0
637 2 2.4610000000000003e+00 1.4208590124756650e+00 3.0031000000000560e+01 0 0 0
639 2 2.4610000000000003e+00 0.0000000000000000e+00 3.0031000000000560e+01 0 0 0
654 2 3.6914999999999996e+00 3.5521475311891644e+00 3.0031000000000560e+01 0 0 0
656 2 3.6914999999999996e+00 2.1312885187134998e+00 3.0031000000000560e+01 0 0 0
657 2 4.9220000000000006e+00 2.8417180249513332e+00 2.6806494782045444e+01 0 0 0
659 2 4.9220000000000006e+00 0.0000000000000000e+00 2.6806494782045444e+01 0 0 0
661 2 6.1524999999999999e+00 7.1042950623783407e-01 2.6806494782045444e+01 0 0 0
684 2 6.1524999999999999e+00 2.1312885187134989e+00 2.6806494782045444e+01 0 0 0
686 2 7.3829999999999991e+00 2.8417180249513345e+00 2.6806494782045444e+01 0 0 0
688 2 7.3829999999999991e+00 0.0000000000000000e+00 2.6806494782045444e+01 0 0 0
658 2 4.9220000000000006e+00 1.4208590124756650e+00 3.0031000000000560e+01 0 0 0
660 2 4.9220000000000006e+00 0.0000000000000000e+00 3.0031000000000560e+01 0 0 0
683 2 6.1524999999999999e+00 3.5521475311891644e+00 3.0031000000000560e+01 0 0 0
685 2 6.1524999999999999e+00 2.1312885187134989e+00 3.0031000000000560e+01 0 0 0
687 2 7.3829999999999991e+00 1.4208590124756659e+00 3.0031000000000560e+01 0 0 0
689 2 7.3829999999999991e+00 0.0000000000000000e+00 3.0031000000000560e+01 0 0 0
690 2 8.6134999999999984e+00 7.1042950623783407e-01 2.6806494782045444e+01 0 0 0
721 2 8.6134999999999984e+00 2.1312885187135002e+00 2.6806494782045444e+01 0 0 0
723 2 9.8440000000000012e+00 2.8417180249513332e+00 2.6806494782045444e+01 0 0 0
725 2 9.8440000000000012e+00 0.0000000000000000e+00 2.6806494782045444e+01 0 0 0
727 2 1.1074500000000002e+01 7.1042950623783330e-01 2.6806494782045444e+01 0 0 0
766 2 1.1074500000000002e+01 2.1312885187135002e+00 2.6806494782045444e+01 0 0 0
720 2 8.6134999999999984e+00 3.5521475311891657e+00 3.0031000000000560e+01 0 0 0
722 2 8.6134999999999984e+00 2.1312885187135002e+00 3.0031000000000560e+01 0 0 0
724 2 9.8440000000000012e+00 1.4208590124756659e+00 3.0031000000000560e+01 0 0 0
726 2 9.8440000000000012e+00 0.0000000000000000e+00 3.0031000000000560e+01 0 0 0
765 2 1.1074500000000002e+01 3.5521475311891644e+00 3.0031000000000560e+01 0 0 0
767 2 1.1074500000000002e+01 2.1312885187135002e+00 3.0031000000000560e+01 0 0 0
628 2 0.0000000000000000e+00 7.1042950623783341e+00 2.6806494782045444e+01 0 0 0
630 2 0.0000000000000000e+00 4.2625770374269996e+00 2.6806494782045444e+01 0 0 0
632 2 1.2305000000000001e+00 4.9730065436648339e+00 2.6806494782045444e+01 0 0 0
647 2 1.2305000000000001e+00 6.3938655561404980e+00 2.6806494782045444e+01 0 0 0
649 2 2.4610000000000003e+00 7.1042950623783341e+00 2.6806494782045444e+01 0 0 0
651 2 2.4610000000000003e+00 4.2625770374269996e+00 2.6806494782045444e+01 0 0 0
653 2 3.6914999999999996e+00 4.9730065436648339e+00 2.6806494782045444e+01 0 0 0
676 2 3.6914999999999996e+00 6.3938655561404980e+00 2.6806494782045444e+01 0 0 0
629 2 0.0000000000000000e+00 5.6834360499026637e+00 3.0031000000000560e+01 0 0 0
631 2 0.0000000000000000e+00 4.2625770374269996e+00 3.0031000000000560e+01 0 0 0
646 2 1.2305000000000001e+00 7.8147245686161639e+00 3.0031000000000560e+01 0 0 0
648 2 1.2305000000000001e+00 6.3938655561404980e+00 3.0031000000000560e+01 0 0 0
650 2 2.4610000000000003e+00 5.6834360499026637e+00 3.0031000000000560e+01 0 0 0
652 2 2.4610000000000003e+00 4.2625770374269996e+00 3.0031000000000560e+01 0 0 0
675 2 3.6914999999999996e+00 7.8147245686161639e+00 3.0031000000000560e+01 0 0 0
677 2 3.6914999999999996e+00 6.3938655561404980e+00 3.0031000000000560e+01 0 0 0
678 2 4.9220000000000006e+00 7.1042950623783341e+00 2.6806494782045444e+01 0 0 0
680 2 4.9220000000000006e+00 4.2625770374269978e+00 2.6806494782045444e+01 0 0 0
682 2 6.1524999999999999e+00 4.9730065436648339e+00 2.6806494782045444e+01 0 0 0
713 2 6.1524999999999999e+00 6.3938655561404980e+00 2.6806494782045444e+01 0 0 0
715 2 7.3830000000000009e+00 7.1042950623783341e+00 2.6806494782045444e+01 0 0 0
717 2 7.3829999999999991e+00 4.2625770374269996e+00 2.6806494782045444e+01 0 0 0
679 2 4.9220000000000006e+00 5.6834360499026637e+00 3.0031000000000560e+01 0 0 0
681 2 4.9220000000000006e+00 4.2625770374269978e+00 3.0031000000000560e+01 0 0 0
712 2 6.1524999999999999e+00 7.8147245686161639e+00 3.0031000000000560e+01 0 0 0
714 2 6.1524999999999999e+00 6.3938655561404980e+00 3.0031000000000560e+01 0 0 0
716 2 7.3829999999999991e+00 5.6834360499026637e+00 3.0031000000000560e+01 0 0 0
718 2 7.3829999999999991e+00 4.2625770374269996e+00 3.0031000000000560e+01 0 0 0
719 2 8.6135000000000002e+00 4.9730065436648339e+00 2.6806494782045444e+01 0 0 0
758 2 8.6135000000000002e+00 6.3938655561404980e+00 2.6806494782045444e+01 0 0 0
760 2 9.8440000000000012e+00 7.1042950623783341e+00 2.6806494782045444e+01 0 0 0
762 2 9.8440000000000012e+00 4.2625770374270004e+00 2.6806494782045444e+01 0 0 0
764 2 1.1074500000000002e+01 4.9730065436648339e+00 2.6806494782045444e+01 0 0 0
805 2 1.1074500000000002e+01 6.3938655561404980e+00 2.6806494782045444e+01 0 0 0
757 2 8.6135000000000002e+00 7.8147245686161639e+00 3.0031000000000560e+01 0 0 0
759 2 8.6135000000000002e+00 6.3938655561404980e+00 3.0031000000000560e+01 0 0 0
761 2 9.8440000000000012e+00 5.6834360499026637e+00 3.0031000000000560e+01 0 0 0
763 2 9.8440000000000012e+00 4.2625770374270004e+00 3.0031000000000560e+01 0 0 0
804 2 1.1074500000000002e+01 7.8147245686161639e+00 3.0031000000000560e+01 0 0 0
806 2 1.1074500000000002e+01 6.3938655561404980e+00 3.0031000000000560e+01 0 0 0
641 2 0.0000000000000000e+00 1.1366872099805333e+01 2.6806494782045444e+01 0 0 0
643 2 0.0000000000000000e+00 8.5251540748539991e+00 2.6806494782045444e+01 0 0 0
645 2 1.2305000000000001e+00 9.2355835810918343e+00 2.6806494782045444e+01 0 0 0
668 2 1.2305000000000001e+00 1.0656442593567498e+01 2.6806494782045444e+01 0 0 0
670 2 2.4610000000000003e+00 1.1366872099805333e+01 2.6806494782045444e+01 0 0 0
672 2 2.4610000000000003e+00 8.5251540748539991e+00 2.6806494782045444e+01 0 0 0
674 2 3.6915000000000004e+00 9.2355835810918343e+00 2.6806494782045444e+01 0 0 0
705 2 3.6914999999999996e+00 1.0656442593567499e+01 2.6806494782045444e+01 0 0 0
642 2 0.0000000000000000e+00 9.9460130873296642e+00 3.0031000000000560e+01 0 0 0
644 2 0.0000000000000000e+00 8.5251540748539991e+00 3.0031000000000560e+01 0 0 0
667 2 1.2305000000000001e+00 1.2077301606043163e+01 3.0031000000000560e+01 0 0 0
669 2 1.2305000000000001e+00 1.0656442593567498e+01 3.0031000000000560e+01 0 0 0
671 2 2.4610000000000003e+00 9.9460130873296642e+00 3.0031000000000560e+01 0 0 0
673 2 2.4610000000000003e+00 8.5251540748539991e+00 3.0031000000000560e+01 0 0 0
704 2 3.6914999999999996e+00 1.2077301606043163e+01 3.0031000000000560e+01 0 0 0
706 2 3.6914999999999996e+00 1.0656442593567499e+01 3.0031000000000560e+01 0 0 0
707 2 4.9220000000000006e+00 1.1366872099805333e+01 2.6806494782045444e+01 0 0 0
709 2 4.9220000000000006e+00 8.5251540748539991e+00 2.6806494782045444e+01 0 0 0
711 2 6.1524999999999999e+00 9.2355835810918343e+00 2.6806494782045444e+01 0 0 0
750 2 6.1524999999999999e+00 1.0656442593567499e+01 2.6806494782045444e+01 0 0 0
752 2 7.3829999999999991e+00 1.1366872099805333e+01 2.6806494782045444e+01 0 0 0
754 2 7.3830000000000009e+00 8.5251540748539991e+00 2.6806494782045444e+01 0 0 0
708 2 4.9220000000000006e+00 9.9460130873296642e+00 3.0031000000000560e+01 0 0 0
710 2 4.9220000000000006e+00 8.5251540748539991e+00 3.0031000000000560e+01 0 0 0
749 2 6.1524999999999999e+00 1.2077301606043163e+01 3.0031000000000560e+01 0 0 0
751 2 6.1524999999999999e+00 1.0656442593567499e+01 3.0031000000000560e+01 0 0 0
753 2 7.3830000000000009e+00 9.9460130873296642e+00 3.0031000000000560e+01 0 0 0
755 2 7.3830000000000009e+00 8.5251540748539991e+00 3.0031000000000560e+01 0 0 0
844 2 1.1074500000000002e+01 1.0656442593567498e+01 2.6806494782045444e+01 0 0 0
801 2 9.8440000000000012e+00 8.5251540748539956e+00 2.6806494782045444e+01 0 0 0
843 2 1.1074500000000002e+01 1.2077301606043163e+01 3.0031000000000560e+01 0 0 0
796 2 8.6135000000000002e+00 1.2077301606043163e+01 3.0031000000000560e+01 0 0 0
845 2 1.1074500000000002e+01 1.0656442593567498e+01 3.0031000000000560e+01 0 0 0
803 2 1.1074500000000002e+01 9.2355835810918343e+00 2.6806494782045444e+01 0 0 0
3292 1 1.1105592616273336e+01 2.3422572756723251e-01 2.0594063357771567e+01 0 0 0
2321 1 2.7292774908176840e+00 1.0747999799209261e+01 1.9263940224810678e+01 0 0 0
1530 1 8.8709405667364081e+00 1.1679420974633395e+01 1.5150066183101595e+01 0 0 1
6755 1 1.1613674856056022e+01 3.9223793906268112e+00 1.4950479071959029e+01 2 0 1
5612 1 1.1798173821645140e+01 4.2859003801727003e+00 2.0468555245604410e+01 0 1 0
4724 1 5.8063531897822491e+00 5.8688210270937180e-01 1.6528436964562161e+01 1 1 1
1873 1 5.6244965037878447e-01 1.0914846230111589e+01 2.0876829694957660e+01 0 0 0
1592 1 6.1970246220031830e+00 1.1283852577018699e+01 1.5101324221082759e+01 0 1 1
952 2 0.0000000000000000e+00 2.8417180249513345e+00 3.3255505217955630e+01 0 0 0
953 2 0.0000000000000000e+00 0.0000000000000000e+00 3.3255505217955630e+01 0 0 0
954 2 1.2305000000000001e+00 7.1042950623783474e-01 3.3255505217955630e+01 0 0 0
958 2 1.2305000000000001e+00 2.1312885187134998e+00 3.3255505217955630e+01 0 0 0
959 2 2.4610000000000003e+00 2.8417180249513345e+00 3.3255505217955630e+01 0 0 0
960 2 2.4610000000000003e+00 0.0000000000000000e+00 3.3255505217955630e+01 0 0 0
961 2 3.6915000000000004e+00 7.1042950623783474e-01 3.3255505217955630e+01 0 0 0
969 2 3.6914999999999996e+00 2.1312885187134998e+00 3.3255505217955630e+01 0 0 0
970 2 4.9220000000000006e+00 2.8417180249513332e+00 3.3255505217955630e+01 0 0 0
971 2 4.9220000000000006e+00 0.0000000000000000e+00 3.3255505217955630e+01 0 0 0
972 2 6.1524999999999999e+00 7.1042950623783407e-01 3.3255505217955630e+01 0 0 0
984 2 6.1524999999999999e+00 2.1312885187134989e+00 3.3255505217955630e+01 0 0 0
985 2 7.3829999999999991e+00 2.8417180249513345e+00 3.3255505217955630e+01 0 0 0
986 2 7.3829999999999991e+00 0.0000000000000000e+00 3.3255505217955630e+01 0 0 0
987 2 8.6134999999999984e+00 7.1042950623783407e-01 3.3255505217955630e+01 0 0 0
1003 2 8.6134999999999984e+00 2.1312885187135002e+00 3.3255505217955630e+01 0 0 0
1004 2 9.8440000000000012e+00 2.8417180249513332e+00 3.3255505217955630e+01 0 0 0
1005 2 9.8440000000000012e+00 0.0000000000000000e+00 3.3255505217955630e+01 0 0 0
1006 2 1.1074500000000002e+01 7.1042950623783330e-01 3.3255505217955630e+01 0 0 0
1026 2 1.1074500000000002e+01 2.1312885187135002e+00 3.3255505217955630e+01 0 0 0
955 2 0.0000000000000000e+00 7.1042950623783341e+00 3.3255505217955630e+01 0 0 0
956 2 0.0000000000000000e+00 4.2625770374269996e+00 3.3255505217955630e+01 0 0 0
957 2 1.2305000000000001e+00 4.9730065436648339e+00 3.3255505217955630e+01 0 0 0
965 2 1.2305000000000001e+00 6.3938655561404980e+00 3.3255505217955630e+01 0 0 0
966 2 2.4610000000000003e+00 7.1042950623783341e+00 3.3255505217955630e+01 0 0 0
967 2 2.4610000000000003e+00 4.2625770374269996e+00 3.3255505217955630e+01 0 0 0
968 2 3.6914999999999996e+00 4.9730065436648339e+00 3.3255505217955630e+01 0 0 0
980 2 3.6914999999999996e+00 6.3938655561404980e+00 3.3255505217955630e+01 0 0 0
981 2 4.9220000000000006e+00 7.1042950623783341e+00 3.3255505217955630e+01 0 0 0
982 2 4.9220000000000006e+00 4.2625770374269978e+00 3.3255505217955630e+01 0 0 0
983 2 6.1524999999999999e+00 4.9730065436648339e+00 3.3255505217955630e+01 0 0 0
999 2 6.1524999999999999e+00 6.3938655561404980e+00 3.3255505217955630e+01 0 0 0
1000 2 7.3830000000000009e+00 7.1042950623783341e+00 3.3255505217955630e+01 0 0 0
1001 2 7.3829999999999991e+00 4.2625770374269996e+00 3.3255505217955630e+01 0 0 0
1002 2 8.6135000000000002e+00 4.9730065436648339e+00 3.3255505217955630e+01 0 0 0
1022 2 8.6135000000000002e+00 6.3938655561404980e+00 3.3255505217955630e+01 0 0 0
1023 2 9.8440000000000012e+00 7.1042950623783341e+00 3.3255505217955630e+01 0 0 0
1024 2 9.8440000000000012e+00 4.2625770374270004e+00 3.3255505217955630e+01 0 0 0
1025 2 1.1074500000000002e+01 4.9730065436648339e+00 3.3255505217955630e+01 0 0 0
1046 2 1.1074500000000002e+01 6.3938655561404980e+00 3.3255505217955630e+01 0 0 0
962 2 0.0000000000000000e+00 1.1366872099805333e+01 3.3255505217955630e+01 0 0 0
963 2 0.0000000000000000e+00 8.5251540748539991e+00 3.3255505217955630e+01 0 0 0
964 2 1.2305000000000001e+00 9.2355835810918343e+00 3.3255505217955630e+01 0 0 0
976 2 1.2305000000000001e+00 1.0656442593567498e+01 3.3255505217955630e+01 0 0 0
977 2 2.4610000000000003e+00 1.1366872099805333e+01 3.3255505217955630e+01 0 0 0
978 2 2.4610000000000003e+00 8.5251540748539991e+00 3.3255505217955630e+01 0 0 0
979 2 3.6915000000000004e+00 9.2355835810918343e+00 3.3255505217955630e+01 0 0 0
995 2 3.6914999999999996e+00 1.0656442593567499e+01 3.3255505217955630e+01 0 0 0
996 2 4.9220000000000006e+00 1.1366872099805333e+01 3.3255505217955630e+01 0 0 0
997 2 4.9220000000000006e+00 8.5251540748539991e+00 3.3255505217955630e+01 0 0 0
998 2 6.1524999999999999e+00 9.2355835810918343e+00 3.3255505217955630e+01 0 0 0
1018 2 6.1524999999999999e+00 1.0656442593567499e+01 3.3255505217955630e+01 0 0 0
1019 2 7.3829999999999991e+00 1.1366872099805333e+01 3.3255505217955630e+01 0 0 0
1020 2 7.3830000000000009e+00 8.5251540748539991e+00 3.3255505217955630e+01 0 0 0
1021 2 8.6134999999999984e+00 9.2355835810918343e+00 3.3255505217955630e+01 0 0 0
1042 2 8.6134999999999984e+00 1.0656442593567498e+01 3.3255505217955630e+01 0 0 0
1043 2 9.8440000000000012e+00 1.1366872099805333e+01 3.3255505217955630e+01 0 0 0
1044 2 9.8440000000000012e+00 8.5251540748539956e+00 3.3255505217955630e+01 0 0 0
1045 2 1.1074500000000002e+01 9.2355835810918343e+00 3.3255505217955630e+01 0 0 0
1066 2 1.1074500000000002e+01 1.0656442593567498e+01 3.3255505217955630e+01 0 0 0
1067 2 1.2304999999999998e+01 1.1366872099805333e+01 3.3255505217955630e+01 0 0 0
3944 1 1.6635761848236985e+00 5.7825267389642123e+00 3.9955400609447040e+01 0 1 0
2312 1 2.7210417601966159e+00 3.3489757402323002e+00 3.9306711505441257e+01 0 0 0
204 1 7.2582846583160192e+00 4.3494226815511468e+00 4.4627970478318687e+01 0 0 -1
89 1 9.3810011204245225e-01 1.4692640437440829e+00 3.9290553699572982e+01 0 1 0
125 1 2.7664631710725729e+00 2.8297430015773548e+00 3.6058802172076398e+01 0 2 -1
444 1 5.7885956012174038e+00 1.5129437670243651e+00 3.5716990403178784e+01 1 2 -1
355 1 4.8868335142165735e+00 2.2922049803141200e+00 4.0090479679519476e+01 0 1 -1
1469 1 5.7575733558889706e+00 3.6363069303851572e+00 3.7542082904053572e+01 1 -1 0
75 1 8.6597153599916759e+00 1.2474700494069353e+00 3.6154354566955263e+01 -1 -1 -1
3868 1 1.1623458168795493e+01 3.5979225150803090e-01 3.6511413783951994e+01 2 0 0
5348 1 1.9960371016813185e+00 5.6541751119400452e+00 3.5805967266226531e+01 2 0 -1
3490 1 4.2578092067653328e+00 7.0782237991684314e+00 3.9235988668950213e+01 1 1 -1
5121 1 8.6373884162132306e+00 3.6163550435344227e+00 3.7158375068037216e+01 0 0 -1
1570 1 4.7075057236647391e+00 6.0341931377817923e+00 3.6743035050272823e+01 1 1 0
6382 1 9.5472817021450105e+00 6.0363471644774629e+00 3.8735007997263310e+01 2 1 0
3421 1 1.0790821049115971e+01 8.3861807722707074e+00 3.7608800444509285e+01 1 0 -1
619 1 1.2256572232741421e+01 1.0513094210548523e+01 3.9499697010203164e+01 -1 1 0
1623 1 4.0868403280706582e+00 1.0242561213330593e+01 3.7066770565327033e+01 1 0 0
3117 1 5.7538049973724004e-01 9.8638525388133900e+00 3.9370121989920690e+01 1 1 0
4832 1 7.2181037380961088e+00 1.1110150163833843e+01 3.9312146563118105e+01 1 0 0
1763 1 5.8915499190134266e+00 8.4821017338374691e+00 3.5981735479450563e+01 1 1 -1
3966 1 8.1928545424833921e+00 9.9938987374884292e+00 3.7039959775381760e+01 1 1 0
5609 1 4.8148412471014250e+00 9.7412457531968961e+00 3.9673371767871956e+01 1 1 0
1466 1 7.8137249045236290e+00 9.5813347788072374e+00 4.1453442534652126e+01 1 0 0
3624 1 6.3610970371962541e+00 1.4871396181659573e+00 4.3939488185142821e+01 1 0 -1
3504 1 6.2382751407598636e-01 8.9048778971926612e-01 3.6364755272087777e+01 1 2 -1
6544 1 6.1831791185189489e-01 8.6532125652668341e+00 4.2667728727083798e+01 -1 0 0
1965 1 4.1932832122215311e+00 2.0948833013701602e+00 4.2760162912272264e+01 1 0 -1
320 1 1.1144988482522791e+01 1.0316055827147348e+01 4.1936636146252013e+01 0 0 0
6444 1 3.5248766768971591e+00 4.9221945867692867e+00 4.3176874072556345e+01 1 -1 0
5096 1 7.6880777331127748e+00 3.2006724667559330e+00 4.0551710317874338e+01 2 0 -1
4705 1 1.0837934095492344e+01 2.1524141087110631e+00 4.3144335552223851e+01 2 0 0
335 1 7.3928075297713880e+00 5.4199322649111803e+00 4.2196308324374570e+01 0 0 -1
5573 1 1.5679708625959943e-01 6.4882861005188888e+00 3.7796834901784919e+01 1 1 -1
1695 1 1.6175644179940589e+00 9.1224817039598172e+00 3.7071180011319001e+01 0 0 0
3816 1 9.8144641930172416e-01 5.6711085094121874e+00 4.2475036246540469e+01 2 2 -1
3349 1 5.0720694132492143e+00 6.8239013837572315e+00 4.1973904877800791e+01 -1 1 -1
1704 1 5.1165362943832822e+00 9.6393587626487811e+00 4.3057009000792519e+01 1 0 -1
5220 1 2.5632136910654730e+00 1.0393418348985591e+01 4.3435731940947846e+01 1 0 0
6470 1 1.1222046371563088e+01 6.3226701301458865e+00 4.3967843845614865e+01 0 -1 0
5704 1 9.5234957838602856e+00 7.2397575858264824e+00 4.1557842493349710e+01 0 0 0
4902 1 2.7923666649452290e+00 1.1229748824793568e+01 4.0567181268748229e+01 1 2 0
2208 1 6.2331373421082610e+00 1.2021811569699556e+01 4.4196483612742270e+01 2 1 0
1487 1 1.1601233397369448e+01 4.8133503311267685e+00 3.9413865024708500e+01 0 1 0
465 1 8.2300649869818248e+00 6.5035838206265828e-01 4.2262329221941812e+01 -1 0 -1
594 1 1.0525671642121928e+01 2.3871722337098031e+00 4.0356167780190390e+01 1 1 0
3980 1 8.6575760579681411e+00 1.1607328176267918e+01 4.3242817347178871e+01 1 0 0
2210 1 2.3705498273430989e+00 6.1331418309244157e-02 4.3080862490642147e+01 1 0 -1
3484 1 3.6974292255921815e+00 6.6446975745467300e+00 5.9489685364216243e+01 -1 1 -1
557 1 1.9707853477292490e+00 9.1414280489587674e-01 5.8301237216238363e+01 -1 1 0
6703 1 2.6894119921934214e+00 5.4690299805973153e+00 4.7852825356236053e+01 1 1 -1
2028 1 5.2653885346106932e+00 4.1072783921596878e+00 4.9121607731541417e+01 1 1 -1
374 1 2.5208073371028976e+00 1.8301908671572700e+00 4.5861623390804965e+01 1 1 -1