LAMMPS data file via write_data, version 16 Mar 2018, timestep = 100000

6489 atoms
2 atom types

0.0000000000000000e+00 4.9219999999999999e+01 xlo xhi
0.0000000000000000e+00 4.9019635930410494e+01 ylo yhi
2.0906975207776846e+00 5.7971302479221379e+01 zlo zhi

Masses

1 18.015
2 12.01

Atoms # atomic

3566 1 5.4651179215906245e+00 1.6141830923036360e+00 5.4686941875607094e+00 0 -1 0
5064 1 2.6226736679752447e+00 2.0562755881651253e+00 3.6842985531541594e+00 1 1 0
1597 1 1.2103898655697007e+00 2.9429331487660843e-01 7.3518415727708266e+00 0 2 0
3172 1 8.4794140070628128e+00 5.0195579974537736e+00 5.8283387850411970e+00 0 0 0
6148 1 9.6275948497000918e+00 2.9607608403129588e+00 2.3930591164719397e+00 1 0 1
3441 1 2.2428159297087014e-02 5.1252524313953929e+00 3.0096984853875073e+00 1 0 0
5115 1 1.1976862724707007e+00 2.8458957063005186e+00 5.9206385363201139e+00 1 0 0
1472 1 8.1425408427274331e+00 7.3445816936571466e+00 3.9156975960240832e+00 0 0 1
364 1 9.6025033863723372e+00 9.9246018201097002e+00 3.7533977274185606e+00 0 -1 1
5306 1 6.6849403665224871e+00 3.7588925869112937e+00 2.7411159460788741e+00 1 -1 1
3643 1 3.1710584325957547e+00 1.2088183083851073e+01 3.6211679468428377e+00 0 0 0
5289 1 1.2263511457594674e+00 5.3015517751918031e+00 7.7651360479304845e+00 1 0 0
233 1 8.4344775683424338e+00 2.1096163135218471e+00 4.8406561047578673e+00 0 1 1
3435 1 6.4858403852566742e+00 9.8868854962518924e+00 7.6197905411956439e+00 1 1 0
3696 1 2.7966299253160867e+00 5.0965400725586392e+00 2.8251073445678987e+00 0 1 1
107 1 5.4996819906871304e+00 4.3267238208418473e+00 5.3273868807508364e+00 1 0 0
5149 1 2.1157023280613569e+00 8.2264357983787200e+00 4.0263714263628279e+00 0 0 0
3454 1 8.7209173480781796e+00 8.6794683982742669e+00 8.1491713442451807e+00 0 0 0
3682 1 5.2029117184145450e+00 1.1901305159585240e+01 5.7453282560708896e+00 0 0 1
6284 1 7.4289326320827769e+00 6.2126748670956520e+00 8.0423493601476252e+00 0 1 0
5162 1 3.1687468913957026e+00 9.9595254587087432e+00 6.2816632917404318e+00 1 1 0
2012 1 3.3439175697426107e+00 6.0268107871700058e+00 5.9647443760186061e+00 1 0 0
4794 1 8.2776188036823684e-01 1.1753468464906934e+01 6.7950414634272489e+00 1 0 0
421 1 4.0691643126062562e+00 4.6386889464085523e-01 7.6261557029149598e+00 1 1 0
1986 1 1.6887147171112910e-01 1.0037715941302783e+00 2.2461730989182658e+00 1 1 0
206 1 9.0456232062769859e-01 1.0812644846526940e+01 3.8126104948862674e+00 2 0 0
6400 1 5.0206121121682417e+00 7.6182528233865954e+00 7.9475121321397229e+00 1 0 0
2892 1 8.2261315229127128e+00 1.2011477178525004e+01 5.0031855533437604e+00 0 0 1
438 1 2.2273177539634168e+00 9.6074986937440059e+00 9.0426715527203676e+00 0 0 0
4920 1 8.5182849881156653e+00 5.5000744631880383e-01 8.8566064112009606e+00 1 1 0
2953 1 5.9523737787696760e+00 6.5468037959487919e+00 2.1630369704434638e+00 0 0 0
5020 1 2.9181408731306955e+00 1.1252916869127747e+01 1.4414715239174011e+01 1 -1 0
1672 1 8.2067310496156018e+00 9.9766885235581153e+00 1.2293782859504267e+01 0 0 0
2078 1 7.1348193610953503e+00 5.8489500450077196e+00 1.4743979538404840e+01 2 1 0
1593 1 7.6031972703762856e+00 1.8032255394603784e+00 1.2980798594477426e+01 0 1 1
1297 1 4.1528673923570886e-01 4.4160070780714605e-01 1.1800562096983912e+01 0 1 1
5348 1 7.3775041187458870e+00 2.8503169900960690e+00 1.0540962758108920e+01 1 1 0
1944 1 9.5927167275292984e+00 7.9799564220327603e+00 1.0917225865911632e+01 1 -1 0
5279 1 5.1081774793758372e+00 4.3903556280100933e+00 1.1051031871252597e+01 1 1 0
4681 1 3.3958098619962636e+00 6.7130284033875558e+00 9.9256535612624610e+00 1 0 1
3525 1 2.0065724819030262e+00 8.7027721291354858e+00 1.4019982935164732e+01 1 0 0
2020 1 6.7003612620215325e+00 8.2021992844386666e+00 1.3611355997946388e+01 1 0 0
3635 1 9.0431402956178637e+00 1.0985091690132077e+01 1.4617685647886159e+01 0 0 0
68 1 1.4119950514472244e+00 1.3821132717380999e-01 1.4916397097267190e+01 0 1 1
175 1 3.7458827072501450e+00 1.0625105710032461e+01 1.1118972524823329e+01 1 1 0
337 1 6.3401341059933705e+00 1.1014034384997801e+01 1.0303500145128373e+01 1 1 0
4708 1 4.8020666503703548e+00 4.6185517133013914e+00 1.4108918159295744e+01 1 1 0
3297 1 2.3301409135437980e+00 5.6447979047404502e+00 1.3702339197385735e+01 1 0 0
2005 1 8.8963043308756866e+00 5.0516874684850865e+00 1.0367987314124219e+01 0 0 0
5396 1 5.0438673995939363e+00 1.7884815977978128e+00 1.4168179739952938e+01 1 0 0
397 1 3.1699928167400082e+00 1.1463844592103258e+00 1.2096353704409687e+01 1 1 0
3171 1 4.1697563670175173e+00 8.3145788822281173e+00 1.2214008362308705e+01 0 0 0
6419 1 8.0155723882549068e-01 3.3692033422314949e+00 9.8961582107501549e+00 0 1 1
5272 1 3.4220762436713001e+00 2.6631900426249979e+00 9.5841476704623219e+00 0 1 0
3644 1 8.9722523838497565e+00 3.9007104520641285e+00 1.4540203898120973e+01 1 0 0
5039 1 2.3764297307020243e-01 7.6445235673987133e+00 9.6576470398779399e+00 1 1 1
268 1 7.2029966849768745e-01 3.9965549989794660e+00 1.5302820134986895e+01 0 0 0
1752 1 4.6620412539318981e+00 2.9984019182619908e+00 1.9104810043294350e+01 1 1 0
1722 1 2.6628945934572821e+00 4.9466697108848452e+00 1.8317129921810601e+01 2 -1 1
3711 1 6.2069445850485776e+00 3.0640886710046629e+00 1.6870215590627119e+01 0 1 0
3336 1 8.1322728868019674e+00 1.7146972264297022e+00 1.8296222022535229e+01 0 1 0
5038 1 2.7217996008590304e+00 8.4185239701625802e-01 1.8826128686213064e+01 -1 0 1
225 1 7.2662920808286842e+00 5.9653034107569010e+00 1.7558573117917433e+01 1 1 0
1370 1 4.3779734932517451e+00 1.1846780430521468e+01 1.9296000315134258e+01 2 1 0
1634 1 5.8294435938065794e+00 8.5381864969131431e+00 1.6424715096925141e+01 0 0 0
400 1 9.2982650628801480e+00 1.7449540986977989e+00 2.1270277555161510e+01 1 1 0
6476 1 8.1704394803741831e+00 1.0122489642952608e+01 2.1596613836039115e+01 0 0 1
4518 1 4.1201370553889349e+00 1.0651694359276075e+01 1.6941921970731748e+01 1 -1 0
3647 1 2.1262213360975997e+00 8.7257762797948093e+00 1.7732323343191080e+01 0 -1 0
3405 1 7.0943761963492831e+00 1.2083766037946285e+01 2.0055446564568381e+01 1 0 0
4756 1 1.7480847158420357e-01 7.0713784469994438e+00 1.6129844516263116e+01 0 1 1
5313 1 6.3783216448245792e+00 2.9508841604409515e+00 2.1718803320954127e+01 0 1 1
3410 1 3.5022953355619455e+00 6.2570550503268656e+00 2.1149956910925649e+01 1 1 0
5 1 1.9050333949121203e+00 4.2069968858375475e+00 2.1860596730206375e+01 0 0 1
1484 1 3.5270297409782616e+00 1.8878792103829523e+00 2.1544320904675036e+01 1 1 1
5261 1 2.1125886958772240e+00 8.1750650440925750e+00 2.0432795756864863e+01 0 0 1
1826 1 6.1059730631535594e+00 5.5552075680993296e+00 2.0282946479560888e+01 1 1 0
6185 1 7.9035636999499017e+00 7.4777239709625976e+00 2.1189398088349151e+01 1 -1 1
3603 1 7.3286069141152739e+00 1.1323629347080541e+01 1.6982842954513607e+01 1 1 0
166 1 3.2009386703363947e+00 1.0310297576383272e+01 2.1196754114370229e+01 0 0 0
6344 1 5.2614390479822548e-01 1.1420692874172675e+01 2.1251972153434817e+01 0 -1 0
5253 1 2.3822222090642295e-01 3.8069897972499533e+00 1.8180137118487206e+01 0 0 0
3289 1 3.6184486837851155e+00 6.6729544387653039e+00 1.6448816894063043e+01 1 1 0
3804 1 9.4663331701404019e+00 9.5780948666370911e+00 1.8173318072674132e+01 0 0 0
3607 1 9.8119362128586189e+00 6.8671683968422679e+00 1.8115794577969208e+01 1 0 1
3238 1 3.0599556986652852e+00 2.1020988354557741e+00 1.6365370322724811e+01 1 1 0
4692 1 3.8536292170523074e+00 2.4085789472779635e+00 2.4826242890624183e+01 0 1 1
5084 1 1.9370776307115509e+00 6.3689054755470815e+00 2.4659077072743703e+01 1 0 1
4807 1 8.8702325919168157e+00 1.9597130735822521e+00 2.4230691088968644e+01 1 1 0
1883 1 6.4980963769206275e+00 3.5205508188722945e+00 2.4426827396174648e+01 1 1 0
3306 1 4.2133644527533081e+00 7.4481697603744896e+00 2.3597821094099491e+01 -1 0 0
3009 1 1.6009861347791112e+00 3.8135099391165386e+00 2.4625543972315441e+01 0 1 1
3397 1 6.8787983031930215e+00 6.3637320444203711e+00 2.3901399408293450e+01 -1 0 1
4605 1 9.3749836552710963e+00 7.4877443821913978e+00 2.4185286397973520e+01 0 1 1
3591 1 3.8313161412472696e+00 1.0262430757236043e+01 2.4098451701322976e+01 1 0 0
656 2 4.9220000000000006e+00 1.1366872099805333e+01 2.6884025071624954e+01 0 0 0
5027 1 9.2628673054840132e+00 1.0273525658395910e+01 2.4174105037810655e+01 0 0 0
2141 1 6.2994496096930126e+00 1.1501083370389948e+01 2.4030086045085980e+01 0 1 0
699 2 6.1524999999999999e+00 1.0656442593567499e+01 2.6884025071624954e+01 0 0 0
572 2 0.0000000000000000e+00 2.8417180249513345e+00 2.6884025071624954e+01 0 0 0
574 2 0.0000000000000000e+00 0.0000000000000000e+00 2.6884025071624954e+01 0 0 0
576 2 1.2305000000000001e+00 7.1042950623783474e-01 2.6884025071624954e+01 0 0 0
583 2 1.2305000000000001e+00 2.1312885187134998e+00 2.6884025071624954e+01 0 0 0
585 2 2.4610000000000003e+00 2.8417180249513345e+00 2.6884025071624954e+01 0 0 0
587 2 2.4610000000000003e+00 0.0000000000000000e+00 2.6884025071624954e+01 0 0 0
589 2 3.6915000000000004e+00 7.1042950623783474e-01 2.6884025071624954e+01 0 0 0
604 2 3.6914999999999996e+00 2.1312885187134998e+00 2.6884025071624954e+01 0 0 0
606 2 4.9220000000000006e+00 2.8417180249513332e+00 2.6884025071624954e+01 0 0 0
608 2 4.9220000000000006e+00 0.0000000000000000e+00 2.6884025071624954e+01 0 0 0
610 2 6.1524999999999999e+00 7.1042950623783407e-01 2.6884025071624954e+01 0 0 0
633 2 6.1524999999999999e+00 2.1312885187134989e+00 2.6884025071624954e+01 0 0 0
635 2 7.3829999999999991e+00 2.8417180249513345e+00 2.6884025071624954e+01 0 0 0
637 2 7.3829999999999991e+00 0.0000000000000000e+00 2.6884025071624954e+01 0 0 0
639 2 8.6134999999999984e+00 7.1042950623783407e-01 2.6884025071624954e+01 0 0 0
670 2 8.6134999999999984e+00 2.1312885187135002e+00 2.6884025071624954e+01 0 0 0
579 2 0.0000000000000000e+00 4.2625770374269996e+00 2.6884025071624954e+01 0 0 0
581 2 1.2305000000000001e+00 4.9730065436648339e+00 2.6884025071624954e+01 0 0 0
596 2 1.2305000000000001e+00 6.3938655561404980e+00 2.6884025071624954e+01 0 0 0
600 2 2.4610000000000003e+00 4.2625770374269996e+00 2.6884025071624954e+01 0 0 0
602 2 3.6914999999999996e+00 4.9730065436648339e+00 2.6884025071624954e+01 0 0 0
625 2 3.6914999999999996e+00 6.3938655561404980e+00 2.6884025071624954e+01 0 0 0
577 2 0.0000000000000000e+00 7.1042950623783341e+00 2.6884025071624954e+01 0 0 0
598 2 2.4610000000000003e+00 7.1042950623783341e+00 2.6884025071624954e+01 0 0 0
629 2 4.9220000000000006e+00 4.2625770374269978e+00 2.6884025071624954e+01 0 0 0
631 2 6.1524999999999999e+00 4.9730065436648339e+00 2.6884025071624954e+01 0 0 0
662 2 6.1524999999999999e+00 6.3938655561404980e+00 2.6884025071624954e+01 0 0 0
666 2 7.3829999999999991e+00 4.2625770374269996e+00 2.6884025071624954e+01 0 0 0
668 2 8.6135000000000002e+00 4.9730065436648339e+00 2.6884025071624954e+01 0 0 0
707 2 8.6135000000000002e+00 6.3938655561404980e+00 2.6884025071624954e+01 0 0 0
627 2 4.9220000000000006e+00 7.1042950623783341e+00 2.6884025071624954e+01 0 0 0
664 2 7.3830000000000009e+00 7.1042950623783341e+00 2.6884025071624954e+01 0 0 0
592 2 0.0000000000000000e+00 8.5251540748539991e+00 2.6884025071624954e+01 0 0 0
594 2 1.2305000000000001e+00 9.2355835810918343e+00 2.6884025071624954e+01 0 0 0
621 2 2.4610000000000003e+00 8.5251540748539991e+00 2.6884025071624954e+01 0 0 0
623 2 3.6915000000000004e+00 9.2355835810918343e+00 2.6884025071624954e+01 0 0 0
590 2 0.0000000000000000e+00 1.1366872099805333e+01 2.6884025071624954e+01 0 0 0
617 2 1.2305000000000001e+00 1.0656442593567498e+01 2.6884025071624954e+01 0 0 0
619 2 2.4610000000000003e+00 1.1366872099805333e+01 2.6884025071624954e+01 0 0 0
654 2 3.6914999999999996e+00 1.0656442593567499e+01 2.6884025071624954e+01 0 0 0
701 2 7.3829999999999991e+00 1.1366872099805333e+01 2.6884025071624954e+01 0 0 0
660 2 6.1524999999999999e+00 9.2355835810918343e+00 2.6884025071624954e+01 0 0 0
746 2 8.6134999999999984e+00 1.0656442593567498e+01 2.6884025071624954e+01 0 0 0
705 2 8.6134999999999984e+00 9.2355835810918343e+00 2.6884025071624954e+01 0 0 0
703 2 7.3830000000000009e+00 8.5251540748539991e+00 2.6884025071624954e+01 0 0 0
658 2 4.9220000000000006e+00 8.5251540748539991e+00 2.6884025071624954e+01 0 0 0
3379 1 2.3469600338992640e+00 1.0858647124039199e-01 2.4121277528299292e+01 1 1 0
573 2 0.0000000000000000e+00 1.4208590124756650e+00 3.0030999999999842e+01 0 0 0
575 2 0.0000000000000000e+00 0.0000000000000000e+00 3.0030999999999842e+01 0 0 0
584 2 1.2305000000000001e+00 2.1312885187134998e+00 3.0030999999999842e+01 0 0 0
586 2 2.4610000000000003e+00 1.4208590124756650e+00 3.0030999999999842e+01 0 0 0
588 2 2.4610000000000003e+00 0.0000000000000000e+00 3.0030999999999842e+01 0 0 0
605 2 3.6914999999999996e+00 2.1312885187134998e+00 3.0030999999999842e+01 0 0 0
582 2 1.2305000000000001e+00 3.5521475311891644e+00 3.0030999999999842e+01 0 0 0
603 2 3.6914999999999996e+00 3.5521475311891644e+00 3.0030999999999842e+01 0 0 0
901 2 0.0000000000000000e+00 2.8417180249513345e+00 3.3177974928375249e+01 0 0 0
902 2 0.0000000000000000e+00 0.0000000000000000e+00 3.3177974928375249e+01 0 0 0
903 2 1.2305000000000001e+00 7.1042950623783474e-01 3.3177974928375249e+01 0 0 0
907 2 1.2305000000000001e+00 2.1312885187134998e+00 3.3177974928375249e+01 0 0 0
908 2 2.4610000000000003e+00 2.8417180249513345e+00 3.3177974928375249e+01 0 0 0
909 2 2.4610000000000003e+00 0.0000000000000000e+00 3.3177974928375249e+01 0 0 0
910 2 3.6915000000000004e+00 7.1042950623783474e-01 3.3177974928375249e+01 0 0 0
918 2 3.6914999999999996e+00 2.1312885187134998e+00 3.3177974928375249e+01 0 0 0
607 2 4.9220000000000006e+00 1.4208590124756650e+00 3.0030999999999842e+01 0 0 0
609 2 4.9220000000000006e+00 0.0000000000000000e+00 3.0030999999999842e+01 0 0 0
634 2 6.1524999999999999e+00 2.1312885187134989e+00 3.0030999999999842e+01 0 0 0
636 2 7.3829999999999991e+00 1.4208590124756659e+00 3.0030999999999842e+01 0 0 0
638 2 7.3829999999999991e+00 0.0000000000000000e+00 3.0030999999999842e+01 0 0 0
671 2 8.6134999999999984e+00 2.1312885187135002e+00 3.0030999999999842e+01 0 0 0
632 2 6.1524999999999999e+00 3.5521475311891644e+00 3.0030999999999842e+01 0 0 0
669 2 8.6134999999999984e+00 3.5521475311891657e+00 3.0030999999999842e+01 0 0 0
919 2 4.9220000000000006e+00 2.8417180249513332e+00 3.3177974928375249e+01 0 0 0
920 2 4.9220000000000006e+00 0.0000000000000000e+00 3.3177974928375249e+01 0 0 0
921 2 6.1524999999999999e+00 7.1042950623783407e-01 3.3177974928375249e+01 0 0 0
933 2 6.1524999999999999e+00 2.1312885187134989e+00 3.3177974928375249e+01 0 0 0
934 2 7.3829999999999991e+00 2.8417180249513345e+00 3.3177974928375249e+01 0 0 0
935 2 7.3829999999999991e+00 0.0000000000000000e+00 3.3177974928375249e+01 0 0 0
936 2 8.6134999999999984e+00 7.1042950623783407e-01 3.3177974928375249e+01 0 0 0
952 2 8.6134999999999984e+00 2.1312885187135002e+00 3.3177974928375249e+01 0 0 0
578 2 0.0000000000000000e+00 5.6834360499026637e+00 3.0030999999999842e+01 0 0 0
580 2 0.0000000000000000e+00 4.2625770374269996e+00 3.0030999999999842e+01 0 0 0
597 2 1.2305000000000001e+00 6.3938655561404980e+00 3.0030999999999842e+01 0 0 0
599 2 2.4610000000000003e+00 5.6834360499026637e+00 3.0030999999999842e+01 0 0 0
601 2 2.4610000000000003e+00 4.2625770374269996e+00 3.0030999999999842e+01 0 0 0
626 2 3.6914999999999996e+00 6.3938655561404980e+00 3.0030999999999842e+01 0 0 0
595 2 1.2305000000000001e+00 7.8147245686161639e+00 3.0030999999999842e+01 0 0 0
624 2 3.6914999999999996e+00 7.8147245686161639e+00 3.0030999999999842e+01 0 0 0
905 2 0.0000000000000000e+00 4.2625770374269996e+00 3.3177974928375249e+01 0 0 0
906 2 1.2305000000000001e+00 4.9730065436648339e+00 3.3177974928375249e+01 0 0 0
914 2 1.2305000000000001e+00 6.3938655561404980e+00 3.3177974928375249e+01 0 0 0
916 2 2.4610000000000003e+00 4.2625770374269996e+00 3.3177974928375249e+01 0 0 0
917 2 3.6914999999999996e+00 4.9730065436648339e+00 3.3177974928375249e+01 0 0 0
929 2 3.6914999999999996e+00 6.3938655561404980e+00 3.3177974928375249e+01 0 0 0
904 2 0.0000000000000000e+00 7.1042950623783341e+00 3.3177974928375249e+01 0 0 0
915 2 2.4610000000000003e+00 7.1042950623783341e+00 3.3177974928375249e+01 0 0 0
628 2 4.9220000000000006e+00 5.6834360499026637e+00 3.0030999999999842e+01 0 0 0
630 2 4.9220000000000006e+00 4.2625770374269978e+00 3.0030999999999842e+01 0 0 0
663 2 6.1524999999999999e+00 6.3938655561404980e+00 3.0030999999999842e+01 0 0 0
665 2 7.3829999999999991e+00 5.6834360499026637e+00 3.0030999999999842e+01 0 0 0
667 2 7.3829999999999991e+00 4.2625770374269996e+00 3.0030999999999842e+01 0 0 0
708 2 8.6135000000000002e+00 6.3938655561404980e+00 3.0030999999999842e+01 0 0 0
661 2 6.1524999999999999e+00 7.8147245686161639e+00 3.0030999999999842e+01 0 0 0
706 2 8.6135000000000002e+00 7.8147245686161639e+00 3.0030999999999842e+01 0 0 0
931 2 4.9220000000000006e+00 4.2625770374269978e+00 3.3177974928375249e+01 0 0 0
932 2 6.1524999999999999e+00 4.9730065436648339e+00 3.3177974928375249e+01 0 0 0
948 2 6.1524999999999999e+00 6.3938655561404980e+00 3.3177974928375249e+01 0 0 0
950 2 7.3829999999999991e+00 4.2625770374269996e+00 3.3177974928375249e+01 0 0 0
951 2 8.6135000000000002e+00 4.9730065436648339e+00 3.3177974928375249e+01 0 0 0
971 2 8.6135000000000002e+00 6.3938655561404980e+00 3.3177974928375249e+01 0 0 0
930 2 4.9220000000000006e+00 7.1042950623783341e+00 3.3177974928375249e+01 0 0 0
949 2 7.3830000000000009e+00 7.1042950623783341e+00 3.3177974928375249e+01 0 0 0
591 2 0.0000000000000000e+00 9.9460130873296642e+00 3.0030999999999842e+01 0 0 0
593 2 0.0000000000000000e+00 8.5251540748539991e+00 3.0030999999999842e+01 0 0 0
620 2 2.4610000000000003e+00 9.9460130873296642e+00 3.0030999999999842e+01 0 0 0
622 2 2.4610000000000003e+00 8.5251540748539991e+00 3.0030999999999842e+01 0 0 0
616 2 1.2305000000000001e+00 1.2077301606043163e+01 3.0030999999999842e+01 0 0 0
618 2 1.2305000000000001e+00 1.0656442593567498e+01 3.0030999999999842e+01 0 0 0
653 2 3.6914999999999996e+00 1.2077301606043163e+01 3.0030999999999842e+01 0 0 0
655 2 3.6914999999999996e+00 1.0656442593567499e+01 3.0030999999999842e+01 0 0 0
912 2 0.0000000000000000e+00 8.5251540748539991e+00 3.3177974928375249e+01 0 0 0
913 2 1.2305000000000001e+00 9.2355835810918343e+00 3.3177974928375249e+01 0 0 0
927 2 2.4610000000000003e+00 8.5251540748539991e+00 3.3177974928375249e+01 0 0 0
928 2 3.6915000000000004e+00 9.2355835810918343e+00 3.3177974928375249e+01 0 0 0
911 2 0.0000000000000000e+00 1.1366872099805333e+01 3.3177974928375249e+01 0 0 0
925 2 1.2305000000000001e+00 1.0656442593567498e+01 3.3177974928375249e+01 0 0 0
926 2 2.4610000000000003e+00 1.1366872099805333e+01 3.3177974928375249e+01 0 0 0
944 2 3.6914999999999996e+00 1.0656442593567499e+01 3.3177974928375249e+01 0 0 0
657 2 4.9220000000000006e+00 9.9460130873296642e+00 3.0030999999999842e+01 0 0 0
659 2 4.9220000000000006e+00 8.5251540748539991e+00 3.0030999999999842e+01 0 0 0
702 2 7.3830000000000009e+00 9.9460130873296642e+00 3.0030999999999842e+01 0 0 0
704 2 7.3830000000000009e+00 8.5251540748539991e+00 3.0030999999999842e+01 0 0 0
698 2 6.1524999999999999e+00 1.2077301606043163e+01 3.0030999999999842e+01 0 0 0
700 2 6.1524999999999999e+00 1.0656442593567499e+01 3.0030999999999842e+01 0 0 0
745 2 8.6135000000000002e+00 1.2077301606043163e+01 3.0030999999999842e+01 0 0 0
747 2 8.6134999999999984e+00 1.0656442593567498e+01 3.0030999999999842e+01 0 0 0
946 2 4.9220000000000006e+00 8.5251540748539991e+00 3.3177974928375249e+01 0 0 0
947 2 6.1524999999999999e+00 9.2355835810918343e+00 3.3177974928375249e+01 0 0 0
969 2 7.3830000000000009e+00 8.5251540748539991e+00 3.3177974928375249e+01 0 0 0
970 2 8.6134999999999984e+00 9.2355835810918343e+00 3.3177974928375249e+01 0 0 0
945 2 4.9220000000000006e+00 1.1366872099805333e+01 3.3177974928375249e+01 0 0 0
967 2 6.1524999999999999e+00 1.0656442593567499e+01 3.3177974928375249e+01 0 0 0
968 2 7.3829999999999991e+00 1.1366872099805333e+01 3.3177974928375249e+01 0 0 0
991 2 8.6134999999999984e+00 1.0656442593567498e+01 3.3177974928375249e+01 0 0 0
142 1 4.2694941659101060e-01 6.5856772412583076e-01 3.5927696712346702e+01 -1 0 -1
3785 1 4.2328437364306364e+00 3.4392354472245201e+00 3.5874635694209672e+01 1 0 0
1487 1 7.9053704528188566e+00 4.0197942277100793e+00 3.5765456609637994e+01 -1 0 0
4768 1 6.1386925262920924e+00 1.4109008221624710e+00 3.5391625338102656e+01 1 0 0
6132 1 1.5845989773193956e+00 3.1300866827999214e+00 3.6191581771268034e+01 0 1 0
2881 1 3.1923903506234139e+00 7.6473691434295130e+00 3.5845795250673817e+01 1 1 0
3085 1 8.5272950698494370e+00 7.3155233639988921e+00 3.6310566565221436e+01 0 1 0
2197 1 3.9318098270994728e+00 1.0136462634692771e+01 3.5986134658241411e+01 -1 1 0
5270 1 5.6160714809865580e+00 6.2182864968893190e+00 3.5674393581179487e+01 1 1 0
3742 1 6.6160979004547267e+00 1.1547501212462011e+01 3.5552732183438707e+01 1 1 0
2140 1 1.4025164485844379e+00 1.1543663886252062e+01 3.5961819866137958e+01 1 0 -1
5409 1 3.4380331693693705e-01 8.4806017768234074e+00 3.6040140617910609e+01 0 0 0
3512 1 1.7819358274569590e+00 4.7790527918684195e-01 4.3063676341272185e+01 1 0 -1
3364 1 3.8638608784071540e+00 2.1455025419666640e+00 3.8683111783273745e+01 0 1 -1
4527 1 8.5808275803487728e+00 1.0003366499532650e+01 3.7150367069079351e+01 0 1 0
4815 1 7.8201684763826860e+00 1.0584784229495245e+01 4.0050005095964195e+01 0 0 0
547 1 1.2644597969435418e+00 3.3438824052589529e+00 3.9001367667313659e+01 0 1 0
1387 1 1.4247466274223801e+00 6.4716564201684541e+00 3.8223323302730947e+01 0 -1 0
1742 1 5.4487688283472915e+00 4.6956647231332207e+00 3.8396763845408159e+01 1 0 -1
3193 1 8.9769489762479999e+00 6.6396415249760432e+00 3.9519948330062348e+01 1 1 0
3352 1 5.7713430945607112e+00 1.6907343091761271e+00 4.0635217715379937e+01 1 0 0
1715 1 2.0066269176994367e+00 1.1784363909722323e+01 3.8906186887804907e+01 2 -1 -1
1939 1 9.1394861023889202e+00 7.6153697473700588e-01 4.3016249766487519e+01 -1 1 -1
4813 1 7.7679322217282838e+00 7.9830692278810256e+00 4.1854907119524285e+01 0 0 0
3035 1 1.9545522724124966e+00 1.0026604499116853e+01 4.1840675119979124e+01 0 0 0
1999 1 3.6045505265914559e+00 8.5391881096324713e+00 3.9931826852472184e+01 0 1 -1
3138 1 5.0574876798467550e+00 7.6126386237766868e+00 4.2352890296946327e+01 -1 1 0
3065 1 7.0268179002418103e+00 1.1394986711507618e+01 4.2832634827787373e+01 1 1 0
1327 1 9.8347044141302646e+00 1.0197529731557751e+01 4.2826735942099688e+01 -1 1 -1
1539 1 7.4970486846258861e+00 1.6471135140887523e+00 3.8003335534715205e+01 0 1 0
1352 1 6.6548896692231096e+00 4.7200688770305472e+00 4.3998999621276340e+01 -1 1 0
1643 1 3.4429508967988216e+00 5.6026587802207466e+00 4.0216101046914929e+01 0 0 -1
4508 1 3.6917305852561930e+00 4.9321169960920406e+00 4.2912207310296282e+01 0 1 0
6115 1 5.0988796761591466e+00 1.0327367107391767e+01 3.8500681690711147e+01 0 0 0
3072 1 8.6037375819079411e+00 3.7112849121061959e+00 3.9709997695518524e+01 0 1 0
1489 1 7.8202313630980997e+00 3.0072155587359011e+00 4.2161030389825186e+01 0 1 0
1321 1 3.8302505252074646e+00 2.3082041085561862e+00 4.2821932207858353e+01 0 0 0
391 1 6.4446059198251238e+00 7.7134767936232498e+00 3.8344454900561189e+01 -1 0 -1
5032 1 5.3108390833168229e-01 9.3629629007738480e+00 3.8638467810851509e+01 1 1 -1
1914 1 4.6876052082469659e+00 1.0033651063475656e+01 4.3756720216670288e+01 1 0 0
186 1 1.3540130751604140e+00 9.8755199353570389e-01 4.6247067393655669e+01 1 0 -1
4594 1 6.1972361053828329e-01 7.5868858885825556e+00 4.5966328201836220e+01 1 0 0
3195 1 3.7016166417214214e+00 6.3849099254614474e+00 4.9696372710212245e+01 0 0 -1
3786 1 6.8343148404717757e+00 1.7268730861806603e+00 4.6779500525582577e+01 0 1 0
454 1 4.3576509467778948e+00 1.1153234416995391e+01 4.7321350113702934e+01 0 1 0
2217 1 3.6061653068739385e+00 2.6688260980157792e+00 4.7786303686246072e+01 0 -1 0
2955 1 6.0362178753207818e+00 4.3471198132253699e+00 4.6694568757208401e+01 0 0 0
5308 1 5.2259975817056281e+00 4.0446206715492119e+00 5.0434770410563544e+01 0 0 -1
5332 1 8.1532847719595676e+00 1.0264727221446606e+01 4.5774744543325738e+01 1 1 -1
4892 1 1.6458395130749461e+00 3.1208492754235397e+00 5.0096309179310197e+01 1 1 -1
3047 1 1.5836242601697654e+00 5.4289994476519805e+00 4.4749506412417290e+01 0 1 -1
3241 1 5.1520055575191028e+00 8.5955127817332784e+00 4.6334802018060216e+01 1 1 -1
3235 1 4.8175332211493531e+00 1.1356832801638484e+01 5.0224613946600940e+01 -1 0 -1
3383 1 4.7046630984124249e+00 1.0707261559619921e+00 5.0304140986544326e+01 1 0 -1
6110 1 8.6304526325012496e+00 1.1974903298790949e+01 5.0483282944355125e+01 0 0 0
3154 1 9.6495497486434605e+00 9.3983820596810812e+00 4.8643628533448222e+01 0 1 0
2059 1 2.0918353760782640e-01 8.4729061124654130e+00 5.0511787062039772e+01 1 0 -1
4606 1 7.1096051294627394e+00 4.8833486821071109e-01 4.9379703419791809e+01 0 1 -1
3203 1 3.6424463740777622e+00 6.0312309545167437e+00 4.6664446595949244e+01 0 1 -1
4682 1 4.4330604430565801e+00 8.4243913212269506e-01 4.5299526115684174e+01 0 0 0
70 1 8.3574589189963966e+00 5.0207189832976553e+00 4.8247045619746487e+01 1 1 -1
2130 1 7.7634390214858673e+00 7.5732008199518344e+00 4.7279171719454624e+01 0 1 0
2949 1 9.3491393629882769e+00 2.1156846147027371e+00 4.5763466538125272e+01 0 1 0
1391 1 6.2375917764165898e+00 7.8183290603550857e+00 5.0105770873202204e+01 -1 1 0
1890 1 1.0622335301805323e+00 6.7281771223020437e+00 4.8664426065023250e+01 0 1 -1
146 1 9.4456539175427796e+00 1.8075181202301971e+00 5.0530424271180209e+01 2 0 -1
4747 1 2.2501491172321426e+00 9.8828749226213599e+00 4.4550880480391200e+01 1 0 -1
1282 1 8.1128646896691237e+00 7.1785737671169816e+00 4.4393974583539347e+01 0 0 0
207 1 6.5306772359066398e+00 2.3195652863727778e+00 5.3103487184589483e+01 1 1 -1
1419 1 9.5773077173434320e+00 1.2111874893425876e+01 5.2993978988114577e+01 0 1 0
411 1 8.1668239062180241e+00 9.9533524941918134e+00 5.3704660600868067e+01 1 1 -1
2921 1 1.9125659384636391e+00 1.2150647417824345e+00 5.4213461348682188e+01 -1 0 0
1739 1 2.0622169415641762e+00 5.1298239985709957e+00 5.1677511451934819e+01 0 -1 0
4891 1 4.3401253712784831e+00 4.4716837069497180e+00 5.3184808298398806e+01 1 0 -1
1619 1 8.1392857440548916e+00 4.2315329520995659e+00 5.1022631114169386e+01 0 1 -1
3149 1 8.6393106126190791e+00 5.7276840637910489e+00 5.4651556169979983e+01 0 0 0
3508 1 3.5495261967847975e+00 7.7797592374208921e+00 5.7167200406559076e+01 0 0 -1
3484 1 2.0163303424952788e+00 9.9504523052315452e+00 5.4203777963398650e+01 1 0 -1
2190 1 4.5050656913297571e+00 8.5028045770631167e+00 5.2111638745163773e+01 0 1 0
3040 1 3.9353893911232358e+00 1.1855638607824133e+01 5.5073015933591194e+01 0 0 0
4823 1 1.9029355246410380e+00 1.0392310175316418e+01 5.1504862534366652e+01 -1 0 -1
305 1 9.2648236756143501e+00 6.7772766260919006e+00 5.7272014019341981e+01 1 1 -1
3606 1 4.0170687521234232e+00 2.4212650430927374e+00 5.5298156587682342e+01 0 0 0
6391 1 8.7877902495995794e+00 8.2828185615875576e+00 5.1842273715847398e+01 0 1 0
4640 1 2.2051375922570835e+00 4.7313672526089743e+00 5.5787833961450090e+01 0 1 0
1316 1 5.8075594409115432e+00 6.6112334051025083e+00 5.4370406581223364e+01 1 0 -1
2913 1 5.5096530022700065e+00 1.0830277406193664e+01 5.2993123187295993e+01 1 1 0
5060 1 8.6717780398720823e+00 2.9957790167784362e+00 5.5285944263375015e+01 0 1 -1
3356 1 2.7474720441796872e+00 7.2517743109259190e+00 5.4466597238997807e+01 1 0 0
1525 1 6.6907862870450439e+00 9.1149965472804659e+00 5.6255198516632106e+01 1 1 -1
6257 1 4.8207123367802929e+00 1.0760790628680867e+01 5.7428150900029095e+01 0 1 0
4688 1 6.7634500506557593e-01 1.0081491120544792e+00 5.1535816744387134e+01 0 1 0
6465 1 5.2224897591738504e+00 1.5138552562855534e+00 5.7789557227721346e+01 0 1 0
3225 1 2.5948128055404953e+00 1.4887059539677056e+01 3.8380100239718873e+00 1 0 0
208 1 6.8333071580728326e+00 1.9974773964525866e+01 8.3627059067095662e+00 1 0 0
30 1 3.1533051728277051e+00 1.7807185412785998e+01 8.0688730854286810e+00 1 1 0
1852 1 5.6728890753464123e+00 2.4046678137406442e+01 6.4607177020501503e+00 0 0 0
1836 1 5.4487291458644540e+00 1.4990869736008191e+01 2.9824317319271398e+00 0 0 0
1969 1 3.8547213432394525e+00 1.8908652020229770e+01 3.8477995564110525e+00 0 0 1
5128 1 7.3505510490191384e+00 2.2770643710672793e+01 8.3042884688218077e+00 1 0 0
4847 1 6.4169889589556268e+00 1.7353671220681338e+01 4.1639512612105296e+00 1 0 1
2936 1 8.5479593384420820e+00 1.8452396082031331e+01 2.7127550042308601e+00 0 0 0
5240 1 3.8250214691634556e+00 2.1550545631926447e+01 3.3600074940920392e+00 1 0 0
4927 1 9.5670041547737767e+00 1.4398088221524102e+01 5.6192337185602677e+00 0 0 1
5056 1 9.5132765992533863e-01 2.2562561980998385e+01 3.2522566622624680e+00 1 0 1
6472 1 8.4809781577169083e+00 2.0548593506669150e+01 4.3973155791397538e+00 1 -1 0
2215 1 6.4844864400883244e+00 2.2249753944365128e+01 4.2539361060940557e+00 0 0 1
4 1 1.2282804672529153e+00 1.4588226176954905e+01 6.2179097439184847e+00 1 -1 0
551 1 3.3638072384257316e+00 1.5181585178008563e+01 8.2303186977163421e+00 0 0 1
219 1 5.7863897188859070e+00 1.4117643487760068e+01 7.4153448453508251e+00 0 0 1
6105 1 9.0901018077169726e-01 2.1459404555770522e+01 5.9056418864288567e+00 -1 0 1
2024 1 1.4430188445091610e+00 1.8837908386924152e+01 5.6269295927449718e+00 1 0 0
4890 1 7.6938545251138875e+00 1.6177062171183128e+01 6.2424764650909967e+00 1 0 1
3613 1 4.9141449476182686e+00 1.9083878596512562e+01 6.5788795477349176e+00 1 0 0
1854 1 8.8299384808338530e+00 1.8528079289206030e+01 7.0702511363126748e+00 1 0 1
1380 1 3.7050128792323114e+00 2.1639842692915533e+01 6.6892436217010811e+00 1 0 1
3588 1 3.5352707796090375e+00 2.4407130750123066e+01 4.2740979303857163e+00 1 0 0
191 1 3.2411342943382454e-01 1.7508457192711507e+01 8.5345472902481916e+00 1 0 0
4953 1 6.8413362854243731e+00 1.2593861512787401e+01 2.4989556580840917e+00 1 0 0
407 1 2.6317025559005930e-01 1.5695110355874123e+01 2.3774962915416968e+00 0 0 0
2970 1 2.6954749372261451e+00 1.7163780585941126e+01 1.2234843330886365e+01 1 1 1