LAMMPS data file via write_data, version 16 Mar 2018, timestep = 6000000

6489 atoms
2 atom types

0.0000000000000000e+00 4.9219999999999999e+01 xlo xhi
0.0000000000000000e+00 4.9019635930410494e+01 ylo yhi
6.7788663605362132e-01 5.9384113363945303e+01 zlo zhi

Masses

1 18.015
2 12.01

Atoms # atomic

324 1 3.5499222269011281e+00 1.6385417576968226e+00 2.6050628678655707e+00 2 0 0
5005 1 9.6981186205907344e-01 6.1241331864864357e-01 2.1589441185932925e+00 2 -1 0
2973 1 7.8453380191835622e+00 1.4076453865541123e+00 2.8598673925706652e+00 -1 2 1
5001 1 7.8513722415080283e+00 4.2020276436153878e+00 1.7482750713696842e+00 1 0 0
1661 1 8.1503076571464792e+00 9.4088607156563278e+00 5.4124117614644431e+00 0 1 1
2938 1 3.4513749781426450e+00 4.2525504417045568e+00 1.5757715513690194e+00 0 1 1
3265 1 1.5427248860692617e+00 5.6742549280269481e+00 2.7778160884332803e+00 0 -1 1
3474 1 5.5064836389651930e+00 5.6789790851422675e+00 2.5003560192749106e+00 3 0 1
1522 1 1.2188420455507269e+00 8.1794846628518307e+00 1.6211469603043565e+00 0 1 1
1812 1 3.5674506074605095e+00 9.7286990763315941e+00 2.6865254341876961e+00 1 -1 0
3422 1 5.6942888975102788e+00 8.3272845707458902e+00 1.8323860754285071e+00 0 0 0
5059 1 8.0003739726947174e+00 9.3122487567180894e+00 2.6024634036262455e+00 0 -1 1
4794 1 3.4518934685569032e+00 1.7464766794122308e+00 5.4139117767044471e+00 1 2 0
2036 1 1.2420012448004301e+00 3.3018498013379207e+00 6.3345732400606138e+00 -2 0 0
1547 1 5.6500290405705007e+00 2.9339170642499108e+00 6.3935126184898996e+00 0 0 1
248 1 7.7426171621994362e+00 1.2013992949308525e+00 5.4834481423375356e+00 1 1 0
4634 1 1.1002164331889859e+00 5.7586232280706326e+00 5.5811550109210026e+00 -1 1 1
6452 1 3.2674840236160421e+00 7.0754421612753475e+00 6.3800579770062322e+00 1 0 1
1626 1 5.6622519107255931e+00 5.5315756029704239e+00 5.2691445697064321e+00 1 -1 0
204 1 8.0043125063054230e+00 6.6635892025592680e+00 6.4314109233968324e+00 1 0 0
4859 1 1.1482965734129040e+00 1.1243510416396100e+01 6.3161429234975337e+00 0 1 1
3778 1 3.3925677483972012e+00 9.8565453938102685e+00 5.3980203828369069e+00 -1 0 1
6428 1 5.8197608611092297e+00 1.0807179244607406e+01 6.1646409358999739e+00 1 1 1
1676 1 8.5601017923892204e+00 1.2031155365844194e+01 2.1211052078136809e+00 0 0 1
123 1 8.2173579926698348e-01 3.4179006256826701e+00 9.0129000345061687e+00 2 -1 1
1426 1 9.6774286985031910e-01 8.1747139295195448e-01 1.0000867069357087e+01 0 1 1
3104 1 5.5742599747664050e+00 3.2877941206424155e+00 9.1976386548517208e+00 -1 0 1
4874 1 8.0149363261408677e+00 9.7782410007840106e+00 1.3937770865664254e+01 1 0 0
4792 1 5.8189432336249105e+00 8.5986529839441754e+00 1.2847726210201936e+01 0 2 1
106 1 3.2888336302138113e+00 4.7219991457325543e+00 1.0302816035494498e+01 1 0 1
6164 1 3.6030747967473795e+00 7.2875124724390696e+00 9.3869232146933683e+00 1 0 1
1273 1 7.9757202197210582e+00 4.3517083929732481e+00 1.0225836788131510e+01 3 1 1
2923 1 8.1995350086400265e+00 7.0682745988914952e+00 9.2313958483509904e+00 0 1 0
2059 1 1.2800739029122301e+00 8.4964024385204269e+00 9.9993815597559887e+00 -1 0 0
2992 1 1.5178581084896594e+00 1.1169382492529524e+01 9.1931528033510173e+00 1 1 1
417 1 5.9863168883051241e+00 8.4182732835815148e+00 1.0113222910411823e+01 1 0 0
1942 1 6.0941764351968368e+00 1.0850288311502434e+01 9.0147728709486348e+00 1 2 0
1834 1 3.6926511190434224e+00 1.7934413318520837e+00 1.3887227941362925e+01 2 0 1
274 1 1.1938928062545211e+00 5.5279669839629630e-01 1.2777422246645074e+01 0 -1 0
1510 1 5.4318485145223505e+00 5.4537875388405654e-01 1.0091652409712314e+01 3 1 0
3408 1 7.6405906992687989e+00 1.6587248484721204e+00 1.3912296423371579e+01 0 -1 0
2862 1 3.5323167511949527e+00 4.7554548574560300e+00 1.3122820473383403e+01 0 0 0
3082 1 1.0586858273451660e+00 5.8231583902509927e+00 1.3610907689034230e+01 0 0 1
3211 1 7.9881960538948062e+00 4.3449553118993558e+00 1.2963640164807362e+01 2 1 0
551 1 5.7751706975494033e+00 5.7753523454440145e+00 1.3660929186927175e+01 -1 1 1
3719 1 1.2004041489050532e+00 8.5302224481543369e+00 1.2760526849839465e+01 -1 2 1
337 1 3.4170825416548496e+00 9.6499704627075147e+00 1.3447239839747242e+01 1 2 0
5289 1 5.4343558822025191e+00 3.4045725819856480e-02 1.2875551321276308e+01 0 -1 0
1577 1 9.7712329319989699e+00 1.7364207870565060e-01 1.0149547878431067e+01 1 1 0
1461 1 8.0940675634144874e+00 1.2203372172674722e+01 1.2750821469867345e+01 -1 0 1
492 1 3.4964833845512766e+00 1.7691374658020675e+00 1.6717640429887240e+01 0 2 1
2094 1 5.6147652355844091e+00 8.2681521492239032e+00 1.9872123200666969e+01 0 0 1
197 1 7.9238811679963712e+00 1.9093051789196540e+00 1.6618238859221172e+01 1 0 1
5436 1 1.2821602980157918e+00 1.2018526601245398e-01 1.7398209573905724e+01 -1 0 1
3231 1 3.2860012890218049e+00 4.4592969853543662e+00 1.6968670917524019e+01 -2 1 1
3571 1 9.0807787491520875e-01 5.7084804338596351e+00 1.6250253831997959e+01 2 0 0
1745 1 7.7286397068469759e+00 4.4254829386704690e+00 1.7107994616266410e+01 0 4 0
314 1 5.7614397015458154e+00 5.7924844708327594e+00 1.6359931525751673e+01 0 1 0
4656 1 8.6135485175660931e-01 8.5903402260079318e+00 1.7032352781608211e+01 0 1 1
3746 1 3.0921636588596768e+00 9.9537470500585723e+00 1.6290851381591867e+01 0 1 1
3055 1 5.5412981175488447e+00 8.5008708382155440e+00 1.7163381099858441e+01 1 0 0
3334 1 7.8263122714796109e+00 9.8023200570024418e+00 1.6511548972489997e+01 0 0 0
1349 1 7.8075280311604915e+00 9.8864912840796322e+00 2.0774716792034557e+01 0 -1 0
1803 1 3.3394198501995676e+00 1.9770791032724160e+00 2.0984263639654834e+01 1 2 1
5434 1 1.0066368675061461e+00 8.5226877748526917e+00 1.9989258492289316e+01 -1 0 1
3400 1 8.0010626486338339e+00 1.7484785757180508e+00 2.1156169346827866e+01 -1 0 1
6269 1 6.0213165634004833e+00 3.9475135482002982e-01 1.7640467566409278e+01 1 -1 1
4566 1 3.4277814268163467e+00 4.4067521875942886e+00 1.9738720743452390e+01 -1 1 1
2867 1 1.0509922304302979e+00 5.5986824804715436e+00 2.0538813350868605e+01 -1 0 1
3675 1 5.5473348844739734e+00 5.6318195508098814e+00 2.0957663260207266e+01 0 1 1
175 1 7.3447685613960747e+00 4.2056383412282567e+00 1.9811212657423248e+01 0 2 0
3438 1 3.4703083195623399e+00 9.5944752314156680e+00 2.0708559356165434e+01 0 1 0
359 1 1.1704651413802458e+00 2.5089793114217096e-01 2.0200024442251536e+01 0 -1 0
3182 1 5.7218423145166799e+00 5.4186815684939893e-01 2.0582621041026805e+01 0 2 1
313 1 3.3461747797388655e+00 1.8068713606046889e+00 2.3816215802351561e+01 1 -2 0
701 2 7.3829999999999991e+00 1.1366872099805333e+01 2.6724897215509852e+01 0 0 0
478 1 7.9675972704675626e+00 1.7309346949730102e+00 2.4029458281606779e+01 0 1 1
699 2 6.1524999999999999e+00 1.0656442593567499e+01 2.6724897215509852e+01 0 0 0
2075 1 3.1963788071108357e+00 4.4942112524612376e+00 2.4305445164054639e+01 1 2 0
6273 1 1.1860801785193122e+00 5.8423222323676676e+00 2.3343550848933855e+01 0 1 1
6287 1 7.6664560736628733e+00 4.6251524743169146e+00 2.4377881886383644e+01 -2 1 1
5399 1 5.2892090673540233e+00 5.7573438574739244e+00 2.3642849623704148e+01 0 1 0
1271 1 1.3166236408823755e+00 8.4388758384842575e+00 2.4432621579736800e+01 0 0 1
5389 1 3.4222247418229683e+00 9.9308927988901328e+00 2.3290874862215031e+01 1 0 0
1990 1 5.5192765317390524e+00 8.5026373334720642e+00 2.4238002090668544e+01 -1 -2 1
3651 1 7.7420904297523698e+00 9.6825493836865579e+00 2.3486902683593630e+01 -1 -1 0
746 2 8.6134999999999984e+00 1.0656442593567498e+01 2.6724897215509852e+01 0 0 0
572 2 0.0000000000000000e+00 2.8417180249513345e+00 2.6724897215509852e+01 0 0 0
574 2 0.0000000000000000e+00 0.0000000000000000e+00 2.6724897215509852e+01 0 0 0
576 2 1.2305000000000001e+00 7.1042950623783474e-01 2.6724897215509852e+01 0 0 0
583 2 1.2305000000000001e+00 2.1312885187134998e+00 2.6724897215509852e+01 0 0 0
585 2 2.4610000000000003e+00 2.8417180249513345e+00 2.6724897215509852e+01 0 0 0
587 2 2.4610000000000003e+00 0.0000000000000000e+00 2.6724897215509852e+01 0 0 0
589 2 3.6915000000000004e+00 7.1042950623783474e-01 2.6724897215509852e+01 0 0 0
604 2 3.6914999999999996e+00 2.1312885187134998e+00 2.6724897215509852e+01 0 0 0
606 2 4.9220000000000006e+00 2.8417180249513332e+00 2.6724897215509852e+01 0 0 0
608 2 4.9220000000000006e+00 0.0000000000000000e+00 2.6724897215509852e+01 0 0 0
610 2 6.1524999999999999e+00 7.1042950623783407e-01 2.6724897215509852e+01 0 0 0
633 2 6.1524999999999999e+00 2.1312885187134989e+00 2.6724897215509852e+01 0 0 0
635 2 7.3829999999999991e+00 2.8417180249513345e+00 2.6724897215509852e+01 0 0 0
637 2 7.3829999999999991e+00 0.0000000000000000e+00 2.6724897215509852e+01 0 0 0
639 2 8.6134999999999984e+00 7.1042950623783407e-01 2.6724897215509852e+01 0 0 0
670 2 8.6134999999999984e+00 2.1312885187135002e+00 2.6724897215509852e+01 0 0 0
579 2 0.0000000000000000e+00 4.2625770374269996e+00 2.6724897215509852e+01 0 0 0
581 2 1.2305000000000001e+00 4.9730065436648339e+00 2.6724897215509852e+01 0 0 0
596 2 1.2305000000000001e+00 6.3938655561404980e+00 2.6724897215509852e+01 0 0 0
600 2 2.4610000000000003e+00 4.2625770374269996e+00 2.6724897215509852e+01 0 0 0
602 2 3.6914999999999996e+00 4.9730065436648339e+00 2.6724897215509852e+01 0 0 0
625 2 3.6914999999999996e+00 6.3938655561404980e+00 2.6724897215509852e+01 0 0 0
577 2 0.0000000000000000e+00 7.1042950623783341e+00 2.6724897215509852e+01 0 0 0
598 2 2.4610000000000003e+00 7.1042950623783341e+00 2.6724897215509852e+01 0 0 0
629 2 4.9220000000000006e+00 4.2625770374269978e+00 2.6724897215509852e+01 0 0 0
631 2 6.1524999999999999e+00 4.9730065436648339e+00 2.6724897215509852e+01 0 0 0
662 2 6.1524999999999999e+00 6.3938655561404980e+00 2.6724897215509852e+01 0 0 0
666 2 7.3829999999999991e+00 4.2625770374269996e+00 2.6724897215509852e+01 0 0 0
668 2 8.6135000000000002e+00 4.9730065436648339e+00 2.6724897215509852e+01 0 0 0
707 2 8.6135000000000002e+00 6.3938655561404980e+00 2.6724897215509852e+01 0 0 0
627 2 4.9220000000000006e+00 7.1042950623783341e+00 2.6724897215509852e+01 0 0 0
664 2 7.3830000000000009e+00 7.1042950623783341e+00 2.6724897215509852e+01 0 0 0
592 2 0.0000000000000000e+00 8.5251540748539991e+00 2.6724897215509852e+01 0 0 0
594 2 1.2305000000000001e+00 9.2355835810918343e+00 2.6724897215509852e+01 0 0 0
621 2 2.4610000000000003e+00 8.5251540748539991e+00 2.6724897215509852e+01 0 0 0
623 2 3.6915000000000004e+00 9.2355835810918343e+00 2.6724897215509852e+01 0 0 0
590 2 0.0000000000000000e+00 1.1366872099805333e+01 2.6724897215509852e+01 0 0 0
617 2 1.2305000000000001e+00 1.0656442593567498e+01 2.6724897215509852e+01 0 0 0
619 2 2.4610000000000003e+00 1.1366872099805333e+01 2.6724897215509852e+01 0 0 0
654 2 3.6914999999999996e+00 1.0656442593567499e+01 2.6724897215509852e+01 0 0 0
656 2 4.9220000000000006e+00 1.1366872099805333e+01 2.6724897215509852e+01 0 0 0
705 2 8.6134999999999984e+00 9.2355835810918343e+00 2.6724897215509852e+01 0 0 0
660 2 6.1524999999999999e+00 9.2355835810918343e+00 2.6724897215509852e+01 0 0 0
703 2 7.3830000000000009e+00 8.5251540748539991e+00 2.6724897215509852e+01 0 0 0
658 2 4.9220000000000006e+00 8.5251540748539991e+00 2.6724897215509852e+01 0 0 0
6308 1 9.8057750799856602e-01 2.7903779944477919e-01 2.4648752910654643e+01 -1 2 1
6468 1 5.6403119526962291e+00 5.1488991860170674e-01 2.4304917535625904e+01 -2 2 1
5282 1 9.7885730494647607e+00 5.7931296076093775e+00 2.3301079670234422e+01 1 -1 0
4946 1 7.4897681420883577e+00 1.2247009219146044e+01 2.4428865156124370e+01 0 -1 0
573 2 0.0000000000000000e+00 1.4208590124756650e+00 3.0030999999999956e+01 0 0 0
575 2 0.0000000000000000e+00 0.0000000000000000e+00 3.0030999999999956e+01 0 0 0
584 2 1.2305000000000001e+00 2.1312885187134998e+00 3.0030999999999956e+01 0 0 0
586 2 2.4610000000000003e+00 1.4208590124756650e+00 3.0030999999999956e+01 0 0 0
588 2 2.4610000000000003e+00 0.0000000000000000e+00 3.0030999999999956e+01 0 0 0
605 2 3.6914999999999996e+00 2.1312885187134998e+00 3.0030999999999956e+01 0 0 0
582 2 1.2305000000000001e+00 3.5521475311891644e+00 3.0030999999999956e+01 0 0 0
603 2 3.6914999999999996e+00 3.5521475311891644e+00 3.0030999999999956e+01 0 0 0
901 2 0.0000000000000000e+00 2.8417180249513345e+00 3.3337102784513128e+01 0 0 0
902 2 0.0000000000000000e+00 0.0000000000000000e+00 3.3337102784513128e+01 0 0 0
903 2 1.2305000000000001e+00 7.1042950623783474e-01 3.3337102784513128e+01 0 0 0
907 2 1.2305000000000001e+00 2.1312885187134998e+00 3.3337102784513128e+01 0 0 0
908 2 2.4610000000000003e+00 2.8417180249513345e+00 3.3337102784513128e+01 0 0 0
909 2 2.4610000000000003e+00 0.0000000000000000e+00 3.3337102784513128e+01 0 0 0
910 2 3.6915000000000004e+00 7.1042950623783474e-01 3.3337102784513128e+01 0 0 0
918 2 3.6914999999999996e+00 2.1312885187134998e+00 3.3337102784513128e+01 0 0 0
607 2 4.9220000000000006e+00 1.4208590124756650e+00 3.0030999999999956e+01 0 0 0
609 2 4.9220000000000006e+00 0.0000000000000000e+00 3.0030999999999956e+01 0 0 0
634 2 6.1524999999999999e+00 2.1312885187134989e+00 3.0030999999999956e+01 0 0 0
636 2 7.3829999999999991e+00 1.4208590124756659e+00 3.0030999999999956e+01 0 0 0
638 2 7.3829999999999991e+00 0.0000000000000000e+00 3.0030999999999956e+01 0 0 0
671 2 8.6134999999999984e+00 2.1312885187135002e+00 3.0030999999999956e+01 0 0 0
632 2 6.1524999999999999e+00 3.5521475311891644e+00 3.0030999999999956e+01 0 0 0
669 2 8.6134999999999984e+00 3.5521475311891657e+00 3.0030999999999956e+01 0 0 0
919 2 4.9220000000000006e+00 2.8417180249513332e+00 3.3337102784513128e+01 0 0 0
920 2 4.9220000000000006e+00 0.0000000000000000e+00 3.3337102784513128e+01 0 0 0
921 2 6.1524999999999999e+00 7.1042950623783407e-01 3.3337102784513128e+01 0 0 0
933 2 6.1524999999999999e+00 2.1312885187134989e+00 3.3337102784513128e+01 0 0 0
934 2 7.3829999999999991e+00 2.8417180249513345e+00 3.3337102784513128e+01 0 0 0
935 2 7.3829999999999991e+00 0.0000000000000000e+00 3.3337102784513128e+01 0 0 0
936 2 8.6134999999999984e+00 7.1042950623783407e-01 3.3337102784513128e+01 0 0 0
952 2 8.6134999999999984e+00 2.1312885187135002e+00 3.3337102784513128e+01 0 0 0
578 2 0.0000000000000000e+00 5.6834360499026637e+00 3.0030999999999956e+01 0 0 0
580 2 0.0000000000000000e+00 4.2625770374269996e+00 3.0030999999999956e+01 0 0 0
597 2 1.2305000000000001e+00 6.3938655561404980e+00 3.0030999999999956e+01 0 0 0
599 2 2.4610000000000003e+00 5.6834360499026637e+00 3.0030999999999956e+01 0 0 0
601 2 2.4610000000000003e+00 4.2625770374269996e+00 3.0030999999999956e+01 0 0 0
626 2 3.6914999999999996e+00 6.3938655561404980e+00 3.0030999999999956e+01 0 0 0
595 2 1.2305000000000001e+00 7.8147245686161639e+00 3.0030999999999956e+01 0 0 0
624 2 3.6914999999999996e+00 7.8147245686161639e+00 3.0030999999999956e+01 0 0 0
905 2 0.0000000000000000e+00 4.2625770374269996e+00 3.3337102784513128e+01 0 0 0
906 2 1.2305000000000001e+00 4.9730065436648339e+00 3.3337102784513128e+01 0 0 0
914 2 1.2305000000000001e+00 6.3938655561404980e+00 3.3337102784513128e+01 0 0 0
916 2 2.4610000000000003e+00 4.2625770374269996e+00 3.3337102784513128e+01 0 0 0
917 2 3.6914999999999996e+00 4.9730065436648339e+00 3.3337102784513128e+01 0 0 0
929 2 3.6914999999999996e+00 6.3938655561404980e+00 3.3337102784513128e+01 0 0 0
904 2 0.0000000000000000e+00 7.1042950623783341e+00 3.3337102784513128e+01 0 0 0
915 2 2.4610000000000003e+00 7.1042950623783341e+00 3.3337102784513128e+01 0 0 0
628 2 4.9220000000000006e+00 5.6834360499026637e+00 3.0030999999999956e+01 0 0 0
630 2 4.9220000000000006e+00 4.2625770374269978e+00 3.0030999999999956e+01 0 0 0
663 2 6.1524999999999999e+00 6.3938655561404980e+00 3.0030999999999956e+01 0 0 0
665 2 7.3829999999999991e+00 5.6834360499026637e+00 3.0030999999999956e+01 0 0 0
667 2 7.3829999999999991e+00 4.2625770374269996e+00 3.0030999999999956e+01 0 0 0
708 2 8.6135000000000002e+00 6.3938655561404980e+00 3.0030999999999956e+01 0 0 0
661 2 6.1524999999999999e+00 7.8147245686161639e+00 3.0030999999999956e+01 0 0 0
706 2 8.6135000000000002e+00 7.8147245686161639e+00 3.0030999999999956e+01 0 0 0
931 2 4.9220000000000006e+00 4.2625770374269978e+00 3.3337102784513128e+01 0 0 0
932 2 6.1524999999999999e+00 4.9730065436648339e+00 3.3337102784513128e+01 0 0 0
948 2 6.1524999999999999e+00 6.3938655561404980e+00 3.3337102784513128e+01 0 0 0
950 2 7.3829999999999991e+00 4.2625770374269996e+00 3.3337102784513128e+01 0 0 0
951 2 8.6135000000000002e+00 4.9730065436648339e+00 3.3337102784513128e+01 0 0 0
971 2 8.6135000000000002e+00 6.3938655561404980e+00 3.3337102784513128e+01 0 0 0
930 2 4.9220000000000006e+00 7.1042950623783341e+00 3.3337102784513128e+01 0 0 0
949 2 7.3830000000000009e+00 7.1042950623783341e+00 3.3337102784513128e+01 0 0 0
591 2 0.0000000000000000e+00 9.9460130873296642e+00 3.0030999999999956e+01 0 0 0
593 2 0.0000000000000000e+00 8.5251540748539991e+00 3.0030999999999956e+01 0 0 0
620 2 2.4610000000000003e+00 9.9460130873296642e+00 3.0030999999999956e+01 0 0 0
622 2 2.4610000000000003e+00 8.5251540748539991e+00 3.0030999999999956e+01 0 0 0
616 2 1.2305000000000001e+00 1.2077301606043163e+01 3.0030999999999956e+01 0 0 0
618 2 1.2305000000000001e+00 1.0656442593567498e+01 3.0030999999999956e+01 0 0 0
653 2 3.6914999999999996e+00 1.2077301606043163e+01 3.0030999999999956e+01 0 0 0
655 2 3.6914999999999996e+00 1.0656442593567499e+01 3.0030999999999956e+01 0 0 0
912 2 0.0000000000000000e+00 8.5251540748539991e+00 3.3337102784513128e+01 0 0 0
913 2 1.2305000000000001e+00 9.2355835810918343e+00 3.3337102784513128e+01 0 0 0
927 2 2.4610000000000003e+00 8.5251540748539991e+00 3.3337102784513128e+01 0 0 0
928 2 3.6915000000000004e+00 9.2355835810918343e+00 3.3337102784513128e+01 0 0 0
911 2 0.0000000000000000e+00 1.1366872099805333e+01 3.3337102784513128e+01 0 0 0
925 2 1.2305000000000001e+00 1.0656442593567498e+01 3.3337102784513128e+01 0 0 0
926 2 2.4610000000000003e+00 1.1366872099805333e+01 3.3337102784513128e+01 0 0 0
944 2 3.6914999999999996e+00 1.0656442593567499e+01 3.3337102784513128e+01 0 0 0
657 2 4.9220000000000006e+00 9.9460130873296642e+00 3.0030999999999956e+01 0 0 0
659 2 4.9220000000000006e+00 8.5251540748539991e+00 3.0030999999999956e+01 0 0 0
702 2 7.3830000000000009e+00 9.9460130873296642e+00 3.0030999999999956e+01 0 0 0
704 2 7.3830000000000009e+00 8.5251540748539991e+00 3.0030999999999956e+01 0 0 0
698 2 6.1524999999999999e+00 1.2077301606043163e+01 3.0030999999999956e+01 0 0 0
700 2 6.1524999999999999e+00 1.0656442593567499e+01 3.0030999999999956e+01 0 0 0
745 2 8.6135000000000002e+00 1.2077301606043163e+01 3.0030999999999956e+01 0 0 0
747 2 8.6134999999999984e+00 1.0656442593567498e+01 3.0030999999999956e+01 0 0 0
946 2 4.9220000000000006e+00 8.5251540748539991e+00 3.3337102784513128e+01 0 0 0
947 2 6.1524999999999999e+00 9.2355835810918343e+00 3.3337102784513128e+01 0 0 0
969 2 7.3830000000000009e+00 8.5251540748539991e+00 3.3337102784513128e+01 0 0 0
970 2 8.6134999999999984e+00 9.2355835810918343e+00 3.3337102784513128e+01 0 0 0
945 2 4.9220000000000006e+00 1.1366872099805333e+01 3.3337102784513128e+01 0 0 0
967 2 6.1524999999999999e+00 1.0656442593567499e+01 3.3337102784513128e+01 0 0 0
968 2 7.3829999999999991e+00 1.1366872099805333e+01 3.3337102784513128e+01 0 0 0
991 2 8.6134999999999984e+00 1.0656442593567498e+01 3.3337102784513128e+01 0 0 0
340 1 3.4142339115514186e+00 9.4098285675254645e-01 3.5703255399948027e+01 0 0 -1
5314 1 1.5697777047809922e+00 2.6664835135099114e+00 3.6316970515717102e+01 -1 1 0
2882 1 5.6747796463233566e+00 2.0035979922805764e+00 3.5777668990916879e+01 1 1 0
1751 1 8.2186257188596130e+00 6.3464352220096243e-01 3.6292436047369961e+01 0 2 -1
1880 1 1.7837446643651431e+00 5.1895005014542219e+00 3.5375774457890259e+01 0 -1 -1
3714 1 3.8499450711416463e+00 6.4265412460396503e+00 3.6276850205980438e+01 1 0 0
5290 1 6.4728996300262525e+00 4.8811157253445341e+00 3.6173822079124164e+01 2 0 -1
3396 1 8.7318444551292185e+00 6.6425547540608330e+00 3.6533707232328830e+01 1 0 -1
1965 1 2.0321745963480957e+00 1.0843469191201358e+01 3.6082480098451434e+01 1 -1 0
332 1 4.1396361582226406e+00 9.0853436639845526e+00 3.5591706741585135e+01 2 1 -1
1935 1 6.5268640967541103e+00 1.0340199519029538e+01 3.6334796911540252e+01 1 1 -1
4906 1 8.9855462371013797e+00 9.1700152874883862e+00 3.5853507149903592e+01 1 1 -1
1559 1 1.5354972663341007e+00 2.7479521005143792e+00 3.9015314815201471e+01 1 0 0
3466 1 3.6579514674940556e+00 1.1055389678200849e+00 3.9881537007966593e+01 3 0 -1
6117 1 5.8905832174716828e+00 2.5504710565665332e+00 3.8570122828325161e+01 0 1 0
3200 1 7.9778367473752123e+00 1.0796909845912039e+00 3.9439456472731358e+01 1 1 0
5027 1 4.2300361835435796e+00 6.4962200240203076e+00 3.8954713692311820e+01 0 0 -1
5228 1 1.9049743108911452e+00 5.3512901491355809e+00 3.9775980044126271e+01 1 -1 -1
342 1 6.2254375034565559e+00 5.0315133736009248e+00 3.9858394195993625e+01 2 1 0
1830 1 8.5047001198076604e+00 6.6815720116728885e+00 3.9260942766486856e+01 1 1 -1
3479 1 2.0278141812888815e+00 1.0690299375592749e+01 3.9025262588697814e+01 1 -1 -1
3419 1 4.0484616638667594e+00 9.1895701321250023e+00 3.9843290898062243e+01 1 0 -1
233 1 6.4799699234420505e+00 1.0747823432717336e+01 4.3248412874615340e+01 -1 2 0
5418 1 8.7554296253125123e+00 9.4665758327471377e+00 3.9785739794266284e+01 0 1 -1
6253 1 6.5416131878607224e+00 1.0607971644949423e+01 3.8975497395535534e+01 3 0 -1
3743 1 3.5994209231477017e+00 1.1774317318957066e+00 4.2619510636606080e+01 0 0 0
5047 1 1.3323177912093158e+00 2.7134970546989710e+00 4.3338906431386874e+01 1 1 -1
200 1 6.1932935945880327e+00 2.8535723595498945e+00 4.3527755537678004e+01 0 -1 0
1780 1 7.8963033827333051e+00 1.0889142455433942e+00 4.2205358305126957e+01 2 1 -1
4743 1 2.1711310755878586e+00 5.3009444459352633e+00 4.2487562307336383e+01 0 0 -1
3601 1 4.1295972802916969e+00 6.8755455281534541e+00 4.3532368422332347e+01 0 2 0
6460 1 6.4255298037918047e+00 5.2962219178581984e+00 4.2759202554806748e+01 2 1 -1
2081 1 9.0373086604607629e+00 6.3248182365648091e+00 4.3428906468156619e+01 1 -1 -1
4695 1 3.9864285500810972e+00 9.3466669789677574e+00 4.2580976879831141e+01 1 1 0
4654 1 1.9332865737241791e+00 1.1174533051920955e+01 4.2856638763197331e+01 0 -1 0
6350 1 8.5709708113421499e+00 9.2281454819921578e+00 4.2642229633857610e+01 1 1 0
4903 1 1.2450507732291991e+00 2.8871717922336790e+00 4.5947598635424185e+01 0 2 -1
95 1 8.4502300637098102e+00 9.5427158085945170e+00 5.0778108035539532e+01 1 0 0
1385 1 5.9312245624601339e+00 2.8112031403382463e+00 4.6320542397376094e+01 2 0 0
5324 1 8.0700120084530820e+00 4.0181367514607507e+00 4.7158008150929284e+01 -1 0 0
2129 1 8.1542362969547657e+00 1.1958069591314837e+01 4.9615899020205653e+01 0 -1 0
1411 1 3.4876595349168236e+00 4.1992320056696819e+00 4.6730382210468306e+01 1 1 0
1406 1 4.3873545899018751e+00 6.9281785058417444e+00 4.6215606653942402e+01 -1 0 0
5097 1 8.5939687254624815e+00 6.5636211353937899e+00 4.6198471312898853e+01 0 2 0
3328 1 6.5795476198861103e+00 8.3640077743607524e+00 4.6903204042681111e+01 0 0 0
1681 1 2.1671367461878912e+00 8.6253037330188924e+00 4.6487303222863076e+01 2 0 -1
5353 1 2.1276370962824815e+00 1.1170946982360080e+01 4.5899107944602520e+01 0 0 0
3160 1 6.4649535296768921e+00 1.1005129646784230e+01 4.6099144838234544e+01 0 2 0
4877 1 8.5709904261474037e+00 1.1971056532833149e+01 4.7052500871538086e+01 2 1 -1
2983 1 3.5114254969463619e+00 1.5493359280014445e+00 5.0623830933775004e+01 0 2 0
3385 1 3.7943423492807979e+00 4.2869300069834191e+00 4.9603854820410490e+01 1 0 -1
3223 1 1.8907281974670960e+00 8.3910903275713284e+00 4.9184218796153800e+01 -1 -1 0
1845 1 7.8808914145952098e+00 1.0749462955229712e+00 5.0647210309470175e+01 3 1 -1
244 1 7.8845583204326708e+00 3.7556769645258887e+00 4.9659661709824583e+01 2 1 -1
4907 1 1.4921775231741516e+00 5.6987567544888460e+00 5.0355698818488250e+01 3 -1 0
5113 1 6.2948883324781972e+00 8.3377562007466715e+00 4.9623757704564021e+01 -1 1 -1
1543 1 6.0386318560679806e+00 5.7393005845465597e+00 5.0427395175637969e+01 -1 0 -1
5292 1 3.9345197492526749e+00 9.5157015503866358e+00 5.0331484694924519e+01 0 1 -1
6194 1 1.1745871527605130e+00 2.3557052833156325e-01 4.6969078314507058e+01 0 1 0
1860 1 9.8021411650877355e-01 3.8553249100568610e-01 4.9696313740433212e+01 1 0 -1
1516 1 5.5376242701353933e+00 2.2633365882356704e-02 4.9553585358339141e+01 1 0 -1
3096 1 3.2368593024848265e+00 1.4664630734437696e+00 5.3317399822701937e+01 1 -1 0
350 1 8.1292357032070262e-01 2.9703985938638784e+00 5.4265875872652195e+01 1 1 -1
6110 1 5.4899753944317515e+00 2.8889957830453019e+00 5.4235524085704022e+01 0 1 0
3366 1 7.4709920063736872e+00 9.4463875955457777e-01 5.3358007980011990e+01 1 -1 0
4729 1 1.5774313724017073e+00 5.5242831761614051e+00 5.3226046327390108e+01 0 1 -1
3224 1 3.6149523423304264e+00 6.9176292144009306e+00 5.4175656463174064e+01 1 -1 -1
1690 1 5.8105195452824789e+00 5.3710114089788314e+00 5.3159638328134314e+01 1 1 -1
46 1 8.0193144682371020e+00 6.7945768600020990e+00 5.3981993142457803e+01 0 0 0
6142 1 3.7771415546663700e+00 9.7422739140421744e+00 5.3141401626842260e+01 1 -1 0
245 1 1.4477951558982090e+00 1.0990841672210289e+01 5.4016292441564936e+01 0 0 -1
160 1 6.0300255859219742e+00 1.0527597004686010e+01 5.4232910319705844e+01 1 0 0
1881 1 8.2136651531298828e+00 9.3286256734762443e+00 5.3311659249029532e+01 1 1 -1
2103 1 9.5936951722553954e-01 3.2851843094485429e+00 5.7128515783174223e+01 1 1 -1
2922 1 8.9380380775070212e-01 4.2456168925377308e-01 5.8278230091659559e+01 0 1 0
13 1 5.3772586387247108e+00 2.9199788510057392e+00 5.6726957229135778e+01 2 1 -1
1733 1 7.8687974129677221e+00 3.9130096771216709e+00 5.7701532624939865e+01 0 0 -1
3473 1 6.2161272396559299e+00 1.0578030128356193e+01 5.7223311472451009e+01 1 -2 -1
3337 1 3.4208365109269421e+00 4.3844196153535195e+00 5.7705405184026098e+01 2 1 -1
3339 1 3.7625241725765566e+00 7.0776857112368079e+00 5.6987778611127538e+01 -1 0 0
5143 1 8.4560040468736055e+00 6.5369081124878194e+00 5.6957891691140667e+01 -1 2 -1
3077 1 1.3925112961466535e+00 1.1184179061094726e+01 5.6705018072726503e+01 -1 3 -1
1530 1 1.3830767885252704e+00 8.5590568112256342e+00 5.7507808820961237e+01 2 -1 0
5394 1 6.2024542417541797e+00 7.8699981733457891e+00 5.7864053206903201e+01 2 1 0
5077 1 8.5800508017354336e+00 1.2122045872181557e+01 5.7895888469237484e+01 1 -2 0
4796 1 5.3460832310589659e+00 1.9990829326887416e-01 5.7706636445765021e+01 2 1 -1
207 1 9.6349911064581892e+00 2.1415313581122706e+00 5.4254671471852319e+01 1 1 -1
3154 1 1.6339745286153253e+00 1.3840552169699869e+01 2.3269702100162970e+00 0 1 1
3467 1 3.8990294667316423e+00 2.3378816570210908e+01 6.0868264742884604e+00 1 -1 0
6223 1 6.4127756407094125e+00 1.3729919922649723e+01 2.6481842172400825e+00 1 1 0
12 1 8.1895215628130700e+00 2.3157403706890062e+01 6.3652845392356623e+00 1 1 1
1304 1 1.6842078941528167e+00 1.6515074828233821e+01 1.6278011864221682e+00 1 0 1
153 1 3.8058558877415636e+00 1.7918121002432610e+01 2.1857297439562817e+00 1 -1 1
6321 1 6.1492060406848887e+00 1.6574759287708254e+01 1.6904535363718767e+00 -1 1 1
1781 1 8.5286210772953357e+00 1.7338438665987706e+01 2.3881876644152396e+00 2 -1 1
3477 1 4.1370591349365453e+00 2.0763049134067050e+01 1.6789394685242940e+00 0 -1 0
6359 1 1.7356072256982504e+00 2.2176678451518498e+01 2.6365338939185570e+00 1 0 1
3309 1 1.7938250111017915e+00 2.1755960910555157e+01 5.3386593937310138e+00 -1 0 0
4741 1 8.1125115088593631e+00 2.0090788646430656e+01 1.3786355346856081e+00 0 0 1
5041 1 6.3202207781875286e+00 2.1814468454536946e+01 2.6929295570379868e+00 -1 -2 1
1454 1 6.0961850256225407e+00 2.1800635740658482e+01 5.2880763618524780e+00 -1 -2 1
441 1 1.5690450338655799e+00 1.3952145073448726e+01 5.1709540203470947e+00 2 0 1
1554 1 3.5377559832348986e+00 1.5157438867695161e+01 6.0893910312136077e+00 -1 1 0
3723 1 5.6826055911732487e+00 1.3541179516483549e+01 5.2066200105945022e+00 1 -1 0
3764 1 8.3519908686787616e+00 1.5021202636334948e+01 6.3440451920927483e+00 1 0 1
1501 1 1.5370501231540308e+00 1.9110526021084141e+01 6.0128089432220246e+00 1 1 1
3800 1 3.7812692068757303e+00 1.7906641909309204e+01 5.0549196989796208e+00 1 0 1
3783 1 8.3132987513358039e+00 1.7557042647149359e+01 5.0577723958940783e+00 0 -1 1
217 1 6.1233187047246309e+00 1.9097518113845226e+01 6.0704055813853968e+00 1 -1 0
4609 1 1.9513845297099699e+00 2.4498035279464808e+01 1.3202827756502016e+00 -1 0 1
286 1 3.9091890509039549e+00 1.2487740901441276e+01 1.5955920390075724e+00 0 -1 0
2119 1 3.9016888213886132e+00 1.5225333989718093e+01 9.0900114189200760e+00 1 0 0
2018 1 3.8576036251591796e+00 2.0293764425041118e+01 1.2426628713627792e+01 3 -2 0
4803 1 7.8383077150480096e+00 1.4739512079732322e+01 9.0456892808099703e+00 0 0 0
192 1 6.1381938897626851e+00 1.6703190313326289e+01 1.0043650418956313e+01 0 1 0
4749 1 5.7104786992999674e+00 2.1958408616155001e+01 1.3639472282918671e+01 2 0 0
2124 1 1.6275111888507159e+00 1.6653890591479684e+01 1.0057641331696612e+01 -1 1 1
6465 1 1.4866297474530208e+00 1.9283010889497191e+01 8.9002366845278473e+00 0 0 1
2126 1 3.6596832515350233e+00 2.0644596470943291e+01 9.6066946581947494e+00 0 1 1
4911 1 5.8697499301093838e+00 1.9281761344984712e+01 8.9635639266287210e+00 0 -1 1
2105 1 3.7310834493289051e+00 2.3232724259398690e+01 8.8400180332924521e+00 1 0 1
3726 1 1.8384850678742588e+00 2.1597052111806455e+01 1.3512965475948594e+01 1 1 0
1566 1 8.3134923775058915e+00 2.0454362040337763e+01 9.9265545090818517e+00 1 2 0
3048 1 8.1507492532109804e+00 2.3238887817959792e+01 9.1143043775329637e+00 0 2 1
3591 1 1.5321881487362667e+00 1.3864057324871510e+01 1.3514863114088284e+01 1 1 0
3083 1 1.6663789476528736e+00 1.6502193155685806e+01 1.2763974670860133e+01 -1 1 1
3043 1 8.2929585949627516e+00 1.7854030210809153e+01 1.3508239350517220e+01 0 1 1
4528 1 5.9155101424761627e+00 1.3622836316614483e+01 1.3670743061840863e+01 0 0 1
3796 1 7.9419437576368699e+00 2.0618881420875368e+01 1.2834423572156435e+01 0 -1 1
5425 1 3.8170751652545478e+00 1.7859767790567069e+01 1.3693869335029603e+01 -1 0 1