
# Create simulation box and atoms

read_data data.graphite_substrate
  orthogonal box = (0 0 -0.0398667) to (49.22 49.0196 60.1019)
  4 by 2 by 5 MPI processor grid
  reading atoms ...
  6736 atoms
  reading velocities ...
  6736 velocities
group water type 1
3976 atoms in group water
group graphite type 2
2760 atoms in group graphite

# Define potential

pair_style sw
pair_coeff * * mWC.sw mW C
Reading potential file mWC.sw with DATE: 2019-02-27


# Fix graphite atoms in place

fix 5 graphite setforce 0.0 0.0 0.0
velocity graphite set 0.0 0.0 0.0


# Equilibration of molecular water

# Add velocity/set timestep

velocity	    water create ${TEMP} ${SEED} rot yes dist gaussian
velocity	    water create 225 ${SEED} rot yes dist gaussian
velocity	    water create 225 14996 rot yes dist gaussian
timestep	    5.0

# Define output

compute			1 water msd
compute			3 water temp
thermo	    	50
thermo_style	custom step temp press vol etotal ke pe c_1[4] c_3

# Neighbor lists

neigh_modify    delay 0 every 1 check yes

# Set fixes

fix             1 water momentum 10 linear 1 1 1 rescale
fix             2 water nve
fix             3 water temp/csvr ${TEMP} ${TEMP} 500.0 ${SEED}
fix             3 water temp/csvr 225 ${TEMP} 500.0 ${SEED}
fix             3 water temp/csvr 225 225 500.0 ${SEED}
fix             3 water temp/csvr 225 225 500.0 14996
fix             4 water press/berendsen iso ${PRES} ${PRES} 1000.0 modulus 20000
fix             4 water press/berendsen iso 1 ${PRES} 1000.0 modulus 20000
fix             4 water press/berendsen iso 1 1 1000.0 modulus 20000

# Run 0.5 ns equilibration

dump		    1 all atom 2000 ${DIR}/eq.${NAME}-${TEMP}.dump
dump		    1 all atom 2000 run_5/eq.${NAME}-${TEMP}.dump
dump		    1 all atom 2000 run_5/eq.het_freeze_5-${TEMP}.dump
dump		    1 all atom 2000 run_5/eq.het_freeze_5-225.dump

reset_timestep  0

run	            100000
Neighbor list info ...
  update every 1 steps, delay 0 steps, check yes
  max neighbors/atom: 2000, page size: 100000
  master list distance cutoff = 7.76
  ghost atom cutoff = 7.76
  binsize = 3.88, bins = 13 13 16
  1 neighbor lists, perpetual/occasional/extra = 1 0 0
  (1) pair sw, perpetual
      attributes: full, newton on
      pair build: full/bin/atomonly
      stencil: full/bin/3d
      bin: standard
Per MPI rank memory allocation (min/avg/max) = 4.107 | 4.218 | 4.541 Mbytes
Step Temp Press Volume TotEng KinEng PotEng c_1[4] c_3 
       0     132.7951   -1147.9579    145106.76   -36018.829     2665.962   -38684.791            0          225 
      50    172.85171   -287.39051    143582.02   -36395.041    3470.1287    -39865.17   0.89093586     292.8695 
     100    167.27556   -285.86099    142859.28   -36846.283    3358.1832   -40204.467      1.91427     283.4216 
     150    162.42413    -497.9886    142006.44   -37237.664    3260.7871   -40498.451    2.8706071    275.20163 
     200    158.12077   -280.30089    141295.76   -37578.751     3174.394   -40753.145    3.7173813    267.91029 
     250    151.84229   -173.47039    140940.05   -37812.108    3048.3486   -40860.456    4.3987985     257.2724 
     300    147.61201   -206.80389    140539.35   -37988.153    2963.4226   -40951.575    5.0908013    250.10488 
     350    146.77848   -102.59622    140132.88   -38205.984    2946.6889   -41152.673    5.7498458    248.69259 
     400    142.83547    -46.86185    139970.63    -38350.03      2867.53    -41217.56    6.2579741     242.0118 
     450    141.93307   -42.687998    139870.94   -38473.181    2849.4136   -41322.595    6.7518261    240.48282 
     500    138.93886   -171.93601    139759.84   -38606.185    2789.3026   -41395.488    7.2258718    235.40961 
     550    139.61682     18.69402    139605.72   -38726.645    2802.9132   -41529.558    7.6269627    236.55831 
     600    138.50265    -99.00801    139292.15   -38811.715    2780.5454    -41592.26    8.0867271    234.67053 
     650    136.96938   -72.462713    139148.28   -38820.754    2749.7638   -41570.518    8.6430595    232.07264 
     700    134.71371    8.0458311    138973.42   -38834.622    2704.4796   -41539.102    9.1410899    228.25078 
     750    136.60386    88.008096    138910.16   -38834.639    2742.4258   -41577.064    9.4981042    231.45334 
     800    135.24176    37.203248    139016.34   -38903.286    2715.0805   -41618.366     9.744482    229.14547 
     850    137.05223   -41.023634    138991.73   -38944.275    2751.4272   -41695.702    10.109445    232.21303 
     900    133.27616   -47.154324    138900.84    -38986.07    2675.6196    -41661.69    10.503136    225.81508 
     950    136.84721   -53.084064    138839.41   -39000.342    2747.3112   -41747.654    10.800006    231.86565 
    1000     139.0577    21.666407    138890.78   -38994.038    2791.6884   -41785.726    11.069367    235.61097 
    1050    134.69795     17.72911    139013.78   -39057.745    2704.1632   -41761.909    11.296317    228.22408 
    1100    135.75131    25.754401    139141.26   -39092.948    2725.3102   -41818.259     11.54978    230.00883 
    1150     135.3172   -124.25978    139182.13   -39092.927    2716.5951   -41809.522    11.798714     229.2733 
    1200    135.53024   -55.336652    139191.81   -39102.086    2720.8719   -41822.957    12.209494    229.63425 
    1250    135.05861   -90.588584     139093.1   -39151.294    2711.4037   -41862.698    12.457199    228.83515 
    1300    135.75789    -165.8751    139064.23   -39134.851    2725.4423   -41860.293    12.722766    230.01997 
    1350    133.94171    40.833601    138892.05   -39149.085     2688.981   -41838.067    13.030475    226.94274 
    1400    133.21292    44.473559    139019.06   -39207.388    2674.3499   -41881.738    13.312192    225.70792 
    1450    134.25329    215.54555    139146.14   -39183.059    2695.2362   -41878.295    13.562369    227.47066 
    1500     134.8786      53.2918    139313.15   -39224.445    2707.7899   -41932.235    13.793814    228.53016 
    1550    131.52583    -53.76803    139305.14   -39249.272    2640.4805   -41889.752    13.929323    222.84943 
    1600      133.731    180.86624    139093.03    -39253.28    2684.7509    -41938.03    14.347211    226.58573 
    1650    135.44746    194.33137    139194.23   -39190.675    2719.2101   -41909.885    14.522011    229.49399 
    1700    132.44202    47.747526    139357.16   -39215.789    2658.8735   -41874.663    14.813292    224.40175 
    1750    134.06483   -29.583741    139381.24   -39260.893    2691.4528   -41952.346    15.042952    227.15135 
    1800    131.42758   -124.83945       139252   -39303.948     2638.508   -41942.456    15.276422    222.68296 
    1850     132.1231   -87.529108     139276.8   -39328.072    2652.4711   -41980.544    15.595449    223.86141 
    1900    129.85134    66.967566     139360.3    -39350.25    2606.8638   -41957.113    15.841838    220.01227 
    1950    130.20567    114.31839    139354.76   -39373.819    2613.9773   -41987.797    16.259274    220.61263 
    2000    130.16232   -136.40125    139297.41   -39377.862    2613.1069   -41990.969    16.538095    220.53918 
    2050    132.35544   -26.053025    139351.64   -39290.556    2657.1354   -41947.691    16.716098    224.25506 
    2100    134.23059   -7.9718468    139329.73   -39227.775    2694.7806   -41922.556    16.902997    227.43221 
    2150     135.7072    224.68231    139305.96   -39172.053    2724.4246   -41896.478    17.193661    229.93408 
    2200    134.24576    43.862073    139444.01   -39166.067    2695.0852   -41861.152    17.376013    227.45792 
    2250    135.40327   -103.40971    139384.21   -39179.648    2718.3229    -41897.97    17.616113    229.41912 
    2300    134.78885    20.768132    139368.13   -39162.541    2705.9881   -41868.529    17.885821     228.3781 
    2350    135.27084   -88.375681     139338.1   -39239.602    2715.6643   -41955.266    18.183015    229.19474 
    2400    132.61616    43.763253     139435.2   -39226.845    2662.3695   -41889.215    18.498143    224.69681 
    2450     133.2042   -37.772059    139359.88   -39245.625     2674.175     -41919.8      18.9218    225.69316 
    2500    134.22756   0.22018938    139372.55   -39253.688    2694.7197   -41948.408    19.153363    227.42708 
    2550    134.94712   -80.488052    139245.89   -39280.396    2709.1654   -41989.562    19.403097    228.64625 
    2600    133.92044    41.045724    139239.97   -39259.775     2688.554   -41948.329    19.736815     226.9067 
    2650    133.03023   -57.433324     139090.7   -39269.039    2670.6824   -41939.721    20.076459    225.39839 
    2700     131.7259    198.55146    139272.68   -39250.553     2644.497    -41895.05    20.409368    223.18841 
    2750    134.47801    152.83746    139461.28   -39223.387    2699.7478   -41923.134    20.558094    227.85143 
    2800    135.11354    36.733604    139511.96   -39256.765    2712.5063   -41969.272    20.694883    228.92822 
    2850    131.23706    10.635412    139537.19   -39275.728    2634.6832   -41910.412    21.016554    222.36015 
    2900    131.85651    -163.7259    139344.55   -39254.549    2647.1191   -41901.668    21.307538    223.40971 
    2950    132.48801    -7.023991    139272.06   -39250.871    2659.7969   -41910.668    21.572223    224.47968 
    3000    131.86904    67.725764     139242.5   -39272.948    2647.3706   -41920.318      21.7727    223.43094 
    3050    134.72785    90.411675    139303.98    -39253.84    2704.7634   -41958.604    22.098021    228.27474 
    3100    133.52617    189.26309    139518.47   -39250.298    2680.6387   -41930.937    22.311336    226.23868 
    3150    134.28469   -161.23107    139467.22   -39225.076    2695.8667   -41920.943     22.58418    227.52388 
    3200    134.73641    9.2067205    139465.32   -39253.356    2704.9352   -41958.291    22.850376    228.28923 
    3250    132.05835   -76.059776    139392.66   -39275.205    2651.1711   -41926.376    23.124981    223.75169 
    3300    132.13588    41.334942     139423.6   -39251.908    2652.7276   -41904.636    23.340722    223.88306 
    3350    133.66482    35.378894    139317.22   -39275.227    2683.4222   -41958.649    23.629243     226.4736 
    3400    133.86691     161.0171     139533.6   -39241.366    2687.4793   -41928.845    23.841385    226.81601 
    3450     135.4188    51.505702    139591.63   -39257.809    2718.6348   -41976.444      23.8934    229.44544 
    3500    133.25764   -87.372879    139527.89   -39295.953    2675.2477     -41971.2    24.121371    225.78369 
    3550    130.52458   -20.560038    139478.62   -39324.815    2620.3796   -41945.195    24.499548    221.15297 
    3600    131.70086   -58.983474    139479.28   -39332.585    2643.9943   -41976.579    24.780839    223.14599 
    3650    131.60764   -103.80078    139406.68   -39370.956    2642.1228   -42013.079     25.14084    222.98804 
    3700    130.07633    102.50895    139393.84   -39351.565    2611.3806   -41962.945    25.372698    220.39348 
    3750    131.67394    -123.0869    139492.14   -39317.181    2643.4539   -41960.635    25.648499    223.10038 
    3800    133.11991   -170.25776    139363.69   -39379.059    2672.4827   -42051.542    25.941156    225.55033 
    3850    130.97148    -5.433299     139316.9   -39343.937    2629.3515   -41973.288    26.294158    221.91017 
    3900    131.33484     82.74007    139389.11   -39304.468    2636.6462   -41941.114    26.616759    222.52582 
    3950    131.79108    61.426514    139466.76   -39287.805    2645.8055    -41933.61    26.810501    223.29885 
    4000    134.02991   -64.953739    139349.76   -39284.788    2690.7517   -41975.539    27.097682    227.09218 
    4050    133.31038    119.31853    139361.44   -39290.984    2676.3067   -41967.291    27.398587    225.87306 
    4100    131.80226    53.664465     139322.1   -39327.669      2646.03   -41973.699    27.611123    223.31779 
    4150    132.76574    92.583476    139356.09   -39327.202    2665.3727   -41992.575    27.864142    224.95026 
    4200      132.978    173.06064    139533.61   -39289.239    2669.6337   -41958.872     28.28001    225.30989 
    4250    132.92629   -78.039453    139398.09    -39286.85    2668.5958   -41955.446    28.552007    225.22228 
    4300    132.83745   -1.7855296    139456.81   -39333.226    2666.8121   -42000.038    28.828581    225.07175 
    4350    134.48971   -62.434281    139469.91   -39320.989    2699.9826   -42020.972     28.98435    227.87125 
    4400    132.57869   -143.67836    139442.58   -39320.592    2661.6173   -41982.209     29.27311    224.63332 
    4450    131.12131   -28.948869     139368.4   -39358.691    2632.3594   -41991.051    29.589212    222.16403 
    4500    131.96653     13.94646     139426.9   -39387.924    2649.3279   -42037.252    30.029981    223.59613 
    4550    134.79904    121.37765    139442.46   -39378.937    2706.1926    -42085.13    30.216143    228.39536 
    4600    131.12827   -13.376599    139414.21   -39390.436    2632.4992   -42022.935    30.371832    222.17583 
    4650    134.18486     2.575998    139337.88   -39310.061    2693.8625   -42003.923    30.745568    227.35472 
    4700    135.84517   -112.94617    139373.99   -39343.274    2727.1945   -42070.469    31.232765    230.16786 
    4750    131.41804   -136.38307    139349.34   -39332.425    2638.3164   -41970.741    31.504198    222.66679 
    4800    133.62384   -118.29627     139215.7   -39319.727    2682.5995   -42002.326    31.735696    226.40416 
    4850     134.0914    19.666931    139191.26   -39288.278    2691.9862   -41980.264    31.969793    227.19637 
    4900    130.99289    31.747991    139198.96   -39357.733    2629.7812   -41987.514    32.082002    221.94644 
    4950    130.74964   -179.09874    139078.34   -39343.892    2624.8977    -41968.79    32.266909    221.53429 
    5000    131.33823    88.623642    139065.33   -39333.992    2636.7143   -41970.706    32.551249    222.53157 
    5050    134.24373   -2.9986341    139048.95   -39380.182    2695.0443   -42075.227    32.939506    227.45447 
    5100    134.91511   -45.975738    139070.54   -39274.733    2708.5228   -41983.256    33.372315    228.59202 
    5150     134.8564   -66.955907    139047.37   -39268.006    2707.3442    -41975.35    33.562773    228.49255 
    5200    133.97495    53.868996       139026    -39260.08    2689.6483   -41949.728    33.847478    226.99906 
    5250    133.99651    76.765223    138964.37   -39258.711    2690.0812   -41948.792     34.16353    227.03559 
    5300      134.555    94.360684     139094.7   -39251.766    2701.2932   -41953.059    34.336664    227.98186 
    5350    135.22372    21.539925    139089.03   -39285.429    2714.7183   -42000.147    34.702775     229.1149 
    5400    133.60695    -116.0297    138910.43   -39304.612    2682.2606   -41986.873    34.998205    226.37556 
    5450    133.43527    74.604245    138850.82   -39353.422    2678.8139   -42032.236    35.019007    226.08467 
    5500    132.72043     5.263546    138985.37   -39367.736    2664.4629   -42032.199    35.311972    224.87348 
    5550    130.57885    77.064044    139023.57   -39354.587    2621.4691   -41976.056    35.655677    221.24492 
    5600    131.48982   -14.040241    138924.59   -39390.015    2639.7575   -42029.773    35.860326    222.78841 
    5650    133.26664    -67.69531    138893.74   -39401.724    2675.4285   -42077.152    36.184395    225.79894 
    5700    133.05064   -13.730098    139044.85   -39431.854    2671.0921   -42102.946     36.36975    225.43297 
    5750    134.55608    135.41217    139139.09    -39446.01    2701.3149   -42147.325    36.655685    227.98369 
    5800    131.54597    24.919065    139244.21   -39436.296    2640.8848   -42077.181    37.011346    222.88355 
    5850    130.70409   -105.28356    139239.48   -39400.685    2623.9833   -42024.669    37.134191    221.45711 
    5900    130.92919    79.075027    139119.46    -39437.91    2628.5024   -42066.413    37.491586    221.83851 
    5950    131.50086    156.87669    139352.38   -39470.628    2639.9791   -42110.607    37.714986    222.80711 
    6000    131.45241    54.252491       139444   -39442.274    2639.0064   -42081.281    37.921261    222.72502 
    6050    132.74578    146.42772    139538.87   -39426.814    2664.9719   -42091.786    38.117493    224.91644 
    6100    131.56782   -32.759444    139563.33   -39394.617    2641.3233    -42035.94    38.332225    222.92056 
    6150     135.3277    4.2997073    139643.34   -39387.389    2716.8059   -42104.195      38.2864    229.29109 
    6200    133.21806   -11.491804     139768.8    -39398.79    2674.4533   -42073.244    38.488746    225.71664 
    6250     131.6606   -152.99823    139590.54    -39390.22     2643.186   -42033.406    38.662937    223.07777 
    6300    136.15593    96.188922    139649.63   -39385.462    2733.4332   -42118.895    38.838752    230.69439 
    6350    130.37666    41.112588    139718.88   -39447.778    2617.4099   -42065.187    39.178945    220.90233 
    6400    132.49017    98.706474    139635.78   -39392.489    2659.8403   -42052.329    39.422256    224.48334 
    6450    133.46717    147.99453    139683.16   -39404.479    2679.4542   -42083.933    39.701584    226.13871 
    6500    134.95765    36.517086    139886.43   -39412.963    2709.3769    -42122.34    39.719459     228.6641 
    6550    132.55506   -112.39549    139854.31   -39432.136    2661.1431   -42093.279    39.899648     224.5933 
    6600    134.55014    86.847262    139822.07   -39430.304    2701.1958   -42131.499    40.138376    227.97364 
    6650    133.04958    127.79058    139965.58   -39399.277    2671.0708   -42070.348    40.209207    225.43117 
    6700    133.73919    52.979284    139999.29   -39416.166    2684.9154   -42101.082    40.437648    226.59961 
    6750    133.34548   -293.16597    139944.45    -39427.02    2677.0114   -42104.031    40.667684    225.93254 
    6800    131.35896   -93.797246    139796.57   -39420.507    2637.1304   -42057.637    40.938695    222.56669 
    6850    133.28856    64.190687    139700.78   -39412.176    2675.8685   -42088.044    41.228651    225.83608 
    6900    132.36723   -74.855393    139651.36    -39394.87    2657.3721   -42052.242    41.650348    224.27504 
    6950    134.09989   -115.72784    139445.89   -39373.175    2692.1567   -42065.332    41.791979    227.21076 
    7000    133.93465    90.460483    139481.88   -39359.202    2688.8394   -42048.042     42.16747    226.93079 
    7050     134.4149   -139.10088    139462.69   -39389.073    2698.4806   -42087.553    42.444824    227.74448 
    7100    129.56199    11.473971    139430.59   -39413.157    2601.0549   -42014.212    42.648121    219.52201 
    7150    132.18337     162.0911    139325.71   -39374.176     2653.681   -42027.857    42.919756    223.96352 
    7200    131.75406    98.114356    139488.86   -39368.559    2645.0622   -42013.621    43.108535    223.23612 
    7250    134.17728   -10.649105    139377.84   -39427.565    2693.7103   -42121.275    43.390258    227.34188 
    7300    131.15561    152.59884     139559.3   -39490.553    2633.0481   -42123.601     43.74708    222.22215 
    7350    134.33199   -4.7342998     139637.6   -39458.454    2696.8163    -42155.27    44.108632    227.60402 
    7400    129.81683    38.525993    139530.54   -39473.523     2606.171   -42079.694    44.511948     219.9538 
    7450    131.84376    75.301406    139510.97   -39460.206    2646.8632   -42107.069    44.862941    223.38811 
    7500    131.25613    96.541171    139559.82   -39462.068     2635.066   -42097.134    45.085238    222.39246 
    7550    132.58894   -60.727092    139501.87   -39469.198    2661.8233   -42131.022    45.531637     224.6507 
    7600    133.13546    66.453831    139658.19   -39437.332     2672.795   -42110.127    45.730011    225.57668 
    7650    132.02384   -9.4318314    139640.97   -39466.205    2650.4784   -42116.684      45.8404    223.69323 
    7700    133.78563   -31.137086    139625.71   -39454.344    2685.8476   -42140.191    46.082938    226.67829 
    7750    134.05169    53.958516     139603.8   -39387.287     2691.189   -42078.476    46.165613    227.12909 
    7800    134.43512   -19.321431    139643.72    -39347.85    2698.8866   -42046.737    46.345907    227.77874 
    7850    130.44554    120.60213    139469.31   -39410.987    2618.7928   -42029.779    46.437761    221.01905 
    7900    130.72853    -71.91104    139503.12     -39443.1     2624.474   -42067.574    46.623417    221.49852 
    7950     130.2007    88.774291    139403.12   -39441.682    2613.8774   -42055.559    46.616911     220.6042 
    8000    131.84085    -49.51082    139483.62   -39517.946    2646.8048    -42164.75    46.890463    223.38318 
    8050    132.59125    59.705305    139406.18   -39473.545    2661.8695   -42135.414    47.252834    224.65461 
    8100    132.85633    48.844221     139496.3   -39412.132    2667.1911   -42079.323    47.618187    225.10374 
    8150    134.71218    45.791011    139528.54   -39387.091    2704.4488    -42091.54    47.899825    228.24818 
    8200    134.25007    33.631467    139588.92   -39368.245    2695.1716   -42063.417    48.025229    227.46521 
    8250    132.31385   -121.54503    139637.49   -39335.424    2656.3005   -41991.724    48.152654    224.18459 
    8300    135.81207    45.129124     139726.2   -39334.764      2726.53   -42061.294    48.092002    230.11178 
    8350    135.47726    -29.00287    139630.73   -39318.276    2719.8084   -42038.084    48.204584    229.54449 
    8400    133.73313   -155.91044    139719.68   -39312.001    2684.7937   -41996.794    48.445591    226.58934 
    8450    135.04305    235.26824    139709.39   -39280.814    2711.0912   -41991.906    48.750026    228.80878 
    8500    132.16225   -13.728672    139866.24   -39301.685     2653.257   -41954.942    49.001956    223.92773 
    8550    135.69394    -115.0223    139674.64   -39304.425    2724.1584   -42028.584      49.3594    229.91162 
    8600    132.25397   -38.085306     139570.2    -39317.03    2655.0985   -41972.128    49.663213    224.08315 
    8650    135.06584   -23.213971    139588.74   -39317.002    2711.5488   -42028.551    49.908156    228.84741 
    8700    134.20198   -41.715801    139660.59   -39353.052    2694.2062   -42047.258    49.935302    227.38374 
    8750    129.71516    118.62485    139627.12   -39408.683    2604.1298   -42012.813    50.086846    219.78153 
    8800    133.00007   -117.01044    139518.11   -39447.447     2670.077   -42117.524    50.285102     225.3473 
    8850    130.33083    82.925816     139447.4   -39429.001    2616.4899   -42045.491    50.419721    220.82469 
    8900    133.21201    153.63436    139582.71   -39425.716    2674.3318   -42100.048    50.725232    225.70639 
    8950    135.97237   -69.874659    139666.28    -39421.68     2729.748   -42151.428    50.946923    230.38337 
    9000    133.53309     297.1851     139625.1   -39417.423    2680.7776   -42098.201    51.304689     226.2504 
    9050    136.22036   -32.208978    139640.25   -39386.447    2734.7267   -42121.173     51.49627    230.80355 
    9100    133.53127   -32.867004    139549.06   -39374.756    2680.7411   -42055.497    51.687193    226.24731 
    9150    129.11617   -14.383364    139613.46   -39387.413    2592.1047   -41979.518    51.906259    218.76664 
    9200    132.94677    22.351937    139505.78   -39399.547    2669.0068   -42068.554     52.04692    225.25698 
    9250    132.99356    112.58874    139538.38   -39406.631    2669.9462   -42076.578    52.124797    225.33626 
    9300    133.73005   -87.361495    139630.15   -39410.985    2684.7318   -42095.717    52.304214    226.58413 
    9350    131.08385    71.862018    139582.76   -39393.096    2631.6073   -42024.703    52.434009    222.10056 
    9400     132.0018    47.814486    139652.78   -39357.592    2650.0359   -42007.628    52.674251    223.65588 
    9450    132.69871   -37.328973    139648.83   -39307.891     2664.027   -41971.918    53.044275    224.83669 
    9500    133.27165    87.191895    139695.05   -39358.298    2675.5291   -42033.827    53.341623    225.80744 
    9550     128.8119   -57.871061    139741.48    -39437.38    2585.9963   -42023.377    53.626978    218.25111 
    9600    131.75227     80.29645    139771.35   -39419.008    2645.0263   -42064.034    54.008251    223.23308 
    9650    131.16461   -48.206341    139707.02   -39443.554    2633.2286   -42076.783    54.224265    222.23739 
    9700    134.25222    72.665321    139566.98   -39435.244    2695.2148   -42130.459    54.672106    227.46886 
    9750    133.70007    22.007834    139747.61   -39383.273    2684.1299   -42067.403    55.021931    226.53332 
    9800    131.55355   -75.570184    139670.22   -39429.396    2641.0369   -42070.433    55.216115    222.89639 
    9850    135.31102   -66.683371     139587.2   -39365.505    2716.4709   -42081.976    55.421076    229.26282 
    9900    131.79981    15.581722    139580.81   -39375.272    2645.9808   -42021.253     55.74723    223.31364 
    9950    135.75679    28.833555    139579.29   -39382.915    2725.4201   -42108.336    55.977633     230.0181 
   10000    134.01511    41.598182    139453.78   -39349.639    2690.4545   -42040.094    56.345352     227.0671 
   10050    133.76203    84.828361    139571.26   -39335.674    2685.3739   -42021.048    56.571816    226.63832 
   10100    135.22919    12.108431    139565.67   -39347.299    2714.8283   -42062.127    56.657968    229.12418 
   10150    135.05878   -136.33972    139532.32   -39373.992    2711.4071     -42085.4    56.941543    228.83545 
   10200    132.45429   -71.808274    139459.08    -39358.52    2659.1199    -42017.64    57.219168    224.42255 
   10250    132.94435    70.746414    139486.83    -39350.24    2668.9582   -42019.199    57.738209    225.25287 
   10300    132.49662    7.3959035    139500.88   -39345.443    2659.9699   -42005.413    58.022959    224.49428 
   10350    132.13881    14.315235    139656.35   -39341.142    2652.7865   -41993.929    58.220156    223.88802 
   10400    131.19768    72.597811    139712.46   -39366.677    2633.8925    -42000.57    58.351812    222.29342 
   10450    131.93386    37.860418    139865.13   -39349.964    2648.6719   -41998.636    58.800395    223.54076 
   10500    133.69608   -13.437562    139787.58   -39353.563    2684.0499   -42037.613    59.203995    226.52657 
   10550    131.74883   -120.71982    139673.59    -39395.37    2644.9574   -42040.327    59.523066    223.22727 
   10600     133.6045     89.10679    139555.53   -39367.894    2682.2114   -42050.105    59.795133    226.37141 
   10650    132.94841    -67.03633    139689.33   -39307.724    2669.0397   -41976.763    60.123795    225.25975 
   10700    133.10265    183.68749    139758.75   -39374.795    2672.1364   -42046.931    60.275064     225.5211 
   10750    133.92935   -21.197274    139694.79    -39383.29    2688.7329   -42072.023    60.555182     226.9218 
   10800    132.88994   -132.27981    139546.06   -39380.557     2667.866   -42048.423    60.760088    225.16069 
   10850    132.81881   -74.667896    139572.87   -39403.288     2666.438   -42069.726      60.9688    225.04017 
   10900    133.92969   -78.890902    139568.19   -39380.856    2688.7398   -42069.596    60.974528    226.92239 
   10950    132.15175    6.4831985    139602.75   -39405.781    2653.0463   -42058.828    61.242713    223.90995 
   11000    132.46119    -110.6081       139644    -39430.62    2659.2586   -42089.878    61.324582    224.43425 
   11050    132.08356    75.469012    139535.37   -39447.463    2651.6773    -42099.14    61.445745    223.79441 
   11100     132.6381    -34.71299    139597.27   -39413.257    2662.8101   -42076.067    61.754685    224.73399 
   11150    134.58542     7.559837    139581.18   -39377.601     2701.904   -42079.505    62.120707    228.03341 
   11200    133.07678    87.041151    139572.44   -39388.548    2671.6168   -42060.164    62.298257    225.47725 
   11250    129.93892    54.141182    139614.65   -39377.177    2608.6221   -41985.799    62.684622    220.16067 
   11300    133.06984   -96.668134    139706.29   -39353.834    2671.4777   -42025.311    62.977289    225.46551 
   11350    133.52028   -27.949246     139720.1   -39339.016    2680.5206   -42019.537    63.255337    226.22871 
   11400     132.3212   -5.4574373    139681.67   -39317.357    2656.4481   -41973.805    63.417826    224.19705 
   11450    133.52801    15.897285     139702.8   -39298.931    2680.6757   -41979.607    63.702122    226.24179 
   11500    132.59066    138.08662    139657.11    -39325.17    2661.8577   -41987.027    63.968473    224.65361 
   11550     136.2286   -46.965592    139663.36    -39262.69     2734.892   -41997.582    64.079061    230.81751 
   11600    134.44307     52.82657    139732.96    -39304.65    2699.0463   -42003.696    64.321912    227.79223 
   11650    135.48202   -8.8083156    139881.12   -39320.086     2719.904    -42039.99    64.598609    229.55256 
   11700     133.3168    33.668984     139960.2   -39350.876    2676.4355   -42027.312    64.705384    225.88393 
   11750    132.79431   -51.421237    139912.22   -39359.574    2665.9461    -42025.52    64.836189    224.99866 
   11800    133.88002   -55.755627     139975.2   -39411.328    2687.7425    -42099.07    64.996403    226.83822 
   11850    133.58196    91.773002    139911.59   -39395.197    2681.7588   -42076.956    65.318448     226.3332 
   11900    133.61396    159.16812    139886.26   -39353.368    2682.4011   -42035.769    65.496231    226.38742 
   11950    132.86483    15.542894    139959.88   -39388.564    2667.3619   -42055.926    65.844046    225.11815 
   12000     132.5351   -126.36981    139965.15   -39360.592    2660.7422   -42021.334    65.963011    224.55946 
   12050    133.06356   -230.94825    139834.07   -39400.168    2671.3516   -42071.519    66.294235    225.45486 
   12100    133.20767    77.270075    139877.73   -39403.609    2674.2446   -42077.853    66.739037    225.69903 
   12150    130.76329    107.66559    139888.53   -39430.827     2625.172   -42055.999    66.969671    221.55743 
   12200    132.94904   -46.799551    139841.06   -39448.781    2669.0524   -42117.833    67.060279    225.26082 
   12250    135.02945    63.232673    139924.92   -39394.713    2710.8183   -42105.531    67.265818    228.78575 
   12300    131.69085    33.666509    139965.18   -39344.449    2643.7932   -41988.242    67.642216    223.12902 
   12350    134.49905    117.41159    140092.28   -39395.219    2700.1702   -42095.389    68.116905    227.88708 
   12400    133.05872   -118.07558    139988.05   -39387.522    2671.2543   -42058.776    68.425986    225.44666 
   12450    131.62303    72.545646     140020.2   -39441.276    2642.4317   -42083.707    68.574455    223.01411 
   12500    136.08171   -23.406999     140057.2   -39421.182    2731.9431   -42153.126    68.846786    230.56863 
   12550    132.77885    33.828992    139968.42   -39425.432    2665.6357   -42091.068    69.146064    224.97246 
   12600    132.66463    98.164137    140018.42    -39461.61    2663.3427   -42124.953    69.306156    224.77894 
   12650    133.38717    172.08161    140256.48   -39446.966    2677.8483   -42124.815    69.548924    226.00317 
   12700    130.12793   -136.29151    140107.09   -39519.688    2612.4166   -42132.105    69.617558    220.48091 
   12750    133.32874   -19.195455    139856.48   -39492.914    2676.6753   -42169.589    69.669838    225.90417 
   12800    132.36679    45.583235    139855.27   -39528.183    2657.3633   -42185.546    69.747905    224.27429 
   12850    129.73693     68.43543     139952.4   -39543.207    2604.5669   -42147.774    70.000534    219.81842 
   12900    130.26448   -82.121439    139999.38   -39546.249    2615.1578   -42161.407     70.26361    220.71227 
   12950    131.63934    5.4256673     139963.5   -39493.755    2642.7593   -42136.515    70.374692    223.04176 
   13000    129.62359    58.929266     140021.7   -39475.059    2602.2915    -42077.35    70.591564    219.62638 
   13050    132.80904   -67.572598    140000.31   -39473.477    2666.2419   -42139.719     70.81813    225.02362 
   13100    131.53133   -180.36328    139993.46   -39493.875    2640.5909   -42134.466    70.737436    222.85875 
   13150    130.70635    -26.36609    139971.23   -39490.871    2624.0288     -42114.9     71.25438    221.46095 
   13200     131.1044   -19.048061    139850.29   -39509.771    2632.0199   -42141.791    71.581954    222.13538 
   13250    132.38184    70.419297       139723   -39515.469    2657.6655   -42173.135    71.891596     224.2998 
   13300    129.71291    20.419137     139748.6   -39531.498    2604.0847   -42135.582    72.265761    219.77772 
   13350    131.27351   -35.516018    139841.52   -39523.028     2635.415   -42158.443    72.549833    222.42191 
   13400    128.96881     71.86701    139755.57   -39532.379    2589.1463   -42121.525    72.865536    218.51697 
   13450    127.88624    11.019478    139830.28   -39553.473    2567.4128   -42120.886    72.792032    216.68272 
   13500    132.76485   -46.184968     139773.8   -39567.738    2665.3547   -42233.093    73.010198    224.94874 
   13550    131.55289   -33.724242    139725.89   -39573.209    2641.0236   -42214.233    73.218761    222.89527 
   13600    131.65697   -140.73456    139767.96   -39537.986    2643.1131   -42181.099    73.441099    223.07161 
   13650    128.58781    123.50217    139768.97   -39546.513    2581.4975    -42128.01    73.689464    217.87142 
   13700    132.08396   -70.176528    139744.91   -39540.036    2651.6853   -42191.721    73.801867    223.79509 
   13750    132.03307   -11.708238    139826.31   -39547.557    2650.6637   -42198.221     74.03785    223.70887 
   13800     130.5285   -51.666475    139771.14   -39542.332    2620.4584    -42162.79     74.33008    221.15962 
   13850    130.43188    160.00433    139786.53   -39544.259    2618.5185   -42162.777    74.537105     220.9959 
   13900    134.38774    117.52455    139908.22   -39507.381    2697.9354   -42205.316    74.882075    227.69847 
   13950    134.32265   -19.498583    139991.88   -39514.809    2696.6286   -42211.438    75.012955    227.58818 
   14000    134.80433    -28.14263    140079.19   -39495.401    2706.2987     -42201.7    74.872323    228.40431 
   14050    134.48269     39.98695    140111.84   -39491.821    2699.8416   -42191.663    74.964597    227.85935 
   14100    131.35183    132.13383    140141.99   -39502.079    2636.9872   -42139.067    75.138577    222.55461 
   14150    131.29504   -29.201945    140240.75   -39523.869    2635.8471   -42159.716    75.245038    222.45838 
   14200    131.94823    94.014419     140321.9   -39513.119    2648.9604    -42162.08    75.384969    223.56511 
   14250     132.7156    51.189485    140288.37    -39465.97    2664.3659   -42130.336    75.470841    224.86529 
   14300    131.43047    58.607178    140147.17   -39463.783    2638.5659   -42102.349    75.631435    222.68784 
   14350    132.76825   -122.39224     139929.6   -39509.033     2665.423   -42174.456    75.865011    224.95451 
   14400    130.57302    21.178564    139812.27   -39550.414     2621.352   -42171.766    75.923185    221.23503 
   14450    133.56364    101.00181     139882.1   -39527.164    2681.3909   -42208.555    76.208591    226.30216 
   14500    132.22859    59.323958    139957.62   -39493.618    2654.5888   -42148.207     76.42936    224.04014 
   14550    130.98866   -128.20872     139937.4   -39490.636    2629.6964   -42120.333    76.687641    221.93928 
   14600      128.514     31.87162    139910.16    -39505.23    2580.0157   -42085.245    76.988591    217.74636 
   14650    133.69023   -103.14592    139893.52   -39477.667    2683.9323   -42161.599    77.240073    226.51665 
   14700    130.46492    138.80886    139967.44   -39498.857     2619.182   -42118.039    77.489364    221.05189 
   14750    129.96691    23.678755    140029.67   -39525.994     2609.184   -42135.178    77.804994    220.20809 
   14800    133.87387     16.51334    140004.79   -39451.519    2687.6191   -42139.138     78.11277     226.8278 
   14850    129.96981   -1.5374553    139928.57   -39432.306    2609.2422   -42041.548    78.246559      220.213 
   14900     132.5314    5.2996285    139929.52   -39424.881    2660.6679   -42085.549    78.450345    224.55319 
   14950    134.38358    -1.794663    140035.08   -39388.324     2697.852   -42086.176    78.895103    227.69143 
   15000    133.37009   -191.32764    139961.94   -39428.243    2677.5053   -42105.749    78.902879    225.97422 
   15050    133.43818    136.11015    139826.72   -39422.777    2678.8723   -42101.649    78.799539    226.08959 
   15100    130.76946    108.18078    139974.63   -39413.039    2625.2957   -42038.335    79.252888    221.56787 
   15150    132.57356   -1.1386598    139918.15   -39403.842    2661.5145   -42065.356    79.310692    224.62464 
   15200    132.36305    227.61648    139989.14    -39433.88    2657.2882   -42091.168    79.676162    224.26796 
   15250    131.53035   -53.357405       140151   -39433.755    2640.5712   -42074.327    80.001745    222.85709 
   15300    132.04844   -7.4066294    140098.23   -39440.652    2650.9722   -42091.624    80.113903     223.7349 
   15350    133.26978    11.651757    140154.51   -39419.303    2675.4916   -42094.795    80.342002    225.80427 
   15400    133.59938   -115.31932    140050.27   -39449.524    2682.1085   -42131.632    81.001119    226.36272 
   15450    134.13852   -160.85181    139952.57   -39431.364    2692.9323   -42124.296     81.41714    227.27622 
   15500    133.41097      70.8494    139868.24   -39406.731     2678.326   -42085.057    81.748919    226.04349 
   15550    132.31553    128.23556    140007.21   -39357.588    2656.3343   -42013.922    82.011638    224.18745 
   15600    133.90343   -11.525799    140012.59   -39326.395    2688.2126   -42014.607    81.962333    226.87789 
   15650     133.8796    -1.837017    140005.11   -39374.859    2687.7341   -42062.593    82.195895    226.83751 
   15700    134.32326    6.4017879    140093.87   -39357.335    2696.6409   -42053.976    82.336991    227.58922 
   15750    137.43298   -57.490255     140082.5   -39315.454    2759.0709   -42074.524    82.700281    232.85814 
   15800    134.30175    66.362522    140098.05   -39342.081    2696.2092    -42038.29    82.879107    227.55278 
   15850    136.17676   -68.289741    140221.15   -39323.766    2733.8514   -42057.617    83.305768    230.72968 
   15900    131.45205    114.77698    140123.79   -39355.121    2638.9993    -41994.12     83.71975    222.72442 
   15950    130.21249    157.51955    140179.33   -39388.351    2614.1142   -42002.465    83.917539    220.62418 
   16000    134.50342   -38.924298    140018.34   -39385.788    2700.2577   -42086.045    84.022575    227.89447 
   16050    134.54868   -243.51251    139945.91   -39351.287    2701.1664   -42052.454    84.219413    227.97116 
   16100    133.10402    84.772737    139882.04   -39333.775    2672.1638   -42005.939    84.557863    225.52342 
   16150     133.7395    91.895635    140004.49   -39301.083    2684.9216   -41986.005    84.901583    226.60014 
   16200    132.20054      6.80617    139897.55   -39329.976    2654.0257   -41984.002    85.162144    223.99261 
   16250    132.41513    154.28207    139921.51   -39275.638    2658.3338   -41933.971    85.387956     224.3562 
   16300    137.32224    -10.17944    139907.15   -39301.686    2756.8478   -42058.534    85.732715    232.67052 
   16350    132.05738   -64.342444    139926.85   -39307.832    2651.1517   -41958.984    85.889211    223.75005 
   16400    136.03401    11.001629    139839.79   -39278.722    2730.9856   -42009.707    86.035543    230.48782 
   16450    136.36187    49.880138    139930.54   -39285.164    2737.5677   -42022.731     86.38871    231.04333 
   16500    135.54888    76.863692    139983.04    -39272.69    2721.2463   -41993.937    86.768242    229.66585 
   16550    133.82763   -82.909844    139989.57    -39249.58    2686.6908    -41936.27    86.894664    226.74945 
   16600    133.48757    89.498504    139934.54   -39302.769    2679.8637   -41982.633    86.897494    226.17327 
   16650     136.9779    152.17802    139963.54   -39296.188    2749.9348   -42046.123    87.107193    232.08708 
   16700    132.98113   -191.62938    139862.05   -39316.282    2669.6966   -41985.979    87.219572    225.31519 
   16750    135.70102    19.850822    139874.43   -39306.627    2724.3005   -42030.928    87.284741    229.92361 
   16800    133.74407   -180.15434    139740.43   -39339.292    2685.0132   -42024.305     87.40632    226.60788 
   16850    132.92878   -52.153132    139544.33   -39366.187    2668.6457   -42034.832    87.497488     225.2265 
   16900    133.64775    68.894649    139397.07   -39362.783    2683.0795   -42045.862    87.757779    226.44467 
   16950    134.69711    130.69334    139512.31   -39379.667    2704.1463   -42083.813    87.988157    228.22265 
   17000    134.18822   -49.049864     139548.2   -39380.911      2693.93   -42074.841    88.331846    227.36043 
   17050    132.72953   -31.538087    139601.27   -39385.988    2664.6456   -42050.634      88.5919     224.8889 
   17100    132.49958    25.728421    139702.32   -39429.502    2660.0292   -42089.531    88.860836    224.49929 
   17150    132.35569    9.4197055    139644.82   -39388.792    2657.1405   -42045.933    89.207472    224.25549 
   17200    133.14401   -137.56727    139642.63   -39391.074    2672.9666    -42064.04    89.338601    225.59117 
   17250    131.85493   -53.136754    139598.72   -39383.987    2647.0874   -42031.074    89.321433    223.40703 
   17300    130.60029    0.2458131    139527.78    -39365.72    2621.8994    -41987.62    89.577005    221.28124 
   17350     134.6532    20.895464    139574.91   -39365.003    2703.2647   -42068.268    89.820542    228.14825 
   17400    132.36494   -212.72243    139644.28   -39327.803    2657.3262   -41985.129    89.903421    224.27117 
   17450    133.98854   -35.854106    139416.25   -39332.255    2689.9211   -42022.176    89.907827    227.02208 
   17500    132.26821    73.221253    139456.56   -39371.919    2655.3843   -42027.303    90.195709    224.10727 
   17550     132.2751    -74.00673    139387.39   -39431.072    2655.5226   -42086.595    90.366924    224.11894 
   17600     133.5988   -49.113341    139481.08   -39434.617    2682.0968   -42116.714    90.574216    226.36174 
   17650     133.3968    80.980312    139557.84    -39416.36    2678.0415   -42094.401     90.69105    226.01948 
   17700    131.04298    16.235296    139683.11   -39422.851    2630.7868   -42053.638    90.660862    222.03131 
   17750    131.26326   -127.88225    139541.02   -39392.316    2635.2092   -42027.525    91.127595    222.40455 
   17800    133.69505   -33.887155    139470.73   -39419.446    2684.0292   -42103.476    91.229839    226.52483 
   17850    132.70974    50.271482     139492.4   -39411.754    2664.2482   -42076.002    91.568535    224.85536 
   17900    133.83731   -129.07509    139467.55   -39389.656     2686.885   -42076.541    91.930525    226.76585 
   17950    134.28228    44.471162    139417.21   -39340.438    2695.8182   -42036.256    92.193994    227.51979 
   18000    132.36081    144.74707    139655.72   -39343.451    2657.2432   -42000.695    92.168096    224.26416 
   18050    134.39147    -54.25676    139695.69   -39383.298    2698.0103   -42081.308    92.517988    227.70479 
   18100    133.67085   -219.82546    139545.31   -39406.176    2683.5434    -42089.72    92.954768    226.48382 
   18150    131.92036   -26.343105    139548.78   -39426.333     2648.401   -42074.734    93.224304     223.5179 
   18200    132.59341     70.05989    139503.52   -39408.436    2661.9129   -42070.349    93.185893    224.65826 
   18250    131.37633    41.857121    139615.03    -39373.36    2637.4792   -42010.839    93.237359    222.59613 
   18300     131.1084    178.13035    139615.52   -39383.651    2632.1003   -42015.751    93.453665    222.14216 
   18350    134.27901    93.706078    139779.02   -39383.951    2695.7527   -42079.704    93.938397    227.51425 
   18400    135.71608   -77.126548    139776.71   -39399.734    2724.6028   -42124.336    94.343665    229.94913 
   18450    130.93632    19.173057    139626.86   -39439.627    2628.6455   -42068.273    94.601539    221.85059 
   18500    129.64392    125.04114    139716.87   -39435.452    2602.6996   -42038.151    94.878902    219.66083 
   18550    132.68154    147.98477    139875.15   -39386.603    2663.6823   -42050.285    95.217325     224.8076 
   18600    132.79692     -78.4204    139828.31   -39429.117    2665.9985   -42095.115    95.261262    225.00308 
   18650    131.81996     -159.003    139810.01   -39449.062    2646.3853   -42095.448     95.39895    223.34778 
   18700    132.16923    -39.20932    139769.38   -39425.692    2653.3971    -42079.09    95.506193    223.93956 
   18750    130.85075    25.645524    139729.73   -39417.232    2626.9277   -42044.159    95.552916    221.70561 
   18800    132.86529   -29.436313    139678.18   -39449.211    2667.3711   -42116.582    95.606258    225.11892 
   18850    131.75539    177.19384    139792.65   -39418.174     2645.089   -42063.263    95.736266    223.23838 
   18900    132.71326   -3.7415253     139861.5   -39408.916    2664.3191   -42073.235     95.87232    224.86134 
   18950    133.44375   -25.893273    139807.11   -39388.538    2678.9841   -42067.522    96.066776    226.09903 
   19000    134.36854     82.42763    139905.23   -39398.455      2697.55   -42096.005     96.31918    227.66594 
   19050    132.85357   -51.886882    139875.76   -39391.978    2667.1358   -42059.114      96.5859    225.09907 
   19100    133.57567    106.92322    139915.98   -39349.754    2681.6324   -42031.386    96.864621    226.32254 
   19150    133.84153    97.283066     140027.7   -39362.782    2686.9698   -42049.752    97.151234      226.773 
   19200    131.61054    65.098764    140063.36    -39404.59     2642.181   -42046.771    97.382345    222.99295 
   19250    133.17955   -86.936959    140037.09    -39393.52    2673.6801     -42067.2    97.437141    225.65138 
   19300    132.36109    19.306442    139849.58   -39388.537     2657.249   -42045.786    97.387637    224.26464 
   19350    130.99858    42.373072    139826.33   -39428.519    2629.8954   -42058.415    97.290853    221.95608 
   19400    129.56588   -30.526426     139809.1   -39455.729    2601.1329   -42056.862    97.510307     219.5286 
   19450    135.21028   -44.826834    139692.71   -39443.131    2714.4485    -42157.58    97.665745    229.09213 
   19500    132.29096    -21.47313    139659.26   -39458.723    2655.8411   -42114.564    97.894774    224.14582 
   19550    131.78647    117.58485    139805.27   -39461.068    2645.7129   -42106.781     98.16233    223.29103 
   19600    133.39062    26.279764    139932.83   -39483.594    2677.9175   -42161.512    98.310479    226.00901 
   19650    132.68329   -31.925603    139952.16   -39417.813    2663.7173    -42081.53    98.588796    224.81055 
   19700    132.16003   -52.769203    140023.81    -39434.77    2653.2124   -42087.982    98.609511    223.92397 
   19750    133.84476    14.032373    140077.68   -39430.298    2687.0347   -42117.332    99.004195    226.77848 
   19800    130.31624    17.017627    139931.83    -39491.83     2616.197   -42108.027    99.068806    220.79997 
   19850    132.32553   -72.601003    139797.17    -39503.51     2656.535   -42160.045    99.254501    224.20439 
   19900    132.31227   -5.7548895    139796.67   -39472.996    2656.2689   -42129.265    99.584795    224.18193 
   19950    133.40018    51.262414    139820.43   -39469.439    2678.1095   -42147.549    100.03318    226.02522 
   20000    133.48041    65.654992    139897.67   -39427.818    2679.7202   -42107.539    100.49525    226.16115 
   20050    135.24671   -150.06289     139863.6    -39403.86    2715.1798    -42119.04    100.68428    229.15385 
   20100    132.23633    41.488922    139695.02   -39409.641    2654.7442   -42064.385    100.78429    224.05325 
   20150    133.14672   -20.198386    139670.77   -39404.765    2673.0211   -42077.786    100.65678    225.59577 
   20200    132.75743    42.829161    139664.51    -39368.36    2665.2057   -42033.566    100.81807    224.93617 
   20250    134.15839    139.41286    139853.67   -39410.029     2693.331    -42103.36     100.9685    227.30987 
   20300    127.84959   -135.51271    139773.86   -39504.653    2566.6771   -42071.331    101.13596    216.62063 
   20350    131.23009   -140.98061    139716.57   -39463.056    2634.5432   -42097.599    101.31062    222.34834 
   20400    132.18143   -134.68873    139629.39   -39426.851    2653.6421   -42080.493    101.75296    223.96024 
   20450    131.22957   -166.04143    139605.52   -39429.735    2634.5328   -42064.268    101.72366    222.34746 
   20500    132.19264    99.647209    139676.24   -39400.721    2653.8672   -42054.588    101.97935    223.97923 
   20550     132.5065    95.793761    139735.14   -39430.224    2660.1681   -42090.392    102.08506    224.51101 
   20600    130.61142   -74.396862    139713.43    -39464.41    2622.1229   -42086.533    102.24805     221.3001 
   20650    129.79168   -87.593141    139662.23   -39414.785    2605.6661   -42020.451    102.76635    219.91119 
   20700    135.92839   -53.767556    139607.77   -39362.996    2728.8651   -42091.861    103.34174    230.30885 
   20750    131.67441   -21.658116    139651.86   -39374.923    2643.4634   -42018.386    103.85479    223.10118 
   20800     130.8327    46.996723    139636.21   -39413.326    2626.5654   -42039.891    104.13674    221.67503 
   20850    131.21068   -79.922451    139573.73   -39467.036    2634.1535    -42101.19     104.4647    222.31545 
   20900    133.75631    28.239198    139472.68   -39443.896    2685.2591   -42129.155    104.74088    226.62862 
   20950     132.1748    22.295749    139597.47   -39452.105     2653.509   -42105.614    104.87214      223.949 
   21000    129.54737    88.940595    139607.54   -39502.989    2600.7614    -42103.75    104.94873    219.49725 
   21050    130.72511    65.473266    139706.89    -39497.67    2624.4054   -42122.075    105.33079    221.49274 
   21100    131.20653   -68.819182    139522.52   -39439.175    2634.0702   -42073.246    105.38787    222.30842 
   21150    133.18669   -54.258939    139482.45   -39466.226    2673.8234    -42140.05    105.77902    225.66348 
   21200    131.12874   -66.174808    139458.05   -39462.088    2632.5085   -42094.597    105.81195    222.17661 
   21250    130.20981    91.331548     139605.2   -39463.619    2614.0603   -42077.679    106.05263    220.61963 
   21300    134.04135    95.721885    139794.94    -39455.71    2690.9815   -42146.692    106.31363    227.11158 
   21350    131.13256    36.985047    139770.24   -39490.595    2632.5852    -42123.18    106.65912    222.18309 
   21400    133.54086    40.276938    139920.29   -39514.754    2680.9338   -42195.688    106.66301    226.26358 
   21450     133.3996   -13.220483    139991.87     -39427.8    2678.0978   -42105.898    106.76681    226.02423 
   21500    133.60887   -175.98371     139961.3   -39449.489    2682.2991   -42131.788    107.24991    226.37881 
   21550      132.258    41.156773    139662.86   -39443.919    2655.1793   -42099.098    107.57959    224.08997 
   21600    133.61371    122.28704     139665.1    -39438.09    2682.3961   -42120.486    107.78179      226.387 
   21650    131.13786    89.847815    139669.08   -39446.013    2632.6916   -42078.705    108.36283    222.19207 
   21700    133.26829    86.544987    139692.54   -39455.939    2675.4616   -42131.401    108.53011    225.80174 
   21750    131.10485    147.25891    139723.74   -39473.031     2632.029    -42105.06    108.60919    222.13614 
   21800    131.41939   -148.66096    139635.64   -39486.875    2638.3436   -42125.219    108.75506    222.66908 
   21850    130.75912   -85.712532    139494.23   -39492.284    2625.0881   -42117.372    108.79975    221.55035 
   21900    130.59855   -21.761281     139510.4   -39543.699    2621.8645   -42165.564    108.78026    221.27829 
   21950    131.36512   -9.5059209    139614.12   -39546.852     2637.254   -42184.106    109.12245    222.57712 
   22000    131.77331   -68.236552    139630.58    -39586.34    2645.4488   -42231.789    109.29857    223.26874 
   22050    130.84064    111.73409    139759.86   -39565.723    2626.7247   -42192.447    109.20426    221.68848 
   22100     131.4436   -4.0018081    139758.06   -39566.982    2638.8296   -42205.811     109.3227     222.7101 
   22150     130.3642   -83.939652    139612.64   -39559.347    2617.1599   -42176.507    109.45525    220.88123 
   22200    134.46171   -64.978054     139534.7   -39504.317    2699.4204   -42203.737    109.74445     227.8238 
   22250    132.50491    75.465308    139550.37   -39466.139    2660.1363   -42126.275    110.06252    224.50833 
   22300    133.14007    1.3006013    139506.96   -39470.343    2672.8875   -42143.231    110.50801    225.58449 
   22350    132.02024    86.982105    139505.33    -39393.04    2650.4061   -42043.446    110.75078    223.68713 
   22400    134.10963    92.974712    139677.91   -39346.171    2692.3521   -42038.523    111.24605    227.22726 
   22450    133.55918    67.522499    139684.17   -39331.242    2681.3015   -42012.543    111.21345    226.29462 
   22500    132.10219    20.468536    139669.46   -39354.877    2652.0514   -42006.929    111.51467    223.82598 
   22550    132.70607    30.677862    139574.31   -39368.962    2664.1747   -42033.137    111.77624    224.84916 
   22600     133.0772    12.169198     139619.5    -39381.72    2671.6253   -42053.345    111.84864    225.47797 
   22650    131.52625    170.26685    139775.21   -39419.841    2640.4889    -42060.33    112.03097    222.85014 
   22700     130.9363   0.95714411    139792.47   -39379.997    2628.6452   -42008.642    112.29842    221.85056 
   22750    134.48581    137.77055    139887.44   -39366.838    2699.9043   -42066.742    112.52888    227.86464 
   22800     131.5207   -1.8021305    139856.02   -39367.517    2640.3774   -42007.895    112.50104    222.84073 
   22850    132.12756   -29.578425    139602.92   -39346.469    2652.5606    -41999.03    112.65109    223.86896 
   22900    132.82048    47.025322    139498.74    -39377.11    2666.4714   -42043.581    113.02473      225.043 
   22950    133.10655    46.698396    139612.23   -39395.577    2672.2145   -42067.791    113.44819     225.5277 
   23000    132.81206    6.9606826    139614.62   -39449.145    2666.3026   -42115.448    113.73401    225.02874 
   23050    133.96505    90.221149     139622.4   -39453.878    2689.4497   -42143.328    113.72477     226.9823 
   23100    135.63538   -58.435325    139708.18   -39387.621    2722.9828   -42110.603     113.9788    229.81241 
   23150    133.78835   -38.973707    139856.17   -39388.813    2685.9023   -42074.715    114.28272     226.6829 
   23200     133.7264   -125.50027    139805.79   -39415.575    2684.6586   -42100.233    114.40503    226.57794 
   23250     132.3631    -73.12369    139797.58    -39445.39    2657.2894   -42102.679    114.54532    224.26805 
   23300    130.66701    43.501416    139629.88   -39495.009     2623.239   -42118.249     115.1613     221.3943 
   23350    129.18415    129.61842    139758.77   -39497.672    2593.4694   -42091.141    115.61443    218.88182 
   23400    131.22097   -120.85811    139662.98   -39473.456    2634.3601   -42107.817    115.52176    222.33289 
   23450    129.31239    15.026617     139746.8   -39483.451    2596.0439   -42079.495    115.62443    219.09911 
   23500    131.80592    103.60349    139862.96   -39454.109    2646.1034   -42100.213    115.84249    223.32399 
   23550    131.78366    17.643764     139960.2   -39505.405    2645.6565   -42151.061    115.94142    223.28627 
   23600    131.37022    52.477194    140045.86   -39460.873    2637.3565    -42098.23    116.01992    222.58577 
   23650    132.06793   -83.090704    140075.17   -39404.548    2651.3635   -42055.912    116.07445    223.76793 
   23700    133.89685   -12.118292    139983.77   -39408.356    2688.0805   -42096.436    116.11731    226.86674 
   23750    133.35472   -102.50649    139962.57   -39368.384    2677.1967   -42045.581    116.50256    225.94818 
   23800    132.92549   -106.13166    139935.45   -39386.714    2668.5797   -42055.294    116.51055    225.22093 
   23850    134.44962    7.1345001    139965.31   -39393.196    2699.1776   -42092.374    116.72459    227.80331 
   23900    131.58114    124.79336    140170.06   -39392.235    2641.5908   -42033.825    116.74379    222.94313 
   23950    133.46429   -137.28412    140133.09   -39353.952    2679.3964   -42033.349    117.05366    226.13383 
   24000    134.53944    63.227764    140188.55   -39388.133     2700.981   -42089.114    117.21924    227.95551 
   24050    134.16691   -81.543732    140140.96    -39369.46    2693.5021   -42062.962    117.24809    227.32431 
   24100    131.15821   -37.193752     140156.1   -39344.233    2633.1001   -41977.333    117.49524    222.22655 
   24150     132.1554    -34.55272    140141.57   -39300.861    2653.1195   -41953.981    118.01099    223.91612 
   24200    136.26917    196.60477    140233.37   -39300.423    2735.7065    -42036.13    117.90238    230.88625 
   24250    134.21823   -17.076032    140337.68   -39352.342    2694.5325   -42046.875    117.97834    227.41127 
   24300    134.57522    96.118855    140369.24   -39339.281    2701.6993    -42040.98    118.20239    228.01613 
   24350    135.00857    117.75871     140360.9   -39321.504     2710.399   -42031.903    118.66296    228.75036 
   24400    135.16842   -137.76087    140491.95   -39338.985    2713.6082   -42052.593    119.01866    229.02121 
   24450    134.32881   -105.15423    140232.48   -39337.101    2696.7524   -42033.853    119.13562    227.59862 
   24500    131.76784    8.0658512    140274.12   -39350.143     2645.339   -41995.482    119.45269    223.25948 
   24550    133.81566   -113.00557    140131.01   -39344.413    2686.4504   -42030.863    119.41765    226.72917 
   24600    134.29649     20.04809    140046.15   -39382.077    2696.1034   -42078.181    119.71727    227.54386 
   24650    135.57225   -112.32945    140084.45   -39374.009    2721.7154   -42095.724    120.08719    229.70544 
   24700    132.48247    -187.3793    140005.02    -39453.56    2659.6856   -42113.245    120.43172    224.47029 
   24750     130.7757    43.272452    139914.86   -39460.277     2625.421   -42085.698    120.78726    221.57845 
   24800    132.30969    137.15233    139985.17   -39449.188     2656.217   -42105.405    120.95555    224.17755 
   24850    133.71697   -66.673436    140081.39   -39452.408    2684.4693   -42136.877    121.21532    226.56197 
   24900    131.56795   -26.807656    140037.64   -39483.011    2641.3259   -42124.337    121.61455    222.92078 
   24950     134.3125     95.81937    139979.64    -39473.37    2696.4249   -42169.795    121.71361    227.57099 
   25000    130.44559    11.054231     140113.3   -39504.734    2618.7937   -42123.528    121.95712    221.01912 
   25050    133.03995   -104.35318    140031.32   -39509.851    2670.8776   -42180.728    122.35327    225.41486 
   25100    134.33485   -122.68296    139896.32     -39531.2    2696.8737   -42228.074    122.66676    227.60886 
   25150    130.64462    14.508808    139731.26   -39536.379    2622.7895   -42159.169    122.85445    221.35635 
   25200    131.67489   -8.9299963    139712.86   -39546.117    2643.4729    -42189.59    123.22554    223.10198 
   25250    125.67758    131.94552    139758.49   -39540.824    2523.0725   -42063.896    123.15943    212.94051 
   25300    128.16203   -48.197459    139814.83   -39557.599    2572.9495   -42130.549    123.56286       217.15 
   25350    131.49378     25.59244    139940.06   -39547.882    2639.8369   -42187.719    123.94567    222.79512 
   25400      132.031   -116.94431    139868.55   -39558.451    2650.6222   -42209.073     123.9922    223.70536 
   25450    131.18532   -69.544482    139845.17   -39504.532    2633.6443   -42138.176    124.43416    222.27248 
   25500    131.29348    17.291729    139789.77   -39445.779    2635.8158   -42081.595    124.69518    222.45575 
   25550    130.77062    158.23486    139747.19   -39448.698     2625.319   -42074.017    124.80831    221.56984 
   25600    131.90395    49.830482    139765.99   -39435.315    2648.0716   -42083.386    125.56629     223.4901 
   25650    133.26177   -43.329032    139677.26   -39394.797    2675.3307   -42070.128    125.95142     225.7907 
   25700    134.15099   -110.99107    139637.62   -39408.848    2693.1825    -42102.03     126.2367    227.29734 
   25750    132.65789   -19.570007    139628.43   -39400.977    2663.2074   -42064.184    126.14819    224.76752 
   25800    134.41699     69.74802    139543.07   -39416.253    2698.5226   -42114.776     126.2135    227.74803 
   25850    132.27878    32.345594    139636.78   -39405.612    2655.5965   -42061.209    126.34309    224.12518 
   25900    134.20592   -36.737559    139679.53   -39413.402    2694.2852   -42107.687    126.43661     227.3904 
   25950     134.7192   -201.95176    139642.37   -39442.661    2704.5898    -42147.25    126.50336    228.26008 
   26000    131.78893    88.115708     139676.3   -39461.315    2645.7624   -42107.077    126.57949    223.29521 
   26050    130.07093    -113.9006    139691.01   -39517.872    2611.2722   -42129.145    126.62862    220.38433 
   26100    131.01428    15.588788     139514.2   -39478.287    2630.2108   -42108.498    126.97952    221.98269 
   26150    132.05739    3.9067216    139480.42   -39473.071    2651.1519   -42124.223    127.05942    223.75007 
   26200    133.79789   -7.1716561    139625.64   -39464.704    2686.0938   -42150.798    127.13505    226.69907 
   26250     132.0242   -26.401133    139649.33   -39469.809    2650.4856   -42120.295    127.44306    223.69383 
   26300    132.75839    22.079856    139617.69   -39449.834    2665.2251   -42115.059    127.72696    224.93781 
   26350     133.6137    -10.67311    139522.13   -39458.791     2682.396   -42141.187    127.90503    226.38698 
   26400    131.50134    83.628954    139572.36   -39471.267    2639.9888   -42111.256    128.05919    222.80793 
   26450    129.90517      192.727    139729.45   -39456.766    2607.9445    -42064.71    128.27712    220.10348 
   26500    130.68002   -54.949924    139824.33   -39460.927    2623.5001   -42084.428    128.48431    221.41633 
   26550    134.44913   -124.53314     139830.8   -39417.987    2699.1679   -42117.154    128.56431    227.80249 
   26600    132.76655      65.6056    139837.24   -39439.312    2665.3888   -42104.701    128.95236    224.95162 
   26650    133.07818   -28.232826     139875.1    -39438.38     2671.645   -42110.025     129.3446    225.47963 
   26700    132.93598    31.736331    139941.25   -39445.127    2668.7902   -42113.917    129.53358    225.23869 
   26750    134.14112   -37.867342    139996.87   -39447.325    2692.9844   -42140.309    129.59966    227.28062 
   26800    132.07473    76.466195    139877.75   -39443.782    2651.5001   -42095.282    129.87925    223.77945 
   26850    130.64738    51.897952     139849.9   -39443.379    2622.8449   -42066.224    130.29572    221.36104 
   26900    133.83469    135.16486    139879.37     -39434.8    2686.8326   -42121.632    130.72863    226.76143 
   26950    134.14103    -190.0751    139877.41   -39506.011    2692.9826   -42198.994    130.82473    227.28047 
   27000    130.83317   -8.7806769    139673.44   -39518.323    2626.5747   -42144.897    131.12138    221.67582 
   27050    130.52531    142.31729     139616.8   -39521.971    2620.3942   -42142.365    131.41976     221.1542 
   27100    129.04419   -173.40894    139564.47   -39519.544    2590.6596   -42110.203    131.65586    218.64468 
   27150    131.84528    7.2337377    139528.07   -39546.689    2646.8937   -42193.583    131.51161    223.39069 
   27200    134.20714    103.60644    139587.13   -39502.147    2694.3098   -42196.456     131.6206    227.39248 
   27250    132.79204    15.330415    139694.82   -39498.922    2665.9005   -42164.823    132.03714    224.99481 
   27300    133.78028    149.29275    139682.87   -39451.787    2685.7403   -42137.527    132.23308    226.66924 
   27350    133.91855     4.674313    139701.39    -39409.04    2688.5161   -42097.556    132.53993     226.9035 
   27400    133.04367   -53.957256    139530.27    -39482.77    2670.9522   -42153.722    132.53505    225.42116 
   27450    130.71359    234.65741    139734.92   -39475.749    2624.1741   -42099.923    132.61597    221.47321 
   27500    133.09592    144.89219     139854.7   -39458.165    2672.0012   -42130.166    132.67825    225.50969 
   27550     132.9095    67.005613    139932.08   -39464.868    2668.2587   -42133.126    133.08087    225.19384 
   27600    133.67103   -5.4681334    140079.77    -39425.04    2683.5468   -42108.587    133.53567    226.48411 
   27650    131.38271    4.4757845     140139.7   -39462.148    2637.6071   -42099.755    133.84615    222.60692 
   27700    131.45372    95.659333    140114.62   -39431.961    2639.0327   -42070.994    134.35079    222.72724 
   27750    133.93814   -145.59588    140223.41   -39431.643    2688.9094   -42120.553    134.59099     226.9367 
   27800     133.9777    -45.31184    140155.48   -39440.184    2689.7035   -42129.888    134.80396    227.00372 
   27850    133.07623   -100.89991    139896.56   -39403.788     2671.606   -42075.394     135.0543    225.47634 
   27900    132.09119     -16.6865    139792.61   -39443.234    2651.8305   -42095.064    134.90692    223.80734 
   27950    131.86575   -55.222496    139753.94   -39482.202    2647.3047   -42129.507    135.27136    223.42537 
   28000    130.92187   -34.839157    139794.96   -39460.137    2628.3554   -42088.493    135.31577     221.8261 
   28050    135.42705   -47.325849     139879.5   -39447.312    2718.8004   -42166.112    135.26621    229.45942 
   28100    135.41149    223.55222    139838.66   -39465.627     2718.488   -42184.115    135.36898    229.43305 
   28150    133.86125   -119.38659    139869.35   -39457.714    2687.3657   -42145.079    135.75565    226.80642 
   28200    134.12606     129.5287    139920.03   -39446.512     2692.682   -42139.194    135.78025    227.25509 
   28250    132.63392     34.25488    139993.91   -39426.761    2662.7261   -42089.487    135.92229     224.7269 
   28300    131.99161   -42.750364    139988.18   -39424.123    2649.8313   -42073.954    136.01808    223.63861 
   28350    131.25512    47.596982    139950.35   -39478.535    2635.0457   -42113.581    136.10966    222.39075 
   28400    130.91403   -54.401453    139904.38   -39553.653     2628.198   -42181.851    136.36827    221.81282 
   28450    128.97096   -87.019955    139919.24   -39576.652    2589.1895   -42165.842    136.73427    218.52061 
   28500    133.39808     52.26665     139820.5   -39559.916    2678.0672   -42237.983    136.61128    226.02165 
   28550    133.39073    56.482077    140024.42   -39552.412    2677.9197   -42230.332    136.78586     226.0092 
   28600    132.78366   -45.952181    140026.98   -39521.274    2665.7324   -42187.007    137.28775    224.98062 
   28650    131.76326    35.329721    139974.66   -39504.312    2645.2471   -42149.559     137.5044    223.25172 
   28700    130.98038    106.75448    140226.43   -39438.228    2629.5301   -42067.758    137.93457    221.92524 
   28750    131.31217     130.6708    140213.75   -39511.879    2636.1911    -42148.07    137.99685    222.48742 
   28800    133.38989   -9.3530193    140245.26   -39490.685    2677.9028   -42168.588    138.31508    226.00778 
   28850    133.31917   -87.304871    140241.12   -39469.108    2676.4831   -42145.591    138.37412    225.88795 
   28900    131.12565    -42.85168    140152.92   -39478.991    2632.4464   -42111.437    138.52338    222.17138 
   28950    132.98399   -18.692646    140065.37   -39448.492     2669.754   -42118.246    138.65753    225.32004 
   29000    134.91275    74.893316    140103.41   -39456.199    2708.4755   -42164.675    138.65813    228.58802 
   29050    135.60317   -19.501909    140191.97    -39438.62    2722.3362   -42160.957    139.09641    229.75783 
   29100    131.79951   -11.981948    140239.08   -39486.003    2645.9749   -42131.978    139.31412    223.31314 
   29150    133.32321   -161.83168    140125.92   -39493.535    2676.5642   -42170.099     139.6919     225.8948 
   29200    133.88614   -89.286127    140034.14   -39474.362    2687.8655   -42162.228    140.16858     226.8486 
   29250    133.31332    88.983178    139996.92   -39498.625    2676.3657   -42174.991    140.28026    225.87805 
   29300    134.16434    27.757232    140045.83   -39499.769    2693.4506    -42193.22    140.51677    227.31996 
   29350    134.32595    8.8221856    140113.48   -39440.523     2696.695   -42137.218    140.67086    227.59378 
   29400    132.76226   -64.155669    140279.08   -39451.051    2665.3028   -42116.354     141.1238    224.94436 
   29450    131.60718   -99.182544    140186.73   -39479.904    2642.1137   -42122.018    141.37428    222.98727 
   29500    130.13014   -219.40034    140205.43   -39533.844     2612.461   -42146.305    141.53652    220.48466 
   29550    134.72029   -33.135684    140182.63   -39511.609    2704.6117   -42216.221    141.67164    228.26193 
   29600    133.98492   -47.196208     140285.2   -39527.136    2689.8484   -42216.984    141.76134    227.01595 
   29650    130.78479   -233.97977    140204.53   -39554.521    2625.6036   -42180.124    141.86462    221.59386 
   29700    130.36987   -74.586943    139980.01   -39594.478    2617.2737   -42211.751    141.84043    220.89084 
   29750    131.84974    59.522443    139978.21   -39608.589    2646.9831   -42255.572    141.93687    223.39823 
   29800     132.4853    110.51834    139972.71   -39585.089    2659.7425   -42244.831    141.94923    224.47509 
   29850    131.56356    40.335977    140040.08   -39633.832    2641.2379    -42275.07    142.38177    222.91336 
   29900     132.2571    42.937318    140118.29   -39595.167    2655.1612   -42250.328    142.38158    224.08844 
   29950    130.15397    8.2008701    140163.39   -39614.132    2612.9392   -42227.071    142.68858    220.52502 
   30000    129.33381   -13.627658    140105.11   -39629.764    2596.4739   -42226.238    143.12465    219.13539 
   30050    130.34725   -51.963378    139977.67   -39641.011    2616.8194    -42257.83    142.93413     220.8525 
   30100    130.73421    74.154056    140051.97   -39566.699    2624.5882   -42191.288     142.9933    221.50816 
   30150    132.66731   -115.10864    140014.17   -39584.076    2663.3965   -42247.472     143.3601    224.78348 
   30200    131.82909    2.3406777    140039.79   -39556.153    2646.5687   -42202.722      143.728    223.36326 
   30250    130.06792    56.969179    140019.73   -39540.536    2611.2118   -42151.748    143.84435    220.37923 
   30300    132.76451   -46.302897    140105.39   -39497.441    2665.3479   -42162.789    144.20685    224.94817 
   30350    132.01367    1.2316305    140183.23   -39508.087    2650.2741   -42158.361    144.30736    223.67599 
   30400    132.20185    34.865505    140197.22   -39533.327     2654.052   -42187.379    144.64158    223.99483 
   30450    131.68856   -141.33719    140211.59    -39526.59    2643.7473   -42170.337    145.05159    223.12514 
   30500     132.0955    8.0684121    140068.32   -39531.847    2651.9169   -42183.763    145.25889    223.81464 
   30550    129.86399    60.325718    140134.79   -39568.017    2607.1178   -42175.135    145.49917    220.03371 
   30600     129.5707   -66.924053    140108.72   -39589.694    2601.2297   -42190.924    145.89347    219.53677 
   30650    128.49756     -140.992    140071.04   -39590.695    2579.6856   -42170.381    146.17127    217.71851 
   30700     129.6968    256.66995     140113.4   -39563.654    2603.7612   -42167.415    146.01597    219.75042 
   30750    130.76598    138.32677    140271.13    -39556.88    2625.2258   -42182.106    146.53292    221.56197 
   30800    130.05503    4.3024221    140214.09   -39533.825    2610.9531   -42144.778    146.94098     220.3574 
   30850    130.64371    144.41631    140252.61   -39577.314    2622.7713   -42200.086     147.0735    221.35482 
   30900    131.27747    50.309799    140209.84   -39584.146    2635.4944    -42219.64    147.45908    222.42862 
   30950    130.33836    15.417673    140040.99   -39590.449     2616.641    -42207.09    147.44075    220.83745 
   31000    132.75649    29.063389    140057.39   -39608.251    2665.1868   -42273.437    147.32768    224.93458 
   31050    130.13261   -94.705126    140022.36   -39634.755    2612.5104   -42247.266     147.4359    220.48883 
   31100    130.29031   0.21652214    139928.41   -39607.751    2615.6764   -42223.427    147.40825    220.75603 
   31150    130.50893   -13.405798     140081.1   -39585.237    2620.0654   -42205.302    147.79587    221.12645 
   31200    131.82344    15.532723     140222.7   -39535.818    2646.4552   -42182.273     148.1756    223.35368 
   31250    131.85256   -70.732358    140111.58   -39542.174    2647.0398   -42189.214    148.28141    223.40302 
   31300    131.57165    11.503865    140139.86   -39523.867    2641.4003   -42165.267    148.34899    222.92706 
   31350    135.53738   -32.902836    140169.43   -39490.857    2721.0153   -42211.873    148.53016    229.64635 
   31400    134.27689   -43.609302    140167.36   -39452.686    2695.7101   -42148.396    148.70174    227.51066 
   31450    134.34314   -20.519408    140200.47   -39479.098      2697.04   -42176.138    149.19114     227.6229 
   31500    134.62909    154.27576    140330.43   -39479.773    2702.7808   -42182.554    149.56631    228.10741 
   31550    133.70772    53.482369    140408.96   -39522.665    2684.2835   -42206.948    149.62463    226.54629 
   31600    132.62736   -17.215293    140367.51   -39494.778    2662.5946   -42157.373    149.65205     224.7158 
   31650    134.31296   -90.488033    140394.37   -39509.196    2696.4343    -42205.63    149.80381    227.57178 
   31700    132.11035    82.096036    140319.95   -39510.347    2652.2152   -42162.562    149.91221    223.83981 
   31750    131.28999    95.373061    140262.62   -39528.946    2635.7457   -42164.692    149.71228    222.44983 
   31800    133.50079   -59.595178    140280.06   -39544.206    2680.1292   -42224.335    149.99707    226.19568 
   31850    131.97287    48.384699    140294.05   -39526.185    2649.4551    -42175.64    150.45055    223.60686 
   31900     133.0142    34.855945    140344.25   -39554.966    2670.3606   -42225.326     150.8312    225.37123 
   31950    132.28242    -269.2685    140173.95   -39554.364    2655.6696   -42210.034    150.72945    224.13135 
   32000    134.11789   -44.953136    140001.27   -39540.478     2692.518   -42232.996    150.67522    227.24125 
   32050    131.20114   -105.79292    139913.16   -39567.276     2633.962   -42201.238    151.00975    222.29929 
   32100    130.97503    19.709821    139917.59   -39554.101    2629.4228   -42183.524    151.11118    221.91619 
   32150    132.75395    59.030317    140057.62   -39523.691    2665.1358   -42188.827    151.25422    224.93027 
   32200    131.57977    -7.795015    139973.34   -39533.351    2641.5634   -42174.915    151.30919    222.94082 
   32250    131.67722    22.378751    139865.69   -39544.934    2643.5198   -42188.453    151.46532    223.10594 
   32300    132.20324   -39.811947    139788.74   -39536.595    2654.0799   -42190.675    151.48163    223.99718 
   32350    131.13505    237.12626    139879.58   -39528.423    2632.6352   -42161.058    151.80169    222.18731 
   32400    131.38013    -88.20494    140086.23   -39592.075    2637.5554    -42229.63    152.42086    222.60256 
   32450    130.59327   -73.282678    139986.12   -39545.739    2621.7586   -42167.498    152.50811    221.26935 
   32500    130.57164      78.1873    139999.83   -39552.342    2621.3244   -42173.667    152.87367    221.23271 
   32550    132.08654   -82.383742    139985.86   -39541.461    2651.7371   -42193.198    152.92175    223.79946 
   32600    129.99198    245.06108    139888.38   -39461.339    2609.6872   -42071.026    153.07682    220.25056 
   32650    136.30625   -94.739041    139868.84   -39404.566     2736.451   -42141.017    153.44815    230.94908 
   32700    135.23059   -239.76067     139839.4   -39404.826    2714.8562   -42119.683    153.84011    229.12654 
   32750    136.13312     162.1034    139812.04   -39392.309    2732.9753   -42125.284    154.34839    230.65574 
   32800    134.55431   -14.996741    140055.99   -39411.919    2701.2795   -42113.199    154.46714     227.9807 
   32850    131.82334    70.381351    140057.23   -39460.043    2646.4532   -42106.496    154.85171    223.35351 
   32900    132.95638    -107.2737    139993.44   -39414.815    2669.1998   -42084.015    155.05594    225.27326 
   32950    131.51313   -52.250147    139924.46   -39427.229    2640.2254   -42067.455    155.09967     222.8279 
   33000    133.25141   -178.35675    139831.42   -39410.262    2675.1227   -42085.385    155.39944    225.77314 
   33050    130.33149    96.526137    139771.59   -39498.762    2616.5031   -42115.265    155.34561     220.8258 
   33100    133.55813    109.00416     139848.8   -39481.173    2681.2803   -42162.453    155.25425    226.29283 
   33150    133.19887    27.846887    139987.37   -39428.434    2674.0679   -42102.502    155.54954    225.68412 
   33200    134.67449     12.16209    140018.54   -39448.539    2703.6921   -42152.231    155.89598    228.18432 
   33250    134.86967   -20.205472    139880.16   -39443.618    2707.6105   -42151.228    156.19813    228.51502 
   33300    132.06447    30.229913    139872.75   -39447.399    2651.2939   -42098.693    156.20438    223.76206 
   33350    134.66427   -96.448715    139881.79   -39468.998     2703.487   -42172.485    156.48748    228.16701 
   33400    131.69459   -119.12411    139980.59   -39458.845    2643.8685   -42102.714    156.32113    223.13537 
   33450    133.31276     51.25454    139796.65   -39423.264    2676.3544   -42099.618    156.50201    225.87709 
   33500    132.92615   -43.831324    139855.45   -39383.464     2668.593   -42052.057    156.70484    225.22205 
   33550    131.94691    21.088819    139824.49   -39395.155    2648.9339   -42044.089    156.81011    223.56287 
   33600    130.53498   -64.502095    139804.11   -39376.185    2620.5884   -41996.773    156.99528    221.17059 
   33650     135.2258   -126.54253    139688.33   -39398.049    2714.7601   -42112.809    157.06508    229.11843 
   33700    136.20134   -10.423703     139553.5   -39397.591    2734.3449   -42131.936    157.15025    230.77133 
   33750    131.53504    2.9996418    139482.32   -39468.583    2640.6653   -42109.249    157.24236    222.86502 
   33800    130.17238    28.151617    139531.02   -39446.301    2613.3089    -42059.61    157.53958    220.55622 
   33850    133.28681    95.924815    139607.67    -39413.51    2675.8334   -42089.343    158.10549    225.83312 
   33900    131.17541    108.97485    139577.12   -39462.668    2633.4455   -42096.113    158.55797    222.25569 
   33950    133.06238   -5.0977301    139623.41   -39484.276    2671.3278   -42155.604    158.65165    225.45286 
[...]
   92000    132.25985    56.953137    139895.63   -39486.072    2655.2165   -42141.289    405.00283    224.09311 
   92050    132.73639    10.710763    139815.77   -39518.851    2664.7833   -42183.635    405.11977    224.90052 
   92100     131.8193    23.854166    139757.65   -39509.978    2646.3721    -42156.35    405.21965    223.34667 
   92150    134.56137    191.64399    139831.93   -39499.945    2701.4211   -42201.366    405.58121    227.99266 
   92200    131.91391     11.00373    139959.22   -39514.238    2648.2715   -42162.509     406.3805    223.50697 
   92250    131.38901   -91.821867    139931.74   -39537.006    2637.7336    -42174.74     406.5853     222.6176 
   92300    134.39004    67.181011    139878.05   -39516.193    2697.9817   -42214.175    406.74139    227.70238 
   92350    133.40333    109.81047     139907.2   -39510.063    2678.1726   -42188.236    406.78102    226.03054 
   92400    130.81406    86.772291    139860.72   -39535.846     2626.191   -42162.037    406.64435    221.64344 
   92450    130.54896    34.039375    139994.37   -39531.722    2620.8691   -42152.591    407.13386    221.19428 
   92500    135.30241   -72.566282    140016.72   -39505.701    2716.2981   -42221.999    407.62653    229.24823 
   92550    131.30106   -4.8111399    140018.85   -39507.835    2635.9679   -42143.803    407.96421    222.46858 
   92600     133.3786    80.358379    140045.06   -39499.374    2677.6762    -42177.05     407.9008    225.98865 
   92650    132.85037   -45.695324    139847.33   -39498.045    2667.0716   -42165.116    407.81833    225.09365 
   92700    133.20034    75.041439    139801.38   -39515.499    2674.0974   -42189.596     407.4572    225.68661 
   92750    130.79854    164.04758    139805.68   -39509.716    2625.8795   -42135.595    407.66881    221.61715 
   92800    130.19211   -8.3164576    139889.91   -39505.909    2613.7051   -42119.614     407.6361    220.58966 
   92850    130.14589    152.04212    139955.42   -39493.869     2612.777   -42106.646    407.42593    220.51133 
   92900    130.12624      44.3374    140066.17   -39509.309    2612.3825   -42121.691    407.86902    220.47804 
   92950    134.11707   -184.55844    139898.07   -39477.107    2692.5015   -42169.609    407.61307    227.23986 
   93000    134.13731   -93.475351    139861.63   -39487.077    2692.9079   -42179.984    407.85996    227.27416 
   93050    131.68407   -75.184727    139785.37   -39465.303    2643.6571    -42108.96     408.0353    223.11753 
   93100    134.28557   -40.096921    139869.13    -39423.23    2695.8842   -42119.114    408.00108    227.52536 
   93150    134.95133    23.676401    139907.42    -39445.01      2709.25    -42154.26    407.99411    228.65339 
   93200    132.60435    20.377278    139913.56   -39480.562    2662.1325   -42142.694    408.13027     224.6768 
   93250    132.67646   -207.91341    139795.23   -39523.772    2663.5802   -42187.353    407.74486    224.79899 
   93300    130.61227    38.675482    139733.69   -39531.105    2622.1399   -42153.245    408.06758    221.30154 
   93350    130.49656    109.08074    139712.48   -39526.045    2619.8171   -42145.863    408.22493     221.1055 
   93400    132.98274    49.118064    139764.79   -39516.169    2669.7289   -42185.898    408.99328    225.31792 
   93450    132.49472    142.37688    139943.63    -39500.79    2659.9316   -42160.722    409.41443    224.49105 
   93500    132.87746    132.83762    140036.52   -39450.014    2667.6155   -42117.629    409.88236    225.13955 
   93550    130.88497    -136.8372    139880.47   -39530.632    2627.6147   -42158.246    410.11038    221.76359 
   93600     129.7843    47.661193    139831.49   -39538.081    2605.5178   -42143.599    410.35933    219.89867 
   93650    132.01648    76.732355    139931.66   -39511.274    2650.3306   -42161.605    410.57514    223.68075 
   93700    131.67555    81.634444    140039.83   -39513.751    2643.4862   -42157.237    410.50268     223.1031 
   93750    133.51463    5.4793645    140035.54   -39496.934    2680.4072   -42177.341    410.32341    226.21913 
   93800    129.36633    -35.55017    140170.67   -39545.035    2597.1268   -42142.162     410.6848    219.19049 
   93850    131.54561    -60.32417    140140.49    -39508.24    2640.8775   -42149.118    411.66676    222.88294 
   93900    130.93526   -18.318255    139931.42   -39468.588    2628.6244   -42097.212    411.79053    221.84881 
   93950    130.97282    45.423667    139810.76   -39450.667    2629.3784   -42080.046    412.30657    221.91244 
   94000     131.6489     87.96438    139951.23   -39437.143    2642.9511   -42080.094    413.05136    223.05794 
   94050    132.15185    46.403395    139855.82   -39425.934    2653.0483   -42078.983    413.10751    223.91012 
   94100    132.26154   -56.973752    139938.46   -39447.856    2655.2504   -42103.107    412.60514    224.09597 
   94150    133.23643   -67.891445    139847.88   -39470.432    2674.8221   -42145.255    412.75743    225.74777 
   94200    131.11081    15.810038    139704.64   -39449.665    2632.1486   -42081.814     413.3558    222.14624 
   94250    134.37256    84.768371    139897.24   -39418.399    2697.6308   -42116.029    413.94232    227.67276 
   94300    132.42449   -99.058634     139932.6   -39479.494    2658.5218   -42138.016    414.34641    224.37206 
   94350    133.49677   -174.43983    139715.05    -39478.18    2680.0485   -42158.228    414.66669    226.18887 
   94400     131.7031   -108.12648    139682.41   -39449.711    2644.0393    -42093.75     414.4376    223.14978 
   94450    133.78706    124.03928    139776.82   -39484.513    2685.8763   -42170.389    414.78263    226.68072 
   94500    131.48317    3.3919458    139856.15   -39450.359    2639.6239   -42089.983    415.35263    222.77714 
   94550    135.71792     131.4705    139828.82   -39445.093    2724.6398   -42169.733    415.91602    229.95225 
   94600    134.59933    54.189824    140005.61   -39427.711    2702.1833   -42129.894    416.72094    228.05698 
   94650    133.45348   -71.282574     140003.9   -39443.593    2679.1795   -42122.772    417.28156    226.11552 
   94700    131.86886    66.826754    139966.65   -39453.574     2647.367   -42100.941    417.35382    223.43063 
   94750    132.68444   -17.732787    140035.79   -39485.967    2663.7404   -42149.708    417.65539     224.8125 
   94800    135.40464    54.328991    140044.82   -39398.866    2718.3505   -42117.217    417.97425    229.42145 
   94850    132.50605   -27.354439    140102.16   -39406.654    2660.1591   -42066.813    418.65508    224.51025 
   94900     131.6026   -65.325363    140072.39   -39370.632    2642.0217   -42012.653    418.86625     222.9795 
   94950    133.46582    139.90837    140133.22   -39391.636    2679.4272   -42071.063    419.03823    226.13643 
   95000    138.40581    61.735943    140241.74   -39297.116    2778.6011   -42075.717    419.36096    234.50644 
   95050    135.52418    60.717296    140355.72   -39267.281    2720.7504   -41988.032    420.06347      229.624 
   95100    134.52083    20.802133    140278.88   -39330.412    2700.6073   -42031.019    420.40246    227.92397 
   95150    134.12655   -69.968193    140312.68   -39423.993    2692.6919   -42116.685    420.99785    227.25594 
   95200    133.43804    48.035712    140089.27   -39433.229    2678.8695   -42112.099     421.0173    226.08936 
   95250     132.1134   -33.537197    140222.23   -39410.529    2652.2764   -42062.806    421.66963    223.84498 
   95300    133.93194    114.26096    140274.84   -39430.787    2688.7849   -42119.572    421.86659    226.92619 
   95350    134.51182    88.456568    140199.48   -39430.148    2700.4264   -42130.574    421.86935     227.9087 
   95400    133.27615   -24.151045    140114.33   -39461.086    2675.6194   -42136.705    422.50839    225.81506 
   95450    133.19342   -19.350709    140241.29   -39493.426    2673.9585   -42167.385    422.19283    225.67488 
   95500    132.65399    68.704583    140230.84   -39462.664     2663.129   -42125.793    422.28108    224.76091 
   95550    131.58785    -86.98666    140239.44   -39478.384    2641.7255   -42120.109    422.60283    222.95451 
   95600    129.35017   -131.95663     140153.8   -39454.839    2596.8024   -42051.642    422.68623    219.16312 
   95650    136.76569   -84.435128    140014.35   -39405.236    2745.6746    -42150.91    422.39395    231.72753 
   95700    133.00901   -63.805814    140012.01   -39401.545    2670.2565   -42071.801     422.4912    225.36244 
   95750    132.56336    189.41837    140075.99   -39424.042    2661.3095   -42085.352     422.8974    224.60735 
   95800    131.95766    39.246462     139954.7   -39410.977    2649.1497   -42060.127    423.25263    223.58109 
   95850    131.68152   -24.780136    139909.95   -39425.557    2643.6061   -42069.163    423.40041    223.11322 
   95900    132.24601    39.195241    139864.76   -39445.155    2654.9386   -42100.093    423.26687    224.06965 
   95950    134.22541    87.093438    139983.45    -39406.35    2694.6765   -42101.026    423.91412    227.42343 
   96000    132.80734   -134.62921     139863.5   -39361.477    2666.2078   -42027.685     424.2539    225.02074 
   96050    134.23809    32.128457    139857.16   -39308.138    2694.9311   -42003.069    424.69458    227.44492 
   96100     134.1248    -19.20675     139844.1   -39332.207    2692.6567   -42024.864    424.78725    227.25296 
   96150    134.35389   -165.53515    139634.25   -39373.198    2697.2558   -42070.454    424.98562    227.64112 
   96200    133.98171    133.16983    139656.75   -39364.524    2689.7841   -42054.308    425.06615    227.01053 
   96250     134.0625   -148.78742    139707.44   -39386.125    2691.4059   -42077.531    425.17985     227.1474 
   96300    132.31274    36.872418    139744.11   -39472.942    2656.2782   -42129.221    425.92411    224.18272 
   96350    131.64673   -13.866363    139725.81   -39465.482    2642.9076    -42108.39    426.11499    223.05427 
   96400    134.34173    67.056932    139787.76   -39408.272    2697.0118   -42105.283    426.48911    227.62052 
   96450    133.07332    62.504943    139813.07   -39415.441    2671.5474   -42086.988    426.71703    225.47139 
   96500    133.46873    106.61713    139764.39   -39444.098    2679.4856   -42123.583     426.5938    226.14136 
   96550     134.8456    72.245661    139762.44   -39395.166    2707.1274   -42102.294    427.01474    228.47425 
   96600    133.85181   -102.53798    139968.37   -39462.965    2687.1762   -42150.141    427.18111    226.79042 
   96650    134.56935    65.100978    139935.44   -39452.999    2701.5813    -42154.58    427.46685    228.00618 
   96700    133.69344   -99.482277    140007.09   -39471.359    2683.9968   -42155.355    427.82411    226.52209 
   96750    135.51914   -59.257122    139923.43   -39414.726    2720.6492   -42135.376    427.60496    229.61545 
   96800    133.02908   -105.88117    139936.54    -39480.18    2670.6593   -42150.839    427.68167    225.39644 
   96850    135.18265    14.591305    139791.09   -39417.718    2713.8938   -42131.612    427.73255    229.04531 
   96900    132.70096    10.112081    139732.09   -39464.941    2664.0721   -42129.013    427.43597     224.8405 
   96950    135.46022    54.885558    139783.44   -39412.268    2719.4663   -42131.735    427.50462    229.51562 
   97000    132.30527   -207.30655    139779.39   -39419.253    2656.1282   -42075.381    427.07987    224.17006 
   97050    132.77712    81.325385    139607.63   -39412.195     2665.601   -42077.796    427.23209    224.96953 
   97100    132.33035    -101.3948    139665.13    -39487.71    2656.6319   -42144.342    427.81732    224.21256 
   97150    133.33844    154.01785    139653.25   -39472.015      2676.87   -42148.885    427.73738     225.9206 
   97200    131.51486   -48.796979    139725.09   -39488.018    2640.2601   -42128.278    427.32176    222.83083 
   97250    133.93077   -135.40829    139517.89   -39498.188    2688.7613   -42186.949    426.61024     226.9242 
   97300    135.81197    77.876315     139432.3   -39483.591    2726.5279   -42210.119    426.51813     230.1116 
   97350    132.54505   -112.68935    139535.05   -39478.528     2660.942    -42139.47    426.60512    224.57633 
   97400    131.75917   -158.70676     139436.6   -39497.395     2645.165    -42142.56    426.45548    223.24479 
   97450    133.66819    104.01018    139525.07    -39477.73      2683.49    -42161.22    426.41459    226.47932 
   97500    132.01602   -15.313998       139664   -39487.722    2650.3213   -42138.043    426.19686    223.67997 
   97550    134.18593    7.6206318    139758.55   -39481.456     2693.884    -42175.34    426.33289    227.35654 
   97600     132.5855    6.9322666       139754   -39510.202    2661.7542   -42171.956    426.66136    224.64487 
   97650    128.75419    24.148821    139760.09    -39519.78    2584.8377   -42104.617     427.4147    218.15333 
   97700    130.87297    68.150592    139646.51   -39568.912    2627.3738   -42196.286    427.45087    221.74326 
   97750    128.63567    44.988445    139623.97   -39516.272    2582.4584   -42098.731    427.85471    217.95252 
   97800    132.50947   -119.53797    139687.07   -39547.931    2660.2278   -42208.159    427.71669    224.51605 
   97850    132.11747    119.90176    139738.56   -39457.707     2652.358   -42110.065    428.35354    223.85186 
   97900    133.53314   -55.385972    139892.73    -39428.81    2680.7787   -42109.589     428.6388    226.25049 
   97950    132.45151    113.01585    139959.04   -39404.778    2659.0642   -42063.842    428.87836    224.41785 
   98000    134.70351   -177.30842    139884.62   -39397.465    2704.2749    -42101.74    429.04825     228.2335 
   98050      131.959    2.2442596       139763   -39448.763    2649.1767   -42097.939    428.88864    223.58337 
   98100    132.94007     48.73804    139933.19   -39478.466    2668.8724   -42147.338    429.36357    225.24563 
   98150    133.72026    19.390045    139894.47   -39485.357    2684.5353   -42169.893    429.67249    226.56754 
   98200    133.39037   -86.940021    139791.16   -39443.619    2677.9126   -42121.532    429.99879     226.0086 
   98250    132.51662    82.930631    139641.43   -39453.496    2660.3714   -42113.868    429.46281    224.52817 
   98300    130.84431   -59.255572    139721.19   -39512.364    2626.7984   -42139.162    429.87545     221.6947 
   98350    132.58909   -41.551505     139669.8   -39515.026    2661.8261   -42176.852    429.75016    224.65094 
   98400    133.05502    81.323741    139779.75   -39457.248      2671.18   -42128.428    430.17088    225.44039 
   98450    134.94159    7.4377914     139894.4   -39412.939    2709.0543   -42121.993    431.16421    228.63688 
   98500    134.64159   -147.26022    139943.46   -39419.577    2703.0317   -42122.609    431.62612    228.12858 
   98550    135.28454    -142.0727    139879.86   -39348.496    2715.9393   -42064.435    432.53261    229.21795 
   98600     133.0176    1.8035737    139866.89   -39403.401    2670.4289    -42073.83      432.213    225.37699 
   98650    136.22871   -96.240968    139958.26   -39409.186    2734.8943    -42144.08       432.37     230.8177 
   98700    133.48019    -122.9727     139898.1   -39425.405    2679.7156   -42105.121    432.59527    226.16077 
   98750    130.64663   -69.848268    139840.18   -39363.108    2622.8298   -41985.938    432.81065    221.35976 
   98800    132.27136      56.6901    139805.64   -39379.324    2655.4475   -42034.771    433.33896    224.11261 
   98850    130.99231   -118.74771    139698.53   -39385.683    2629.7697   -42015.453    433.25674    221.94546 
   98900    133.81304    92.688625    139631.64   -39372.057    2686.3979   -42058.455    433.32002    226.72474 
   98950    134.05142    -40.02937    139678.78   -39355.447    2691.1836   -42046.631    433.31251    227.12863 
   99000    133.88528   -158.07076    139631.79   -39352.064    2687.8482   -42039.912    433.03766    226.84714 
   99050    131.41131    140.39235    139543.01   -39416.221    2638.1813   -42054.402    433.33358    222.65539 
   99100    134.21622   -31.707781    139554.67   -39443.621    2694.4921   -42138.113    433.74603    227.40786 
   99150    132.41289   -111.45342    139505.31   -39462.541    2658.2889    -42120.83    433.42181    224.35241 
   99200    131.54631   -99.637088    139268.78   -39489.379    2640.8917    -42130.27     433.5746    222.88413 
   99250    132.77027    109.76182    139234.89    -39485.92    2665.4635   -42151.383    434.04561    224.95793 
   99300    133.40606    13.232987    139427.75    -39469.07    2678.2275   -42147.297    434.29033    226.03517 
   99350     131.0532    87.948528     139351.8   -39495.018     2630.992    -42126.01     434.0266    222.04863 
   99400    132.64066   -51.113011    139408.49   -39506.892    2662.8614   -42169.754     433.8138    224.73832 
   99450    131.19521    139.03008    139474.14   -39500.743    2633.8429   -42134.586     434.0332    222.28924 
   99500    132.54385   -27.961018    139645.42    -39509.27    2660.9179   -42170.188    434.75506     224.5743 
   99550    130.71656    10.432397    139593.56   -39561.604    2624.2338   -42185.838     435.5802    221.47825 
   99600      131.371     69.98819    139681.63   -39514.799    2637.3721   -42152.171    435.98863    222.58709 
   99650    133.02375    89.991636       139761    -39496.58    2670.5523   -42167.132    436.66853    225.38741 
   99700    132.41811   -7.5394491    139741.07   -39467.271    2658.3936   -42125.665    436.95001    224.36125 
   99750    132.68014    121.13685    139817.88   -39482.097     2663.654   -42145.751    437.32109    224.80521 
   99800    131.37924   -13.504683    139942.26   -39489.695    2637.5375   -42127.232     437.6888    222.60105 
   99850    132.53682    52.646742    139912.16   -39434.179    2660.7768   -42094.956    438.26441    224.56238 
   99900    133.35017   -197.75656     139785.4   -39431.953    2677.1053   -42109.058    438.49538    225.94047 
   99950    134.38167    73.896664    139826.52   -39412.075    2697.8135   -42109.889    439.13296    227.68818 
  100000    135.13037     42.49022    139747.27   -39431.523    2712.8443   -42144.368    439.39616    228.95674 
Loop time of 325.515 on 40 procs for 100000 steps with 6736 atoms

Performance: 132.713 ns/day, 0.181 hours/ns, 307.205 timesteps/s
99.6% CPU use with 40 MPI tasks x no OpenMP threads

MPI task timing breakdown:
Section |  min time  |  avg time  |  max time  |%varavg| %total
---------------------------------------------------------------
Pair    | 57.854     | 149.78     | 270.87     | 626.8 | 46.01
Neigh   | 1.961      | 4.1405     | 12.207     | 166.4 |  1.27
Comm    | 31.313     | 121.39     | 160.54     | 365.8 | 37.29
Output  | 0.20856    | 0.21541    | 0.22923    |   1.1 |  0.07
Modify  | 7.7112     | 48.492     | 104.4      | 637.3 | 14.90
Other   |            | 1.501      |            |       |  0.46

Nlocal:    168.4 ave 404 max 113 min
Histogram: 32 0 0 0 0 0 0 2 2 4
Nghost:    1290.58 ave 1661 max 873 min
Histogram: 16 0 0 0 0 0 0 0 16 8
Neighs:    0 ave 0 max 0 min
Histogram: 40 0 0 0 0 0 0 0 0 0
FullNghs:  20457 ave 74563 max 7360 min
Histogram: 32 0 0 0 0 0 0 1 3 4

Total # of neighbors = 818282
Ave neighs/atom = 121.479
Neighbor list builds = 6140
Dangerous builds = 0

write_data		${DIR}/data.eq-${NAME}-${TEMP}
write_data		run_5/data.eq-${NAME}-${TEMP}
write_data		run_5/data.eq-het_freeze_5-${TEMP}
write_data		run_5/data.eq-het_freeze_5-225
undump          1

reset_timestep  0

unfix           2
unfix           3
unfix           4


################################################
#######         Run Simulation         #########
################################################

log				${DIR}/log.run_${NAME}
log				run_5/log.run_${NAME}
log				run_5/log.run_het_freeze_5
