LAMMPS data file via write_data, version 16 Mar 2018, timestep = 100000

4545 atoms
2 atom types

0.0000000000000000e+00 4.9219999999999999e+01 xlo xhi
0.0000000000000000e+00 4.9019635930410494e+01 ylo yhi
1.7519876096157976e+00 3.1883352176906094e+01 zlo zhi

Masses

1 18.015
2 12.01

Atoms # atomic

91 2 0.0000000000000000e+00 2.8417180249513345e+00 3.2542854517085065e+00 0 0 0
93 2 0.0000000000000000e+00 0.0000000000000000e+00 3.2542854517085065e+00 0 0 0
95 2 1.2305000000000001e+00 7.1042950623783474e-01 3.2542854517085065e+00 0 0 0
102 2 1.2305000000000001e+00 2.1312885187134998e+00 3.2542854517085065e+00 0 0 0
104 2 2.4610000000000003e+00 2.8417180249513345e+00 3.2542854517085065e+00 0 0 0
106 2 2.4610000000000003e+00 0.0000000000000000e+00 3.2542854517085065e+00 0 0 0
108 2 3.6915000000000004e+00 7.1042950623783474e-01 3.2542854517085065e+00 0 0 0
123 2 3.6914999999999996e+00 2.1312885187134998e+00 3.2542854517085065e+00 0 0 0
125 2 4.9220000000000006e+00 2.8417180249513332e+00 3.2542854517085065e+00 0 0 0
127 2 4.9220000000000006e+00 0.0000000000000000e+00 3.2542854517085065e+00 0 0 0
129 2 6.1524999999999999e+00 7.1042950623783407e-01 3.2542854517085065e+00 0 0 0
152 2 6.1524999999999999e+00 2.1312885187134989e+00 3.2542854517085065e+00 0 0 0
154 2 7.3829999999999991e+00 2.8417180249513345e+00 3.2542854517085065e+00 0 0 0
156 2 7.3829999999999991e+00 0.0000000000000000e+00 3.2542854517085065e+00 0 0 0
158 2 8.6134999999999984e+00 7.1042950623783407e-01 3.2542854517085065e+00 0 0 0
189 2 8.6134999999999984e+00 2.1312885187135002e+00 3.2542854517085065e+00 0 0 0
191 2 9.8440000000000012e+00 2.8417180249513332e+00 3.2542854517085065e+00 0 0 0
193 2 9.8440000000000012e+00 0.0000000000000000e+00 3.2542854517085065e+00 0 0 0
195 2 1.1074500000000002e+01 7.1042950623783330e-01 3.2542854517085065e+00 0 0 0
234 2 1.1074500000000002e+01 2.1312885187135002e+00 3.2542854517085065e+00 0 0 0
98 2 0.0000000000000000e+00 4.2625770374269996e+00 3.2542854517085065e+00 0 0 0
100 2 1.2305000000000001e+00 4.9730065436648339e+00 3.2542854517085065e+00 0 0 0
115 2 1.2305000000000001e+00 6.3938655561404980e+00 3.2542854517085065e+00 0 0 0
119 2 2.4610000000000003e+00 4.2625770374269996e+00 3.2542854517085065e+00 0 0 0
121 2 3.6914999999999996e+00 4.9730065436648339e+00 3.2542854517085065e+00 0 0 0
144 2 3.6914999999999996e+00 6.3938655561404980e+00 3.2542854517085065e+00 0 0 0
96 2 0.0000000000000000e+00 7.1042950623783341e+00 3.2542854517085065e+00 0 0 0
117 2 2.4610000000000003e+00 7.1042950623783341e+00 3.2542854517085065e+00 0 0 0
148 2 4.9220000000000006e+00 4.2625770374269978e+00 3.2542854517085065e+00 0 0 0
150 2 6.1524999999999999e+00 4.9730065436648339e+00 3.2542854517085065e+00 0 0 0
181 2 6.1524999999999999e+00 6.3938655561404980e+00 3.2542854517085065e+00 0 0 0
185 2 7.3829999999999991e+00 4.2625770374269996e+00 3.2542854517085065e+00 0 0 0
146 2 4.9220000000000006e+00 7.1042950623783341e+00 3.2542854517085065e+00 0 0 0
183 2 7.3830000000000009e+00 7.1042950623783341e+00 3.2542854517085065e+00 0 0 0
187 2 8.6135000000000002e+00 4.9730065436648339e+00 3.2542854517085065e+00 0 0 0
226 2 8.6135000000000002e+00 6.3938655561404980e+00 3.2542854517085065e+00 0 0 0
230 2 9.8440000000000012e+00 4.2625770374270004e+00 3.2542854517085065e+00 0 0 0
232 2 1.1074500000000002e+01 4.9730065436648339e+00 3.2542854517085065e+00 0 0 0
273 2 1.1074500000000002e+01 6.3938655561404980e+00 3.2542854517085065e+00 0 0 0
228 2 9.8440000000000012e+00 7.1042950623783341e+00 3.2542854517085065e+00 0 0 0
111 2 0.0000000000000000e+00 8.5251540748539991e+00 3.2542854517085065e+00 0 0 0
113 2 1.2305000000000001e+00 9.2355835810918343e+00 3.2542854517085065e+00 0 0 0
140 2 2.4610000000000003e+00 8.5251540748539991e+00 3.2542854517085065e+00 0 0 0
142 2 3.6915000000000004e+00 9.2355835810918343e+00 3.2542854517085065e+00 0 0 0
109 2 0.0000000000000000e+00 1.1366872099805333e+01 3.2542854517085065e+00 0 0 0
136 2 1.2305000000000001e+00 1.0656442593567498e+01 3.2542854517085065e+00 0 0 0
138 2 2.4610000000000003e+00 1.1366872099805333e+01 3.2542854517085065e+00 0 0 0
173 2 3.6914999999999996e+00 1.0656442593567499e+01 3.2542854517085065e+00 0 0 0
177 2 4.9220000000000006e+00 8.5251540748539991e+00 3.2542854517085065e+00 0 0 0
179 2 6.1524999999999999e+00 9.2355835810918343e+00 3.2542854517085065e+00 0 0 0
222 2 7.3830000000000009e+00 8.5251540748539991e+00 3.2542854517085065e+00 0 0 0
175 2 4.9220000000000006e+00 1.1366872099805333e+01 3.2542854517085065e+00 0 0 0
218 2 6.1524999999999999e+00 1.0656442593567499e+01 3.2542854517085065e+00 0 0 0
220 2 7.3829999999999991e+00 1.1366872099805333e+01 3.2542854517085065e+00 0 0 0
224 2 8.6134999999999984e+00 9.2355835810918343e+00 3.2542854517085065e+00 0 0 0
269 2 9.8440000000000012e+00 8.5251540748539956e+00 3.2542854517085065e+00 0 0 0
271 2 1.1074500000000002e+01 9.2355835810918343e+00 3.2542854517085065e+00 0 0 0
265 2 8.6134999999999984e+00 1.0656442593567498e+01 3.2542854517085065e+00 0 0 0
267 2 9.8440000000000012e+00 1.1366872099805333e+01 3.2542854517085065e+00 0 0 0
312 2 1.1074500000000002e+01 1.0656442593567498e+01 3.2542854517085065e+00 0 0 0
314 2 1.2304999999999998e+01 1.1366872099805333e+01 3.2542854517085065e+00 0 0 0
92 2 0.0000000000000000e+00 1.4208590124756650e+00 6.2588811358938941e+00 0 0 0
94 2 0.0000000000000000e+00 0.0000000000000000e+00 6.2588811358938941e+00 0 0 0
103 2 1.2305000000000001e+00 2.1312885187134998e+00 6.2588811358938941e+00 0 0 0
105 2 2.4610000000000003e+00 1.4208590124756650e+00 6.2588811358938941e+00 0 0 0
107 2 2.4610000000000003e+00 0.0000000000000000e+00 6.2588811358938941e+00 0 0 0
124 2 3.6914999999999996e+00 2.1312885187134998e+00 6.2588811358938941e+00 0 0 0
420 2 0.0000000000000000e+00 2.8417180249513345e+00 9.2634768200792479e+00 0 0 0
421 2 0.0000000000000000e+00 0.0000000000000000e+00 9.2634768200792479e+00 0 0 0
422 2 1.2305000000000001e+00 7.1042950623783474e-01 9.2634768200792479e+00 0 0 0
426 2 1.2305000000000001e+00 2.1312885187134998e+00 9.2634768200792479e+00 0 0 0
427 2 2.4610000000000003e+00 2.8417180249513345e+00 9.2634768200792479e+00 0 0 0
428 2 2.4610000000000003e+00 0.0000000000000000e+00 9.2634768200792479e+00 0 0 0
429 2 3.6915000000000004e+00 7.1042950623783474e-01 9.2634768200792479e+00 0 0 0
437 2 3.6914999999999996e+00 2.1312885187134998e+00 9.2634768200792479e+00 0 0 0
101 2 1.2305000000000001e+00 3.5521475311891644e+00 6.2588811358938941e+00 0 0 0
122 2 3.6914999999999996e+00 3.5521475311891644e+00 6.2588811358938941e+00 0 0 0
126 2 4.9220000000000006e+00 1.4208590124756650e+00 6.2588811358938941e+00 0 0 0
128 2 4.9220000000000006e+00 0.0000000000000000e+00 6.2588811358938941e+00 0 0 0
153 2 6.1524999999999999e+00 2.1312885187134989e+00 6.2588811358938941e+00 0 0 0
155 2 7.3829999999999991e+00 1.4208590124756659e+00 6.2588811358938941e+00 0 0 0
157 2 7.3829999999999991e+00 0.0000000000000000e+00 6.2588811358938941e+00 0 0 0
438 2 4.9220000000000006e+00 2.8417180249513332e+00 9.2634768200792479e+00 0 0 0
439 2 4.9220000000000006e+00 0.0000000000000000e+00 9.2634768200792479e+00 0 0 0
440 2 6.1524999999999999e+00 7.1042950623783407e-01 9.2634768200792479e+00 0 0 0
452 2 6.1524999999999999e+00 2.1312885187134989e+00 9.2634768200792479e+00 0 0 0
453 2 7.3829999999999991e+00 2.8417180249513345e+00 9.2634768200792479e+00 0 0 0
454 2 7.3829999999999991e+00 0.0000000000000000e+00 9.2634768200792479e+00 0 0 0
151 2 6.1524999999999999e+00 3.5521475311891644e+00 6.2588811358938941e+00 0 0 0
190 2 8.6134999999999984e+00 2.1312885187135002e+00 6.2588811358938941e+00 0 0 0
192 2 9.8440000000000012e+00 1.4208590124756659e+00 6.2588811358938941e+00 0 0 0
194 2 9.8440000000000012e+00 0.0000000000000000e+00 6.2588811358938941e+00 0 0 0
235 2 1.1074500000000002e+01 2.1312885187135002e+00 6.2588811358938941e+00 0 0 0
455 2 8.6134999999999984e+00 7.1042950623783407e-01 9.2634768200792479e+00 0 0 0
471 2 8.6134999999999984e+00 2.1312885187135002e+00 9.2634768200792479e+00 0 0 0
472 2 9.8440000000000012e+00 2.8417180249513332e+00 9.2634768200792479e+00 0 0 0
473 2 9.8440000000000012e+00 0.0000000000000000e+00 9.2634768200792479e+00 0 0 0
474 2 1.1074500000000002e+01 7.1042950623783330e-01 9.2634768200792479e+00 0 0 0
494 2 1.1074500000000002e+01 2.1312885187135002e+00 9.2634768200792479e+00 0 0 0
188 2 8.6134999999999984e+00 3.5521475311891657e+00 6.2588811358938941e+00 0 0 0
233 2 1.1074500000000002e+01 3.5521475311891644e+00 6.2588811358938941e+00 0 0 0
97 2 0.0000000000000000e+00 5.6834360499026637e+00 6.2588811358938941e+00 0 0 0
99 2 0.0000000000000000e+00 4.2625770374269996e+00 6.2588811358938941e+00 0 0 0
116 2 1.2305000000000001e+00 6.3938655561404980e+00 6.2588811358938941e+00 0 0 0
118 2 2.4610000000000003e+00 5.6834360499026637e+00 6.2588811358938941e+00 0 0 0
120 2 2.4610000000000003e+00 4.2625770374269996e+00 6.2588811358938941e+00 0 0 0
145 2 3.6914999999999996e+00 6.3938655561404980e+00 6.2588811358938941e+00 0 0 0
424 2 0.0000000000000000e+00 4.2625770374269996e+00 9.2634768200792479e+00 0 0 0
425 2 1.2305000000000001e+00 4.9730065436648339e+00 9.2634768200792479e+00 0 0 0
433 2 1.2305000000000001e+00 6.3938655561404980e+00 9.2634768200792479e+00 0 0 0
435 2 2.4610000000000003e+00 4.2625770374269996e+00 9.2634768200792479e+00 0 0 0
436 2 3.6914999999999996e+00 4.9730065436648339e+00 9.2634768200792479e+00 0 0 0
448 2 3.6914999999999996e+00 6.3938655561404980e+00 9.2634768200792479e+00 0 0 0
114 2 1.2305000000000001e+00 7.8147245686161639e+00 6.2588811358938941e+00 0 0 0
143 2 3.6914999999999996e+00 7.8147245686161639e+00 6.2588811358938941e+00 0 0 0
423 2 0.0000000000000000e+00 7.1042950623783341e+00 9.2634768200792479e+00 0 0 0
434 2 2.4610000000000003e+00 7.1042950623783341e+00 9.2634768200792479e+00 0 0 0
147 2 4.9220000000000006e+00 5.6834360499026637e+00 6.2588811358938941e+00 0 0 0
149 2 4.9220000000000006e+00 4.2625770374269978e+00 6.2588811358938941e+00 0 0 0
182 2 6.1524999999999999e+00 6.3938655561404980e+00 6.2588811358938941e+00 0 0 0
184 2 7.3829999999999991e+00 5.6834360499026637e+00 6.2588811358938941e+00 0 0 0
186 2 7.3829999999999991e+00 4.2625770374269996e+00 6.2588811358938941e+00 0 0 0
450 2 4.9220000000000006e+00 4.2625770374269978e+00 9.2634768200792479e+00 0 0 0
451 2 6.1524999999999999e+00 4.9730065436648339e+00 9.2634768200792479e+00 0 0 0
467 2 6.1524999999999999e+00 6.3938655561404980e+00 9.2634768200792479e+00 0 0 0
469 2 7.3829999999999991e+00 4.2625770374269996e+00 9.2634768200792479e+00 0 0 0
180 2 6.1524999999999999e+00 7.8147245686161639e+00 6.2588811358938941e+00 0 0 0
449 2 4.9220000000000006e+00 7.1042950623783341e+00 9.2634768200792479e+00 0 0 0
468 2 7.3830000000000009e+00 7.1042950623783341e+00 9.2634768200792479e+00 0 0 0
227 2 8.6135000000000002e+00 6.3938655561404980e+00 6.2588811358938941e+00 0 0 0
229 2 9.8440000000000012e+00 5.6834360499026637e+00 6.2588811358938941e+00 0 0 0
231 2 9.8440000000000012e+00 4.2625770374270004e+00 6.2588811358938941e+00 0 0 0
274 2 1.1074500000000002e+01 6.3938655561404980e+00 6.2588811358938941e+00 0 0 0
470 2 8.6135000000000002e+00 4.9730065436648339e+00 9.2634768200792479e+00 0 0 0
490 2 8.6135000000000002e+00 6.3938655561404980e+00 9.2634768200792479e+00 0 0 0
492 2 9.8440000000000012e+00 4.2625770374270004e+00 9.2634768200792479e+00 0 0 0
493 2 1.1074500000000002e+01 4.9730065436648339e+00 9.2634768200792479e+00 0 0 0
514 2 1.1074500000000002e+01 6.3938655561404980e+00 9.2634768200792479e+00 0 0 0
225 2 8.6135000000000002e+00 7.8147245686161639e+00 6.2588811358938941e+00 0 0 0
272 2 1.1074500000000002e+01 7.8147245686161639e+00 6.2588811358938941e+00 0 0 0
491 2 9.8440000000000012e+00 7.1042950623783341e+00 9.2634768200792479e+00 0 0 0
110 2 0.0000000000000000e+00 9.9460130873296642e+00 6.2588811358938941e+00 0 0 0
112 2 0.0000000000000000e+00 8.5251540748539991e+00 6.2588811358938941e+00 0 0 0
139 2 2.4610000000000003e+00 9.9460130873296642e+00 6.2588811358938941e+00 0 0 0
141 2 2.4610000000000003e+00 8.5251540748539991e+00 6.2588811358938941e+00 0 0 0
431 2 0.0000000000000000e+00 8.5251540748539991e+00 9.2634768200792479e+00 0 0 0
432 2 1.2305000000000001e+00 9.2355835810918343e+00 9.2634768200792479e+00 0 0 0
446 2 2.4610000000000003e+00 8.5251540748539991e+00 9.2634768200792479e+00 0 0 0
447 2 3.6915000000000004e+00 9.2355835810918343e+00 9.2634768200792479e+00 0 0 0
135 2 1.2305000000000001e+00 1.2077301606043163e+01 6.2588811358938941e+00 0 0 0
137 2 1.2305000000000001e+00 1.0656442593567498e+01 6.2588811358938941e+00 0 0 0
172 2 3.6914999999999996e+00 1.2077301606043163e+01 6.2588811358938941e+00 0 0 0
174 2 3.6914999999999996e+00 1.0656442593567499e+01 6.2588811358938941e+00 0 0 0
430 2 0.0000000000000000e+00 1.1366872099805333e+01 9.2634768200792479e+00 0 0 0
444 2 1.2305000000000001e+00 1.0656442593567498e+01 9.2634768200792479e+00 0 0 0
445 2 2.4610000000000003e+00 1.1366872099805333e+01 9.2634768200792479e+00 0 0 0
463 2 3.6914999999999996e+00 1.0656442593567499e+01 9.2634768200792479e+00 0 0 0
176 2 4.9220000000000006e+00 9.9460130873296642e+00 6.2588811358938941e+00 0 0 0
178 2 4.9220000000000006e+00 8.5251540748539991e+00 6.2588811358938941e+00 0 0 0
221 2 7.3830000000000009e+00 9.9460130873296642e+00 6.2588811358938941e+00 0 0 0
223 2 7.3830000000000009e+00 8.5251540748539991e+00 6.2588811358938941e+00 0 0 0
465 2 4.9220000000000006e+00 8.5251540748539991e+00 9.2634768200792479e+00 0 0 0
466 2 6.1524999999999999e+00 9.2355835810918343e+00 9.2634768200792479e+00 0 0 0
488 2 7.3830000000000009e+00 8.5251540748539991e+00 9.2634768200792479e+00 0 0 0
217 2 6.1524999999999999e+00 1.2077301606043163e+01 6.2588811358938941e+00 0 0 0
219 2 6.1524999999999999e+00 1.0656442593567499e+01 6.2588811358938941e+00 0 0 0
464 2 4.9220000000000006e+00 1.1366872099805333e+01 9.2634768200792479e+00 0 0 0
486 2 6.1524999999999999e+00 1.0656442593567499e+01 9.2634768200792479e+00 0 0 0
487 2 7.3829999999999991e+00 1.1366872099805333e+01 9.2634768200792479e+00 0 0 0
268 2 9.8440000000000012e+00 9.9460130873296642e+00 6.2588811358938941e+00 0 0 0
270 2 9.8440000000000012e+00 8.5251540748539956e+00 6.2588811358938941e+00 0 0 0
489 2 8.6134999999999984e+00 9.2355835810918343e+00 9.2634768200792479e+00 0 0 0
512 2 9.8440000000000012e+00 8.5251540748539956e+00 9.2634768200792479e+00 0 0 0
513 2 1.1074500000000002e+01 9.2355835810918343e+00 9.2634768200792479e+00 0 0 0
264 2 8.6135000000000002e+00 1.2077301606043163e+01 6.2588811358938941e+00 0 0 0
266 2 8.6134999999999984e+00 1.0656442593567498e+01 6.2588811358938941e+00 0 0 0
311 2 1.1074500000000002e+01 1.2077301606043163e+01 6.2588811358938941e+00 0 0 0
313 2 1.1074500000000002e+01 1.0656442593567498e+01 6.2588811358938941e+00 0 0 0
510 2 8.6134999999999984e+00 1.0656442593567498e+01 9.2634768200792479e+00 0 0 0
511 2 9.8440000000000012e+00 1.1366872099805333e+01 9.2634768200792479e+00 0 0 0
534 2 1.1074500000000002e+01 1.0656442593567498e+01 9.2634768200792479e+00 0 0 0
535 2 1.2304999999999998e+01 1.1366872099805333e+01 9.2634768200792479e+00 0 0 0
2307 1 1.2032546597528757e+01 1.5858899628027996e+00 1.1634965534615539e+01 0 0 1
2953 1 1.1880512203652277e+01 1.1044682366094696e+01 1.4624563113783758e+01 1 0 0
2335 1 4.9320657819410281e+00 2.6583292482284624e+00 1.2164600601174973e+01 0 0 0
709 1 1.1389418289968965e+01 1.4936712609632654e+00 1.5896161886389558e+01 0 1 0
748 1 9.2898153862321102e+00 2.2175083782650029e+00 1.1854113017372704e+01 -1 0 0
2148 1 2.2561833874612254e+00 4.0169749192544062e+00 1.2044628236134505e+01 0 -1 1
3655 1 8.7708510244543767e+00 1.9474219968445874e+00 1.4979963531011393e+01 1 0 0
3094 1 3.5096383104131070e+00 6.4336114018069273e+00 1.1620934473194565e+01 -1 0 0
3843 1 7.1313889828423687e+00 9.6536359021936580e+00 1.2125739114271013e+01 1 1 0
4458 1 5.9770726798253753e+00 5.3728645600888250e+00 1.2097380108106936e+01 0 1 0
1457 1 1.0200352770862017e+01 7.8118861346543049e+00 1.1882086510319400e+01 1 -2 0
3129 1 9.1523913179639802e+00 5.1923689221054428e+00 1.1657772988431750e+01 0 1 0
66 1 3.9159222625188943e+00 8.8606043652400341e+00 1.5139057436513616e+01 1 -1 0
2210 1 1.0323160340540249e+00 9.0492345368262459e+00 1.1757527743432851e+01 1 0 0
4386 1 4.1455778540736841e+00 9.2848952754686316e+00 1.2332245507820822e+01 1 1 0
680 1 7.9213467342364332e+00 1.1653664096964919e+01 1.4610323442702269e+01 0 1 -1
1499 1 5.6283009466910602e-02 1.4091493971544364e+00 1.1608223482346151e+01 0 1 -1
1624 1 4.6686974077718233e+00 3.0682686546771585e+00 1.5509491602940709e+01 0 0 1
3769 1 9.7477155212466275e+00 1.0843115285120462e+01 1.2082987686775706e+01 0 0 0
1512 1 2.1201936781913449e+00 1.0789136387532507e+01 1.6060924821754845e+01 1 1 -2
2236 1 1.1839828406322793e+01 5.5813589760737328e+00 1.3993412430121756e+01 -1 0 0
1619 1 2.1768141133715972e+00 3.3128977752994730e+00 1.5041588072553663e+01 0 0 -1
2411 1 6.5601359550603764e+00 8.0318862928000057e-01 1.3512338368007761e+01 0 0 0
3658 1 6.2576376284714579e+00 8.7464320712558941e+00 1.6471393854088234e+01 1 0 -1
1399 1 2.6112864848700008e+00 6.4044787120356359e+00 1.4457550745449636e+01 0 1 0
1654 1 7.8369624029761757e+00 7.7272014918665715e+00 1.4095592855240531e+01 1 0 0
611 1 5.5193968870266703e+00 5.6300700717431464e+00 1.4757886376306951e+01 1 1 0
774 1 8.9213686271409252e+00 4.9624943006631721e+00 1.4437940445673503e+01 -1 0 0
3660 1 9.5365707257713890e+00 7.5924132698578557e+00 1.6577311036643330e+01 0 2 -1
3779 1 4.4602311211193885e-01 5.4762587250820127e+00 1.6396806151524185e+01 -1 0 0
40 1 1.2127606807243446e+01 6.9657218058368446e+00 1.6500730936392465e+01 0 0 -1
3124 1 2.6353122076214244e+00 6.7385884653641592e-01 1.2196164812185703e+01 2 -1 0
4456 1 1.7226613178098602e+00 4.7281550952409956e-01 1.4619336607394953e+01 0 0 0
2881 1 9.5031529151372904e+00 1.0257398901008207e+01 1.6767298607040892e+01 -1 2 0
1357 1 1.1816314997754553e+01 1.0614140634373399e+01 1.8425872622377909e+01 1 1 -1
3780 1 2.2578507883058689e+00 3.0143131605460098e+00 1.8360254280190865e+01 1 2 -1
4408 1 7.6058099604156295e+00 4.3110168439816556e+00 1.6949184474806351e+01 -1 0 0
1498 1 2.5744990380144230e+00 1.0001083608303404e+01 2.3582108611109575e+01 1 0 0
4511 1 7.9498612339316974e+00 3.5510107966023643e+00 2.0970921596727280e+01 0 1 0
4474 1 8.5506353047786092e+00 3.1665567216159057e-01 2.0598203827270176e+01 0 0 0
3008 1 7.5248299574154998e-01 5.7748152825095733e+00 1.8990809768952531e+01 0 1 -1
2888 1 1.2154686053412092e+00 1.1401436571339794e+01 2.8126822093389279e+01 1 1 0
2299 1 9.0240183624439645e+00 1.1008077505218974e+01 3.0689722772787633e+01 -1 0 -1
3728 1 4.9428590592936619e+00 3.6942126040324670e+00 1.8604942811705996e+01 0 1 1
4335 1 4.9254116265875192e+00 6.7254454973319335e+00 1.7957651823785135e+01 -1 1 1
1354 1 8.3762403004158337e+00 6.1994212374679201e+00 1.8622494968451491e+01 0 0 0
2408 1 7.5581763999083913e+00 1.0512992665226655e+01 1.8587923465968238e+01 1 -1 0
3777 1 9.4813833884108263e+00 8.1427831195356895e+00 3.1193437799906363e+01 0 0 0
879 1 2.5136835277501683e+00 7.7794655238840091e+00 1.9215203748865704e+01 0 2 0
1520 1 1.9246228228125941e+00 1.0347790962029189e+01 1.8702008684454242e+01 0 -2 -1
2146 1 6.5002719593689111e+00 7.9157759714795679e+00 2.0103186112703511e+01 1 1 0
4515 1 8.9448511202131158e+00 1.0063506989419810e+01 2.1237193274078372e+01 0 1 0
4505 1 4.2744056384277771e+00 8.4942469461830825e+00 3.0618437763559449e+01 -1 2 0
768 1 8.7740140659834758e+00 1.9028981959045157e+00 1.8374873925148890e+01 1 1 0
591 1 1.1916319396040281e+01 3.0750706357297659e+00 2.7856574594672523e+01 -1 0 1
3089 1 8.1179698648375638e+00 1.6182048403840830e+00 2.3356861938173417e+01 1 0 0
1500 1 4.9449668486146248e+00 2.4382090366000266e+00 2.3062381217645601e+01 2 0 0
2223 1 8.4479894159568203e-01 2.9272949747424257e+00 2.3368700803383987e+01 0 0 -1
2398 1 1.1227205529957260e+01 4.5423737783197780e+00 2.2761501332553792e+01 0 0 0
3106 1 1.4543818229510181e+00 5.7344576686713085e+00 2.4023866910480962e+01 1 -1 0
2965 1 4.4023841078562576e-01 3.1121963726501471e+00 3.0890995250952948e+01 1 1 0
1652 1 5.3402926213939130e+00 4.6273530861168464e+00 2.1278759469208573e+01 -1 0 1
2156 1 8.2378864220341281e+00 6.3930114968760332e+00 2.3494468591943573e+01 0 0 -1
47 1 9.6164996647130057e+00 6.0319941400991608e+00 2.0948751522899954e+01 1 -1 -1
1549 1 2.6662889637778147e+00 7.4962109120671157e+00 2.2021480276938185e+01 0 0 -1
789 1 5.0374160125687322e+00 1.0229520253772602e+01 2.1869181764804367e+01 0 0 0
72 1 2.8231998244123160e+00 9.6862043996870621e+00 2.6323735526325571e+01 1 0 0
3744 1 7.6347741337670465e+00 9.0976060362924027e+00 2.3429212225521233e+01 1 0 1
2296 1 5.3089909982744823e+00 7.0761802815656996e+00 2.2717489376690210e+01 0 1 -1
1383 1 1.1312382666978079e+01 8.6491583245917010e+00 2.0669888913486396e+01 0 1 0
3826 1 4.9796531827250616e+00 9.8363021842216085e+00 2.8137727390410873e+01 0 1 0
4379 1 1.1533393040133847e+01 2.2044831159166289e+00 1.8713459179291057e+01 1 1 -1
4538 1 1.2007078006710003e+01 4.3947253415214078e+00 3.0543227428002922e+01 1 1 0
1617 1 2.9856452317135838e+00 2.3097763473334836e+00 2.5193290235412007e+01 1 1 1
3740 1 2.2469185167615660e+00 2.1248436399169002e+00 2.8072779933251525e+01 1 0 1
2952 1 1.0055824161397277e+01 3.4965987493818179e-01 2.4984747635857829e+01 1 0 0
2939 1 1.1772989644714828e+01 8.9698694213497756e+00 2.8083787048887018e+01 1 1 0
2383 1 6.7611147848158124e+00 3.8780772752717172e+00 2.5145993988491220e+01 1 -1 0
2245 1 9.4906728755393708e+00 3.4664147133736396e+00 2.5606505906352361e+01 -1 0 -1
3808 1 6.7275244884998422e+00 1.5672395433827728e+00 2.7527130266529042e+01 0 1 0
4478 1 2.0118266841785828e+00 6.9840585673461346e+00 3.0567357586688992e+01 1 1 0
719 1 9.5674188414413557e+00 9.5300027721104330e-01 2.7800868759852293e+01 0 1 0
2122 1 3.3048973410240841e+00 6.1416074239618119e+00 2.6074421805351236e+01 0 0 0
3049 1 3.7224413788354589e+00 4.4653485956854491e+00 2.8236984872766413e+01 1 0 -1
2201 1 6.7304755017749436e+00 7.2821126070445477e+00 3.0289716022751612e+01 0 0 0
1453 1 7.1077496200876356e+00 7.4980608681097056e+00 2.7526608468353842e+01 0 1 -1
54 1 6.3286947854312432e+00 4.4101407630801681e+00 2.7855699080740557e+01 1 1 -1
2406 1 5.5416525571715463e+00 7.9783130613905033e+00 2.5455495091054409e+01 -1 1 1
624 1 9.6690002628635519e+00 7.2265215151175255e+00 2.5721771279736366e+01 1 1 -1
3729 1 1.2042953707335789e+01 8.8391692671179207e+00 2.3343720296675727e+01 -1 1 0
759 1 9.4107073330378128e+00 5.1943389305738386e+00 2.7952430392821213e+01 1 0 -2
840 1 1.1688746046171197e+00 1.7721484542026582e+00 2.0613094469306120e+01 0 0 0
3678 1 1.5950655251432233e+00 7.4948256952830956e+00 2.7759463178047653e+01 0 0 0
888 1 5.0313997430076574e-01 1.1313626639615253e+01 2.2469704406035390e+01 0 0 0
1479 1 9.3087094076426720e+00 1.0279623909092454e+01 2.7962922170948495e+01 1 1 0
3668 1 1.2276035202438811e+01 2.0648705987687372e+00 2.1849639309366701e+01 1 1 -1
739 1 9.9660284345738379e+00 1.0004349347213704e+01 2.4953706647295633e+01 -1 0 0
735 1 9.1458574125728571e+00 5.0332652311145125e+00 3.0669430976527813e+01 0 -1 0
71 1 4.6147194866658987e+00 1.1469313280151429e+01 3.1177928216008141e+01 -1 0 -1
3778 1 3.5980657547026929e+00 1.5831658643898108e+00 3.0774338676306577e+01 1 1 -1
874 1 6.3980027278152294e+00 1.2827049704975546e+00 3.0142738901276793e+01 2 0 0
3131 1 6.0586505677835980e+00 4.5093682864100835e+00 3.0767553465137723e+01 1 1 0
3749 1 9.3899828020768989e+00 1.9249154459836249e+00 3.0745034419721968e+01 0 -1 0
2266 1 3.0017484846654940e+00 4.5906286082851508e+00 3.1154600263123100e+01 1 1 -1
812 1 3.2647652596208387e+00 1.2253676459875280e+01 2.0153658198754819e+01 0 0 1
132 2 0.0000000000000000e+00 1.2787731112280996e+01 3.2542854517085065e+00 0 0 0
134 2 1.2305000000000001e+00 1.3498160618518829e+01 3.2542854517085065e+00 0 0 0
169 2 2.4610000000000003e+00 1.2787731112280996e+01 3.2542854517085065e+00 0 0 0
171 2 3.6915000000000004e+00 1.3498160618518829e+01 3.2542854517085065e+00 0 0 0
130 2 0.0000000000000000e+00 1.5629449137232333e+01 3.2542854517085065e+00 0 0 0
165 2 1.2305000000000001e+00 1.4919019630994494e+01 3.2542854517085065e+00 0 0 0
167 2 2.4610000000000003e+00 1.5629449137232328e+01 3.2542854517085065e+00 0 0 0
210 2 3.6915000000000004e+00 1.4919019630994494e+01 3.2542854517085065e+00 0 0 0
214 2 4.9220000000000006e+00 1.2787731112280996e+01 3.2542854517085065e+00 0 0 0
216 2 6.1524999999999990e+00 1.3498160618518829e+01 3.2542854517085065e+00 0 0 0
261 2 7.3829999999999991e+00 1.2787731112280996e+01 3.2542854517085065e+00 0 0 0
212 2 4.9220000000000006e+00 1.5629449137232333e+01 3.2542854517085065e+00 0 0 0
257 2 6.1524999999999990e+00 1.4919019630994494e+01 3.2542854517085065e+00 0 0 0
259 2 7.3829999999999991e+00 1.5629449137232333e+01 3.2542854517085065e+00 0 0 0
263 2 8.6135000000000002e+00 1.3498160618518835e+01 3.2542854517085065e+00 0 0 0
308 2 9.8440000000000012e+00 1.2787731112280996e+01 3.2542854517085065e+00 0 0 0
310 2 1.1074500000000002e+01 1.3498160618518829e+01 3.2542854517085065e+00 0 0 0
304 2 8.6135000000000002e+00 1.4919019630994494e+01 3.2542854517085065e+00 0 0 0
306 2 9.8440000000000012e+00 1.5629449137232328e+01 3.2542854517085065e+00 0 0 0
346 2 1.1074500000000002e+01 1.4919019630994494e+01 3.2542854517085065e+00 0 0 0
161 2 0.0000000000000000e+00 1.7050308149707998e+01 3.2542854517085065e+00 0 0 0
206 2 2.4610000000000003e+00 1.7050308149707998e+01 3.2542854517085065e+00 0 0 0
159 2 0.0000000000000000e+00 1.9892026174659328e+01 3.2542854517085065e+00 0 0 0
163 2 1.2305000000000001e+00 1.7760737655945832e+01 3.2542854517085065e+00 0 0 0
202 2 1.2305000000000001e+00 1.9181596668421495e+01 3.2542854517085065e+00 0 0 0
204 2 2.4610000000000003e+00 1.9892026174659328e+01 3.2542854517085065e+00 0 0 0
208 2 3.6914999999999996e+00 1.7760737655945832e+01 3.2542854517085065e+00 0 0 0
249 2 3.6914999999999996e+00 1.9181596668421495e+01 3.2542854517085065e+00 0 0 0
253 2 4.9220000000000006e+00 1.7050308149707998e+01 3.2542854517085065e+00 0 0 0
300 2 7.3830000000000009e+00 1.7050308149707998e+01 3.2542854517085065e+00 0 0 0
251 2 4.9220000000000006e+00 1.9892026174659328e+01 3.2542854517085065e+00 0 0 0
255 2 6.1524999999999999e+00 1.7760737655945832e+01 3.2542854517085065e+00 0 0 0
296 2 6.1524999999999999e+00 1.9181596668421495e+01 3.2542854517085065e+00 0 0 0
298 2 7.3829999999999991e+00 1.9892026174659328e+01 3.2542854517085065e+00 0 0 0
342 2 9.8440000000000012e+00 1.7050308149707998e+01 3.2542854517085065e+00 0 0 0
376 2 1.2304999999999998e+01 1.7050308149707998e+01 3.2542854517085065e+00 0 0 0
302 2 8.6134999999999984e+00 1.7760737655945832e+01 3.2542854517085065e+00 0 0 0
338 2 8.6135000000000002e+00 1.9181596668421495e+01 3.2542854517085065e+00 0 0 0
340 2 9.8440000000000012e+00 1.9892026174659335e+01 3.2542854517085065e+00 0 0 0
344 2 1.1074500000000002e+01 1.7760737655945835e+01 3.2542854517085065e+00 0 0 0
372 2 1.1074500000000002e+01 1.9181596668421495e+01 3.2542854517085065e+00 0 0 0
196 2 0.0000000000000000e+00 2.4154603212086325e+01 3.2542854517085065e+00 0 0 0
198 2 0.0000000000000000e+00 2.1312885187134999e+01 3.2542854517085065e+00 0 0 0
200 2 1.2304999999999993e+00 2.2023314693372832e+01 3.2542854517085065e+00 0 0 0
241 2 1.2304999999999993e+00 2.3444173705848499e+01 3.2542854517085065e+00 0 0 0
243 2 2.4610000000000003e+00 2.4154603212086325e+01 3.2542854517085065e+00 0 0 0
245 2 2.4610000000000003e+00 2.1312885187134995e+01 3.2542854517085065e+00 0 0 0
247 2 3.6914999999999996e+00 2.2023314693372832e+01 3.2542854517085065e+00 0 0 0
288 2 3.6915000000000004e+00 2.3444173705848499e+01 3.2542854517085065e+00 0 0 0
290 2 4.9220000000000006e+00 2.4154603212086325e+01 3.2542854517085065e+00 0 0 0
292 2 4.9220000000000006e+00 2.1312885187134995e+01 3.2542854517085065e+00 0 0 0
294 2 6.1524999999999990e+00 2.2023314693372832e+01 3.2542854517085065e+00 0 0 0
330 2 6.1524999999999999e+00 2.3444173705848499e+01 3.2542854517085065e+00 0 0 0
332 2 7.3830000000000009e+00 2.4154603212086336e+01 3.2542854517085065e+00 0 0 0
334 2 7.3829999999999991e+00 2.1312885187134999e+01 3.2542854517085065e+00 0 0 0
336 2 8.6135000000000002e+00 2.2023314693372832e+01 3.2542854517085065e+00 0 0 0
364 2 8.6134999999999984e+00 2.3444173705848499e+01 3.2542854517085065e+00 0 0 0
366 2 9.8440000000000012e+00 2.4154603212086336e+01 3.2542854517085065e+00 0 0 0
368 2 9.8440000000000012e+00 2.1312885187134999e+01 3.2542854517085065e+00 0 0 0
370 2 1.1074500000000002e+01 2.2023314693372832e+01 3.2542854517085065e+00 0 0 0
390 2 1.1074500000000002e+01 2.3444173705848499e+01 3.2542854517085065e+00 0 0 0
133 2 0.0000000000000000e+00 1.2787731112280996e+01 6.2588811358938941e+00 0 0 0
170 2 2.4610000000000003e+00 1.2787731112280996e+01 6.2588811358938941e+00 0 0 0
442 2 0.0000000000000000e+00 1.2787731112280996e+01 9.2634768200792479e+00 0 0 0
443 2 1.2305000000000001e+00 1.3498160618518829e+01 9.2634768200792479e+00 0 0 0
461 2 2.4610000000000003e+00 1.2787731112280996e+01 9.2634768200792479e+00 0 0 0
462 2 3.6915000000000004e+00 1.3498160618518829e+01 9.2634768200792479e+00 0 0 0
131 2 0.0000000000000000e+00 1.4208590124756663e+01 6.2588811358938941e+00 0 0 0
166 2 1.2305000000000001e+00 1.4919019630994494e+01 6.2588811358938941e+00 0 0 0
168 2 2.4610000000000003e+00 1.4208590124756663e+01 6.2588811358938941e+00 0 0 0
211 2 3.6915000000000004e+00 1.4919019630994494e+01 6.2588811358938941e+00 0 0 0
441 2 0.0000000000000000e+00 1.5629449137232333e+01 9.2634768200792479e+00 0 0 0
459 2 1.2305000000000001e+00 1.4919019630994494e+01 9.2634768200792479e+00 0 0 0
460 2 2.4610000000000003e+00 1.5629449137232328e+01 9.2634768200792479e+00 0 0 0
482 2 3.6915000000000004e+00 1.4919019630994494e+01 9.2634768200792479e+00 0 0 0
215 2 4.9220000000000006e+00 1.2787731112280996e+01 6.2588811358938941e+00 0 0 0
262 2 7.3829999999999991e+00 1.2787731112280996e+01 6.2588811358938941e+00 0 0 0
484 2 4.9220000000000006e+00 1.2787731112280996e+01 9.2634768200792479e+00 0 0 0