LAMMPS data file via write_data, version 16 Mar 2018, timestep = 8000000

4545 atoms
2 atom types

0.0000000000000000e+00 4.9219999999999999e+01 xlo xhi
0.0000000000000000e+00 4.9019635930410494e+01 ylo yhi
5.0940477682854635e-01 3.3125935009679949e+01 zlo zhi

Masses

1 18.015
2 12.01

Atoms # atomic

91 2 0.0000000000000000e+00 2.8417180249513345e+00 2.1356086905601086e+00 0 0 0
93 2 0.0000000000000000e+00 0.0000000000000000e+00 2.1356086905601086e+00 0 0 0
95 2 1.2305000000000001e+00 7.1042950623783474e-01 2.1356086905601086e+00 0 0 0
102 2 1.2305000000000001e+00 2.1312885187134998e+00 2.1356086905601086e+00 0 0 0
104 2 2.4610000000000003e+00 2.8417180249513345e+00 2.1356086905601086e+00 0 0 0
106 2 2.4610000000000003e+00 0.0000000000000000e+00 2.1356086905601086e+00 0 0 0
108 2 3.6915000000000004e+00 7.1042950623783474e-01 2.1356086905601086e+00 0 0 0
123 2 3.6914999999999996e+00 2.1312885187134998e+00 2.1356086905601086e+00 0 0 0
125 2 4.9220000000000006e+00 2.8417180249513332e+00 2.1356086905601086e+00 0 0 0
127 2 4.9220000000000006e+00 0.0000000000000000e+00 2.1356086905601086e+00 0 0 0
129 2 6.1524999999999999e+00 7.1042950623783407e-01 2.1356086905601086e+00 0 0 0
152 2 6.1524999999999999e+00 2.1312885187134989e+00 2.1356086905601086e+00 0 0 0
154 2 7.3829999999999991e+00 2.8417180249513345e+00 2.1356086905601086e+00 0 0 0
156 2 7.3829999999999991e+00 0.0000000000000000e+00 2.1356086905601086e+00 0 0 0
158 2 8.6134999999999984e+00 7.1042950623783407e-01 2.1356086905601086e+00 0 0 0
189 2 8.6134999999999984e+00 2.1312885187135002e+00 2.1356086905601086e+00 0 0 0
191 2 9.8440000000000012e+00 2.8417180249513332e+00 2.1356086905601086e+00 0 0 0
193 2 9.8440000000000012e+00 0.0000000000000000e+00 2.1356086905601086e+00 0 0 0
195 2 1.1074500000000002e+01 7.1042950623783330e-01 2.1356086905601086e+00 0 0 0
234 2 1.1074500000000002e+01 2.1312885187135002e+00 2.1356086905601086e+00 0 0 0
98 2 0.0000000000000000e+00 4.2625770374269996e+00 2.1356086905601086e+00 0 0 0
100 2 1.2305000000000001e+00 4.9730065436648339e+00 2.1356086905601086e+00 0 0 0
115 2 1.2305000000000001e+00 6.3938655561404980e+00 2.1356086905601086e+00 0 0 0
119 2 2.4610000000000003e+00 4.2625770374269996e+00 2.1356086905601086e+00 0 0 0
121 2 3.6914999999999996e+00 4.9730065436648339e+00 2.1356086905601086e+00 0 0 0
144 2 3.6914999999999996e+00 6.3938655561404980e+00 2.1356086905601086e+00 0 0 0
96 2 0.0000000000000000e+00 7.1042950623783341e+00 2.1356086905601086e+00 0 0 0
117 2 2.4610000000000003e+00 7.1042950623783341e+00 2.1356086905601086e+00 0 0 0
148 2 4.9220000000000006e+00 4.2625770374269978e+00 2.1356086905601086e+00 0 0 0
150 2 6.1524999999999999e+00 4.9730065436648339e+00 2.1356086905601086e+00 0 0 0
181 2 6.1524999999999999e+00 6.3938655561404980e+00 2.1356086905601086e+00 0 0 0
185 2 7.3829999999999991e+00 4.2625770374269996e+00 2.1356086905601086e+00 0 0 0
146 2 4.9220000000000006e+00 7.1042950623783341e+00 2.1356086905601086e+00 0 0 0
183 2 7.3830000000000009e+00 7.1042950623783341e+00 2.1356086905601086e+00 0 0 0
187 2 8.6135000000000002e+00 4.9730065436648339e+00 2.1356086905601086e+00 0 0 0
226 2 8.6135000000000002e+00 6.3938655561404980e+00 2.1356086905601086e+00 0 0 0
230 2 9.8440000000000012e+00 4.2625770374270004e+00 2.1356086905601086e+00 0 0 0
232 2 1.1074500000000002e+01 4.9730065436648339e+00 2.1356086905601086e+00 0 0 0
273 2 1.1074500000000002e+01 6.3938655561404980e+00 2.1356086905601086e+00 0 0 0
228 2 9.8440000000000012e+00 7.1042950623783341e+00 2.1356086905601086e+00 0 0 0
111 2 0.0000000000000000e+00 8.5251540748539991e+00 2.1356086905601086e+00 0 0 0
113 2 1.2305000000000001e+00 9.2355835810918343e+00 2.1356086905601086e+00 0 0 0
140 2 2.4610000000000003e+00 8.5251540748539991e+00 2.1356086905601086e+00 0 0 0
142 2 3.6915000000000004e+00 9.2355835810918343e+00 2.1356086905601086e+00 0 0 0
109 2 0.0000000000000000e+00 1.1366872099805333e+01 2.1356086905601086e+00 0 0 0
136 2 1.2305000000000001e+00 1.0656442593567498e+01 2.1356086905601086e+00 0 0 0
138 2 2.4610000000000003e+00 1.1366872099805333e+01 2.1356086905601086e+00 0 0 0
173 2 3.6914999999999996e+00 1.0656442593567499e+01 2.1356086905601086e+00 0 0 0
177 2 4.9220000000000006e+00 8.5251540748539991e+00 2.1356086905601086e+00 0 0 0
179 2 6.1524999999999999e+00 9.2355835810918343e+00 2.1356086905601086e+00 0 0 0
222 2 7.3830000000000009e+00 8.5251540748539991e+00 2.1356086905601086e+00 0 0 0
175 2 4.9220000000000006e+00 1.1366872099805333e+01 2.1356086905601086e+00 0 0 0
218 2 6.1524999999999999e+00 1.0656442593567499e+01 2.1356086905601086e+00 0 0 0
220 2 7.3829999999999991e+00 1.1366872099805333e+01 2.1356086905601086e+00 0 0 0
224 2 8.6134999999999984e+00 9.2355835810918343e+00 2.1356086905601086e+00 0 0 0
269 2 9.8440000000000012e+00 8.5251540748539956e+00 2.1356086905601086e+00 0 0 0
271 2 1.1074500000000002e+01 9.2355835810918343e+00 2.1356086905601086e+00 0 0 0
265 2 8.6134999999999984e+00 1.0656442593567498e+01 2.1356086905601086e+00 0 0 0
267 2 9.8440000000000012e+00 1.1366872099805333e+01 2.1356086905601086e+00 0 0 0
312 2 1.1074500000000002e+01 1.0656442593567498e+01 2.1356086905601086e+00 0 0 0
314 2 1.2304999999999998e+01 1.1366872099805333e+01 2.1356086905601086e+00 0 0 0
92 2 0.0000000000000000e+00 1.4208590124756650e+00 5.3880165180206241e+00 0 0 0
94 2 0.0000000000000000e+00 0.0000000000000000e+00 5.3880165180206241e+00 0 0 0
103 2 1.2305000000000001e+00 2.1312885187134998e+00 5.3880165180206241e+00 0 0 0
105 2 2.4610000000000003e+00 1.4208590124756650e+00 5.3880165180206241e+00 0 0 0
107 2 2.4610000000000003e+00 0.0000000000000000e+00 5.3880165180206241e+00 0 0 0
124 2 3.6914999999999996e+00 2.1312885187134998e+00 5.3880165180206241e+00 0 0 0
420 2 0.0000000000000000e+00 2.8417180249513345e+00 8.6404243454792340e+00 0 0 0
421 2 0.0000000000000000e+00 0.0000000000000000e+00 8.6404243454792340e+00 0 0 0
422 2 1.2305000000000001e+00 7.1042950623783474e-01 8.6404243454792340e+00 0 0 0
426 2 1.2305000000000001e+00 2.1312885187134998e+00 8.6404243454792340e+00 0 0 0
427 2 2.4610000000000003e+00 2.8417180249513345e+00 8.6404243454792340e+00 0 0 0
428 2 2.4610000000000003e+00 0.0000000000000000e+00 8.6404243454792340e+00 0 0 0
429 2 3.6915000000000004e+00 7.1042950623783474e-01 8.6404243454792340e+00 0 0 0
437 2 3.6914999999999996e+00 2.1312885187134998e+00 8.6404243454792340e+00 0 0 0
101 2 1.2305000000000001e+00 3.5521475311891644e+00 5.3880165180206241e+00 0 0 0
122 2 3.6914999999999996e+00 3.5521475311891644e+00 5.3880165180206241e+00 0 0 0
126 2 4.9220000000000006e+00 1.4208590124756650e+00 5.3880165180206241e+00 0 0 0
128 2 4.9220000000000006e+00 0.0000000000000000e+00 5.3880165180206241e+00 0 0 0
153 2 6.1524999999999999e+00 2.1312885187134989e+00 5.3880165180206241e+00 0 0 0
155 2 7.3829999999999991e+00 1.4208590124756659e+00 5.3880165180206241e+00 0 0 0
157 2 7.3829999999999991e+00 0.0000000000000000e+00 5.3880165180206241e+00 0 0 0
438 2 4.9220000000000006e+00 2.8417180249513332e+00 8.6404243454792340e+00 0 0 0
439 2 4.9220000000000006e+00 0.0000000000000000e+00 8.6404243454792340e+00 0 0 0
440 2 6.1524999999999999e+00 7.1042950623783407e-01 8.6404243454792340e+00 0 0 0
452 2 6.1524999999999999e+00 2.1312885187134989e+00 8.6404243454792340e+00 0 0 0
453 2 7.3829999999999991e+00 2.8417180249513345e+00 8.6404243454792340e+00 0 0 0
454 2 7.3829999999999991e+00 0.0000000000000000e+00 8.6404243454792340e+00 0 0 0
151 2 6.1524999999999999e+00 3.5521475311891644e+00 5.3880165180206241e+00 0 0 0
190 2 8.6134999999999984e+00 2.1312885187135002e+00 5.3880165180206241e+00 0 0 0
192 2 9.8440000000000012e+00 1.4208590124756659e+00 5.3880165180206241e+00 0 0 0
194 2 9.8440000000000012e+00 0.0000000000000000e+00 5.3880165180206241e+00 0 0 0
235 2 1.1074500000000002e+01 2.1312885187135002e+00 5.3880165180206241e+00 0 0 0
455 2 8.6134999999999984e+00 7.1042950623783407e-01 8.6404243454792340e+00 0 0 0
471 2 8.6134999999999984e+00 2.1312885187135002e+00 8.6404243454792340e+00 0 0 0
472 2 9.8440000000000012e+00 2.8417180249513332e+00 8.6404243454792340e+00 0 0 0
473 2 9.8440000000000012e+00 0.0000000000000000e+00 8.6404243454792340e+00 0 0 0
474 2 1.1074500000000002e+01 7.1042950623783330e-01 8.6404243454792340e+00 0 0 0
494 2 1.1074500000000002e+01 2.1312885187135002e+00 8.6404243454792340e+00 0 0 0
188 2 8.6134999999999984e+00 3.5521475311891657e+00 5.3880165180206241e+00 0 0 0
233 2 1.1074500000000002e+01 3.5521475311891644e+00 5.3880165180206241e+00 0 0 0
97 2 0.0000000000000000e+00 5.6834360499026637e+00 5.3880165180206241e+00 0 0 0
99 2 0.0000000000000000e+00 4.2625770374269996e+00 5.3880165180206241e+00 0 0 0
116 2 1.2305000000000001e+00 6.3938655561404980e+00 5.3880165180206241e+00 0 0 0
118 2 2.4610000000000003e+00 5.6834360499026637e+00 5.3880165180206241e+00 0 0 0
120 2 2.4610000000000003e+00 4.2625770374269996e+00 5.3880165180206241e+00 0 0 0
145 2 3.6914999999999996e+00 6.3938655561404980e+00 5.3880165180206241e+00 0 0 0
424 2 0.0000000000000000e+00 4.2625770374269996e+00 8.6404243454792340e+00 0 0 0
425 2 1.2305000000000001e+00 4.9730065436648339e+00 8.6404243454792340e+00 0 0 0
433 2 1.2305000000000001e+00 6.3938655561404980e+00 8.6404243454792340e+00 0 0 0
435 2 2.4610000000000003e+00 4.2625770374269996e+00 8.6404243454792340e+00 0 0 0
436 2 3.6914999999999996e+00 4.9730065436648339e+00 8.6404243454792340e+00 0 0 0
448 2 3.6914999999999996e+00 6.3938655561404980e+00 8.6404243454792340e+00 0 0 0
114 2 1.2305000000000001e+00 7.8147245686161639e+00 5.3880165180206241e+00 0 0 0
143 2 3.6914999999999996e+00 7.8147245686161639e+00 5.3880165180206241e+00 0 0 0
423 2 0.0000000000000000e+00 7.1042950623783341e+00 8.6404243454792340e+00 0 0 0
434 2 2.4610000000000003e+00 7.1042950623783341e+00 8.6404243454792340e+00 0 0 0
147 2 4.9220000000000006e+00 5.6834360499026637e+00 5.3880165180206241e+00 0 0 0
149 2 4.9220000000000006e+00 4.2625770374269978e+00 5.3880165180206241e+00 0 0 0
182 2 6.1524999999999999e+00 6.3938655561404980e+00 5.3880165180206241e+00 0 0 0
184 2 7.3829999999999991e+00 5.6834360499026637e+00 5.3880165180206241e+00 0 0 0
186 2 7.3829999999999991e+00 4.2625770374269996e+00 5.3880165180206241e+00 0 0 0
450 2 4.9220000000000006e+00 4.2625770374269978e+00 8.6404243454792340e+00 0 0 0
451 2 6.1524999999999999e+00 4.9730065436648339e+00 8.6404243454792340e+00 0 0 0
467 2 6.1524999999999999e+00 6.3938655561404980e+00 8.6404243454792340e+00 0 0 0
469 2 7.3829999999999991e+00 4.2625770374269996e+00 8.6404243454792340e+00 0 0 0
180 2 6.1524999999999999e+00 7.8147245686161639e+00 5.3880165180206241e+00 0 0 0
449 2 4.9220000000000006e+00 7.1042950623783341e+00 8.6404243454792340e+00 0 0 0
468 2 7.3830000000000009e+00 7.1042950623783341e+00 8.6404243454792340e+00 0 0 0
227 2 8.6135000000000002e+00 6.3938655561404980e+00 5.3880165180206241e+00 0 0 0
229 2 9.8440000000000012e+00 5.6834360499026637e+00 5.3880165180206241e+00 0 0 0
231 2 9.8440000000000012e+00 4.2625770374270004e+00 5.3880165180206241e+00 0 0 0
274 2 1.1074500000000002e+01 6.3938655561404980e+00 5.3880165180206241e+00 0 0 0
470 2 8.6135000000000002e+00 4.9730065436648339e+00 8.6404243454792340e+00 0 0 0
490 2 8.6135000000000002e+00 6.3938655561404980e+00 8.6404243454792340e+00 0 0 0
492 2 9.8440000000000012e+00 4.2625770374270004e+00 8.6404243454792340e+00 0 0 0
493 2 1.1074500000000002e+01 4.9730065436648339e+00 8.6404243454792340e+00 0 0 0
514 2 1.1074500000000002e+01 6.3938655561404980e+00 8.6404243454792340e+00 0 0 0
225 2 8.6135000000000002e+00 7.8147245686161639e+00 5.3880165180206241e+00 0 0 0
272 2 1.1074500000000002e+01 7.8147245686161639e+00 5.3880165180206241e+00 0 0 0
491 2 9.8440000000000012e+00 7.1042950623783341e+00 8.6404243454792340e+00 0 0 0
110 2 0.0000000000000000e+00 9.9460130873296642e+00 5.3880165180206241e+00 0 0 0
112 2 0.0000000000000000e+00 8.5251540748539991e+00 5.3880165180206241e+00 0 0 0
139 2 2.4610000000000003e+00 9.9460130873296642e+00 5.3880165180206241e+00 0 0 0
141 2 2.4610000000000003e+00 8.5251540748539991e+00 5.3880165180206241e+00 0 0 0
431 2 0.0000000000000000e+00 8.5251540748539991e+00 8.6404243454792340e+00 0 0 0
432 2 1.2305000000000001e+00 9.2355835810918343e+00 8.6404243454792340e+00 0 0 0
446 2 2.4610000000000003e+00 8.5251540748539991e+00 8.6404243454792340e+00 0 0 0
447 2 3.6915000000000004e+00 9.2355835810918343e+00 8.6404243454792340e+00 0 0 0
135 2 1.2305000000000001e+00 1.2077301606043163e+01 5.3880165180206241e+00 0 0 0
137 2 1.2305000000000001e+00 1.0656442593567498e+01 5.3880165180206241e+00 0 0 0
172 2 3.6914999999999996e+00 1.2077301606043163e+01 5.3880165180206241e+00 0 0 0
174 2 3.6914999999999996e+00 1.0656442593567499e+01 5.3880165180206241e+00 0 0 0
430 2 0.0000000000000000e+00 1.1366872099805333e+01 8.6404243454792340e+00 0 0 0
444 2 1.2305000000000001e+00 1.0656442593567498e+01 8.6404243454792340e+00 0 0 0
445 2 2.4610000000000003e+00 1.1366872099805333e+01 8.6404243454792340e+00 0 0 0
463 2 3.6914999999999996e+00 1.0656442593567499e+01 8.6404243454792340e+00 0 0 0
176 2 4.9220000000000006e+00 9.9460130873296642e+00 5.3880165180206241e+00 0 0 0
178 2 4.9220000000000006e+00 8.5251540748539991e+00 5.3880165180206241e+00 0 0 0
221 2 7.3830000000000009e+00 9.9460130873296642e+00 5.3880165180206241e+00 0 0 0
223 2 7.3830000000000009e+00 8.5251540748539991e+00 5.3880165180206241e+00 0 0 0
465 2 4.9220000000000006e+00 8.5251540748539991e+00 8.6404243454792340e+00 0 0 0
466 2 6.1524999999999999e+00 9.2355835810918343e+00 8.6404243454792340e+00 0 0 0
488 2 7.3830000000000009e+00 8.5251540748539991e+00 8.6404243454792340e+00 0 0 0
217 2 6.1524999999999999e+00 1.2077301606043163e+01 5.3880165180206241e+00 0 0 0
219 2 6.1524999999999999e+00 1.0656442593567499e+01 5.3880165180206241e+00 0 0 0
464 2 4.9220000000000006e+00 1.1366872099805333e+01 8.6404243454792340e+00 0 0 0
486 2 6.1524999999999999e+00 1.0656442593567499e+01 8.6404243454792340e+00 0 0 0
487 2 7.3829999999999991e+00 1.1366872099805333e+01 8.6404243454792340e+00 0 0 0
268 2 9.8440000000000012e+00 9.9460130873296642e+00 5.3880165180206241e+00 0 0 0
270 2 9.8440000000000012e+00 8.5251540748539956e+00 5.3880165180206241e+00 0 0 0
489 2 8.6134999999999984e+00 9.2355835810918343e+00 8.6404243454792340e+00 0 0 0
512 2 9.8440000000000012e+00 8.5251540748539956e+00 8.6404243454792340e+00 0 0 0
513 2 1.1074500000000002e+01 9.2355835810918343e+00 8.6404243454792340e+00 0 0 0
264 2 8.6135000000000002e+00 1.2077301606043163e+01 5.3880165180206241e+00 0 0 0
266 2 8.6134999999999984e+00 1.0656442593567498e+01 5.3880165180206241e+00 0 0 0
311 2 1.1074500000000002e+01 1.2077301606043163e+01 5.3880165180206241e+00 0 0 0
313 2 1.1074500000000002e+01 1.0656442593567498e+01 5.3880165180206241e+00 0 0 0
510 2 8.6134999999999984e+00 1.0656442593567498e+01 8.6404243454792340e+00 0 0 0
511 2 9.8440000000000012e+00 1.1366872099805333e+01 8.6404243454792340e+00 0 0 0
534 2 1.1074500000000002e+01 1.0656442593567498e+01 8.6404243454792340e+00 0 0 0
535 2 1.2304999999999998e+01 1.1366872099805333e+01 8.6404243454792340e+00 0 0 0
701 1 3.9377389479626106e+00 4.6708432714481720e+00 1.2144026936760676e+01 1 2 0
2312 1 1.9229353878489230e+00 9.1042740010708130e+00 1.5132190288811007e+01 2 0 0
653 1 4.9550364026730689e+00 2.2472891631079590e+00 1.0964698782884948e+01 1 1 0
782 1 7.6183929038715883e+00 1.7620967615183893e+00 1.1395346607192977e+01 1 -4 0
1508 1 9.1598365894006299e+00 3.7316456696835441e+00 1.1077053934281093e+01 -2 -1 1
4381 1 5.8129429582761052e+00 1.1115537452093717e+01 1.4478988286472482e+01 -1 0 0
3769 1 1.4131676112761942e+00 4.3607565617794171e+00 1.1198906608134875e+01 0 3 0
1488 1 5.4370592606319219e+00 6.5430488814712886e+00 1.1051690752111520e+01 5 2 0
4365 1 8.0510054379993914e+00 6.3103301914729695e+00 1.1693711762029798e+01 -2 -1 0
1449 1 1.6199325012195795e+00 9.1798795498557872e+00 1.1056910751224795e+01 4 -1 1
4521 1 4.5019037681744400e+00 9.0119519040208189e+00 1.1395974816709497e+01 -3 0 0
2362 1 8.6455932646334706e+00 1.0908676902201355e+01 1.4569014734224886e+01 -1 4 1
1550 1 5.7244399310907204e+00 1.1349317246523468e+01 1.1278244923027238e+01 1 5 0
2304 1 8.4330169552045096e+00 1.0914793932306251e+01 1.1851998298504798e+01 -1 2 0
51 1 9.6799433923335627e+00 8.2377167048015494e+00 1.1394230206896879e+01 1 1 0
2131 1 9.5882194520785085e+00 8.3840128676120234e+00 1.5069727854957986e+01 2 4 0
4360 1 3.8300126551768199e+00 4.4326278384899673e+00 1.4661912712515981e+01 4 1 0
1412 1 4.7973200061851973e+00 1.9920010549331628e+00 1.4981525051729632e+01 2 0 0
2839 1 7.1921756985381364e+00 1.6139181104427058e+00 1.4033157559212125e+01 6 -2 0
3618 1 4.5967517809195488e+00 8.6397345294030323e+00 1.3945144297335034e+01 1 2 -1
652 1 9.0767564510599303e+00 3.3978144800783996e+00 1.5499843761341298e+01 -4 1 0
855 1 7.4935441049818385e-01 4.4912704214403520e+00 1.5364706921263050e+01 2 0 0
1639 1 5.6461767857168876e+00 6.5277253104141808e+00 1.5340966306526338e+01 -1 -1 0
2941 1 8.1098250568055175e+00 5.9653006439248051e+00 1.4297222448276917e+01 0 0 0
3138 1 1.1741477676971188e+01 3.4391513425523512e+00 1.4562367012523913e+01 5 -5 0
2338 1 5.9498426183017861e-01 1.1506867338623973e+01 1.4216392887272244e+01 -2 -2 0
2411 1 1.1872473720573707e+01 3.1696713745132850e+00 1.1839320097030887e+01 -2 2 0
3842 1 1.6903143852774008e-01 1.1511551189432931e+01 1.1580430126897907e+01 2 2 0
2343 1 3.8924051867018916e-01 9.7746519405240956e-02 1.1397114506775834e+01 0 -3 0
2359 1 1.6666107899002175e-01 6.9795756383144933e+00 1.1540787152834671e+01 5 0 -1
81 1 1.2257312781076179e+01 7.3568304675171747e+00 1.1542938646088299e+01 2 -1 0
1426 1 3.3064222968713848e+00 4.1478038803012645e+00 1.8635121197536687e+01 3 2 1
2848 1 7.5650224498086409e+00 1.7178653249426965e+00 1.9064047869613322e+01 0 2 0
3038 1 4.9965872716534907e+00 1.8979471634017886e+00 1.7843382390412177e+01 -5 0 0
4447 1 9.2983937855653149e+00 3.8963388632665468e+00 1.8209128908382077e+01 2 -3 -1
2838 1 1.1893979397845763e+01 3.2791197644365235e+00 1.8686042278607292e+01 -2 -4 0
1648 1 5.8254949273670842e-01 4.4800074534529131e+00 1.7941826583683472e+01 2 2 -1
1522 1 5.1767998908835411e+00 6.2330397468215750e+00 1.8143652318876530e+01 -3 0 0
1403 1 8.0035750764421785e+00 6.1126209752693761e+00 1.8749629727248927e+01 -3 1 1
2224 1 7.8380040463462963e+00 6.3368962006543947e+00 2.1202613164640642e+01 1 3 0
2317 1 7.3041001697136607e-02 1.1492561990839496e+01 1.8507732013998783e+01 2 0 -1
2399 1 1.5638723507919881e+00 9.0197465215658923e+00 1.8097813365184447e+01 3 1 0
2315 1 4.2822188724017272e+00 8.8481794307828530e+00 1.8556943019578444e+01 -4 -1 -1
77 1 1.1395758305909977e+01 1.0682495969778094e+01 3.2385013263467442e+01 1 3 1
3808 1 5.6800127162212011e+00 1.0941105480228776e+01 1.7192771297202473e+01 2 0 0
4542 1 9.5022783254391783e+00 8.2945351004700196e+00 1.7706221667881060e+01 1 2 -1
2350 1 8.2508792062601035e+00 1.0713477209094718e+01 1.7979992661504689e+01 1 1 -1
2354 1 7.3243765750313257e+00 1.4926829697893171e+00 2.1780460141618935e+01 -3 -1 0
727 1 4.6138041419690277e+00 1.7403730189015443e+00 2.2270251618651791e+01 -7 2 0
1590 1 4.8364855311911183e+00 1.7778961483759097e+00 2.5050257464233372e+01 1 -3 0
3891 1 6.9500497856071011e+00 8.4428541366136152e+00 3.2191241116081699e+01 0 -6 0
799 1 9.1260612456900905e+00 3.7197618381006534e+00 2.1948631014863562e+01 1 1 -1
2156 1 8.9189205024027380e+00 3.5609448441503719e+00 2.4869115132819946e+01 2 -1 -1
4367 1 3.4211703040205172e+00 4.2930173192279337e+00 2.1555242955385090e+01 7 -4 0
23 1 7.2138542349933688e-01 4.2290304293671506e+00 2.1875491329923562e+01 1 -4 2
1588 1 1.1676295174811639e+00 4.3553079176818388e+00 2.4528604418873119e+01 1 -2 1
1610 1 5.0342160948595671e+00 6.6635264208475533e+00 2.1671025816303658e+01 0 5 1
2908 1 5.1583687244057073e+00 6.3390984089167572e+00 2.4543190798585115e+01 -1 2 0
3092 1 1.1086984820908448e+00 9.0290780452045905e+00 2.1953236953187993e+01 2 1 0
691 1 1.3771883918797736e+00 8.9068499213256676e+00 2.4637475593115688e+01 0 1 0
15 1 3.8091082981828954e+00 9.1523673060770445e+00 2.1148207804338320e+01 -1 2 -1
3648 1 1.2398661321086087e-01 1.1592280031288686e+01 2.1325483670130367e+01 -1 -5 0
1388 1 5.6494426513674627e+00 1.1178344696561801e+01 2.1864380019638347e+01 3 2 1
1360 1 5.5455791214911683e+00 1.0911039732945085e+01 2.4696579246554553e+01 5 2 0
1520 1 8.2958496554881549e+00 1.0901365482174212e+01 2.0870587598935362e+01 5 2 -1
1631 1 6.0325504030972752e+00 1.1035209991988681e+01 3.1537272060744961e+01 -1 -1 1
3110 1 9.5260842991006562e+00 8.4969010060705532e+00 2.1677453464289840e+01 1 5 -1
2124 1 9.4585692720500134e+00 8.4041902557113364e+00 2.4597185822609223e+01 1 2 0
2888 1 2.1067830002483503e+00 1.8139516194188157e+00 2.5637683117729644e+01 2 1 0
1492 1 2.2352410422802023e+00 1.9978949601998757e+00 2.8247057275116052e+01 -2 6 1
1536 1 6.3091771394881064e+00 4.0155573259729511e+00 2.5621910352208886e+01 0 3 0
1464 1 1.0078395670056258e+01 1.2529318677345032e+00 2.5510865357562999e+01 1 -5 1
876 1 1.0467002269494701e+01 1.1384065531690988e+00 2.8269083241046687e+01 1 -1 0
797 1 2.4861087489956435e+00 6.6380860842839304e+00 2.5244162067078733e+01 -1 -5 1
2994 1 2.8976622706638828e+00 6.8420198634477938e+00 2.8002821317213407e+01 1 -1 0
4333 1 6.5441128131879953e+00 3.8874413646735055e+00 2.8285225738241582e+01 1 3 1
3854 1 1.0553574091452782e+01 5.6103642459119634e+00 2.5375356695922697e+01 -3 3 0
1459 1 1.0654335287402857e+01 6.0438212478843889e+00 2.8205516127435072e+01 3 5 0
3107 1 9.3372470909314771e+00 3.7538085534649421e+00 2.9143233054586954e+01 3 0 -1
3829 1 2.7847843710559403e+00 1.1446076648715303e+01 2.5156975579006950e+01 1 -1 -1
833 1 3.1006568877222831e+00 1.1319743021097745e+01 2.7911892928587971e+01 0 -1 1
1452 1 1.4623421519058097e+00 9.1419881416371727e+00 2.8754845512467615e+01 4 1 0
818 1 6.7559177045134353e+00 8.6609586242705365e+00 2.5391190176319377e+01 0 -9 -1
2895 1 6.8536427829208479e+00 8.7374747419509067e+00 2.8074095062686521e+01 -2 -3 -1
1425 1 9.4175036591085401e+00 8.4167526606614160e+00 2.8900767716052567e+01 0 -1 -1
4541 1 1.0817571323829112e+01 1.0857944410920259e+01 2.5412480169840858e+01 -1 4 -1
2284 1 1.1035873774722699e+01 1.0622967927040829e+01 2.8130987394831202e+01 -7 -3 -1
1569 1 2.3584560468453568e+00 1.9205144947963884e+00 3.2352417102093639e+01 -2 0 0
1378 1 9.5149811627054017e+00 8.5466458490893658e+00 3.1828654069639356e+01 2 3 -1
2211 1 4.8597988648623236e+00 1.7355212601669312e+00 2.9001163843739189e+01 -6 4 0
3889 1 5.0532314102159344e+00 1.2885590302724308e+00 3.1804221007266570e+01 3 -1 0
1622 1 1.0518361277404397e+01 1.2099292543380478e+00 3.2394844335770962e+01 6 -2 1
2934 1 9.3762764910158491e+00 3.8117567477852816e+00 3.2171926093868350e+01 3 1 0
1486 1 1.6807446042404466e+00 4.4744410888110258e+00 2.9261998349990108e+01 1 2 0
2128 1 1.5016564089381492e+00 4.8718827783533003e+00 3.2100312604401736e+01 -2 -3 0
1602 1 2.9689834532782595e+00 6.8824712045881249e+00 3.2127157820662532e+01 0 3 0
16 1 5.6398142776264448e+00 6.5559499052166803e+00 2.9009726559616716e+01 1 -1 -1
4480 1 6.6604276627496386e+00 3.5820805734060825e+00 3.2417798877186399e+01 -3 -1 0
579 1 5.7077053426746494e+00 6.2344073444912205e+00 3.1821907257727165e+01 3 0 0
2179 1 1.0673035828745299e+01 5.9479763637546377e+00 3.2361421706602002e+01 3 -1 0
3833 1 1.9748885634783588e+00 9.2764625578891788e+00 3.1515156809629243e+01 2 2 0
4408 1 3.3181634607846364e+00 1.1391688904042878e+01 3.2225636368630589e+01 -1 1 0
1562 1 5.6975666153813673e+00 1.1133926990577120e+01 2.8672186183825886e+01 -2 1 -1
709 1 1.1839640519006426e+01 3.5465778120219622e+00 2.1326817034702465e+01 -1 2 0
3673 1 1.2108936103747570e+01 7.9031727038445521e+00 2.1167670943690471e+01 -2 -1 0
2250 1 1.2226719413182558e+01 7.9307218857762374e+00 1.8434067436154507e+01 2 2 0
132 2 0.0000000000000000e+00 1.2787731112280996e+01 2.1356086905601086e+00 0 0 0
134 2 1.2305000000000001e+00 1.3498160618518829e+01 2.1356086905601086e+00 0 0 0
169 2 2.4610000000000003e+00 1.2787731112280996e+01 2.1356086905601086e+00 0 0 0
171 2 3.6915000000000004e+00 1.3498160618518829e+01 2.1356086905601086e+00 0 0 0
130 2 0.0000000000000000e+00 1.5629449137232333e+01 2.1356086905601086e+00 0 0 0
165 2 1.2305000000000001e+00 1.4919019630994494e+01 2.1356086905601086e+00 0 0 0
167 2 2.4610000000000003e+00 1.5629449137232328e+01 2.1356086905601086e+00 0 0 0
210 2 3.6915000000000004e+00 1.4919019630994494e+01 2.1356086905601086e+00 0 0 0
214 2 4.9220000000000006e+00 1.2787731112280996e+01 2.1356086905601086e+00 0 0 0
216 2 6.1524999999999990e+00 1.3498160618518829e+01 2.1356086905601086e+00 0 0 0
261 2 7.3829999999999991e+00 1.2787731112280996e+01 2.1356086905601086e+00 0 0 0
212 2 4.9220000000000006e+00 1.5629449137232333e+01 2.1356086905601086e+00 0 0 0
257 2 6.1524999999999990e+00 1.4919019630994494e+01 2.1356086905601086e+00 0 0 0
259 2 7.3829999999999991e+00 1.5629449137232333e+01 2.1356086905601086e+00 0 0 0
263 2 8.6135000000000002e+00 1.3498160618518835e+01 2.1356086905601086e+00 0 0 0
308 2 9.8440000000000012e+00 1.2787731112280996e+01 2.1356086905601086e+00 0 0 0
310 2 1.1074500000000002e+01 1.3498160618518829e+01 2.1356086905601086e+00 0 0 0
304 2 8.6135000000000002e+00 1.4919019630994494e+01 2.1356086905601086e+00 0 0 0
306 2 9.8440000000000012e+00 1.5629449137232328e+01 2.1356086905601086e+00 0 0 0
346 2 1.1074500000000002e+01 1.4919019630994494e+01 2.1356086905601086e+00 0 0 0
161 2 0.0000000000000000e+00 1.7050308149707998e+01 2.1356086905601086e+00 0 0 0
206 2 2.4610000000000003e+00 1.7050308149707998e+01 2.1356086905601086e+00 0 0 0
159 2 0.0000000000000000e+00 1.9892026174659328e+01 2.1356086905601086e+00 0 0 0
163 2 1.2305000000000001e+00 1.7760737655945832e+01 2.1356086905601086e+00 0 0 0
202 2 1.2305000000000001e+00 1.9181596668421495e+01 2.1356086905601086e+00 0 0 0
204 2 2.4610000000000003e+00 1.9892026174659328e+01 2.1356086905601086e+00 0 0 0
208 2 3.6914999999999996e+00 1.7760737655945832e+01 2.1356086905601086e+00 0 0 0
249 2 3.6914999999999996e+00 1.9181596668421495e+01 2.1356086905601086e+00 0 0 0
253 2 4.9220000000000006e+00 1.7050308149707998e+01 2.1356086905601086e+00 0 0 0
300 2 7.3830000000000009e+00 1.7050308149707998e+01 2.1356086905601086e+00 0 0 0
251 2 4.9220000000000006e+00 1.9892026174659328e+01 2.1356086905601086e+00 0 0 0
255 2 6.1524999999999999e+00 1.7760737655945832e+01 2.1356086905601086e+00 0 0 0
296 2 6.1524999999999999e+00 1.9181596668421495e+01 2.1356086905601086e+00 0 0 0
298 2 7.3829999999999991e+00 1.9892026174659328e+01 2.1356086905601086e+00 0 0 0
342 2 9.8440000000000012e+00 1.7050308149707998e+01 2.1356086905601086e+00 0 0 0
376 2 1.2304999999999998e+01 1.7050308149707998e+01 2.1356086905601086e+00 0 0 0
302 2 8.6134999999999984e+00 1.7760737655945832e+01 2.1356086905601086e+00 0 0 0
338 2 8.6135000000000002e+00 1.9181596668421495e+01 2.1356086905601086e+00 0 0 0
340 2 9.8440000000000012e+00 1.9892026174659335e+01 2.1356086905601086e+00 0 0 0
344 2 1.1074500000000002e+01 1.7760737655945835e+01 2.1356086905601086e+00 0 0 0
372 2 1.1074500000000002e+01 1.9181596668421495e+01 2.1356086905601086e+00 0 0 0
196 2 0.0000000000000000e+00 2.4154603212086325e+01 2.1356086905601086e+00 0 0 0
198 2 0.0000000000000000e+00 2.1312885187134999e+01 2.1356086905601086e+00 0 0 0
200 2 1.2304999999999993e+00 2.2023314693372832e+01 2.1356086905601086e+00 0 0 0
241 2 1.2304999999999993e+00 2.3444173705848499e+01 2.1356086905601086e+00 0 0 0
243 2 2.4610000000000003e+00 2.4154603212086325e+01 2.1356086905601086e+00 0 0 0
245 2 2.4610000000000003e+00 2.1312885187134995e+01 2.1356086905601086e+00 0 0 0
247 2 3.6914999999999996e+00 2.2023314693372832e+01 2.1356086905601086e+00 0 0 0
288 2 3.6915000000000004e+00 2.3444173705848499e+01 2.1356086905601086e+00 0 0 0
290 2 4.9220000000000006e+00 2.4154603212086325e+01 2.1356086905601086e+00 0 0 0
292 2 4.9220000000000006e+00 2.1312885187134995e+01 2.1356086905601086e+00 0 0 0
294 2 6.1524999999999990e+00 2.2023314693372832e+01 2.1356086905601086e+00 0 0 0
330 2 6.1524999999999999e+00 2.3444173705848499e+01 2.1356086905601086e+00 0 0 0
332 2 7.3830000000000009e+00 2.4154603212086336e+01 2.1356086905601086e+00 0 0 0
334 2 7.3829999999999991e+00 2.1312885187134999e+01 2.1356086905601086e+00 0 0 0
336 2 8.6135000000000002e+00 2.2023314693372832e+01 2.1356086905601086e+00 0 0 0
364 2 8.6134999999999984e+00 2.3444173705848499e+01 2.1356086905601086e+00 0 0 0
366 2 9.8440000000000012e+00 2.4154603212086336e+01 2.1356086905601086e+00 0 0 0
368 2 9.8440000000000012e+00 2.1312885187134999e+01 2.1356086905601086e+00 0 0 0
370 2 1.1074500000000002e+01 2.2023314693372832e+01 2.1356086905601086e+00 0 0 0
390 2 1.1074500000000002e+01 2.3444173705848499e+01 2.1356086905601086e+00 0 0 0
133 2 0.0000000000000000e+00 1.2787731112280996e+01 5.3880165180206241e+00 0 0 0
170 2 2.4610000000000003e+00 1.2787731112280996e+01 5.3880165180206241e+00 0 0 0
442 2 0.0000000000000000e+00 1.2787731112280996e+01 8.6404243454792340e+00 0 0 0
443 2 1.2305000000000001e+00 1.3498160618518829e+01 8.6404243454792340e+00 0 0 0
461 2 2.4610000000000003e+00 1.2787731112280996e+01 8.6404243454792340e+00 0 0 0
462 2 3.6915000000000004e+00 1.3498160618518829e+01 8.6404243454792340e+00 0 0 0
131 2 0.0000000000000000e+00 1.4208590124756663e+01 5.3880165180206241e+00 0 0 0
166 2 1.2305000000000001e+00 1.4919019630994494e+01 5.3880165180206241e+00 0 0 0
168 2 2.4610000000000003e+00 1.4208590124756663e+01 5.3880165180206241e+00 0 0 0
211 2 3.6915000000000004e+00 1.4919019630994494e+01 5.3880165180206241e+00 0 0 0
441 2 0.0000000000000000e+00 1.5629449137232333e+01 8.6404243454792340e+00 0 0 0
459 2 1.2305000000000001e+00 1.4919019630994494e+01 8.6404243454792340e+00 0 0 0
460 2 2.4610000000000003e+00 1.5629449137232328e+01 8.6404243454792340e+00 0 0 0
482 2 3.6915000000000004e+00 1.4919019630994494e+01 8.6404243454792340e+00 0 0 0
215 2 4.9220000000000006e+00 1.2787731112280996e+01 5.3880165180206241e+00 0 0 0