
# Create simulation box and atoms

read_data data.ML_graphite_1atm_240K
  orthogonal box = (0 0 1.76685) to (49.22 49.0196 31.8685)
  4 by 4 by 2 MPI processor grid
  reading atoms ...
  4545 atoms
  reading velocities ...
  4545 velocities
group water type 1
1785 atoms in group water
group graphite type 2
2760 atoms in group graphite

# Define potential

pair_style sw
pair_coeff * * MLC_e.sw mW C


# Fix graphite atoms in place

fix 5 graphite setforce 0.0 0.0 0.0
velocity graphite set 0.0 0.0 0.0


# Equilibration of molecular water

# Add velocity/set timestep

velocity	    water create ${TEMP} ${SEED} rot yes dist gaussian
velocity	    water create 240 ${SEED} rot yes dist gaussian
velocity	    water create 240 23489 rot yes dist gaussian
timestep	    5.0

# Define output

compute			1 water msd
compute			3 water temp
thermo	    	50
thermo_style	custom step temp press vol etotal ke pe c_1[4] c_3

# Neighbor lists

neigh_modify    delay 0 every 1 check yes

# Set fixes

fix             1 water momentum 10 linear 1 1 1 rescale
fix             2 water nve
fix             3 water temp/csvr ${TEMP} ${TEMP} 500.0 ${SEED}
fix             3 water temp/csvr 240 ${TEMP} 500.0 ${SEED}
fix             3 water temp/csvr 240 240 500.0 ${SEED}
fix             3 water temp/csvr 240 240 500.0 23489
fix             4 water press/berendsen z ${PRES} ${PRES} 1000.0 modulus 20000
fix             4 water press/berendsen z 1 ${PRES} 1000.0 modulus 20000
fix             4 water press/berendsen z 1 1 1000.0 modulus 20000

# Run 0.5 ns equilibration

dump		    1 all atom 2000 ${DIR}/eq.${NAME}-${TEMP}.dump
dump		    1 all atom 2000 run_13/eq.${NAME}-${TEMP}.dump
dump		    1 all atom 2000 run_13/eq.het_freeze_13-${TEMP}.dump
dump		    1 all atom 2000 run_13/eq.het_freeze_13-240.dump

reset_timestep  0

run	            100000
Neighbor list info ...
  update every 1 steps, delay 0 steps, check yes
  max neighbors/atom: 2000, page size: 100000
  master list distance cutoff = 6.67472
  ghost atom cutoff = 6.67472
  binsize = 3.33736, bins = 15 15 10
  1 neighbor lists, perpetual/occasional/extra = 1 0 0
  (1) pair sw, perpetual
      attributes: full, newton on
      pair build: full/bin/atomonly
      stencil: full/bin/3d
      bin: standard
Per MPI rank memory allocation (min/avg/max) = 4.115 | 4.302 | 4.489 Mbytes
Step Temp Press Volume TotEng KinEng PotEng c_1[4] c_3 
       0    94.225352   -657.89738    72627.636   -17236.286    1276.2636    -18512.55            0          240 
      50    93.707434   -240.10098    72644.433   -17251.997    1269.2485   -18521.246   0.51506426    238.68082 
     100    93.437744   -525.64658    72683.735   -17196.347    1265.5956   -18461.943   0.89014429    237.99389 
     150    94.136505   -230.56009     72693.67    -17235.62    1275.0602    -18510.68    1.1374647     239.7737 
     200    92.429734   -174.05933    72718.821   -17215.715    1251.9423   -18467.657    1.4410233    235.42641 
     250    93.088968   -595.15683    72740.216   -17225.166    1260.8715   -18486.038    1.7247363    237.10553 
     300    94.544545   -335.33882    72764.831   -17227.565     1280.587   -18508.152    1.9449016    240.81301 
     350    93.358683   -892.70007    72743.086   -17231.924    1264.5248   -18496.448    2.0475797    237.79252 
     400    96.998198   -494.04913    72730.282   -17203.929    1313.8213   -18517.751     2.288594    247.06268 
     450    95.341363    -278.2859    72778.299   -17210.084    1291.3798   -18501.463    2.5297673    242.84257 
     500    94.378123   -697.82822    72773.052   -17248.769    1278.3329   -18527.102    2.8601479    240.38912 
     550    94.458097   -351.60341    72733.634   -17215.947    1279.4161   -18495.363    3.1309182    240.59282 
     600    94.448489   -578.61723     72708.15   -17188.204     1279.286    -18467.49    3.4197851    240.56835 
     650    92.743025   -245.31376        72667   -17187.676    1256.1858   -18443.862    3.6840157    236.22439 
     700    96.942201   -403.38999    72664.886   -17193.478    1313.0628    -18506.54    3.9352669    246.92005 
     750    94.261226   -413.09082    72703.709   -17199.785    1276.7495   -18476.535    4.0985478    240.09137 
     800     93.75914   -236.71895     72744.25   -17207.377    1269.9489   -18477.326    4.2163025    238.81252 
     850    98.204352   -107.99368    72811.849   -17170.408    1330.1584   -18500.566    4.4263907    250.13485 
     900    99.279146   -671.44343    72849.591   -17165.571    1344.7163   -18510.287    4.5610743    252.87244 
     950    94.414789   -820.81678    72834.132   -17155.405    1278.8295   -18434.235     4.820914    240.48251 
    1000    93.852026   -341.57282    72793.102    -17182.34     1271.207   -18453.547    5.0127936    239.04911 
    1050    95.421076   -455.63649    72810.669   -17164.733    1292.4595   -18457.193    5.2897486    243.04561 
    1100    94.329757   -319.92166    72805.609   -17147.864    1277.6778   -18425.541    5.5845138    240.26593 
    1150    96.203783   -184.75878    72779.094   -17172.653    1303.0611   -18475.714    5.8544604    245.03923 
    1200     96.81683   -265.84048    72837.607   -17191.974    1311.3647   -18503.339    6.0293414    246.60071 
    1250    96.793933   -312.75158     72915.81   -17191.754    1311.0545   -18502.809    6.2005702    246.54239 
    1300    94.891124   -383.03883    72892.427   -17208.564    1285.2814   -18493.846    6.5580312    241.69578 
    1350    92.841726   -395.50341    72873.733   -17233.253    1257.5227   -18490.775    6.8271199    236.47579 
    1400    91.475947   -461.84874    72939.912   -17264.012    1239.0235   -18503.035    7.0629404    232.99703 
    1450    92.639334   -260.37837    72882.259   -17246.011    1254.7813   -18500.792    7.2844473    235.96028 
    1500    94.248332   -376.67948    72918.223   -17259.063    1276.5749   -18535.638     7.493267    240.05853 
    1550    93.806272    -488.2684    72923.308   -17215.882    1270.5873   -18486.469    7.7694548    238.93257 
    1600    94.105014   -337.63447    72939.891    -17240.01    1274.6337   -18514.644    7.9408891    239.69349 
    1650    92.419815   -252.05276    72888.303   -17251.986     1251.808   -18503.794    8.1232772    235.40114 
    1700    94.686673   -578.64339    72901.844   -17243.431    1282.5121   -18525.943    8.3246181    241.17502 
    1750    93.180231   -182.96884    72902.082   -17239.482    1262.1077   -18501.589    8.6484812    237.33799 
    1800    94.984414    -427.9007    72895.088   -17216.182     1286.545   -18502.727    8.7479716     241.9334 
    1850    93.437477   -499.72152    72910.781   -17222.744     1265.592   -18488.336    8.9184482    237.99321 
    1900    95.394196   -574.00129    72866.557   -17221.592    1292.0954   -18513.687    9.1189763    242.97714 
    1950    96.549521   -182.51377    72855.967   -17208.485     1307.744   -18516.229    9.4408792    245.91986 
    2000    96.844066   -280.17726    72939.182   -17211.217    1311.7336    -18522.95    9.6342477    246.67009 
    2050    96.253636   -387.94995    72963.558    -17229.82    1303.7363   -18533.556    9.9616385    245.16621 
    2100     95.55499   -406.81619    72956.229   -17219.728    1294.2733   -18514.002    10.206188     243.3867 
    2150    96.546208   -260.71122    72938.823   -17200.422    1307.6992   -18508.121     10.45395    245.91142 
    2200    96.993434   -574.56982     72933.39     -17181.5    1313.7568   -18495.257    10.582836    247.05054 
    2250    96.119778   -501.66681    72944.233   -17179.653    1301.9232   -18481.576    10.900261    244.82526 
    2300    95.684703   -625.37376    72928.853   -17185.285    1296.0302   -18481.315    11.060928    243.71709 
    2350    94.331487   -850.06276    72917.377   -17180.282    1277.7012   -18457.983    11.340617    240.27034 
    2400    93.749477   -1013.9392    72837.994   -17185.389     1269.818   -18455.207    11.486907    238.78791 
    2450    94.480432    -706.6014    72742.949    -17204.83    1279.7186   -18484.548     11.58348    240.64971 
    2500     94.12954   -671.94245    72673.537   -17203.116    1274.9659   -18478.082    11.756007    239.75596 
    2550    92.395041   -390.26603    72607.942   -17235.321    1251.4724   -18486.794    11.919579    235.33804 
    2600    92.163445   -473.75035    72609.677   -17206.622    1248.3355   -18454.957    12.094359    234.74815 
    2650    96.015076   -797.69011    72552.305   -17221.127    1300.5051   -18521.632    12.411803    244.55858 
    2700     96.02046   -132.26474    72556.838   -17211.923     1300.578   -18512.501    12.560124    244.57229 
    2750    94.182277   -357.93291    72560.352   -17233.689    1275.6802   -18509.369    12.820015    239.89028 
    2800    93.412648   -144.73218    72542.963   -17246.964    1265.2557    -18512.22    12.999598    237.92997 
    2850    95.609978   -378.84608    72547.826   -17258.984    1295.0181   -18554.002    13.188783    243.52676 
    2900    91.941518   -727.66846     72564.02   -17265.997    1245.3296   -18511.327    13.406452    234.18288 
    2950    92.934486   -557.22596     72535.76   -17284.506    1258.7791   -18543.286    13.683927    236.71205 
    3000    91.735813   -149.29804    72539.912    -17274.66    1242.5433   -18517.203     13.79393    233.65893 
    3050    92.075625   -643.18706    72465.444   -17285.187     1247.146   -18532.333    14.076098    234.52446 
    3100      92.3765   -190.88093    72492.857    -17264.92    1251.2213   -18516.141    14.320179    235.29082 
    3150    96.112068   -432.81169    72506.389   -17248.176    1301.8188   -18549.995     14.54124    244.80563 
    3200    94.739242    155.57294    72541.847   -17241.813    1283.2242   -18525.037    14.862316    241.30892 
    3250    98.093467   -509.59893    72632.891   -17229.856    1328.6565   -18558.513    15.099508    249.85242 
    3300     95.92989   -355.65613     72689.51   -17223.542    1299.3513   -18522.893    15.324405     244.3416 
    3350    95.289178   -485.18253    72745.292   -17225.049    1290.6729   -18515.722    15.689898    242.70966 
    3400    96.762391   -417.94359    72738.428   -17202.674    1310.6273   -18513.301    15.966718    246.46205 
    3450    99.558909   -992.94208    72670.096   -17209.371    1348.5056   -18557.877    16.157575    253.58502 
    3500    96.793783   -191.14205    72628.215   -17184.862    1311.0525   -18495.914    16.366667    246.54201 
    3550    96.418413   -490.12576    72621.451   -17214.507    1305.9682   -18520.475    16.532057    245.58591 
    3600    97.481556   -453.73441    72625.045   -17197.518    1320.3683   -18517.886    16.751967    248.29383 
    3650     97.15066   -285.86022    72657.863    -17215.27    1315.8863   -18531.156    17.075288    247.45101 
    3700    91.974771   -747.84546    72643.155   -17256.461      1245.78   -18502.241    17.286978    234.26758 
    3750    96.804132   -288.87428    72631.046   -17257.587    1311.1927   -18568.779     17.49053    246.56837 
    3800    92.075366    -158.8774    72600.725   -17275.576    1247.1425   -18522.718     17.65006     234.5238 
    3850    95.072268   -406.71774     72628.09   -17221.774    1287.7349   -18509.509    17.846731    242.15717 
    3900    92.898836   -543.28457    72590.376   -17223.987    1258.2962   -18482.283    17.951977    236.62125 
    3950    94.707478   -543.60011    72508.379   -17229.076    1282.7939    -18511.87    18.088698    241.22802 
    4000    94.240466   -491.68123    72561.923   -17220.194    1276.4683   -18496.663     18.28174     240.0385 
    4050    95.329349   -494.90073    72591.405   -17200.722    1291.2171   -18491.939    18.542389    242.81197 
    4100    95.532307   -400.32636     72622.25    -17207.35    1293.9661   -18501.316    18.952212    243.32893 
    4150    95.080232   -304.41807    72724.839   -17229.696    1287.8428   -18517.539    19.291807    242.17745 
    4200    95.582309   -463.21764     72692.52   -17273.703    1294.6433   -18568.346    19.582641    243.45628 
    4250    91.401161   -362.96297     72710.65   -17319.725    1238.0105   -18557.735    19.652287    232.80654 
    4300    91.859205   -372.95645    72738.095   -17342.647    1244.2146   -18586.861    19.843535    233.97322 
    4350    91.372811   -496.14507    72773.112   -17301.762    1237.6265   -18539.388    19.982907    232.73434 
    4400    90.204754   -36.081022    72761.305   -17264.301    1221.8054   -18486.107    20.196721    229.75919 
    4450    91.271085   -538.24827    72757.619   -17279.311    1236.2487    -18515.56    20.288595    232.47523 
    4500    93.280393   -424.48219    72752.426    -17278.55    1263.4644   -18542.014    20.472664    237.59311 
    4550    91.512581    -286.3116     72788.94   -17296.631    1239.5197   -18536.151    20.522368    233.09034 
    4600    91.069805   -464.85136    72822.942   -17309.749    1233.5224   -18543.272    20.614741    231.96255 
    4650    92.873382   -395.93877    72828.861   -17325.209    1257.9515   -18583.161    20.900942    236.55642 
    4700    93.760306   -303.86475    72861.416   -17298.143    1269.9647   -18568.108    20.874358    238.81549 
    4750    93.484755   -376.57032    72911.519   -17295.347    1266.2324   -18561.579    21.032378    238.11364 
    4800    92.655803   -395.12857    73002.305   -17301.933    1255.0044   -18556.938    21.180072    236.00223 
    4850    90.535561   -545.61909    72964.701   -17316.008    1226.2862   -18542.294    21.353526    230.60179 
    4900    94.895908   -678.34823    72930.657   -17239.384    1285.3462    -18524.73    21.729159    241.70796 
    4950    92.511739   -137.81438    72871.364   -17250.879    1253.0531   -18503.932    21.986888    235.63528 
    5000    94.813006    -300.0804    72989.888   -17192.062    1284.2233   -18476.285    21.987738     241.4968 
    5050    92.749716   -615.70618    73017.408   -17186.375    1256.2764   -18442.651    22.071309    236.24143 
    5100    96.810113   -958.80339    72989.651   -17172.739    1311.2737   -18484.012    22.386504    246.58361 
    5150    95.067193   -746.26934    72961.271   -17211.594    1287.6662    -18499.26    22.739793    242.14424 
    5200    93.910751   -502.05888     72927.92   -17171.915    1272.0024   -18443.918    23.004903    239.19868 
    5250    93.717755   -542.69056    72942.374   -17199.798    1269.3883   -18469.186    23.230827    238.70711 
    5300    96.424002   -484.42435    73008.127   -17178.232    1306.0439   -18484.276    23.734894    245.60015 
    5350    94.671932   -584.81377    73042.069   -17160.259    1282.3125   -18442.572    24.058551    241.13748 
    5400    96.813287   -602.06294     73040.73   -17182.779    1311.3167   -18494.096    24.092398    246.59169 
    5450    96.140478   -721.56274    72980.325    -17182.22    1302.2036   -18484.423    24.175969    244.87799 
    5500    96.313903   -530.23458     72963.68   -17195.777    1304.5526   -18500.329    24.664419    245.31972 
    5550    96.177936   -402.56671    72918.976   -17152.118     1302.711   -18454.829    24.609895     244.9734 
    5600    95.908847   -307.83257    72980.021   -17194.403    1299.0662    -18493.47     24.90094    244.28801 
    5650    94.446517   -778.42561    72880.805   -17228.604    1279.2593   -18507.864    25.014031    240.56333 
    5700    94.847551   -595.91229    72763.242   -17237.521    1284.6912   -18522.212    25.212748    241.58479 
    5750    93.332984   -236.45532    72758.263   -17236.019    1264.1767   -18500.196    25.225715    237.72706 
    5800    94.115023   -345.31187    72811.956   -17221.449    1274.7692   -18496.218    25.562676    239.71898 
    5850    94.503497   -172.86289    72830.379   -17254.117    1280.0311   -18534.148    25.795364    240.70846 
    5900    95.365158   -269.00864    72846.985   -17251.482    1291.7021   -18543.184    25.939658    242.90318 
    5950    94.502485   -403.97566      72868.3   -17256.177    1280.0173   -18536.194    26.229284    240.70588 
    6000    93.749829   -116.26477     72848.61   -17255.905    1269.8228   -18525.727    26.491935     238.7888 
    6050    95.832277   -605.80511    72791.049   -17242.066    1298.0291   -18540.095    26.518154    244.09298 
    6100    96.149996   -412.12582     72837.33   -17243.941    1302.3326   -18546.274    26.672976    244.90223 
    6150    94.794027   -239.05933    72858.546   -17238.566    1283.9662   -18522.532    26.971674    241.44846 
    6200    93.197924   -140.40287    72902.443   -17238.639    1262.3473   -18500.986    27.000796    237.38305 
    6250    92.160368   -266.68806    72955.932   -17262.458    1248.2938   -18510.752    27.314692    234.74031 
    6300    94.199237   -426.91281     73011.33   -17263.742    1275.9099   -18539.652    27.555602    239.93348 
    6350    92.922884   -403.64952    72966.188   -17245.667     1258.622   -18504.289    27.804666     236.6825 
    6400    93.900955   -358.85281    72928.269   -17246.357    1271.8697   -18518.227    27.760733    239.17373 
    6450    94.411966    -498.8504    72938.096   -17242.293    1278.7913   -18521.085     27.96552    240.47532 
    6500    92.446499   -181.84263    72952.345   -17253.016    1252.1694   -18505.185    28.190821    235.46911 
    6550    92.083594   -146.89866    73014.363   -17226.865    1247.2539   -18474.118    28.629743    234.54476 
    6600    94.470035   -214.66958    72987.649   -17222.855    1279.5778   -18502.433    28.955967    240.62323 
    6650     94.94203   -426.85433    72921.324    -17221.08    1285.9709   -18507.051    29.007985    241.82544 
    6700    96.821622   -652.55446    72978.263   -17220.186    1311.4296   -18531.616    29.287849    246.61292 
    6750    96.635158   -687.98435    72899.637     -17262.7     1308.904   -18571.604    29.445173    246.13798 
    6800    97.034549   -126.83771     72936.86   -17244.264    1314.3136   -18558.578    29.455924    247.15526 
    6850    95.029254   -232.51763    72963.872   -17263.009    1287.1523   -18550.161    29.846118    242.04761 
    6900    93.093455   -524.44601    72927.207    -17286.66    1260.9323   -18547.592    29.951135    237.11696 
    6950    92.861169   -544.29338    72960.991   -17298.801     1257.786   -18556.587    30.053185    236.52531 
    7000    93.696552   -488.28353     72974.51   -17282.745    1269.1011   -18551.846    30.180255     238.6531 
    7050    95.693709   -609.32299    73006.858   -17254.535    1296.1522   -18550.687    30.185113    243.74003 
    7100    96.202122    -482.5763    73004.539    -17265.81    1303.0386   -18568.849    30.364874      245.035 
    7150    93.961467   -579.24825    73032.454   -17288.469    1272.6894   -18561.159    30.636367    239.32786 
    7200    94.135002   -536.36571    73011.557   -17287.744    1275.0399   -18562.784    30.791978    239.76987 
    7250    96.863546   -435.87852    73041.112   -17251.889    1311.9974   -18563.887    31.104146     246.7197 
    7300    95.292597   -693.42551    73053.667   -17269.406    1290.7192   -18560.125    31.456532    242.71836 
    7350    91.802298    -442.3547    73014.161   -17329.888    1243.4438   -18573.332    31.526514    233.82827 
    7400    90.094482   -641.46444    73004.913   -17369.525    1220.3118   -18589.837    31.719903    229.47832 
    7450    93.509493   -809.26757    72991.937   -17343.039    1266.5675   -18609.606    31.639353    238.17665 
    7500    89.251374   -348.65136    72930.723   -17354.996    1208.8921   -18563.888    31.923936    227.33085 
    7550     92.73143   -273.08687    72974.946   -17345.588    1256.0288   -18601.617    32.378624    236.19485 
    7600    93.411639    -435.5139    73034.893   -17365.094    1265.2421   -18630.336    32.727394     237.9274 
    7650    91.951486   -683.82331    73021.721   -17345.977    1245.4646   -18591.442    33.067153    234.20827 
    7700    94.205311   -301.24165    73067.325   -17328.048    1275.9922    -18604.04    33.181408    239.94895 
    7750    92.316346   -460.45414    73025.331   -17311.136    1250.4065   -18561.543    33.593649     235.1376 
    7800    93.451588   -571.75418    73031.625   -17293.251    1265.7831   -18559.034    33.721782    238.02916 
    7850    93.528576   -304.37097    73041.968   -17285.406    1266.8259   -18552.232    33.765958    238.22525 
    7900    96.796316   -784.58734    72979.115   -17242.697    1311.0868   -18553.784    34.199845    246.54847 
    7950    96.529238   -482.42809    72907.344    -17245.01    1307.4693   -18552.479    34.293087    245.86819 
    8000    93.257108   -612.11311    72845.573   -17295.122     1263.149   -18558.271    34.413226     237.5338 
    8050    92.885841   -427.22577    72849.249   -17289.341    1258.1202   -18547.461    34.381733    236.58815 
    8100     94.66979   -210.67633    72931.839   -17249.934    1282.2835   -18532.218    34.497627    241.13202 
    8150    93.977892   -389.57024    72980.883    -17238.72    1272.9118   -18511.632    34.523139     239.3697 
    8200    94.534516   -241.57703    72981.158   -17241.549    1280.4512       -18522    34.744549    240.78747 
    8250    93.234741   -87.548386    73074.605   -17239.494     1262.846    -18502.34    34.886531    237.47683 
    8300    94.491071   -364.65291    73147.265    -17243.31    1279.8627   -18523.172    35.400177    240.67681 
    8350    96.287626   -621.44365    73095.529   -17257.153    1304.1967    -18561.35    35.751534    245.25279 
    8400    94.773433   -889.18944    72977.338   -17265.474    1283.6873   -18549.161     35.75737    241.39601 
    8450    94.844821   -526.47867    72966.164   -17288.084    1284.6542   -18572.738    35.876831    241.57784 
    8500    91.800617   -531.00218    72874.172   -17342.175    1243.4211   -18585.596    36.365772    233.82399 
    8550    93.399044   -413.37409    72860.218   -17323.932    1265.0715   -18589.003    36.654166    237.89532 
    8600    90.978804   -616.45879    72812.488   -17319.909    1232.2898   -18552.198    36.750813    231.73077 
    8650    94.287624   -768.55975    72776.738   -17312.009    1277.1071   -18589.116    36.802317    240.15861 
    8700    94.714247   -159.09255    72765.629   -17277.873    1282.8856   -18560.759    36.988006    241.24526 
    8750    92.798918   -619.13446    72860.888   -17296.797    1256.9429    -18553.74    37.274824    236.36675 
    8800    94.809493   -772.46483    72965.945   -17272.151    1284.1757   -18556.326    37.296274    241.48786 
    8850    93.930074   -469.77049    72949.737   -17304.359    1272.2641   -18576.623    37.636015     239.2479 
    8900    92.212219     -657.341    72998.527   -17292.875    1248.9961   -18541.871    37.799824    234.87238 
    8950    93.857448   -350.78651    73031.473   -17290.035    1271.2804   -18561.315    37.769272    239.06292 
    9000    91.479241   -452.92632    73085.185    -17275.92    1239.0681   -18514.988    38.155972    233.00542 
    9050     94.26341   -276.10032    73082.992   -17296.286    1276.7791   -18573.065    38.235259    240.09694 
    9100    92.965527   -621.17535    73126.397   -17308.429    1259.1995   -18567.629    38.597611    236.79112 
    9150    91.430216   -377.66077    73058.215   -17280.368    1238.4041   -18518.772    38.696172    232.88055 
    9200    92.823765   -401.44008    73061.342    -17274.24    1257.2794   -18531.519    38.695768    236.43004 
    9250    91.954585   -451.96372    73094.717   -17262.235    1245.5065   -18507.742    39.114108    234.21616 
    9300    95.814796   -688.66248     73163.36    -17232.88    1297.7923   -18530.672    39.234115    244.04845 
    9350    92.778688   -646.46528    73118.764   -17256.029    1256.6688   -18512.698    39.321942    236.31522 
    9400    91.601503   -708.70683    73107.342   -17277.294    1240.7241   -18518.018    39.548502    233.31683 
    9450    93.926294   -704.09846    73119.972   -17251.372     1272.213   -18523.585     39.88634    239.23827 
    9500    92.476168   -128.29335    73129.416   -17269.151    1252.5713   -18521.723    40.150284    235.54468 
    9550    93.259756   -236.04753    73150.408   -17291.496    1263.1848   -18554.681     40.46635    237.54054 
    9600    95.045996   -544.96008    73123.592   -17264.064    1287.3791   -18551.444    41.013043    242.09025 
    9650    93.409101    -503.0107    73128.374   -17227.119    1265.2077   -18492.326    41.310498    237.92094 
    9700    95.563586   -626.78965    73179.888   -17229.476    1294.3897   -18523.866     41.22046    243.40859 
    9750    94.592037    -780.1371    73124.799   -17200.704    1281.2303   -18481.934    41.460716    240.93398 
    9800    94.448101   -757.69703    73114.931   -17169.313    1279.2807   -18448.594     41.62751    240.56736 
    9850    98.941069   -319.57795     73135.46   -17146.111    1340.1371   -18486.248     41.82445    252.01133 
    9900    95.450897    -505.0388    73180.952   -17130.982    1292.8634   -18423.845    42.158392    243.12157 
    9950    95.351206   -313.81395    73205.858   -17168.215    1291.5131   -18459.728    42.337763    242.86764 
   10000    95.037449   -596.65531    73205.057    -17205.07    1287.2633   -18492.334    42.477434    242.06848 
   10050    96.753237    97.187711    73275.275   -17225.209    1310.5033   -18535.712    42.846871    246.43874 
   10100    95.340307   -532.28542    73369.008   -17210.555    1291.3655   -18501.921    43.225496    242.83988 
   10150    96.237285   -485.57161    73426.994   -17231.789    1303.5149   -18535.304     43.53265    245.12457 
   10200    94.048321   -279.72566    73443.549   -17254.299    1273.8658   -18528.165     44.04907    239.54909 
   10250    95.079759   -481.49683    73486.541   -17233.895    1287.8364   -18521.731    44.351296    242.17625 
   10300    95.629319   -350.86266    73482.516   -17231.711    1295.2801   -18526.991    44.472695    243.57602 
   10350    96.991552   -215.88599    73529.133   -17244.572    1313.7313   -18558.303    44.649706    247.04575 
   10400    93.501958   -315.18186    73545.004    -17258.64    1266.4654   -18525.105    45.008141    238.15745 
   10450    94.291537   -295.72734    73562.591   -17236.123    1277.1601   -18513.283    45.210672    240.16858 
   10500    94.659576   -362.98719    73634.721   -17258.431    1282.1451   -18540.576    45.606119    241.10601 
   10550    94.786012   -534.87562    73672.636   -17290.291    1283.8577   -18574.148    45.709054    241.42805 
   10600    96.692526   -737.56569    73687.438   -17229.634     1309.681   -18539.315    45.555521     246.2841 
   10650    94.882673   -622.51684    73615.078   -17252.473    1285.1669    -18537.64    45.709582    241.67425 
   10700    93.745912    -902.6495    73600.624   -17236.947    1269.7697   -18506.717    45.590716    238.77882 
   10750    97.331965    -884.4081    73595.884   -17213.949    1318.3421   -18532.291    45.517125    247.91281 
   10800    95.135444   -647.76602    73510.474   -17258.512    1288.5906   -18547.103    45.583229    242.31808 
   10850    94.902623   -105.84658    73532.123   -17234.338    1285.4371   -18519.775    45.499393    241.72507 
   10900    95.504362    -710.2661    73550.397   -17206.359    1293.5876   -18499.947     45.82748    243.25775 
   10950     93.70777   -741.91646    73497.809    -17227.68    1269.2531   -18496.933    45.872243    238.68167 
   11000    97.044722   -685.22365    73442.822   -17232.944    1314.4514   -18547.395    45.703241    247.18117 
   11050    93.310729   -499.80166    73410.015   -17248.652    1263.8752   -18512.527    46.015337    237.67038 
   11100    93.727988     -301.538    73445.384   -17260.043    1269.5269    -18529.57    46.174676    238.73317 
   11150    92.782153   -604.32472    73354.188   -17275.799    1256.7158   -18532.515    46.239899    236.32405 
   11200    92.656626   -460.73068    73326.116   -17306.714    1255.0155   -18561.729    46.647391    236.00432 
   11250    93.962738    -745.8697     73366.48   -17308.994    1272.7066     -18581.7    47.092255     239.3311 
   11300     92.64095   -512.66678    73337.705   -17314.279    1254.8032   -18569.083     47.30181    235.96439 
   11350    91.796644   -828.45956    73358.088    -17332.54    1243.3673   -18575.907    47.748116    233.81387 
   11400    90.399633   -996.48903    73310.322   -17351.419     1224.445   -18575.864    48.031491    230.25557 
   11450    89.540667   -594.09144    73230.909   -17349.486    1212.8105   -18562.296    48.223175    228.06771 
   11500    91.313392   -255.07733    73275.083    -17335.48    1236.8217   -18572.301      48.4658    232.58299 
   11550    91.910617   -706.63055    73248.641   -17321.419     1244.911    -18566.33    48.854096    234.10417 
   11600     92.70354   -367.76723    73221.234   -17318.458     1255.651   -18574.109    48.880565    236.12381 
   11650    92.104516   -396.77607    73182.521   -17294.997    1247.5373   -18542.534    48.872156    234.59805 
   11700    91.763628   -1156.6256    73152.908    -17268.67    1242.9201   -18511.591    48.679756    233.72978 
   11750     93.92723   -952.57331    73059.214   -17265.281    1272.2256   -18537.506     48.72268    239.24066 
   11800    94.798296   -394.11344    73012.013   -17290.291     1284.024   -18574.315    48.756041    241.45934 
   11850    91.507887   -821.44916    72988.683   -17311.458    1239.4561   -18550.915    48.758546    233.07838 
   11900    92.438993   -372.72407    72980.786   -17289.719    1252.0677   -18541.786    48.906776    235.44999 
   11950    93.162813   -728.64547    72976.546   -17282.741    1261.8717   -18544.613    48.870015    237.29362 
   12000    91.305658   -400.72713    72952.813   -17263.602     1236.717   -18500.318    48.949543    232.56329 
   12050    94.692976   -290.59445    72960.812   -17249.366    1282.5975   -18531.964     49.01571    241.19108 
   12100       94.177   -91.512706    72955.686   -17250.502    1275.6087   -18526.111    48.779713    239.87684 
   12150    93.556971   -126.99902    73012.797   -17241.898    1267.2105   -18509.108    49.006067    238.29758 
   12200    94.965467     -495.298    73029.384   -17239.903    1286.2883   -18526.191    49.324249    241.88514 
   12250    92.630589   -437.98214    72996.514   -17227.562    1254.6629   -18482.225     49.29266      235.938 
   12300    96.838366   -597.92327    72909.355   -17228.661    1311.6564   -18540.317    49.338367    246.65557 
   12350    93.140391   -1059.3439    72800.284   -17232.979    1261.5681   -18494.547     49.56145    237.23651 
   12400    95.286618   -247.83524    72794.561   -17223.776    1290.6383   -18514.414    49.633271    242.70313 
   12450    93.038343   -573.92749    72812.701   -17242.294    1260.1858    -18502.48    49.699414    236.97659 
   12500    92.236544   -398.10685    72809.104   -17259.347    1249.3256   -18508.672    49.931354    234.93434 
   12550     97.61985   -293.36833    72792.692   -17254.288    1322.2414    -18576.53    49.931429    248.64608 
   12600    94.841149   -479.48586    72775.726   -17213.876    1284.6045   -18498.481     49.98788    241.56849 
   12650    93.095474    -842.5836    72740.773   -17245.103    1260.9597   -18506.063    50.247375     237.1221 
   12700    93.248902   -437.27145    72719.696   -17284.792    1263.0378   -18547.829    50.332587     237.5129 
   12750    94.651575   -289.91758    72700.328    -17291.94    1282.0367   -18573.977    50.485456    241.08563 
   12800    95.345866   -285.20985    72677.125   -17315.754    1291.4408   -18607.195    50.619075    242.85405 
   12850    94.593696    -94.55339    72723.054   -17271.134    1281.2528   -18552.387    50.811632     240.9382 
   12900    92.432282   -339.70586    72810.382   -17307.219    1251.9769   -18559.196    50.882432     235.4329 
   12950    96.545652   -706.49629    72848.739   -17292.359    1307.6916   -18600.051    51.102807       245.91 
   13000    93.741136   -556.96884    72804.859   -17270.915     1269.705    -18540.62    51.533041    238.76666 
   13050    93.223535   -475.81666    72817.116   -17293.262    1262.6942   -18555.957    51.638233    237.44829 
   13100    92.887545     -531.675     72860.06   -17281.588    1258.1433   -18539.731    52.118471    236.59249 
   13150    94.958784    -858.7236    72846.584    -17266.82    1286.1978   -18553.017    52.412694    241.86811 
   13200    94.763635   -445.64801    72823.938   -17258.069    1283.5546   -18541.624    52.761733    241.37105 
   13250     94.06243    6.7683278    72769.008   -17293.228    1274.0569   -18567.284    52.927581    239.58502 
   13300     95.99267   -259.42962    72768.408   -17303.194    1300.2016   -18603.396    52.952024    244.50151 
   13350    93.409629   -269.33944    72857.373   -17318.089    1265.2148   -18583.303    53.241975    237.92228 
   13400    94.405516   -806.66595    72855.012   -17328.365    1278.7039   -18607.069    53.240769    240.45889 
   13450     93.37099    -127.2432    72883.605    -17332.73    1264.6915   -18597.421    53.270849    237.82387 
   13500    95.842864   -467.43275    72869.262   -17252.878    1298.1725    -18551.05    53.615067    244.11994 
   13550    94.882914   -610.52296    72805.714   -17255.139    1285.1702   -18540.309    53.840314    241.67487 
   13600    96.388366   -216.31714    72797.821   -17224.876    1305.5612   -18530.437    54.396311    245.50938 
   13650    95.164487    -621.0014    72774.388   -17228.586     1288.984    -18517.57     54.77442    242.39206 
   13700    95.981859   -311.71656    72774.851   -17212.402    1300.0552   -18512.457    54.950685    244.47397 
   13750    96.375464   -493.01583    72729.076   -17220.675    1305.3865   -18526.061    54.963531    245.47652 
   13800    96.812585   -598.51188    72655.774   -17248.808    1311.3072   -18560.115    54.859371     246.5899 
   13850    96.074775   -696.47517    72637.647   -17238.109    1301.3137   -18539.423    55.017881    244.71064 
   13900     96.69012   -345.73632    72617.893   -17234.564    1309.6484   -18544.213    54.869023    246.27797 
   13950    97.050765   -184.43192    72619.239   -17252.904    1314.5333   -18567.437    55.289722    247.19657 
   14000    95.547887   -187.63686    72629.225   -17262.136    1294.1771   -18556.313    55.379822    243.36861 
   14050    94.716056   -475.52006    72564.558    -17291.14    1282.9101    -18574.05    55.624141    241.24986 
   14100    93.017965   -461.88526    72527.269   -17287.518    1259.9098   -18547.428    55.988321    236.92468 
   14150    90.848236    -316.5218    72512.438   -17330.076    1230.5213   -18560.597    56.240616     231.3982 
   14200    92.480139   -342.63634     72524.37   -17332.335    1252.6251    -18584.96    56.699869    235.55479 
   14250    91.409746   -315.69547    72524.938     -17334.7    1238.1268   -18572.827    57.151603    232.82841 
   14300    95.508364   -317.05914    72509.933   -17332.941    1293.6418   -18626.583    57.432945    243.26794 
   14350    94.191536   0.54349152    72592.056   -17323.434    1275.8056   -18599.239    57.590139    239.91387 
   14400    93.062166    -394.1555    72624.357   -17371.798    1260.5085   -18632.307    58.006415    237.03727 
   14450    94.621691   -19.413528    72671.436   -17342.314     1281.632   -18623.946    58.052722    241.00951 
   14500     92.51126   -228.09143    72710.508   -17349.333    1253.0466    -18602.38    58.148167    235.63406 
   14550    92.822119   -83.789642    72728.819   -17332.965    1257.2571   -18590.223    57.962306    236.42584 
   14600    91.807195   -244.57865    72722.219   -17350.994    1243.5102   -18594.504    57.886203    233.84075 
   14650    90.580926   -232.08023     72768.59   -17328.763    1226.9006   -18555.663    57.828666    230.71734 
   14700    95.108931   -252.41983    72770.592   -17329.399    1288.2315   -18617.631    57.991138    242.25055 
   14750    93.877036   -488.87016    72792.409   -17316.109    1271.5458   -18587.655    57.901198    239.11281 
   14800    92.362573    -486.8516    72781.982   -17341.829    1251.0327   -18592.862     57.83381    235.25534 
   14850    90.911147   -389.03784    72809.738   -17351.431    1231.3734   -18582.805    57.857946    231.55844 
   14900    93.292581    -582.3033    72863.033   -17354.211    1263.6294    -18617.84     57.88403    237.62415 
   14950    92.256568   -327.31277    72866.295   -17388.309    1249.5968   -18637.906    58.041477    234.98534 
   15000    93.719533   -414.15148    72913.606   -17341.564    1269.4124   -18610.976    58.084676    238.71163 
   15050    93.722961   -40.774699      72916.6   -17308.956    1269.4588   -18578.415    58.317447    238.72037 
   15100    91.680998    -296.5069    72969.487   -17306.357    1241.8009   -18548.158     58.40991    233.51931 
   15150    92.678572   -701.34408    72962.798   -17323.087    1255.3128     -18578.4    58.626163    236.06022 
   15200    91.809557   -681.09363    72941.811   -17289.599    1243.5422   -18533.142     58.82365    233.84676 
   15250    95.642491   -882.02546    72885.803   -17259.752    1295.4585   -18555.211    59.051065    243.60957 
   15300    96.082878   -718.25153    72897.362    -17252.53    1301.4234   -18553.954    59.343025    244.73128 
   15350    95.460232    -543.4039    72892.676   -17224.593    1292.9898   -18517.583    59.574693    243.14534 
   15400    95.094045   -354.77991    72932.956   -17251.609    1288.0299   -18539.639    59.958707    242.21263 
   15450    92.128369   -272.81227    72994.251   -17281.277    1247.8604   -18529.137    60.300601    234.65881 
   15500    92.686405   -503.81411    73057.139   -17270.689    1255.4189   -18526.108    60.660249    236.08017 
   15550    94.278297   -434.72528    73066.978    -17269.51    1276.9808   -18546.491    60.946002    240.13485 
   15600    94.367306    -841.0769     73061.48   -17285.446    1278.1864   -18563.632    61.013917    240.36157 
   15650    94.567062   -598.50762    72946.324   -17292.961     1280.892   -18573.853    61.055966    240.87037 
   15700    94.388195    -621.3398     72968.44   -17275.354    1278.4693   -18553.824    61.379731    240.41478 
   15750      93.3761    -637.7181    72984.025   -17258.113    1264.7607   -18522.874    61.651736    237.83688 
   15800    92.582007   -526.89455    72955.933   -17253.982    1254.0049   -18507.987    61.809758    235.81426 
   15850    94.185495   -205.85857    72983.935   -17260.666    1275.7238    -18536.39    61.988552    239.89848 
   15900    94.002101   -626.11177    73093.305   -17264.818    1273.2397   -18538.058    62.183623    239.43136 
   15950     97.36049   -864.42583    73081.228   -17233.534    1318.7284   -18552.262    62.337329    247.98546 
   16000    94.104571   -616.75022    73046.304   -17265.567    1274.6277   -18540.195    62.568886    239.69236 
   16050    95.725263   -517.10557    72990.153   -17263.682    1296.5796   -18560.261    62.821477     243.8204 
   16100    96.205307   -917.91764    72912.608   -17255.469    1303.0817   -18558.551    63.104448    245.04312 
   16150    96.137282   -798.05506    72850.857   -17242.665    1302.1603   -18544.826    63.382627    244.86985 
   16200    94.066046   -307.31508     72794.22    -17250.58    1274.1059   -18524.685    63.606426    239.59423 
   16250    93.818877   -551.29189    72775.049   -17246.395     1270.758   -18517.153    63.971238    238.96467 
   16300     92.76611   -662.29664    72716.762   -17236.603    1256.4985   -18493.101    64.140846    236.28319 
   16350    91.403752   -412.34118     72722.02   -17227.013    1238.0456   -18465.059    64.404042    232.81314 
   16400    95.211852   -418.26608    72759.024   -17250.147    1289.6256   -18539.772    64.352662     242.5127 
   16450    94.620736   -511.44099    72753.096    -17254.84     1281.619   -18536.459    64.361269    241.00708 
   16500    96.467464   -737.58652    72691.744   -17280.091    1306.6326   -18586.724    64.487957    245.71085 
   16550    92.706476   -428.26386    72703.983   -17315.071    1255.6908   -18570.762    64.742921    236.13129 
   16600    91.831808   -701.95739    72622.452   -17304.426    1243.8435    -18548.27     64.80941    233.90344 
   16650    91.638454   -589.70577    72581.406   -17330.027    1241.2246   -18571.252    64.743847    233.41095 
   16700    91.893645   -500.47107    72589.714   -17335.551    1244.6811   -18580.232    64.950995    234.06094 
   16750    92.498693   -519.93812    72617.809   -17344.282    1252.8764   -18597.158    65.279116    235.60205 
   16800    93.663467   -505.82292    72615.246   -17334.081     1268.653   -18602.734    65.750613    238.56883 
   16850    92.478575   -489.13317    72609.935   -17310.908    1252.6039   -18563.512    65.842606    235.55081 
   16900    90.279933   -488.58194    72593.427   -17321.541    1222.8237   -18544.364    65.986589    229.95068 
   16950    95.820981   -182.20069    72634.986   -17288.453    1297.8761   -18586.329     66.13293     244.0642 
   17000    92.490603   -466.60613    72721.566   -17322.598    1252.7668   -18575.365     66.46294    235.58145 
   17050    94.903275    -458.5087    72733.919    -17306.29     1285.446   -18591.736    66.840844    241.72673 
   17100    94.159423   -471.83783    72806.122   -17247.395    1275.3706   -18522.766    67.131523    239.83207 
   17150    92.129932   -159.78718    72832.044   -17263.088    1247.8816   -18510.969    67.067183    234.66279 
   17200     94.01266   -410.48674    72898.208   -17257.629    1273.3828   -18531.012    67.265991    239.45826 
   17250    94.719361   -624.19281    72842.812   -17240.261    1282.9549   -18523.216    67.667644    241.25828 
   17300    95.948507   -314.41009     72821.03   -17253.684    1299.6034   -18553.288    67.628237    244.38902 
   17350    96.277865   -572.01496    72845.275   -17244.339    1304.0645   -18548.404    67.921414    245.22793 
   17400    94.956711   -293.67541    72861.386   -17257.755    1286.1697   -18543.925    68.144299    241.86283 
   17450    94.803609   -296.40255     72871.67   -17247.982     1284.096   -18532.078    68.085986    241.47287 
   17500    95.207899   -759.44694    72832.168   -17243.123     1289.572   -18532.695    68.094936    242.50263 
   17550    94.689301   -726.69449    72803.724   -17252.215    1282.5477   -18534.762    68.474863    241.18172 
   17600    95.381593   -549.66712    72833.424   -17266.607    1291.9247   -18558.531    68.755886    242.94504 
   17650    94.119505   -340.70985    72806.262   -17258.311      1274.83   -18533.141    69.181847     239.7304 
   17700    97.595494   -54.932503    72809.376   -17199.804    1321.9115   -18521.716    69.612015    248.58404 
   17750    95.748372   -108.40466    72833.025   -17211.935    1296.8926   -18508.827    69.930735    243.87926 
   17800    94.569032   -436.83743     72894.43   -17219.349    1280.9187   -18500.268    70.111192    240.87538 
   17850    90.623891   -469.53638    72932.309   -17285.829    1227.4826   -18513.311    70.480071    230.82677 
   17900    91.783414   -339.98607    72958.296   -17274.925    1243.1881   -18518.113    70.671096    233.78018 
   17950    97.626122   -554.39449    72934.487   -17239.232    1322.3264   -18561.558    70.987771    248.66205 
   18000    95.458212   -172.89256    72962.597   -17219.413    1292.9625   -18512.375    70.859403     243.1402 
   18050    93.839725   -383.60274    72871.527   -17230.258    1271.0404   -18501.299     70.89424    239.01777 
   18100     97.29826   -461.79766    72914.003   -17195.414    1317.8856     -18513.3    71.139822    247.82696 
   18150    95.410471   -319.23591    72907.656   -17221.375    1292.3158   -18513.691     71.36572     243.0186 
   18200    95.270246   -404.74873    72947.856   -17227.219    1290.4165   -18517.636    71.546376    242.66143 
   18250    96.687869   -843.42048    72915.027   -17220.813    1309.6179   -18530.431    71.693804    246.27224 
   18300     94.85734   -627.80686    72836.145   -17231.405    1284.8238   -18516.229    71.887213    241.60973 
   18350    95.217692   -225.37104    72796.497   -17236.147    1289.7047   -18525.851    72.052125    242.52757 
   18400    98.498238   -565.96532    72731.439   -17244.553     1334.139   -18578.692    72.358704    250.88341 
   18450    95.183779     157.6133    72755.504   -17223.282    1289.2453   -18512.527    72.593783    242.44119 
   18500    94.963574    -125.3747     72830.59   -17237.177    1286.2627    -18523.44    72.707611    241.88031 
   18550    95.058129    -14.01846    72852.477   -17231.765    1287.5434   -18519.309    72.661616    242.12115 
   18600    93.228399   -174.87273    72860.502   -17244.978    1262.7601   -18507.738    72.969758    237.46067 
   18650    90.927496   -471.14041    72744.582   -17266.849    1231.5948   -18498.444    73.174105    231.60008 
   18700    93.557292   -437.31596    72737.748   -17271.848    1267.2149   -18539.063    73.267335    238.29839 
   18750    92.136281   -432.24354    72733.428    -17262.14    1247.9676   -18510.108     73.33594    234.67896 
   18800    93.180661   -615.77345    72736.747   -17234.603    1262.1135   -18496.716    73.528738    237.33908 
   18850     92.94931    32.597513     72732.69   -17227.156    1258.9799   -18486.135    73.700149    236.74981 
   18900    95.975681   -664.97703     72733.87    -17267.81    1299.9715   -18567.781    74.124459    244.45824 
   18950      96.8013   -219.86784     72768.84   -17242.088    1311.1543   -18553.242    74.102675    246.56116 
   19000    93.970405   -535.82324    72698.336   -17241.786    1272.8104   -18514.596    74.140639    239.35063 
   19050    94.742156   -606.15083    72695.371   -17247.157    1283.2636    -18530.42    74.201751    241.31634 
   19100    96.246271   -621.53064    72686.304   -17249.589    1303.6366   -18553.226    74.027528    245.14745 
   19150    95.358145   -705.57687    72658.705   -17234.971    1291.6071   -18526.579    74.160993    242.88532 
   19200    93.953135   -415.92503    72678.161   -17230.696    1272.5765   -18503.272    74.082887    239.30664 
   19250    90.710555   -235.73268    72680.553   -17289.582    1228.6564   -18518.238    74.210141    231.04751 
   19300    95.084584    -549.4668    72744.732    -17304.13    1287.9018   -18592.032    74.654926    242.18854 
   19350     93.19614   -595.83827    72736.667   -17306.191    1262.3232   -18568.514    74.724126    237.37851 
   19400    92.911711   -503.57783    72777.828    -17298.02    1258.4706   -18556.491    74.775107    236.65404 
   19450    93.163187   -246.75418    72817.332   -17268.488    1261.8768   -18530.365    75.265621    237.29457 
   19500    96.444088   -403.45068    72911.354   -17244.923     1306.316   -18551.239    75.704681    245.65131 
   19550    94.185675   -261.65292    72905.958    -17246.24    1275.7262   -18521.966    76.079146    239.89894 
   19600     92.72303   -499.24642    72852.973   -17244.213     1255.915   -18500.128    76.162363    236.17346 
   19650    97.695111   -694.50483    72725.459   -17215.223    1323.2608   -18538.484    76.235291    248.83777 
   19700    97.129869   -508.55369    72706.893   -17173.432    1315.6047   -18489.037    76.674999    247.39805 
   19750    97.134728    -861.6442    72720.756   -17186.378    1315.6706   -18502.049    76.909119    247.41043 
   19800    94.637135   -407.50373      72698.4   -17189.367    1281.8411   -18471.208    77.178411    241.04884 
   19850    97.706837   -604.86489    72729.838   -17232.928    1323.4197   -18556.348    77.404796    248.86764 
   19900    94.331169   -561.47057    72768.441   -17240.916    1277.6969   -18518.613    77.675578    240.26953 
   19950    92.414874   -305.91284    72762.647   -17266.028    1251.7411   -18517.769    77.782596    235.38856 
   20000     92.87879   -646.01215    72792.113    -17277.81    1258.0247   -18535.835    77.954225    236.57019 
   20050    92.064281   -148.64895    72825.936   -17266.261    1246.9924   -18513.253    78.249879    234.49557 
   20100    95.164599   -245.34711    72837.492   -17276.727    1288.9855   -18565.712    78.498058    242.39234 
   20150    90.822367   -302.42449    72756.344   -17266.428    1230.1709   -18496.599     78.62152    231.33231 
   20200    93.420845   -525.31905    72721.783   -17253.685    1265.3667   -18519.052    78.961015    237.95085 
   20250    91.603049   -559.58602    72662.624   -17293.451    1240.7451   -18534.196    79.093182    233.32077 
   20300     92.75838   -890.80498    72678.325   -17293.579    1256.3938   -18549.973    79.306118     236.2635 
   20350    94.162407   -352.40159    72628.375   -17248.223    1275.4111   -18523.634    79.741966    239.83967 
   20400    94.256887   -369.79103    72594.697   -17233.088    1276.6908   -18509.779    80.223322    240.08032 
   20450    96.349805   -625.60791    72647.777   -17224.589    1305.0389   -18529.628    80.520944    245.41116 
   20500    95.296562   -15.123273    72629.457   -17223.049     1290.773   -18513.822    80.639261    242.72846 
   20550    96.493559   -465.27393    72645.976   -17234.296     1306.986   -18541.282    81.023429    245.77732 
   20600    94.922941   -337.60573    72588.307    -17236.75    1285.7123   -18522.462     81.06845    241.77682 
   20650    94.077839   -399.35536    72598.345   -17247.622    1274.2656   -18521.887    81.215819    239.62427 
   20700    95.813652    -237.8756    72622.302   -17241.786    1297.7768   -18539.562    81.291765    244.04553 
   20750    95.188836   -668.42022    72636.164   -17269.044    1289.3138   -18558.358    81.567424    242.45408 
   20800    95.918068   -658.96172    72628.698   -17234.938    1299.1911   -18534.129    81.793285    244.31149 
   20850    93.556634   -281.47032    72598.687   -17248.503     1267.206   -18515.709    81.938353    238.29672 
   20900    94.852677   -459.58166    72610.248   -17233.009    1284.7606    -18517.77    82.293726    241.59785 
   20950    93.676517   -331.89719    72697.492   -17244.452    1268.8298   -18513.282    82.582147    238.60207 
   21000      95.9507   -309.16758    72717.323   -17199.152    1299.6331   -18498.785    82.870266    244.39461 
   21050    97.474613   -652.39662    72720.084   -17204.499    1320.2742   -18524.774    83.199325    248.27614 
   21100     94.79216   -362.79306    72769.381   -17207.172    1283.9409   -18491.113    83.076821    241.44371 
   21150    94.191608    -1021.092    72697.035   -17223.441    1275.8066   -18499.248    83.291453    239.91405 
   21200    95.975348   -421.63962    72634.136   -17205.276     1299.967   -18505.243    83.398527    244.45739 
   21250    94.687843   -489.64342    72646.757   -17225.188     1282.528   -18507.716    83.360083      241.178 
   21300    94.843418   -845.66252     72604.95   -17223.332    1284.6352   -18507.967    83.442877    241.57427 
   21350     92.92399   -681.20803    72628.771   -17243.166    1258.6369   -18501.803      83.6157    236.68532 
   21400    97.220644   -480.74572    72635.355   -17249.835    1316.8343   -18566.669    83.827138    247.62926 
   21450    93.835548   -704.21717    72694.952   -17267.297    1270.9838   -18538.281    84.278892    239.00714 
   21500    92.523343   -925.36314    72664.166   -17278.203    1253.2103   -18531.414    84.576862    235.66484 
   21550    90.642312   -769.91241    72607.432   -17313.706    1227.7321   -18541.438    84.853886    230.87369 
   21600    93.096943   -502.88448    72644.511   -17303.784    1260.9796   -18564.763     85.15024    237.12585 
   21650    90.804812    63.210604    72697.509   -17305.808    1229.9331   -18535.741    85.305532    231.28759 
   21700    92.871922   -176.02628    72707.034   -17301.531    1257.9317   -18559.462    84.938926     236.5527 
   21750    92.451901   -311.76258    72690.137   -17300.612    1252.2426   -18552.854    84.951523    235.48287 
   21800    91.654314   -664.02185    72741.102    -17288.67    1241.4394    -18530.11    85.087764    233.45135 
   21850    92.485195    -483.7106    72701.388   -17285.565    1252.6936   -18538.259     85.31379    235.56767 
   21900    93.678228   -503.21059    72714.754   -17307.712    1268.8529   -18576.565      85.4047    238.60643 
   21950    92.185789   -641.93415    72718.595    -17311.53    1248.6382   -18560.168    85.553669    234.80506 
   22000    90.703251    8.2945069    72788.073   -17280.586    1228.5575   -18509.143    86.004348    231.02891 
   22050    93.606922   -447.07614    72853.588   -17282.971    1267.8871   -18550.858    86.419478    238.42481 
   22100    93.928223   -314.03092    72910.563   -17290.032    1272.2391   -18562.271    86.666069    239.24319 
   22150    94.045376   -416.53231    72938.193   -17313.304    1273.8259    -18587.13    86.850184    239.54159 
   22200    93.120231   -473.29921    72944.755   -17313.018     1261.295   -18574.312    87.081056    237.18516 
   22250     93.20657   -457.34986    72962.729   -17294.533    1262.4644   -18556.998     87.05557    237.40508 
   22300     93.30379   -487.63689    72971.713   -17311.188    1263.7813    -18574.97    87.291165     237.6527 
   22350    93.612246   -624.30947    72979.833   -17312.413    1267.9592   -18580.372     87.33526    238.43837 
   22400    93.158142   -470.11695    73016.362   -17267.042    1261.8085   -18528.851    87.778453    237.28172 
   22450    94.396744   -549.75044    73074.125   -17259.688    1278.5851   -18538.273    88.134959    240.43655 
   22500    91.956918   -680.03603    73063.799   -17273.729    1245.5381   -18519.267     88.15184     234.2221 
   22550    96.283268   -433.20569    73029.688   -17292.539    1304.1377   -18596.676    88.161361    245.24169 
   22600    94.784866    -760.3641    72949.704   -17271.137    1283.8421    -18554.98    88.544282    241.42513 
   22650    95.194483    -421.4474      72968.7   -17296.363    1289.3903   -18585.753    88.667466    242.46846 
   22700    91.693264   -523.48527    72981.532   -17302.319     1241.967   -18544.286    88.949307    233.55056 
   22750    92.473211   -434.19872    72970.722   -17300.956    1252.5312   -18553.487    88.979366    235.53715 
   22800    94.204028   -523.93522    72882.828   -17325.684    1275.9748   -18601.659    88.915002    239.94569 
   22850    94.157753   -949.10183    72827.931   -17271.856     1275.348   -18547.204    89.015974    239.82782 
   22900    95.007026   -343.19921    72778.144    -17274.68    1286.8513   -18561.532    88.786807    241.99099 
   22950    94.519945   -518.98062    72772.468   -17244.452    1280.2538   -18524.706    89.027337    240.75035 
   23000    90.658558   -554.30918    72839.411   -17269.178    1227.9521    -18497.13    89.261202    230.91507 
   23050    95.018384   -593.95061    72835.307    -17246.31    1287.0051   -18533.316    89.359288    242.01992 
   23100    92.876551   -580.45302    72802.959   -17242.716    1257.9944    -18500.71    89.793529    236.56449 
   23150    94.673248    -343.7208    72832.584   -17241.845    1282.3303   -18524.176     90.15583    241.14083 
   23200     92.79934    -405.9513    72813.762   -17205.848    1256.9486   -18462.796    90.112214    236.36783 
   23250     91.64625   -488.87505    72750.033   -17230.134    1241.3302   -18471.464    90.013068    233.43081 
   23300    91.825793   -295.60395    72793.915    -17249.03    1243.7621   -18492.792    90.291746    233.88812 
   23350    92.967434   -631.59344    72719.588   -17244.397    1259.2254   -18503.622    90.742742    236.79598 
   23400    92.238811   -799.00904    72697.542   -17293.571    1249.3563   -18542.927    91.064814    234.94011 
   23450    94.642408    -727.9025    72679.355   -17268.678    1281.9126   -18550.591    91.305854    241.06228 
   23500    96.285031   -281.85979    72740.289   -17262.655    1304.1616   -18566.817    91.617836    245.24618 
   23550    93.701679   -635.01043    72744.505   -17220.555    1269.1706   -18489.726    91.775642    238.66616 
   23600    94.206646   -651.40213    72827.176   -17223.587    1276.0103   -18499.598    92.218365    239.95235 
   23650    95.138748    -625.9909    72780.194   -17234.229    1288.6354   -18522.865     92.44247     242.3265 
   23700    93.044345   -744.18865    72806.252   -17238.324    1260.2671   -18498.592    93.002577    236.99187 
   23750    94.515302    -410.2439    72791.033   -17220.608    1280.1909   -18500.799    93.082725    240.73853 
   23800     95.28696   -501.03561    72740.652   -17209.931    1290.6429   -18500.574    93.221835    242.70401 
   23850    93.922046   -483.07639    72709.532   -17202.017    1272.1554   -18474.173    93.582719    239.22745 
   23900    94.617129   -466.73436    72685.584   -17217.535    1281.5702   -18499.105    94.001097    240.99789 
   23950    95.234344   -423.08364    72627.307   -17263.637    1289.9302   -18553.567     94.27411    242.56999 
   24000    92.514781   -596.76003    72604.615   -17293.758    1253.0943   -18546.852      94.4284    235.64303 
   24050    93.982797   -679.11699    72605.037   -17255.854    1272.9783   -18528.832    94.920978    239.38219 
   24100    93.857026   -501.28319    72628.268   -17238.412    1271.2747   -18509.687    95.440566    239.06184 
   24150    94.504468   -565.13234    72586.533    -17234.35    1280.0442   -18514.394    95.761984    240.71093 
   24200    95.113886   -418.35218    72532.529   -17238.705    1288.2986   -18527.004    96.160515    242.26317 
   24250      94.0854    -357.2654    72628.862   -17256.247     1274.368   -18530.615    96.325646    239.64353 
   24300    93.931956   -496.26954    72641.796   -17270.128    1272.2896   -18542.418    96.628044     239.2527 
   24350    91.483064   -932.04378    72597.536   -17264.316    1239.1199   -18503.436    96.720509    233.01516 
   24400    92.102401   -781.36156    72550.867   -17290.794    1247.5087   -18538.303    96.803874    234.59266 
   24450    92.622096   -965.84959     72473.71   -17301.881    1254.5478   -18556.429    96.777547    235.91637 
   24500    95.656707   -555.97771    72447.655   -17303.858    1295.6511   -18599.509    96.990789    243.64578 
   24550    93.772832   -168.28611    72441.181   -17299.421    1270.1343   -18569.555    97.327795    238.84739 
   24600    93.786999   -606.61194    72415.715   -17302.695    1270.3262   -18573.021    97.426427    238.88348 
   24650    92.590393   -560.03368    72478.068   -17299.713    1254.1184   -18553.831    97.571059    235.83562 
   24700    92.800242   -509.26309    72424.237   -17311.718    1256.9608   -18568.678    97.867836    236.37012 
   24750    90.770995   -172.59261     72462.73    -17282.81    1229.4751   -18512.285    97.618285    231.20146 
   24800    95.025009   -623.17054    72527.121   -17288.572    1287.0948   -18575.667    97.939912     242.0368 
   24850    89.653045   -182.96252    72564.067    -17274.46    1214.3326   -18488.793    98.256471    228.35394 
   24900    92.852449   -327.70339    72601.808   -17278.783    1257.6679   -18536.451    98.391004     236.5031 
   24950    93.424095   -749.44435    72575.952   -17293.306    1265.4108   -18558.717    98.394731    237.95913 
   25000    93.968929   -732.46908    72561.385   -17281.454    1272.7904   -18554.244    98.328799    239.34687 
   25050    90.784142   -575.56685    72515.969   -17258.698    1229.6531   -18488.352    98.319115    231.23495 
   25100    93.113636   -647.48149    72491.819   -17231.198    1261.2057   -18492.404    98.420719    237.16836 
   25150     92.43099   -429.94655    72438.556   -17273.583    1251.9594   -18525.543    98.738795    235.42961 
   25200    93.993782   -765.38558    72427.391   -17299.272    1273.1271   -18572.399    99.342356    239.41017 
   25250    93.107058   -311.52401     72396.01   -17272.042    1261.1166   -18533.158    99.615625    237.15161 
   25300    93.272879   -181.44977    72442.811   -17259.263    1263.3626   -18522.626    99.698983    237.57397 
   25350    92.420932   -282.18373    72451.262   -17262.266    1251.8231   -18514.089    99.490347    235.40399 
   25400    94.819058   -354.20755    72416.372   -17277.708    1284.3053   -18562.013    99.677652    241.51222 
   25450     92.11919   -410.81499    72346.736   -17334.539    1247.7361   -18582.275    100.11533    234.63543 
   25500    91.609518    -148.2512    72321.803   -17301.727    1240.8327    -18542.56    100.38737    233.33725 
   25550    93.495627   -323.67112    72317.368   -17316.631    1266.3797   -18583.011    100.82631    238.14133 
   25600    91.043576    90.198005    72321.433   -17309.917    1233.1671   -18543.084    100.92758    231.89575 
   25650    91.646896   -346.97714    72360.671   -17304.819     1241.339   -18546.158    101.59509    233.43245 
   25700    93.078253   -386.64839    72320.723   -17318.428    1260.7264   -18579.154     102.0573    237.07824 
   25750    93.935358   -331.55035    72313.426   -17306.834    1272.3357    -18579.17    102.20235    239.26136 
   25800    92.210332   -553.64743    72247.786   -17315.309    1248.9706   -18564.279    102.30356    234.86757 
   25850    91.399075   -690.12003    72225.834    -17283.53    1237.9823   -18521.513    102.43289    232.80123 
   25900    93.944557   -557.48425    72238.842   -17263.759    1272.4603   -18536.219    102.63328    239.28479 
   25950    91.345468   -269.14103    72256.279   -17253.084    1237.2562   -18490.341    102.77735    232.66469 
   26000    94.096045   -271.67481    72270.369   -17234.807    1274.5122   -18509.319    102.71327    239.67064 
   26050    92.579611    -304.3805    72366.487   -17267.699    1253.9724   -18521.672    102.48046    235.80816 
   26100    92.737238   -506.83448    72391.895   -17258.941    1256.1074   -18515.048    102.64327    236.20965 
   26150    92.875175   -436.49766    72364.736   -17297.909    1257.9757   -18555.885    102.83386    236.56098 
   26200    91.105347   -405.44399    72328.284    -17309.75    1234.0038   -18543.754    103.09161    232.05308 
   26250    95.468878   -100.96238    72269.896   -17273.048    1293.1069   -18566.155    103.06469    243.16737 
   26300    96.163939    -117.6626    72292.463   -17264.705    1302.5214   -18567.227    103.33822    244.93775 
   26350    94.499098   -241.58281    72396.324   -17266.923    1279.9715   -18546.895    103.89075    240.69725 
   26400    93.907039   -544.76786    72434.466   -17273.319    1271.9521   -18545.271    104.30348    239.18923 
   26450    92.323353   -203.63396    72436.857   -17274.787    1250.5014   -18525.288    104.58036    235.15545 
   26500    96.204399   -272.60314    72569.487   -17293.925    1303.0694   -18596.995    104.60224     245.0408 
   26550    91.351915   -145.28859    72635.408   -17305.279    1237.3435   -18542.622    104.65142    232.68111 
   26600    97.762949    -197.8033    72750.002    -17263.27    1324.1797   -18587.449    104.92225    249.01056 
   26650    94.628367    -446.2708    72809.808   -17249.894    1281.7224   -18531.617    105.41382    241.02651 
   26700    95.713388   -606.68169    72808.629   -17260.997    1296.4188   -18557.416    105.77858    243.79016 
   26750      97.1294   -312.23559    72803.855   -17284.987    1315.5984   -18600.585    105.96302    247.39686 
   26800    94.883784   -498.19403     72851.47   -17300.722     1285.182   -18585.904    106.17288    241.67708 
   26850    95.455656   -5.5807296    72913.049    -17338.89    1292.9279   -18631.818    106.45799    243.13369 
   26900    94.263592   -143.69247    73006.385   -17338.493    1276.7816   -18615.275     106.7756     240.0974 
   26950    93.024948   -348.50133    73033.709   -17323.465    1260.0044   -18583.469    106.93547    236.94247 
   27000    92.739557   -384.25646    73071.855   -17310.705    1256.1388   -18566.844    106.66486    236.21555 
   27050     92.83859   -684.13373     73065.99   -17280.335    1257.4802   -18537.815    107.08137     236.4678 
   27100    95.212144   -604.86351    73015.461   -17270.052    1289.6295   -18559.682     107.6097    242.51344 
   27150    91.745451   -610.50805    72964.402    -17298.27    1242.6739   -18540.943    108.03085    233.68348 
   27200    95.268736   -582.62535    72970.533   -17260.232    1290.3961   -18550.628     108.4603    242.65759 
   27250     93.60999   -475.41227    73025.794   -17298.564    1267.9287   -18566.493    108.81384    238.43262 
   27300    91.616416   -272.35309    73054.289   -17333.837    1240.9261   -18574.763     109.2312    233.35482 
   27350    91.776785   -249.66601    73120.345   -17325.233    1243.0983   -18568.332    109.10873    233.76329 
   27400    92.883928   -369.84454    73147.541   -17310.296    1258.0943    -18568.39    109.03937    236.58328 
   27450    96.694817   -246.37244    73169.467   -17296.175     1309.712   -18605.887    109.19239    246.28994 
   27500    95.880165   -505.86909    73228.741   -17301.063    1298.6777   -18599.741    109.44051    244.21495 
   27550    96.375626    179.66954    73276.651   -17323.019    1305.3887   -18628.408    109.27166    245.47693 
   27600    96.328897   -180.69314    73330.008   -17282.574    1304.7557    -18587.33    109.54629    245.35791 
   27650    95.396077   -808.80485    73354.417   -17299.468    1292.1209   -18591.589    109.98796    242.98194 
   27700    95.164891   -373.18287    73344.205   -17277.075    1288.9895   -18566.064    109.74308    242.39308 
   27750    94.944041    -480.4226    73366.962    -17268.38    1285.9981   -18554.378    110.28912    241.83056 
   27800    95.125734   -168.33141    73426.895   -17300.503    1288.4591   -18588.962    110.70569    242.29335 
   27850    94.357393   -403.96614    73506.523   -17280.469    1278.0521   -18558.521    110.71932    240.33632 
   27900    93.330935   -441.07906    73468.225   -17260.309    1264.1489   -18524.458    110.93811    237.72184 
   27950    95.996629   -263.80539     73409.81   -17295.132    1300.2552   -18595.387    110.65756    244.51159 
   28000     95.59061   -865.31858    73359.357   -17281.572    1294.7558   -18576.328    111.12399    243.47743 
   28050    95.852518   -606.88511    73308.669   -17322.633    1298.3033   -18620.937    111.24814    244.14453 
   28100    93.824701   -137.39574    73267.478    -17338.63    1270.8369   -18609.467    111.09383    238.97951 
   28150    91.621627    -650.9138    73265.284   -17345.382    1240.9967   -18586.379    111.23834    233.36809 
   28200    92.469007    -125.3406    73274.857   -17319.393    1252.4743   -18571.867    111.53891    235.52644 
   28250    92.800745   -225.79287    73361.087    -17307.93    1256.9676   -18564.898    111.70036     236.3714 
   28300    93.351075   -576.35832    73361.008   -17303.263    1264.4217   -18567.685    111.60616    237.77314 
   28350    92.345382   -520.40359    73308.634   -17308.933    1250.7998   -18559.733    112.31422    235.21156 
   28400    92.149008   -418.72369    73213.237   -17349.317      1248.14   -18597.457    112.52677    234.71137 
   28450    90.871562   -656.23985    73205.828   -17349.912    1230.8372   -18580.749    112.99313    231.45761 
   28500    93.533018   -488.16353    73230.511    -17338.02    1266.8861   -18604.906    113.47177    238.23657 
   28550    92.022591   -346.06235    73242.988   -17326.251    1246.4277   -18572.679    113.65906    234.38938 
   28600     93.25281   -221.05931    73288.345   -17277.362    1263.0907   -18540.453    113.72772    237.52285 
   28650     94.17993   -569.63181    73301.336   -17302.991    1275.6484    -18578.64    113.89941    239.88431 
   28700    93.598868     -569.996    73301.145   -17308.279     1267.778   -18576.057    113.93637    238.40429 
   28750    94.420617   -426.29153    73344.788   -17288.507    1278.9085   -18567.416    114.24695    240.49736 
   28800    93.404715   -497.83885    73359.115   -17299.989    1265.1483   -18565.137    114.25167    237.90977 
   28850    91.356353   -271.21052     73356.81   -17319.789    1237.4036   -18557.193    114.11107    232.69242 
   28900    90.412555   -369.71432    73337.861   -17323.676      1224.62   -18548.296    114.19457    230.28848 
   28950    91.517819   -471.73383    73361.766   -17311.817    1239.5906   -18551.408    114.55516    233.10368 
   29000    93.436271   -788.62853     73367.75   -17316.356    1265.5757   -18581.932    115.11447    237.99014 
   29050     94.59908   -675.75178    73372.141   -17329.283    1281.3257   -18610.609    115.29065    240.95192 
   29100    91.729182   -841.24931    73383.125   -17324.665    1242.4535   -18567.119    115.27333    233.64204 
   29150    93.687071   -505.05281    73329.535   -17337.392    1268.9727   -18606.364    115.26565    238.62895 
   29200    91.709297   -521.46388     73361.46   -17315.411    1242.1842   -18557.595    115.17828    233.59139 
   29250    91.239668   -205.32042    73366.864   -17312.588    1235.8231   -18548.411    115.31342    232.39521 
   29300    93.716373   -159.75869     73440.58   -17302.765    1269.3696   -18572.134    115.19076    238.70359 
   29350    97.485444   -646.20687    73432.759   -17293.752    1320.4209   -18614.173    115.48415    248.30373 
   29400    93.961767   -251.20795    73536.536   -17286.709    1272.6934   -18559.402    115.40691    239.32863 
   29450     96.29307   -71.391661    73602.805   -17266.011    1304.2705   -18570.282    116.02403    245.26665 
   29500    89.968956   -379.44051    73624.204   -17294.942    1218.6116   -18513.554    116.19275     229.1586 
   29550    91.810033   -627.54143    73601.257   -17319.349    1243.5486   -18562.898    116.53037    233.84798 
   29600    92.640009   -479.05178    73523.879   -17328.551    1254.7905   -18583.342    116.02937      235.962 
   29650    93.514421   -472.36684     73483.62    -17324.69    1266.6342   -18591.325    116.86215     238.1892 
   29700    92.941453   -545.53123    73458.713   -17290.289    1258.8735   -18549.163    116.86676     236.7298 
   29750    93.573994   -362.51567    73439.758    -17339.32    1267.4411   -18606.761    117.04603    238.34094 
   29800    92.520478   -680.52381    73435.338   -17311.511    1253.1714   -18564.682      117.597    235.65754 
   29850     93.22353    -367.9295    73424.323    -17276.93    1262.6941   -18539.625    117.87463    237.44827 
   29900    94.272417    -346.9751    73435.951     -17293.7    1276.9011   -18570.601    117.99032    240.11988 
   29950    93.367736    -511.3079    73418.898   -17329.292    1264.6474   -18593.939    118.29344    237.81558 
   30000    94.553317   -535.33972    73374.324   -17311.671    1280.7059   -18592.377    118.48851    240.83535 
   30050    93.008851   -242.39545    73386.282   -17321.158    1259.7864   -18580.944    118.38801    236.90147 
   30100    94.844233   -293.87723    73438.524   -17312.527    1284.6463   -18597.173    118.58928    241.57634 
   30150    96.258454   -479.23531    73445.415   -17315.316    1303.8016   -18619.117     118.7855    245.17848 
   30200    94.279507     -482.065    73425.303   -17331.878    1276.9971   -18608.875    118.95245    240.13794 
   30250    92.827627    46.974692    73430.657   -17321.381    1257.3317   -18578.712    118.87745    236.43988 
   30300    94.437876   -221.79976    73473.785   -17311.818    1279.1422    -18590.96    119.13968    240.54132 
   30350    94.352179   -481.27486    73494.355   -17345.781    1277.9815   -18623.762    119.29868    240.32304 
   30400    95.904853     78.22673    73510.701     -17313.6    1299.0121   -18612.612     119.2267    244.27783 
   30450    93.648231   -157.62527    73588.806   -17352.953    1268.4466     -18621.4    119.13104    238.53002 
   30500    93.636539   -463.37152    73605.074    -17323.97    1268.2883   -18592.258    119.22793    238.50024 
   30550     95.46435   -809.37612     73551.16   -17323.685    1293.0456   -18616.731    119.24887    243.15583 
   30600    93.042116   -632.99985    73510.171    -17342.42    1260.2369   -18602.657    119.57959     236.9862 
   30650    94.315764   -740.02569    73502.272   -17347.136    1277.4882   -18624.624    119.61893    240.23029 
   30700    91.617984   -519.83268    73502.138   -17344.433    1240.9474    -18585.38    120.04027    233.35881 
   30750    92.560468   -388.37753    73531.618   -17333.008    1253.7131   -18586.721    120.56186     235.7594 
   30800    91.113865   -714.32425    73425.516   -17327.814    1234.1192   -18561.933    120.87519    232.07478 
   30850    95.035233   -364.52445    73410.468   -17320.119    1287.2333   -18607.352    120.78017    242.06284 
   30900    90.142938   -495.82482     73422.58   -17316.938    1220.9681   -18537.906    120.47779    229.60174 
   30950    92.031838   -550.16694    73420.712   -17315.973    1246.5529   -18562.526    120.69808    234.41293 
   31000    94.689324   -657.95766    73381.087   -17301.069     1282.548   -18583.617    120.83647    241.18178 
   31050     94.31753   -364.62769    73346.635   -17298.698    1277.5122    -18576.21    120.35451    240.23478 
   31100    95.036543   -704.13016    73271.146   -17315.961    1287.2511   -18603.212    120.25179    242.06617 
   31150    94.434386   -727.22666    73232.613   -17290.525     1279.095    -18569.62     121.1446    240.53243 
   31200    93.866803   -649.32293    73208.811   -17282.101    1271.4072   -18553.508    121.57644    239.08674 
   31250    92.351599   -731.81815     73146.88   -17310.509     1250.884   -18561.393    122.01103    235.22739 
   31300    91.090848   -673.28442    73072.067   -17346.756    1233.8074   -18580.563    122.31973    232.01615 
   31350    93.749315   -323.10894    73081.487   -17352.096    1269.8158   -18621.911    122.52037    238.78749 
   31400    94.209101   -399.99392    73078.055   -17365.825    1276.0435   -18641.869     122.4639    239.95861 
   31450    91.814394   -472.93276    73078.984   -17362.519    1243.6077   -18606.127    122.46016    233.85908 
   31500    94.707839   -294.52155    73058.999   -17316.246    1282.7988   -18599.045     122.7134    241.22894 
   31550    96.176839   -449.88991    73092.437   -17308.206    1302.6961   -18610.902    122.65795     244.9706 
   31600     92.55961   -260.95992    73072.245   -17338.099    1253.7015     -18591.8    123.09896    235.75721 
   31650     93.67963   -514.60822    73137.551   -17357.792    1268.8719   -18626.664    122.86852       238.61 
   31700    94.267256    -330.8338    73182.002   -17360.842    1276.8312   -18637.673    123.17047    240.10673 
   31750    94.432474    -227.1872    73220.024   -17372.639    1279.0691   -18651.708    123.50361    240.52756 
   31800    95.225457   -867.75334    73205.842    -17358.09    1289.8099   -18647.899    123.15856    242.54735 
   31850     92.65153   -334.09084    73171.007   -17396.818    1254.9465   -18651.765    123.16404    235.99134 
   31900    91.970903   -585.51683    73195.184   -17364.871    1245.7276   -18610.598    123.42123    234.25773 
   31950    92.111764   -375.06462    73179.253    -17356.54    1247.6355   -18604.175    123.52689    234.61651 
   32000    92.902597   -175.59182    73203.986   -17311.616    1258.3472   -18569.963    123.81828    236.63083 
   32050     96.82544   -289.73046    73196.256   -17261.263    1311.4813   -18572.745    123.93348    246.62265 
   32100    97.695433   -448.25489    73255.684   -17274.192    1323.2652   -18597.457    123.84784    248.83859 
   32150    95.296224   -285.78702    73246.298   -17280.148    1290.7684   -18570.917    124.04205     242.7276 
   32200    93.474598   -350.86956     73302.93   -17284.491    1266.0948   -18550.586     124.1508    238.08777 
   32250     94.70733   -567.76554    73259.056   -17280.576    1282.7919   -18563.368    124.29223    241.22764 
   32300    95.303481   -348.81252    73298.582   -17292.975    1290.8667   -18583.842    124.47732    242.74609 
   32350    92.311117   -478.21607    73361.792   -17293.768    1250.3357   -18544.104    124.99154    235.12428 
   32400    95.041048   -447.75669      73384.3     -17264.9    1287.3121   -18552.213     125.0797    242.07765 
   32450    93.073015   -610.94406    73357.313   -17305.698    1260.6555   -18566.354    125.02389     237.0649 
   32500    92.975029   -608.49698    73318.782   -17301.336    1259.3282   -18560.665    125.14696    236.81532 
   32550    90.682364   -812.82664    73232.466   -17287.644    1228.2746   -18515.918    125.73276    230.97571 
   32600    93.207964   -405.93755    73179.483   -17238.015    1262.4833   -18500.499    125.73844    237.40863 
   32650    93.836137   -800.72309    73095.522   -17260.367    1270.9918   -18531.359    125.89701    239.00863 
   32700    95.351359    -500.7196    73079.508   -17266.371    1291.5152   -18557.886    126.25195    242.86803 
   32750    94.852193   -282.58206    73066.695   -17259.581    1284.7541   -18544.335    126.74929    241.59662 
   32800     97.55535   -395.68692    73093.137   -17234.123    1321.3678   -18555.491    127.41551    248.48179 
   32850    96.625007   -644.41389    73065.513   -17175.627    1308.7665   -18484.393    127.55559    246.11213 
   32900    96.263975   -544.97613    73103.282   -17200.595    1303.8764   -18504.471    127.51107    245.19255 
   32950    93.884567   -495.69273    73107.259   -17214.346    1271.6478   -18485.993    127.27683    239.13199 
   33000    97.089944   -552.28319    73102.728   -17227.458     1315.064   -18542.522    127.51516    247.29636 
   33050    94.229737   -250.99404    73107.968   -17215.664     1276.323   -18491.987    127.45768    240.01117 
   33100    97.171805   -655.71642    73122.708   -17218.223    1316.1728   -18534.396    127.48748    247.50487 
   33150    97.369288   -628.96543     73042.43   -17212.466    1318.8476   -18531.314    127.71662    248.00787 
   33200    93.254998   -377.38277     72989.03   -17261.411    1263.1204   -18524.532    127.62867    237.52843 
   33250     91.64005   -470.93337    72981.107   -17251.945    1241.2462   -18493.191    127.59833    233.41501 
   33300    95.975525   -649.78947    72990.269   -17242.462    1299.9694   -18542.431    127.97571    244.45784 
   33350    96.155351   -459.11851    73039.816    -17286.72    1302.4051   -18589.125    128.29821    244.91587 
   33400    93.604237   -454.41213    73107.249   -17308.125    1267.8508   -18575.976    128.28592    238.41797 
   33450    92.618513   -412.02947    73072.392   -17307.647    1254.4993   -18562.147    128.54408    235.90724 
   33500       95.305   -402.31597    73073.976   -17304.458    1290.8872   -18595.346    128.48318    242.74996 
   33550    95.892733   -509.53686     73092.47   -17300.075     1298.848   -18598.923    128.63791    244.24696 
   33600    92.366827   -758.82309    73074.933   -17307.218    1251.0903   -18558.308    128.98037    235.26618 
   33650    93.312642   -363.19485    72988.618   -17285.965    1263.9012   -18549.866    129.15554    237.67525 
   33700    94.437275   -653.13548    72983.756   -17292.941    1279.1341   -18572.075    129.54764    240.53978 
   33750    94.726008   -573.57934    73001.668   -17252.809    1283.0449   -18535.854    129.72439    241.27521 
   33800    95.807008   -793.88139    72970.683   -17239.731    1297.6868   -18537.417    129.39033    244.02861 
   33850    94.110039   -12.527225    72975.987   -17264.412    1274.7017   -18539.114    129.59621    239.70629 
   33900    91.570769   -298.21586    73008.752   -17275.704    1240.3078   -18516.012    129.89016    233.23855 
   33950      92.3531   -367.82838    73036.668   -17266.374    1250.9044   -18517.279    129.93761    235.23122 
[...]
   92000    96.859269   -753.78682    72996.566   -17220.011    1311.9395   -18531.951    337.43834    246.70881 
   92050    95.266871   -965.44408    72972.256    -17275.57    1290.3708    -18565.94    337.98158    242.65284 
   92100    92.683397    -831.1631    72859.946    -17263.36    1255.3782   -18518.739    337.74419    236.07251 
   92150    91.320262     -673.644    72850.112   -17273.156    1236.9148   -18510.071    337.83661    232.60049 
   92200    93.381546   -790.73368    72785.921   -17249.192    1264.8344   -18514.026    338.25482    237.85075 
   92250    92.428975   -808.60657    72867.026   -17240.893    1251.9321   -18492.825    338.48711    235.42447 
   92300    94.961361   -150.77413     72834.59   -17222.801    1286.2327   -18509.034    338.87449    241.87468 
   92350    92.628612   -637.14669    72878.092   -17267.301    1254.6361   -18521.937    338.99527    235.93297 
   92400    89.290798   -707.58282    72775.334    -17276.46    1209.4261   -18485.886    338.57391    227.43127 
   92450    92.629139   -374.47887    72662.529   -17269.966    1254.6432    -18524.61     338.6389    235.93431 
   92500    93.944638   -265.32269    72646.789   -17206.372    1272.4614   -18478.833    339.28113      239.285 
   92550    94.564866   -593.50562    72733.172   -17187.651    1280.8623   -18468.514    339.82094    240.86477 
   92600    94.446408   -538.56332    72826.486   -17147.639    1279.2578   -18426.897    339.50199    240.56305 
   92650    95.932629   -372.33038    72828.807   -17164.569    1299.3884   -18463.958    339.42307    244.34858 
   92700    92.883193   -641.16561    72852.338   -17177.046    1258.0844    -18435.13    339.43865    236.58141 
   92750    91.490534   -175.03958    72862.118    -17200.07    1239.2211   -18439.291    339.02262    233.03419 
   92800    94.057867   -708.04348    72857.331   -17197.752    1273.9951   -18471.747    339.07755     239.5734 
   92850    94.954767   -571.77346    72855.933   -17185.598    1286.1434   -18471.742    339.19486    241.85788 
   92900    94.480213   -749.84519    72870.536   -17200.461    1279.7157   -18480.177    339.31073    240.64915 
   92950    94.694519   -563.24237    72884.369   -17150.962    1282.6184    -18433.58    340.05121    241.19501 
   93000    96.205734   -824.65139    72862.648   -17135.391    1303.0875   -18438.479    340.37602     245.0442 
   93050    96.502415   -572.94251    72765.745   -17151.265     1307.106   -18458.371    340.65741    245.79987 
   93100    95.751799   -623.55344    72763.997    -17172.28     1296.939   -18469.219    340.42743    243.88799 
   93150    94.296666    -709.2793    72697.751   -17161.934    1277.2296   -18439.163    340.91135    240.18164 
   93200    94.725412   -567.94527    72685.483   -17167.955    1283.0368   -18450.992    340.84074     241.2737 
   93250    94.907248   -701.36823    72630.356   -17203.917    1285.4998   -18489.417    341.20231    241.73685 
   93300    94.329703   -849.18063    72579.912   -17235.868     1277.677   -18513.545    341.55183    240.26579 
   93350    96.050571    -711.5965    72524.926   -17231.888    1300.9859   -18532.874    341.91385    244.64899 
   93400    92.197017   -496.81217    72487.581   -17261.656    1248.7902   -18510.446    342.45391    234.83366 
   93450    94.717914   -469.74034    72489.248   -17248.753    1282.9353   -18531.688    342.76234     241.2546 
   93500    92.204719   -546.14997    72502.697   -17267.419    1248.8946   -18516.313    342.83764    234.85327 
   93550    93.574587   -256.58468    72550.284   -17300.125    1267.4492   -18567.574    343.12646    238.34245 
   93600     93.01901   -369.89127    72552.906   -17283.446     1259.924    -18543.37     343.0087    236.92734 
   93650     92.75824   -503.28972    72510.309   -17281.278    1256.3919    -18537.67    343.00934    236.26314 
   93700    94.372075   -714.21103    72474.993   -17260.536     1278.251   -18538.787      343.733    240.37372 
   93750    95.409271    -542.5054    72458.241   -17277.484    1292.2996   -18569.783    344.15691    243.01554 
   93800    92.279485   -439.70715    72442.609   -17293.375    1249.9072   -18543.282    344.28722    235.04371 
   93850    95.234688   -494.27052     72472.42   -17248.887    1289.9349   -18538.822    344.62427    242.57086 
   93900    96.483492   -452.12671    72526.904   -17197.657    1306.8497   -18504.506    344.93609    245.75167 
   93950    95.485993   -758.16883    72519.778    -17189.87    1293.3388   -18483.209    345.44304    243.21096 
   94000    94.596598    -577.7054    72477.349   -17186.016    1281.2921   -18467.308    345.36142    240.94559 
   94050    92.225487   -605.13173    72526.862   -17217.998    1249.1759   -18467.174    345.14291    234.90617 
   94100     93.91628   -409.48763    72512.085   -17201.897    1272.0773   -18473.974    345.53497    239.21277 
   94150    92.309035   -289.45718    72510.397   -17236.106    1250.3075   -18486.414    345.74735    235.11898 
   94200    95.924208   -794.62208    72485.329   -17245.029    1299.2743   -18544.303    345.73505    244.32713 
   94250    94.986873   -258.74978    72456.523   -17212.343    1286.5783   -18498.921    346.46315    241.93966 
   94300    95.766713    18.715287    72500.261   -17214.167    1297.1411   -18511.308    346.81755    243.92598 
   94350    95.147591   -451.35373    72496.225   -17222.788    1288.7552   -18511.543    347.68312    242.34902 
   94400    96.332106    33.557316    72535.979   -17202.981    1304.7992    -18507.78    348.34591    245.36608 
   94450    94.957509   -293.24507    72603.332   -17237.893    1286.1806   -18524.073    348.68969    241.86487 
   94500    96.253444   -589.14665    72597.324   -17205.885    1303.7337   -18509.618    349.44762    245.16572 
   94550    95.417427   -215.31493    72661.412   -17177.233    1292.4101   -18469.643     349.8831    243.03632 
   94600    94.955327   -280.15359    72681.657   -17154.068     1286.151   -18440.219    350.19148    241.85931 
   94650    95.914755   -538.33903    72731.464   -17162.541    1299.1463   -18461.688     350.8673    244.30305 
   94700    93.824125   -211.26343    72723.266   -17211.561    1270.8291    -18482.39    351.21134    238.97804 
   94750    94.986628   -722.44431     72698.72   -17238.616     1286.575   -18525.191    351.18043    241.93903 
   94800    96.748862   -314.52219    72663.925   -17241.107    1310.4441   -18551.551    351.32911     246.4276 
   94850    94.551721   -525.38405    72680.871   -17249.872    1280.6842   -18530.557    351.78065    240.83129 
   94900    94.917547   -423.36391    72710.223   -17257.082    1285.6393   -18542.722    351.92967    241.76308 
   94950     92.61032   -595.59045    72742.783   -17270.866    1254.3883   -18525.254    352.09895    235.88638 
   95000    96.232467   -724.15858     72767.31   -17280.473    1303.4496   -18583.923    352.88576    245.11229 
   95050    91.606666   -529.45998    72719.986   -17315.957    1240.7941   -18556.751    352.94362    233.32998 
   95100    96.252902   -480.75204    72664.149   -17304.095    1303.7264   -18607.821    352.79707    245.16434 
   95150    94.837791   -886.09993    72609.904   -17292.457     1284.559   -18577.016    353.01563    241.55993 
   95200    93.218713   -737.69785    72504.268   -17284.332    1262.6289   -18546.961    353.19907      237.436 
   95250    95.096721   -584.80456    72444.059   -17302.454    1288.0662    -18590.52    353.61873    242.21945 
   95300    96.739626   -263.26963    72454.411   -17264.229     1310.319   -18574.548    353.23241    246.40407 
   95350    95.694467   -788.12949    72505.783   -17252.722    1296.1625   -18548.885    353.40541    243.74196 
   95400     96.66093   -414.63465    72592.146   -17272.803     1309.253   -18582.056     353.8896    246.20362 
   95450    95.149175   -621.77722    72678.861   -17253.998    1288.7766   -18542.774    354.54648    242.35306 
   95500    94.852874    -590.5916    72709.077   -17282.313    1284.7633   -18567.076     354.9863    241.59835 
   95550    94.542693   -330.23927    72645.937   -17333.762     1280.562   -18614.324    355.19408     240.8083 
   95600    91.937513   -237.26016    72615.932   -17310.449    1245.2753   -18555.724    355.09538    234.17268 
   95650    92.214274   -740.18142    72631.765   -17282.956     1249.024    -18531.98    355.78763    234.87761 
   95700    93.523709   -345.16389      72644.5   -17268.497      1266.76   -18535.257    356.43087    238.21286 
   95750    95.095924   -557.37876    72687.713   -17298.033    1288.0553   -18586.088    356.17366    242.21742 
   95800    93.758898   -233.20933    72718.737   -17284.042    1269.9456   -18553.987    356.78312     238.8119 
   95850    92.216993   -394.89688    72752.584   -17292.832    1249.0608   -18541.893    357.10464    234.88454 
   95900    90.491951   -615.78906    72746.779   -17287.345    1225.6955    -18513.04    357.00578    230.49071 
   95950    91.640468   -541.68602    72728.641   -17278.952    1241.2519   -18520.204    357.45935    233.41608 
   96000    94.763123   -256.12482    72688.787   -17275.873    1283.5476    -18559.42    357.90818    241.36975 
   96050    95.215617    -596.2875    72703.514   -17288.552    1289.6766   -18578.229    357.04633    242.52229 
   96100    93.571491    30.200617    72682.399   -17273.727    1267.4072   -18541.134    357.54215    238.33456 
   96150    94.306021   -623.94189    72746.411   -17283.345    1277.3563   -18560.702    358.47235    240.20547 
   96200    93.674262   -460.77403    72686.028   -17263.378    1268.7992   -18532.177    358.57395    238.59633 
   96250    94.393741    -273.3413    72741.878   -17284.661    1278.5444   -18563.206     358.6823     240.4289 
   96300    94.500557   -457.46678    72803.156   -17275.446    1279.9912   -18555.438    358.35589    240.70097 
   96350    97.537718   -701.67327    72809.959   -17232.377     1321.129   -18553.506    358.67495    248.43688 
   96400    94.467244   -434.51469    72800.757   -17262.441      1279.54   -18541.981    359.65727    240.61612 
   96450    95.173411   -410.23715     72795.79   -17291.837    1289.1049   -18580.941    359.75724    242.41479 
   96500    94.878014   -586.40138    72757.492   -17277.381    1285.1038   -18562.485    359.99737    241.66239 
   96550    97.226164   -547.36947    72749.517   -17225.949     1316.909   -18542.858    360.36089    247.64332 
   96600    94.940262   -547.79605    72733.486   -17270.795    1285.9469   -18556.742    360.65086    241.82094 
   96650    91.705281   -441.97497    72790.616   -17301.317    1242.1298   -18543.447    360.87567    233.58116 
   96700    96.063788   -224.71574    72827.285   -17268.388    1301.1649   -18569.553    360.83602    244.68265 
   96750    95.367191   -566.86634    72808.002   -17286.164    1291.7296   -18577.894    360.06958    242.90836 
   96800    94.009342   -190.87328    72760.703   -17295.674    1273.3378   -18569.012     360.1081     239.4498 
   96850    92.304702   -529.49781    72754.879   -17265.782    1250.2488   -18516.031    360.36379    235.10794 
   96900    93.047283   -261.22924    72764.551   -17281.947    1260.3069   -18542.254    359.83418    236.99936 
   96950     92.31738   -395.82247    72851.853   -17241.577    1250.4205   -18491.997    360.02685    235.14023 
   97000    94.854108   -421.24036    72856.615   -17238.569      1284.78   -18523.349    359.23181    241.60149 
   97050    95.305399   -505.94241    72852.136   -17211.857    1290.8927    -18502.75    359.36716    242.75097 
   97100     97.19882   -723.31491    72854.468   -17250.072    1316.5387   -18566.611    359.41433    247.57368 
   97150    94.207229   -473.05472    72864.428   -17238.741    1276.0182    -18514.76    358.98176    239.95384 
   97200    92.719612   -823.28822    72765.726   -17224.825    1255.8687   -18480.693    358.95593    236.16475 
   97250    96.873938   -589.55252    72691.166   -17223.253    1312.1382   -18535.392    358.97652    246.74617 
   97300    98.240564   -488.98117    72724.497   -17218.693    1330.6489   -18549.342     359.6385    250.22709 
   97350    94.054021    -880.9246    72708.006   -17214.011     1273.943   -18487.954     359.2444     239.5636 
   97400    97.581671   -804.47766     72703.62   -17225.088    1321.7243   -18546.812    358.93218    248.54883 
   97450    94.670466   -608.78946    72676.513   -17256.874    1282.2926   -18539.167    359.32796    241.13374 
   97500    95.733061   -333.30926    72634.639   -17240.844    1296.6852   -18537.529    359.46029    243.84026 
   97550    91.805963   -375.61204    72649.948   -17283.018    1243.4935   -18526.512    359.54807    233.83761 
   97600    91.486807   -769.70189    72682.973   -17267.352    1239.1706   -18506.523    359.72641    233.02469 
   97650     93.16762   -545.09565    72622.973   -17254.526    1261.9369   -18516.463    360.27104    237.30587 
   97700    93.609766   -1020.0804    72586.883   -17295.521    1267.9256   -18563.447    359.95257    238.43205 
   97750    92.532954   -544.07047    72583.251   -17321.584    1253.3404   -18574.925    359.65268    235.68932 
   97800    92.645446   -527.31483    72551.083    -17299.58    1254.8641   -18554.444    359.75986    235.97585 
   97850    90.825652   -291.51005    72558.267   -17282.174    1230.2154   -18512.389     359.5928    231.34067 
   97900    94.775634   -347.50024    72582.176   -17252.379    1283.7171   -18536.096    359.29817    241.40162 
   97950     93.91516   -68.777201    72583.587   -17249.649    1272.0621   -18521.711    358.92728    239.20991 
   98000    94.528181   -572.65719    72635.218   -17240.262    1280.3654   -18520.628    359.07192    240.77133 
   98050    93.755813   -324.50754    72658.994   -17241.134    1269.9038   -18511.038     359.4849    238.80404 
   98100    95.860799   -514.67106    72623.678   -17213.726    1298.4154   -18512.141     359.4723    244.16562 
   98150    97.691857   -826.54954    72550.022   -17189.152    1323.2168   -18512.369    359.16065    248.82948 
   98200    94.063019   -525.71194    72470.784    -17197.67    1274.0649   -18471.735    358.91652    239.58652 
   98250    96.605469   -187.72421    72507.325   -17188.027    1308.5018   -18496.529    359.02134    246.06236 
   98300    94.583687   -99.361436    72572.983   -17188.115    1281.1172   -18469.233    358.97395    240.91271 
   98350    93.848177   -219.18644    72617.591    -17168.37    1271.1549   -18439.524    359.15511     239.0393 
   98400    98.082239   -567.10591     72636.15   -17176.518    1328.5044   -18505.023    358.79345    249.82382 
   98450    95.157344   -167.38985    72598.199   -17190.968    1288.8873   -18479.855    359.36635    242.37386 
   98500    95.238995   -395.42111    72599.682    -17238.35    1289.9932   -18528.343    360.20872    242.58183 
   98550    94.604755   -508.02024    72563.627   -17224.662    1281.4026   -18506.064    360.42679    240.96637 
   98600     94.01346   -170.91015    72545.844   -17196.467    1273.3936   -18469.861    360.88272    239.46029 
   98650     92.32343   -410.00911    72660.249    -17188.76    1250.5025   -18439.262    361.10245    235.15564 
   98700    96.363009   -474.35509    72642.886   -17169.847    1305.2178   -18475.065    361.22026    245.44479 
   98750    95.054354    -457.5327    72606.908   -17213.539    1287.4923   -18501.031    361.04269    242.11154 
   98800    95.849834   -587.21189    72581.849   -17200.869    1298.2669   -18499.136    360.91497    244.13769 
   98850    93.822046   -238.11146    72574.326   -17224.702    1270.8009   -18495.503    361.76393    238.97274 
   98900    95.579376   -497.90992    72488.174   -17206.773    1294.6036   -18501.377    362.60593    243.44881 
   98950    94.664994   -353.11495    72455.814   -17212.874    1282.2185   -18495.092    362.92311    241.11981 
   99000    93.998204    -373.2631     72425.55   -17230.333     1273.187    -18503.52    362.96141    239.42143 
   99050    93.661684   -442.50874    72418.656   -17230.081    1268.6289    -18498.71    362.85335    238.56429 
   99100    95.801317   -497.84427    72436.981   -17217.903    1297.6098   -18515.512     363.8177    244.01412 
   99150    96.366732   -297.42763     72452.07   -17173.181    1305.2682   -18478.449    364.43539    245.45428 
   99200    98.253877   -685.91138    72460.981   -17192.649    1330.8292   -18523.478    364.71426      250.261 
   99250    97.053133   -482.00829    72431.546   -17214.698    1314.5654   -18529.264    365.19386     247.2026 
   99300    96.843676    -489.3872    72410.202   -17211.722    1311.7283   -18523.451    365.10583    246.66909 
   99350    94.353735   -513.10507    72344.239    -17226.45    1278.0026   -18504.452    365.21398      240.327 
   99400    95.080057     -455.802    72347.357   -17235.047    1287.8404   -18522.887    365.06214    242.17701 
   99450     94.53626   -769.58998     72351.24   -17218.853    1280.4748   -18499.328    365.62461    240.79191 
   99500    92.903913   -516.85192    72286.305   -17232.379     1258.365   -18490.744     366.0542    236.63418 
   99550    92.599162   -284.66752     72310.08   -17251.423    1254.2372    -18505.66    366.40979    235.85795 
   99600    95.151588    -180.5016    72337.571   -17215.799    1288.8093   -18504.608    366.71187     242.3592 
   99650     92.74139   -56.824998    72462.847   -17226.608    1256.1637   -18482.772    366.48129    236.22022 
   99700     93.76629   -270.87973    72531.502    -17210.17    1270.0457   -18480.215     366.8576    238.83073 
   99750    95.852302    27.931884    72605.537   -17208.178    1298.3003   -18506.478    366.38949    244.14398 
   99800    92.760466   -200.77594    72649.441   -17223.878     1256.422     -18480.3    366.86815    236.26881 
   99850    93.203794   -307.31662    72622.153   -17253.678    1262.4268   -18516.105    366.55515      237.398 
   99900    95.247686   -509.31668        72653   -17270.006    1290.1109   -18560.117     367.1196    242.60397 
   99950    90.733401   -320.97882    72677.173   -17271.958    1228.9658   -18500.924    367.27035     231.1057 
  100000    94.713812   -308.13232    72699.344   -17271.452    1282.8797   -18554.332    366.35622    241.24415 
Loop time of 95.965 on 32 procs for 100000 steps with 4545 atoms

Performance: 450.164 ns/day, 0.053 hours/ns, 1042.047 timesteps/s
100.0% CPU use with 32 MPI tasks x no OpenMP threads

MPI task timing breakdown:
Section |  min time  |  avg time  |  max time  |%varavg| %total
---------------------------------------------------------------
Pair    | 56.836     | 64.031     | 72.273     |  80.6 | 66.72
Neigh   | 1.2276     | 2.9231     | 5.3021     |  97.6 |  3.05
Comm    | 13.109     | 22.587     | 31.048     | 163.4 | 23.54
Output  | 0.099958   | 0.10275    | 0.11573    |   0.8 |  0.11
Modify  | 4.5958     | 5.5419     | 6.535      |  20.0 |  5.77
Other   |            | 0.7796     |            |       |  0.81

Nlocal:    142.031 ave 216 max 71 min
Histogram: 16 0 0 0 0 0 0 0 4 12
Nghost:    953.375 ave 1013 max 903 min
Histogram: 10 6 0 0 0 0 0 6 5 5
Neighs:    0 ave 0 max 0 min
Histogram: 32 0 0 0 0 0 0 0 0 0
FullNghs:  14608.4 ave 26467 max 3739 min
Histogram: 16 0 0 0 0 0 0 0 3 13

Total # of neighbors = 467470
Ave neighs/atom = 102.854
Neighbor list builds = 5664
Dangerous builds = 0

write_data		${DIR}/data.eq-${NAME}-${TEMP}
write_data		run_13/data.eq-${NAME}-${TEMP}
write_data		run_13/data.eq-het_freeze_13-${TEMP}
write_data		run_13/data.eq-het_freeze_13-240
undump          1

reset_timestep  0

unfix           2
unfix           3
unfix           4


################################################
#######         Run Simulation         #########
################################################

log				${DIR}/log.run_${NAME}
log				run_13/log.run_${NAME}
log				run_13/log.run_het_freeze_13
