LAMMPS data file via write_data, version 29 Oct 2020, timestep = 50000

6736 atoms
2 atom types

0.0 49.22 xlo xhi
0.0 49.019635930410494 ylo yhi
0.9481374169443662 59.113862583054534 zlo zhi

Masses

1 18.015
2 12.01

Atoms # atomic

5513 1 22.47816294590408 5.110563058211659 17.12890258991225 0 1 0
2043 1 24.29205454062607 23.943098653839165 14.889228984119837 0 0 0
6518 1 9.041852243123303 7.407816012904238 5.4413172250645925 1 1 1
1681 1 7.160870986721854 3.3021348523179164 5.198603099669711 0 0 1
1836 1 0.8424034689965688 10.732213227769455 6.9235993808524645 0 0 0
1917 1 18.68968810022137 3.6406942452976927 19.556694877622075 0 1 0
3232 1 6.538178709816318 2.7805419230846717 2.680175245414987 1 0 1
3599 1 10.112508292685762 23.57155679535311 9.508393002721997 1 0 0
1847 1 0.01783957994294287 3.4061561800863673 2.085412665842805 0 1 0
1834 1 19.89153508597736 22.23771095502563 9.590353002000782 0 0 0
2198 1 23.692672634713734 16.776371540345643 10.36034062940381 -1 0 1
5524 1 10.843960560150142 22.104859982585893 18.157340857887093 0 0 0
5274 1 1.1519586073481538 22.832205740519473 18.195878532988154 1 0 1
6596 1 21.867786947926795 1.5183464564085796 1.3763421446882207 0 1 1
1792 1 16.184519214750292 19.755973114184844 2.222626615565562 0 0 1
2102 1 24.34835116934913 23.490086486519118 1.7414058680976425 0 0 0
5439 1 23.583023539068826 3.139449863891496 18.71271394215412 0 1 0
3492 1 23.873982336263083 8.110820795513108 17.153545295963557 0 1 0
5468 1 0.1861134828923772 1.7595800754062678 16.80877073384002 0 1 0
479 1 0.873728585951181 9.937175047812076 2.957919816150371 0 0 0
4887 1 18.745545497078645 0.6392056326776473 2.8972983378306996 0 1 1
58 1 11.020059040700906 4.795502187738086 2.013059753425681 0 0 0
1842 1 5.425963443019121 1.97357977526678 9.496918837149284 0 1 0
3620 1 16.46354210910005 6.557573172343086 3.6702755108800527 0 0 0
232 1 15.822651652956283 12.300222426323137 20.095488716252007 0 0 0
1659 1 18.95297847072503 4.320022590185963 3.5399298664664 0 0 1
2060 1 19.856043838061378 24.393867764674535 17.343685127808403 1 0 0
4979 1 24.301171237349273 10.56899628113648 7.084430122249656 0 0 0
3137 1 3.05372577954972 11.103071082985142 4.428556768937632 0 0 1
3606 1 4.8299123932480335 10.139605243241096 6.299407261089156 1 0 0
5462 1 1.1933945598228866 23.200148640141176 2.905379808247391 0 0 0
1606 1 4.202040729318019 11.203112316424916 1.689728053123968 0 0 1
3046 1 2.9217952816107697 0.06657888480753647 5.383438863516841 0 1 1
1706 1 11.810240793431733 7.50941556299403 1.8868960804436223 1 1 0
2008 1 1.766658580077178 0.12360851088786255 18.251303786322556 0 1 0
3731 1 12.66484748931881 8.871169594460577 4.529314541464375 0 0 1
5132 1 19.417717957923525 8.627046199503777 3.811319118335288 0 0 0
1630 1 16.490053916910682 9.778314942316982 2.53081356934492 1 0 1
3025 1 21.813158756628624 7.947353897191663 2.5590947867111797 1 0 1
1533 1 22.932718608079814 10.826701515800897 4.898829055956853 0 1 0
192 1 14.568569568820763 4.232179456679901 19.46342848293948 0 0 1
99 1 23.58047332633076 10.1926780402769 2.3018048061315928 0 0 0
314 1 3.506310717463392 18.512907734439505 4.479736012969474 0 0 0
1412 1 2.8375244419864054 13.99565507988717 3.7903432828238754 0 0 1
285 1 19.87703639538235 23.39680494356061 7.0184923750873995 0 0 0
3503 1 1.0726187199941732 2.4806323345244374 8.732868577344867 1 1 0
4907 1 9.215854718184435 12.534042871024996 1.543715082766034 1 0 1
490 1 11.362099881296468 13.26194463839501 2.982039513593243 0 0 0
1424 1 9.831912197587991 14.713451076526216 5.063035435283681 0 0 1
1637 1 11.408103559250952 11.204391849392174 4.720960349859389 0 0 1
5139 1 0.25769551832756316 14.709138919473968 11.526505979184334 0 0 0
5251 1 22.728694159016477 21.44478221799427 19.192951614909703 -1 -1 0
3139 1 15.161264261574033 13.74004629879371 3.0574716939803195 0 1 1
586 1 17.27818175784668 12.461942539687405 2.5328781660623894 0 0 1
1608 1 13.751110345947712 10.390127064063698 1.9189680343544373 0 0 1
1346 1 21.384442920284528 14.499050691430435 2.021955854372882 0 1 1
4965 1 18.923134629003975 15.158603526936274 1.0920596833159837 0 0 1
2005 1 17.552137586795354 6.1967425893330965 19.86682350903534 0 1 0
1563 1 23.065208316869178 13.337318736413444 4.361823739186862 0 0 1
1913 1 5.412997741878823 20.119917377737906 3.6054335312109043 0 0 0
5376 1 3.716559874633263 6.507853788709856 18.12831102182033 1 0 0
3819 1 24.02831609807025 12.34232226800173 8.627685420040597 0 1 0
1576 1 24.149619952282162 11.501460780223773 11.195877712912248 0 0 0
149 1 8.001074265628732 18.157943006734573 3.8351770371291636 1 1 0
217 1 1.39552180740158 14.961162336109911 7.437770911021537 0 0 0
3470 1 12.815434862314588 18.357481990744915 2.9861209469147223 1 0 0
3894 1 4.632089774569995 13.789576252058671 1.397730754495563 1 0 1
137 1 14.954154723340311 16.372260182932262 3.416895736392583 0 1 0
6499 1 5.224036436727042 23.605524645398216 2.01452375393498 1 0 0
5394 1 14.792413295185424 20.38303079073971 5.126057868885511 0 1 0
1387 1 19.54689817939698 18.478812067641933 1.647236328661822 0 0 1
3422 1 20.719959205207974 19.75866909256399 6.09077963172094 0 0 1
5014 1 15.988338574159267 22.947405209853443 6.830393599842284 0 0 1
327 1 7.625728509299865 4.995461092443723 1.8768726392356627 0 1 0
1603 1 12.005563302568778 16.460075281614653 1.0888129762955163 0 0 1
1993 1 13.06887499267532 21.241561398975076 19.328994110934833 0 0 0
3294 1 2.966114631644136 23.382726857365004 8.727965672341224 0 0 1
3240 1 8.38432222629463 18.644133601862155 1.1248084323653966 1 0 1
1521 1 7.160240879788791 0.08553182153284564 5.451812621093556 0 0 1
1640 1 13.549312924332703 19.79927049381407 7.9515130335505955 0 0 1
6346 1 16.800047723182743 18.76467153798159 5.87010582997432 0 0 1
3546 1 1.2639729584564414 17.44118281225308 19.79767110939008 1 0 0
5342 1 18.33255440348689 24.03288605896353 13.019868028834312 0 0 0
211 1 1.7547361835576518 18.618545007868413 1.9293419601921593 0 0 0
6701 1 3.8394849599851275 3.3989220244614153 2.542314821590745 1 1 0
3561 1 5.7279006261122865 7.472534487711007 5.528403302115815 0 0 0
5033 1 23.863853444013472 6.322150507740786 13.081362107365067 0 0 1
5414 1 11.105514491042975 3.1658032339999664 5.758001494453938 0 1 0
1818 1 9.468397159560686 5.066064036908217 4.089965357783786 0 0 0
3464 1 19.964956983939295 3.3220455327356935 7.979803561972945 0 0 0
2980 1 1.115176549719409 1.0595228008498632 12.83067824216704 0 1 0
54 1 17.138459847732474 2.0866998340849383 4.11179864082834 0 1 0
1589 1 17.808681982118756 1.970666646547875 6.878946017182711 0 1 0
3695 1 0.9233933803030505 5.66805484805144 19.23847022074912 1 1 1
6709 1 21.00202211100818 3.70276790187415 5.577369857272393 0 1 0
5277 1 2.067448889923646 7.29520184737253 3.7175818994408085 2 0 0
2108 1 8.01583441981094 23.6396868983821 12.561404384842549 0 -1 1
5261 1 23.26719755480422 2.0188026439265596 7.085525827108929 -1 0 0
336 1 8.049897219501151 7.306200113646037 8.14840990047642 0 0 0
1601 1 6.336935020503535 7.05346308283812 2.9107466463280396 0 0 1
3200 1 11.865603481630016 6.884452457904435 6.598898405856388 0 1 1
1486 1 11.730959660293795 8.83986124022269 8.431365273071087 0 0 0
3443 1 15.090499503367894 4.543629283516542 4.465206263709954 0 0 0
27 1 13.553772293457378 4.547286417073878 6.3945546425280595 1 1 0
4685 1 18.757369036097828 6.380710040924369 5.446605319483863 0 1 1
85 1 16.499861844796232 6.985932138514736 9.100954414184908 0 1 0
1611 1 22.018540727424767 6.273138188321153 5.076433374953327 1 0 0
1871 1 22.45962556336834 9.276889901651737 11.395218123062362 0 0 1
3581 1 2.421374223948226 7.251481720603252 6.614305594023111 0 0 0
3435 1 2.5687035295693508 8.71225748145957 15.574622862571987 0 0 0
245 1 14.025415750081173 24.221843866867385 12.134679058056529 0 0 0
5258 1 8.718319246083517 10.025681519675206 2.288790665716806 0 0 0
204 1 13.905223326659959 13.313615399454255 5.787424884762949 1 0 1
213 1 9.075497310360689 9.83232143917659 4.688057457855724 0 0 1
3922 1 15.341575892469265 8.479803494177684 5.173291664611802 0 0 1
3730 1 15.736249597615076 9.426525787705721 7.777772140804996 0 0 0
1763 1 20.369379635506384 10.763708921489537 5.275614056932159 0 1 1
3430 1 20.039424089906383 11.27701443562746 8.730499980648329 0 0 1
1942 1 0.06218366755890251 20.876286916600904 6.407663825763251 0 -1 0
4980 1 4.3917236444175645 15.959652568793604 5.01862058206423 1 0 1
5479 1 5.502879626960608 15.240394339347322 7.413268136071364 0 0 0
5477 1 23.791937807901817 6.382318695407829 7.102192228762954 0 0 0
3766 1 7.049781419715999 15.835729562874956 3.9839410552358125 0 0 0
2074 1 7.679203241468045 11.18837117183429 6.513584686824236 0 1 0
3463 1 11.735938238980664 14.53591090941484 7.009442404778942 0 0 0
266 1 9.583314909064923 13.566179556895188 9.196016068182749 0 0 0
3339 1 11.025898704601858 11.347607640973724 7.4512224861395655 0 0 0
3215 1 18.688176962757662 12.820449714689566 5.257999366761799 0 1 0
159 1 18.865944531290676 15.723028434150091 5.890545165226338 0 0 0
3849 1 17.456186202717262 11.60311080863873 7.7367692299389095 0 0 0
1624 1 17.550636018268783 16.012869205635546 8.638471545994626 0 0 1
366 1 21.733760601936467 15.112048915861127 6.053231762720124 0 0 0
3863 1 21.831409734317266 13.664039121882988 8.305365388417686 -1 0 0
1716 1 2.0498178519840313 17.54848887270683 6.528092846932098 0 0 0
5533 1 3.254760768260645 18.818108189899768 8.781621478894841 1 0 0
55 1 10.701729650674634 17.41288264085556 4.75362793464186 0 0 0
3032 1 7.7315115841501365 20.025623478631626 6.011163632462297 1 0 0
3427 1 7.8429536401224 19.257513260532026 8.908770514682752 1 1 1
86 1 12.500969991744737 17.13744068777105 6.987966809068852 0 0 0
6583 1 15.864610168009971 17.25744358971086 12.505397564223847 1 0 0
358 1 15.524263903458658 13.357362288727032 8.460592332021626 0 0 0
4810 1 15.224323754557314 16.400002126857782 6.394227292864993 1 0 1
3449 1 17.93275791255072 17.278929478436893 3.5544870265340416 0 1 0
3047 1 17.499201018289835 20.14342710766056 10.225950272601764 0 0 0
170 1 18.28412581657606 21.395476766050326 5.400520183190807 0 0 0
3710 1 20.541149908047736 19.805421168779937 8.87019108472359 0 0 0
3588 1 22.885123297054825 17.563607594960086 6.150520461319155 0 0 0
3861 1 0.31402528589675216 3.1597582527403087 11.35036058198332 0 1 0
3582 1 4.567317494317528 22.03501391538338 5.589028786683694 0 0 1
236 1 8.99789242632957 22.67664115248892 5.336252577273412 0 0 0
2 1 13.202151311639838 13.882131337403287 1.2786670326872709 1 1 1
5278 1 11.496528278090727 22.080118108162907 6.253214982081461 0 0 0
1705 1 10.266635958296812 19.468823369599097 6.698581616119709 0 0 0
293 1 12.244938857844303 20.80160832076744 2.087602488880509 0 0 0
256 1 15.991353757854977 18.209867442407948 9.096439058784886 1 0 0
3331 1 14.315278431379273 24.26904750924426 5.057404591868575 1 0 1
484 1 9.490638819624877 15.2534317980243 17.94804871644315 0 1 0
3823 1 23.744452950934637 17.11775956315768 19.551038644874474 0 0 0
4729 1 23.180790567524564 21.20544620789247 5.188147471195205 0 0 1
470 1 22.141549958447555 17.387888401207082 1.7134391406864085 0 1 0
5169 1 5.214887673761474 4.421725777618453 8.902697679461447 0 1 0
141 1 4.988188382679746 4.7459612543737695 5.928584523815627 0 0 1
269 1 6.605250347139741 4.876179650605596 11.578734464682066 0 1 0
5253 1 9.636896056319951 2.730689981378216 7.8111755461185925 0 1 0
1999 1 11.442707365405308 2.429554770024056 9.826203506191645 0 1 0
4669 1 10.20578839098691 1.8788605364394384 12.005778670294534 0 1 1
3052 1 15.859678170992924 2.885758836624633 8.785523634231357 0 1 1
2172 1 12.246985178674983 1.0021049793690102 13.579111531904873 0 1 0
2235 1 19.316862088681102 0.7489817588740378 13.073119247078324 0 1 0
202 1 16.678005883577818 3.861008789120322 11.23096999165078 0 0 1
90 1 5.644056221857005 18.84151288696726 18.40362932106555 0 0 0
2272 1 14.833736479249206 22.21026761808065 1.0763281908644333 0 0 1
1986 1 19.444163079395768 4.123306784235331 10.679648250581346 0 0 0
3465 1 13.941849067684235 1.1334957720518712 9.276343718701632 0 0 0
5509 1 23.6289226678157 4.094382401078886 9.064294240818125 0 1 0
3156 1 2.2367473674684892 2.715225462410992 4.429112821760098 0 1 1
5200 1 2.3603478279081824 4.296491084870788 6.632621355934128 1 1 0
1882 1 3.461373467613716 6.817228626560377 9.132389782174696 0 1 0
5360 1 5.623159850354108 8.382823734648248 9.823150909715732 1 1 0
2054 1 8.683358387430822 3.792847928374125 13.138100393001743 0 0 0
3329 1 8.656849516705144 4.864893134339323 9.594268580832045 0 0 0
1629 1 14.383295298091262 4.937422370653992 9.089224523866429 0 0 1
3645 1 12.17201480766986 4.94061406971762 10.828647487554347 0 0 0
1955 1 16.86973485446899 7.765715121217782 11.613143048029862 0 0 0
176 1 18.759764476175114 5.841127335454116 7.991985282907695 0 0 0
3382 1 20.196574524621465 7.198995740594706 10.044651216816174 0 0 1
2189 1 19.059348352703363 8.497991957608201 12.314485419671119 -1 0 0
2014 1 22.532948330755453 1.307448789473069 10.953131563204513 0 1 0
69 1 5.842626276791553 11.171142984115853 9.204573527587609 0 1 1
3270 1 2.8661549285795616 11.1512572092754 8.457070103634974 0 0 0
1840 1 3.5658189559629214 13.836254855057668 8.872559722782636 0 0 0
234 1 8.73272382989286 9.941246202288529 8.881147134299745 0 0 0
5461 1 10.494778178223205 7.116905891216456 10.261940670756307 0 1 0
388 1 7.068427852148252 7.539453361633388 11.93148178507203 0 0 1
1819 1 10.00834468069275 7.85195185301616 12.900908799375921 0 0 0
1892 1 13.995780595688618 9.858773646422241 9.542475821661032 0 0 0
1854 1 19.933752660359243 11.342645243180637 11.657861628757892 1 0 0
4996 1 20.93771826293354 8.817373791584702 7.768249062362453 0 0 0
1335 1 6.786905609704285 22.9935537174008 20.25023482227392 0 0 0
261 1 0.00245061778843355 13.851884055112155 16.161849598792845 1 1 0
379 1 23.490751731437932 8.628358413890238 8.745344728154066 0 0 0
1896 1 22.398700002083874 22.248300465229033 13.445984731282323 1 0 0
221 1 8.926842125984916 19.519669149939578 19.274906595659974 0 0 0
3143 1 7.7424807968109075 13.781210469868098 6.555018703670521 0 0 1
480 1 7.274814728968591 14.471882035523938 10.50056358009911 0 0 0
184 1 13.086612293179394 12.41017765757036 9.379400522218853 1 0 0
508 1 11.034039364128231 12.554757373630194 11.474079632713597 0 0 0
1983 1 17.471791426487574 12.151008655368955 11.364645381449735 0 0 0
4663 1 19.678726442960627 15.072869978549061 14.106190083049782 0 -1 0
3705 1 21.348719761607985 15.226066517700765 10.352164591676829 0 0 0
228 1 2.1741169431717697 21.340603819736796 11.768682948895837 0 0 0
3397 1 4.7449234330374335 9.061346222197683 17.760185650544873 1 0 0
3839 1 1.5106504482853922 19.02304990300752 10.905195260716685 1 0 0
2077 1 6.236017463029108 16.79951005085306 11.161377162427964 1 0 0
2093 1 5.481746617560491 17.458422763602574 8.852384797803474 0 0 0
6687 1 10.822397046940228 16.298435810818393 9.614426591569357 1 -1 1
5184 1 13.32900077984452 15.233627144434942 10.950041031300321 0 0 0
1313 1 18.77100995829596 17.348924851884558 12.58934813301592 0 0 0
235 1 16.625525759965104 14.767355820299276 10.82760776354856 0 0 0
286 1 16.876271141386283 19.399477807195705 16.265617657276593 0 0 0
3583 1 19.605819218643674 17.21060107311368 9.995842668714415 0 0 0
3636 1 22.876406498334372 17.637730865770035 14.884035731520482 0 1 0
6631 1 2.604443934574882 21.078311467845182 7.299008861806204 1 0 0
1782 1 3.390567580822861 0.4752272196099279 8.393154941897246 0 1 0
199 1 5.586085695631433 23.08461338924396 11.9441825019684 0 0 0
4921 1 5.822003040401426 20.95041706454516 9.970966169343043 1 0 0
1852 1 11.019902689999928 19.474410042769883 9.84816517366951 0 0 0
101 1 12.93606380882747 22.071002849769705 10.760036604512601 0 0 0
3466 1 10.050192512921031 21.473323700776195 11.653190631878324 -1 0 0
6712 1 12.320403943838963 23.144621280682614 3.533306362673062 0 0 1
5369 1 4.092743273244001 0.753965439579686 16.31680101115826 1 1 0
5486 1 13.90186646570724 18.1770503757177 10.853041844733381 0 0 0
3501 1 19.115459138169133 20.434524425569773 12.835461584902209 1 0 0
356 1 21.84454459504135 19.27900709742556 12.8224894997712 0 0 0
2142 1 24.263246271732008 23.533937935945104 6.836842522987151 0 -1 0
278 1 22.207690334593863 23.33677199373501 10.981190817638073 0 0 0
1992 1 1.8765940389748625 5.074767460891314 12.62686595511772 0 0 0
3448 1 6.478730773016679 2.955453063361296 20.127650390060982 0 0 0
83 1 4.151965433860366 3.90863592932183 12.899073754296214 0 0 0
5313 1 8.084224156313223 1.6924511063612515 15.29103953156521 0 0 0
3189 1 10.737133243651106 0.8836270934114401 15.586776899041455 0 0 0
224 1 13.896141476543804 2.762658804641075 14.119403996714421 0 0 0
1786 1 16.402918035415297 1.9886760153951046 13.045023412788307 0 1 1
5025 1 19.171274088224994 2.987756961135636 14.810331158341674 0 0 0
6661 1 21.34066578265388 5.069191491331161 14.37697077496638 0 1 1
472 1 23.21270992016056 0.8040094585386975 15.074838019266036 0 0 0
4673 1 1.4665294111302716 6.822336899257925 10.674263595282843 1 1 0
2164 1 3.842647013474691 8.818395785326071 12.99678646352875 1 1 0
3761 1 1.5768048189656532 12.373929164563261 14.179233746658875 1 0 0
3484 1 6.025904316533579 7.776653807176086 14.583664000398066 1 0 0
3603 1 7.549216960712594 5.995667295914554 16.830089016625536 1 0 0
321 1 9.605006724630114 5.538032198554015 15.045704246109475 0 0 0
5318 1 12.254111035061221 5.401543354265222 16.10720525211751 0 1 0
5347 1 13.062094508920543 5.438789536059649 13.495884478060818 1 1 0
3044 1 15.825484099320182 5.996051487589266 13.34185101264733 0 0 1
130 1 16.805715522447098 7.024458331531487 17.3150927273612 0 1 1
24 1 17.308515553692807 5.193395164114206 15.235313839627732 0 0 0
3801 1 21.878315277931993 3.883701315461537 11.803257179755247 0 0 1
3684 1 19.99055807085505 7.412981370833362 14.853080285622429 0 1 0
349 1 1.9551430670699448 9.653960615056553 11.058499407996974 0 0 0
516 1 4.685400597652718 11.019160992160275 14.162870754020856 0 0 0
4843 1 7.4628509289228715 10.890407146492905 14.530655635784434 1 0 0
150 1 3.212497593183417 13.743372810212684 11.935389372577399 1 0 1
343 1 11.127067158052288 10.941237060392321 16.738716884158663 0 0 0
5351 1 15.26514065151504 10.032486661848642 11.725950594423512 0 1 0
360 1 14.15675389375454 8.60834663197731 14.114568801554691 0 0 0
3593 1 11.687181444401576 9.71311773326761 14.05825054182582 0 0 0
3723 1 22.651502734911276 11.275694573910073 15.185840815731162 0 0 0
3392 1 22.571647201918353 8.750732210483534 14.805857349133545 0 1 0
2017 1 4.408389803681087 14.983615510180483 17.3429569179861 0 0 0
1837 1 1.6875971114281474 16.797000437637635 12.33060445811572 0 0 0
487 1 2.0651801349056873 16.121713284994343 16.86073235165484 0 0 0
394 1 4.593052524691975 15.913123341552048 12.84437333137807 0 0 0
1923 1 5.747235942495289 12.432083158447217 11.768292242119188 1 0 0
233 1 6.02410828997054 15.249574619968264 15.188604083145727 0 0 0
5485 1 9.37161953244405 14.721797635043524 12.638199654935482 0 0 0
5185 1 9.038769374727716 10.494746223215225 11.921185177185897 0 1 0
1948 1 13.478608895031034 12.192537257166501 13.193637303107918 0 0 0
2016 1 15.27221162086567 12.556937178096106 15.435623614152782 0 1 0
600 1 12.596360811765367 15.185271594478097 13.710094401749789 1 0 0
1558 1 20.023055277505854 16.157495579310304 16.986990144580446 0 0 1
1675 1 17.736308134568766 13.027469644074195 14.010118122424888 0 0 1
482 1 17.37913707524016 16.75200954912402 17.40995491469794 0 0 0
3851 1 21.411107740490035 13.635827476704925 12.55475128657133 0 0 0
2070 1 23.03920530773922 14.939991666144975 15.378901965036038 0 1 0
1950 1 22.7467595391456 19.25196228808373 10.405649602936984 0 -1 0
2968 1 1.3973457142981933 17.741538902714396 14.698984496699913 0 0 1
3735 1 2.628495329770587 20.438814884341028 15.806729841738418 1 0 0
214 1 8.287023000214127 18.88441607854361 12.067612178232094 0 0 0
3176 1 7.1022137406293036 19.656379189539322 14.32807715247238 0 0 1
518 1 10.93486607073156 17.9192402440143 14.953723412649701 0 1 0
413 1 10.188738036351253 17.179644599573585 12.424884363534801 0 0 0
2001 1 9.278703557431914 20.83467291724516 16.090484341106393 1 1 0
218 1 14.512220035701894 16.807348540574544 14.970758119793901 0 0 0
288 1 21.31853777328684 13.522318826089986 17.1297240096554 0 0 0
3829 1 21.17115442406221 18.363434988174724 16.503729715392208 0 0 0
1747 1 21.55778297496073 4.121396560133905 2.003271979979477 0 1 0
260 1 16.758318539274377 21.076465316053383 19.500539244939652 0 0 0
1949 1 6.835578545966366 0.053458430902294414 2.1247331918602193 0 0 0
255 1 4.43549094641041 21.199645983099003 13.485240056596082 0 1 0
1830 1 14.840008881014649 23.62522277115212 16.237477952431895 1 -1 0
210 1 15.743529373352947 0.18563346667812872 19.88238566974529 0 0 0
3399 1 7.431972574348196 22.619046335532587 15.202641803177787 1 0 1
3522 1 13.615001083518855 19.956134630170766 13.202960007308315 0 0 0
544 1 14.81343741299344 21.26300114935146 17.406867276890786 0 0 0
5279 1 16.07965848104341 22.87863077382922 13.682825266962636 0 0 0
3328 1 13.391558916523051 18.830874942342728 16.064072511592784 0 0 1
2026 1 20.011051300473238 22.739247569738 14.648979494630174 1 0 0
2219 1 16.53079346031702 19.950766241765155 13.668371708971858 0 0 0
5583 1 1.3957133701337703 8.510058818675173 20.256665742573105 0 1 0
5150 1 21.45608947485288 24.074500114652025 19.824159602102828 0 0 1
3438 1 2.8659692372903263 3.319908096635019 20.026072392659607 0 0 0
1833 1 4.5088104805650016 5.287667280904225 15.4488640000901 0 0 1
146 1 4.566859777603922 3.1222338137775147 17.58648305233062 0 0 0
5275 1 7.552464624171253 22.223891515037554 2.89892437089049 0 0 0
79 1 10.425970618802104 3.645782827576001 18.761414951623994 1 0 0
1537 1 3.9244563287527487 22.848817124365702 16.84940860870757 0 0 0
2215 1 24.2914035194621 20.125460131276615 2.529456653398645 1 0 0
2047 1 12.354252084211232 2.7946586268411333 17.090781966415687 1 1 0
372 1 21.10122611510382 0.5178380055024867 17.5156693366096 1 0 0
3512 1 13.229829162945155 17.932078049021047 18.72434847864786 -1 0 0
264 1 18.913463152546484 1.9219742975041425 17.456644108250053 0 0 1
5324 1 16.021153392324084 1.4212161288898255 17.31261591814119 0 0 1
1583 1 0.5235839458663194 15.271765554504967 3.258182791271385 0 0 1
6509 1 20.308618347943195 21.446106987622176 1.2434968700438171 1 0 1
2161 1 6.21578433701855 22.368202281859936 7.589188271479483 0 0 0
190 1 7.8624765280010545 3.1255852525651964 17.512982964417503 0 1 0
3595 1 8.187957996881895 7.077448105983736 19.16151740861356 1 0 0
2009 1 12.293304913972605 8.260000224031911 17.228989233424777 0 1 0
5531 1 15.206174080693751 3.8156256851310215 16.651384534214756 0 1 0
3433 1 19.218478433025215 8.176384724820792 17.187015663939814 0 0 1
3452 1 20.672956018228366 1.0902803727781496 9.248825214619362 0 0 1
193 1 21.1602844566106 7.149311533343818 18.93391114737331 0 0 0
4 1 23.090601299808547 8.987767040350622 19.97299114153981 0 0 0
273 1 19.507554907918365 21.57803739621271 18.753720218879586 0 0 1
513 1 4.075850707440757 6.141616014907399 2.1399157095454164 0 0 0
3847 1 3.6704418792435938 12.521187697167715 16.46919131644946 1 0 0
1968 1 3.4665181385204904 1.2996384836010242 13.643302502969615 0 0 0
5398 1 0.590788171217189 23.125786251861985 13.33244852617824 1 0 0
3648 1 7.1808153236015455 9.184503907559668 17.08435570630288 -1 0 0
3848 1 8.977134710500527 10.918493266802635 18.25954936057257 1 0 0
21 1 13.051108537755178 11.999283914159982 18.575722612351708 0 0 0
3499 1 7.663244967672076 0.9777542457372979 8.225182065675089 1 0 1
5312 1 14.775480955654274 8.502695454020284 16.680563989507455 0 1 0
3451 1 15.605629672640324 10.930132323372675 17.458270199966538 1 1 0
208 1 9.156302122402286 17.616098266932678 17.57072595958139 0 0 0
2173 1 18.387725973668374 10.644890718015507 17.954314126503892 1 1 0
3344 1 18.207368050008014 21.99240892235834 2.8571419454517164 0 0 1
408 1 24.110776801573827 11.161540062413565 17.50421189734417 0 1 0
371 1 19.23219356547581 20.257031952782473 16.224452337749675 0 1 0
71 1 8.2450539163271 13.60645519240794 14.980723236065389 0 0 1
532 1 7.707750047585434 13.193248228509407 18.18753533222127 0 1 0
84 1 12.882612057146892 15.150726496154235 18.127750227269868 0 0 1
1888 1 10.932164644988921 13.856218855145523 15.878107510136061 0 0 1
3573 1 15.204584254379057 15.06164070120881 16.574051706606433 0 0 0
5400 1 19.561229146179805 11.746840655588207 15.794809281446446 0 0 0
3357 1 15.655078400780486 21.837654454235697 9.42864940390782 1 0 0
2184 1 22.36598495199006 12.178221674069034 19.445144885879742 0 1 0
5343 1 6.591918517290853 21.42294778335967 18.024142016080607 -1 0 0
1665 1 3.0636367555399566 21.38861292065146 19.443126925898632 0 0 1
534 1 6.845949455499171 17.740972728661806 16.04594321429611 0 0 0
1404 1 13.544179471223218 3.3046185149937184 2.8325221755982515 0 0 0
2007 1 13.248172392744106 0.6165876157186864 3.565215367152184 1 1 0
3802 1 21.964393857446073 18.76163598985076 18.880109258295736 0 0 0
3565 1 2.642410567190069 11.161944353931196 18.948465547331196 1 0 0
351 1 21.181254092845627 0.7382025903287638 4.080967380371571 0 0 0
3237 1 24.00683888890825 5.110290217750095 3.526350662620089 0 1 1
381 1 12.599017558117325 23.47667576282783 8.362844670539985 0 0 1
142 1 10.968218753077768 6.567827860643795 18.977511411592143 0 1 1
5268 1 22.032077828585813 22.906438459840732 2.8788319892753953 0 0 0
3478 1 0.550732080018134 23.40147344221663 10.087766684193484 1 0 0
281 1 3.210818505793828 23.916322154478653 14.375246486817831 0 0 0
308 1 11.188368335853815 21.33065407007147 14.11983338643623 1 0 0
3869 1 12.179135225121701 23.70764837075914 15.121577208493656 0 0 0
1677 1 1.5901624030166748 5.950378271222656 15.436038448981954 0 0 1
2208 1 2.9943527736555042 18.663541279808864 18.000259290649836 1 0 0
3697 1 24.29109501083076 17.424881191388465 3.7172621115821975 0 0 0
3335 1 24.409395138592107 13.364343084506402 13.37834321316795 0 1 0
2202 1 11.662785072029443 0.7941639280164393 5.611605971666977 0 1 0
3041 1 3.2595941500057326 24.13570213161345 4.262093843799228 1 0 1
4740 1 16.54305142120751 24.173196503431356 3.2721751761883233 0 0 1
2256 1 20.05345564106208 14.656031331717955 19.64559914933336 0 0 0
3380 1 0.5854785700537222 10.731791237224241 17.28171994576975 0 0 0
5249 1 7.232054237454578 14.354047510682106 1.815660915731069 1 1 0
3639 1 15.49905049783535 18.399789350682656 19.966050915445596 0 0 0
1513 1 16.002708527262058 6.824588256141532 1.0347542271797558 0 0 1
3665 1 24.58898694506377 16.662733112869063 7.779941429961328 0 0 0
5577 1 1.2327314095734108 11.800500169155208 23.081019141246472 0 0 0
418 1 0.8417785173953994 5.35380704723762 36.322833177966615 1 0 0
2278 1 19.54146160797395 24.14570015582608 36.61124972190227 0 0 0
1455 1 14.419100707945342 7.9116083088569225 38.83659838298098 0 0 0
1943 1 16.594360527351178 2.8312809286206213 20.95361694657624 0 1 0
253 1 4.299091802621148 3.058524960402384 24.60625420085339 0 0 0
1915 1 11.342494644916984 2.2606958446511447 24.52734568972036 0 1 0
2067 1 9.018797729216812 1.9581699791754958 20.745056331419228 0 1 0
3439 1 17.204018024220147 24.50476735807456 22.719706380690493 -1 0 0
525 1 1.8671512096027756 14.222342493985373 36.54880762507949 0 0 0
3146 1 0.9686547890033177 18.18071331245197 36.704914074685206 1 -1 0
2216 1 17.47392958582828 2.7864693542863463 23.648257981003265 0 1 0
429 1 11.03940315308586 16.66999876949696 38.978013719427395 0 0 0
5003 1 20.37669547671789 1.4578113530205643 21.214513130102628 0 0 0
2098 1 20.96586559055926 4.735779533230654 20.538708745632366 0 1 0
1632 1 13.59281483713142 23.18254829584872 21.29821164831514 0 0 1
373 1 5.75546242597217 12.602237260254046 20.87185468072937 0 0 0
1318 1 16.584478627040394 1.1120916699794559 37.29891980523543 0 0 -1
345 1 21.93615787955594 22.917438072347146 24.099795691206708 0 0 0
5575 1 3.597024259632237 7.69685995262592 24.14536358654003 1 1 0
469 1 7.427030866339904 5.276433439323711 23.328740602908912 0 1 0
5409 1 2.117890105691159 24.32208124969032 24.709219720994447 1 0 0
222 1 9.351973740490136 3.293736411151891 22.95288549071341 0 0 0
2046 1 11.206069661170433 5.647986156718004 22.818264578814063 0 0 0
6525 1 1.2898281774461238 6.839720307893797 38.77799632152413 1 1 -1
3592 1 20.118548742282982 24.058409314547262 22.21061100849931 0 0 0
5071 1 14.089858137965015 24.087183476632468 36.08465175453567 0 0 0
5221 1 15.643169407588205 5.585571502680331 23.09087984024028 0 1 0
3930 1 18.460186433468916 5.695260149950063 24.27389547464906 0 1 0
5382 1 23.982284595569084 4.2936957205264354 21.132642737126773 0 0 0
226 1 20.946578388698413 6.091500878268903 23.13611597105715 0 0 0
3123 1 23.794230031326343 24.173351775632472 22.436309647219172 0 0 1
334 1 7.717244627009985 9.483599363198827 23.38333717831181 0 1 0
61 1 9.168748485592632 7.2014859869549674 24.320268642006415 0 1 0
4809 1 1.7318233326901862 20.467877894143278 36.11783733837106 1 0 0
1859 1 2.4153236781587077 0.9407946938277408 23.677929042231057 1 1 0
332 1 0.9289177096219945 12.689509374823794 20.533869155850933 0 0 0
527 1 14.419285610789947 7.626608522285193 24.553269740475713 1 0 0
3553 1 18.23550537831198 12.41851405822011 23.708040993529742 0 0 1
284 1 14.706320633586506 6.513578481789264 20.718232228811043 0 0 0
499 1 13.678046559257242 0.7315728348100605 21.44491691714396 0 0 0
291 1 15.614296219163728 9.753564370270063 23.519868848097982 1 1 0
398 1 17.88258257088545 8.547625384227386 23.70153606482081 0 0 0
6562 1 17.646891096824 16.489321811138034 38.64579447069981 1 0 0
3722 1 2.108213566960985 15.405659002737275 20.963561810801544 0 0 0
6385 1 24.09488900347961 4.553780783298779 36.02132567077565 0 1 0
3777 1 22.11406827695417 10.355822803038054 22.950269305248977 0 1 0
5463 1 22.68787370042228 8.024591716519476 24.298153701050133 0 1 0
230 1 1.3793202213003875 15.7348685529842 23.81898252539329 1 0 0