
# read in water data
read_data data.liquid_mW group water extra/atom/types 1
Reading data file ...
  orthogonal box = (0.0000000 0.0000000 -0.398382) to (49.220000 49.019636 60.460382)
  2 by 2 by 3 MPI processor grid
  reading atoms ...
  4896 atoms
  reading velocities ...
  4896 velocities
  read_data CPU = 0.020 seconds

# remove area for graphite
region substrate block 0 ${XDIM} 0 ${YDIM} ${Z_LO} ${Z_HI}
region substrate block 0 49.22 0 ${YDIM} ${Z_LO} ${Z_HI}
region substrate block 0 49.22 0 49.019635930410494 ${Z_LO} ${Z_HI}
region substrate block 0 49.22 0 49.019635930410494 25 ${Z_HI}
region substrate block 0 49.22 0 49.019635930410494 25 35.062
delete_atoms region substrate
Deleted 802 atoms, new total = 4094

# Insert substrate
read_data data.graphite_test add append shift 0.0 0.0 ${Z_LO} group graphite offset 1 0 0 0 0
read_data data.graphite_test add append shift 0.0 0.0 25 group graphite offset 1 0 0 0 0
Reading data file ...
  orthogonal box = (0.0000000 0.0000000 -0.398382) to (49.220000 49.019636 60.460382)
  2 by 2 by 3 MPI processor grid
  reading atoms ...
  2760 atoms
  reading velocities ...
  2760 velocities
  read_data CPU = 0.012 seconds

write_data data.substrate_test2
System init for write_data ...
WARNING: Communication cutoff is 0.0. No ghost atoms will be generated. Atoms may get lost. (../comm_brick.cpp:167)


# Define potential
# CHECK ON THIS %%%%%%%%%%%%
#
pair_style sw
pair_coeff * * mWC.sw mW C
Reading sw potential file mWC.sw with DATE: 2019-02-27


# Delete water and ice atoms that are overlapping
#
delete_atoms overlap 2.5 water graphite
System init for delete_atoms ...
Neighbor list info ...
  update every 1 steps, delay 10 steps, check yes
  max neighbors/atom: 2000, page size: 100000
  master list distance cutoff = 7.76
  ghost atom cutoff = 7.76
  binsize = 3.88, bins = 13 13 16
  2 neighbor lists, perpetual/occasional/extra = 1 1 0
  (1) command delete_atoms, occasional, copy from (2)
      attributes: full, newton on
      pair build: copy
      stencil: none
      bin: none
  (2) pair sw, perpetual
      attributes: full, newton on
      pair build: full/bin/atomonly
      stencil: full/bin/3d
      bin: standard
Deleted 118 atoms, new total = 6736

# set timestep
#
timestep 10.0

# Define output
#
compute 1 all msd
thermo 50
thermo_style custom step temp press vol etotal ke pe c_1[4]

# Neighbor lists
#
neigh_modify delay 0 every 1 check yes


# Fix graphite atoms in place
# CHECK ON THIS %%%%%%%%%%%%%%%%%%%%
#
fix 1 graphite setforce 0.0 0.0 0.0
velocity graphite set 0.0 0.0 0.0

# Set fixes
#
fix 2 water momentum 10 linear 1 1 1 rescale
fix 3 water nph z ${PRES} ${PRES} ${PCOUPL}
fix 3 water nph z 1 ${PRES} ${PCOUPL}
fix 3 water nph z 1 1 ${PCOUPL}
fix 3 water nph z 1 1 10000.0
fix 4 water temp/csvr ${TEMP} ${TEMP} ${TCOUPL} 837492
fix 4 water temp/csvr 220 ${TEMP} ${TCOUPL} 837492
fix 4 water temp/csvr 220 220 ${TCOUPL} 837492
fix 4 water temp/csvr 220 220 5000.0 837492


# Run 0.5 ns equilibration of water
#
dump 1 all atom 1000 eq.all.${NAME}.dump
dump 1 all atom 1000 eq.all.graphite_substrate.dump
run 50000
Neighbor list info ...
  update every 1 steps, delay 0 steps, check yes
  max neighbors/atom: 2000, page size: 100000
  master list distance cutoff = 7.76
  ghost atom cutoff = 7.76
  binsize = 3.88, bins = 13 13 16
  1 neighbor lists, perpetual/occasional/extra = 1 0 0
  (1) pair sw, perpetual
      attributes: full, newton on
      pair build: full/bin/atomonly
      stencil: full/bin/3d
      bin: standard
Per MPI rank memory allocation (min/avg/max) = 4.563 | 4.694 | 4.957 Mbytes
Step Temp Press Volume TotEng KinEng PotEng c_1[4] 
       0    130.02948   -423.80608    146836.77   -38860.189    2610.4401    -41470.63            0 
      50    134.47706   -1300.2095    146650.03   -38856.965    2699.7286   -41556.693   0.64309885 
     100    136.37009   -1727.4653    145860.89   -38905.234    2737.7326   -41642.966    1.1375105 
     150    137.29737   -1080.2616    144628.77   -38936.773    2756.3485   -41693.122    1.6291815 
     200     138.3618   -409.23038    143678.03   -38960.326    2777.7177   -41738.044    2.0457873 
     250    137.29446   -534.97368    143058.46   -38981.329    2756.2901   -41737.619    2.4597522 
     300    138.23954   -589.24281    142519.74   -38994.462    2775.2633   -41769.726    2.9339498 
     350    138.37907   -135.22763    142019.87   -38978.388    2778.0644   -41756.453    3.3287528 
     400    140.38691   -415.20074    141689.33   -39031.179    2818.3733   -41849.553    3.6853736 
     450     136.4813   -394.07609    141448.12   -39055.078    2739.9652   -41795.043    4.0890313 
     500    136.32282   -274.54106    141233.77   -39081.838    2736.7836   -41818.622    4.5389896 
     550    135.40232   -197.95302    141063.46   -39104.871    2718.3038   -41823.174    4.8851605 
     600    134.79172   -367.59059    140934.57    -39124.52    2706.0457   -41830.566    5.2486396 
     650    132.87892   -133.18277    140860.49   -39147.195    2667.6448   -41814.839    5.4809658 
     700    135.71849   -123.06383    140820.06   -39143.617    2724.6512   -41868.268    5.7523576 
     750    134.03108   -255.25864    140803.51   -39172.894    2690.7753   -41863.669    6.1011771 
     800    133.41837   -237.00052    140751.14   -39180.877    2678.4746   -41859.352    6.3694456 
     850    132.13553   -250.58081    140655.89   -39198.783    2652.7206   -41851.504    6.6978285 
     900    130.41328   -106.23116    140530.45   -39221.248    2618.1451   -41839.393    6.9290715 
     950    133.51613   -97.335297    140449.74   -39239.083    2680.4372    -41919.52     7.305085 
    1000    133.71048   -42.063917    140440.31   -39230.462    2684.3389     -41914.8    7.6364243 
    1050    133.15429   -194.29983    140449.49   -39252.955     2673.173   -41926.128    7.8980211 
    1100    134.00961   -289.29701    140460.38   -39247.101    2690.3442   -41937.445     8.247433 
    1150    132.01497   -233.52866    140468.89   -39261.037    2650.3004   -41911.338    8.5207682 
    1200    131.27658     117.6287    140457.09   -39287.924    2635.4766   -41923.401    8.7626043 
    1250    130.45415    16.707288    140504.55   -39292.494    2618.9657    -41911.46    9.0863571 
    1300    130.99891   -231.91088    140601.18   -39315.891    2629.9022   -41945.793    9.4118717 
    1350    132.19294    39.915006     140691.7   -39309.147    2653.8731    -41963.02    9.6614728 
    1400    132.36158    -51.38028    140827.53   -39305.142    2657.2588   -41962.401    9.8837807 
    1450    129.85102   -51.480333    140962.68   -39302.608    2606.8574   -41909.465    10.236716 
    1500    130.50899   -316.51644    141064.91   -39338.313    2620.0665    -41958.38    10.644142 
    1550    133.39452   -259.43239    141138.95   -39322.007    2677.9957   -42000.003    10.802393 
    1600     133.2448    -125.1645    141210.85    -39332.64    2674.9901    -42007.63    11.090755 
    1650    131.67187   -392.78661    141272.13   -39345.463    2643.4124   -41988.875    11.303434 
    1700    131.54585   -418.00122    141294.86     -39358.6    2640.8824   -41999.482    11.537748 
    1750    133.91632   -260.67787    141334.91   -39334.741    2688.4713   -42023.213    11.886339 
    1800    131.84004    -329.9138    141359.17   -39363.961    2646.7885    -42010.75    12.092964 
    1850    131.78238   -423.20477    141291.76   -39352.572    2645.6309   -41998.202    12.398531 
    1900    133.17864   -349.37816    141119.98   -39360.494    2673.6619   -42034.156    12.760157 
    1950    131.90677   -193.84271    140890.19   -39364.777    2648.1281   -42012.905    13.015813 
    2000    132.76997   -257.53106    140651.48   -39340.249    2665.4574   -42005.706    13.374393 
    2050    135.38876   -175.25884    140447.81   -39355.387    2718.0317   -42073.419    13.750384 
    2100    133.27392   -75.375022    140315.94   -39363.866    2675.5746   -42039.441    14.073827 
    2150    132.69908    132.53731    140306.72   -39344.168    2664.0344   -42008.202     14.27411 
    2200    131.80671   -158.16413     140408.3   -39334.564    2646.1193   -41980.684     14.70683 
    2250     130.6045   -258.28868    140518.54     -39348.7     2621.984   -41970.683      14.8723 
    2300     133.7155   -86.298882     140615.1   -39355.222    2684.4397   -42039.661    15.143866 
    2350    133.24182   -98.452708       140716   -39357.218    2674.9302   -42032.148    15.427003 
    2400    130.55504   -157.43414    140822.86   -39376.532    2620.9911   -41997.523    15.750793 
    2450    130.08526   -90.759716    140918.14   -39419.533    2611.5598   -42031.093    15.896408 
    2500    130.29115   -248.01121    140987.53   -39444.517    2615.6933    -42060.21    16.051733 
    2550    133.01426   -176.93715    141042.56   -39411.286    2670.3617   -42081.647    16.198302 
    2600     132.0345   -71.553809     141054.9   -39431.206    2650.6924   -42081.899    16.509147 
    2650    131.39493   -246.86868    141083.68   -39451.078    2637.8526    -42088.93    16.572171 
    2700    131.49708   -147.41202    141090.72   -39451.589    2639.9033   -42091.492    16.939982 
    2750    129.89209   -132.39341    141068.76   -39441.475    2607.6819   -42049.157    17.300293 
    2800    130.05057   -276.08262    141015.08   -39467.174    2610.8636   -42078.038    17.569935 
    2850    132.02931    -76.74123    140938.96   -39469.677    2650.5882   -42120.266    17.795721 
    2900     132.3964   -241.35716    140883.27   -39475.886    2657.9578   -42133.844     18.10503 
    2950    130.38008   -331.73933    140841.96   -39483.026    2617.4786   -42100.504    18.264343 
    3000    132.21486   -347.46333     140817.8   -39501.651    2654.3132   -42155.964     18.49726 
    3050    131.24364   -288.38555    140823.86   -39498.319    2634.8153   -42133.134    18.740094 
    3100    129.87342   -170.16404    140809.69   -39472.654    2607.3071   -42079.961    19.000222 
    3150    129.02384   -224.90796    140797.23   -39458.975    2590.2511   -42049.227    19.249393 
    3200    131.05178   -184.58912    140776.83   -39453.629    2630.9635   -42084.593    19.559045 
    3250    132.85613   -282.54511    140723.33   -39449.702    2667.1871   -42116.889    19.734969 
    3300    130.92168   -102.21953    140656.04   -39463.287    2628.3516   -42091.638    19.855435 
    3350    132.31397    -89.73828    140621.92   -39495.987    2656.3029    -42152.29    20.170265 
    3400    131.32829   -13.689635    140625.07   -39513.586    2636.5147   -42150.101    20.295139 
    3450     129.8683    10.390444    140621.79   -39547.437    2607.2042   -42154.642    20.465211 
    3500    129.74543    66.917133    140649.49   -39561.053    2604.7376   -42165.791    20.573773 
    3550     128.7766   -150.00664    140717.04   -39558.904    2585.2876   -42144.192    20.853083 
    3600    130.36491   -258.64791    140796.33   -39560.473     2617.174   -42177.648     21.13599 
    3650    129.93775   -193.78014    140843.13   -39555.011    2608.5986   -42163.609    21.180913 
    3700    129.09541   -150.36189    140839.92   -39537.213    2591.6879   -42128.901    21.336236 
    3750     130.9594    -253.4251     140816.7   -39487.955    2629.1088   -42117.064    21.579319 
    3800    128.05838   -143.37432    140743.64   -39497.741    2570.8688    -42068.61    21.795138 
    3850    133.27576   -79.648178    140635.84   -39479.347    2675.6117   -42154.959    22.054583 
    3900    130.96506    -26.85527    140595.34   -39470.318    2629.2225    -42099.54    22.390222 
    3950    134.12326   -332.73529    140647.92   -39478.632    2692.6258   -42171.258    22.751379 
    4000    132.49239   -47.465022    140736.06   -39509.904    2659.8848   -42169.789     22.96457 
    4050    131.33007   -121.49874    140874.71   -39515.269    2636.5504   -42151.819    23.110439 
    4100    132.97031   -248.08607    141046.21   -39518.475    2669.4794   -42187.954    23.369481 
    4150    128.36452   -248.36976    141218.32   -39542.783    2577.0148   -42119.798    23.559885 
    4200    132.74982   -211.50601    141395.01   -39536.995    2665.0529   -42202.048    23.518598 
    4250    132.18317   -480.29594     141518.7   -39533.608     2653.677   -42187.285    23.669559 
    4300    133.38527   -640.30667    141506.09   -39532.208    2677.8101   -42210.019    23.757866 
    4350     131.4948   -479.13763    141345.25   -39538.855    2639.8575   -42178.712    23.956134 
    4400    132.96251   -194.61127    141075.79   -39537.982    2669.3228   -42207.305    24.139541 
    4450    133.91274    10.812814    140821.71   -39536.082    2688.3994   -42224.481    24.363254 
    4500    130.93567    184.20836    140686.54   -39544.448    2628.6325    -42173.08    24.533192 
    4550    131.34958   -93.349789    140685.76    -39541.91     2636.942   -42178.852    24.796846 
    4600    129.96593   -15.718841    140738.04    -39533.28    2609.1642   -42142.445    25.015953 
    4650    131.48059   -364.45739    140839.71   -39522.857    2639.5722   -42162.429    25.240481 
    4700    133.35133   -445.96616    140893.64    -39530.48    2677.1288   -42207.609    25.432704 
    4750    130.54976   -355.17694    140925.55   -39550.947    2620.8851   -42171.832    25.809271 
    4800    133.52223   -334.61638     140919.8   -39537.559    2680.5597   -42218.119    25.901077 
    4850    129.42439   -220.10612    140897.93   -39523.007    2598.2925     -42121.3    26.238358 
    4900    127.50644   -312.37859    140879.41   -39526.848    2559.7882   -42086.637    26.617477 
    4950    130.78294   -125.26789    140823.26    -39531.12    2625.5663   -42156.687     26.86001 
    5000    130.03143   -283.36004    140764.59   -39536.381    2610.4792    -42146.86    27.125528 
    5050    128.15149   -256.07841    140673.59   -39546.374     2572.738   -42119.112    27.261236 
    5100     127.9572     -286.861     140570.8   -39539.152    2568.8375   -42107.989    27.448277 
    5150    128.53561   -65.904276    140499.92   -39546.543    2580.4496   -42126.993    27.685128 
    5200     130.4088    -55.83224    140469.02   -39527.886    2618.0553   -42145.941      27.9434 
    5250    129.30944    11.956291    140477.66   -39511.679    2595.9847   -42107.663    28.136833 
    5300    130.52492   -132.86068    140605.65   -39489.597    2620.3865   -42109.984    28.231893 
    5350    128.60807   -178.93892    140750.43   -39487.423    2581.9042   -42069.327     28.57241 
    5400    127.80532   -337.72922    140841.91   -39493.449    2565.7884   -42059.237    28.828135 
    5450    129.13689   -311.95785    140865.84   -39485.576    2592.5206   -42078.097    29.043316 
    5500    128.99001   -174.88229    140844.84    -39481.78     2589.572   -42071.352    29.150523 
    5550    130.56955   -335.23862    140824.62   -39486.995    2621.2824   -42108.277    29.416918 
    5600     130.5544    -193.3582    140784.22   -39471.041    2620.9782   -42092.019    29.660462 
    5650    132.78761   -170.18388     140723.6   -39471.706    2665.8117   -42137.518    29.777808 
    5700    129.40908   -260.99977    140670.51   -39450.713     2597.985   -42048.698    30.128187 
    5750    130.02876   -260.48221    140618.78   -39455.636    2610.4257   -42066.061    30.509311 
    5800    132.06815   -2.1028083    140557.71   -39465.492     2651.368    -42116.86    30.709905 
    5850    132.47581    -54.15573    140550.07   -39475.282    2659.5519   -42134.834    31.225537 
    5900    131.84906   -245.07273    140585.11   -39451.258    2646.9694   -42098.228    31.630308 
    5950    128.52965   -267.03221    140617.39   -39441.542    2580.3298   -42021.872     31.92288 
    6000    129.05118   -149.92398    140659.97   -39454.299    2590.7999   -42045.099    32.123294 
    6050    130.58826    -411.5087    140716.98    -39478.95     2621.658   -42100.608    32.374541 
    6100    129.87875   -334.80693     140720.2   -39472.094     2607.414   -42079.508    32.630237 
    6150    131.84389   -142.01531    140690.17   -39453.484    2646.8657    -42100.35    32.851906 
    6200    131.26215   -242.61504    140635.08   -39443.115    2635.1868   -42078.302    33.100473 
    6250    131.73145    -83.72169    140573.38   -39422.599    2644.6083   -42067.207    33.425466 
    6300    130.48066   -155.77704       140506   -39438.618    2619.4979   -42058.116    33.851374 
    6350    131.29745   -18.819357    140445.07   -39451.892    2635.8956   -42087.788    34.108386 
    6400    132.45391   -240.77558    140436.43   -39420.136    2659.1122   -42079.248    34.444055 
    6450    132.20193   -161.03914    140412.43   -39431.386    2654.0537   -42085.439    34.625077 
    6500    131.86848   -257.57818    140407.51   -39418.337    2647.3594   -42065.696    34.789487 
    6550    133.78173    121.21303    140427.94   -39426.345    2685.7693   -42112.114    34.884897 
    6600    132.95393   -197.20875    140515.01   -39464.289    2669.1506   -42133.439    35.203958 
    6650    129.57083   -280.39924    140595.04   -39487.759    2601.2322   -42088.991     35.44409 
    6700    128.14333   -260.08389    140600.86   -39488.928    2572.5742   -42061.502    35.779159 
    6750    126.93883   -192.32125    140520.21   -39503.159    2548.3929   -42051.552    36.118401 
    6800    130.78024   -109.47505    140350.53   -39498.597    2625.5122   -42124.109    36.540984 
    6850    128.47208     7.021561     140175.3   -39515.559     2579.174   -42094.733    36.786119 
    6900    129.53925     48.58438    140064.49   -39523.583    2600.5984   -42124.181    37.039505 
    6950    130.95453    213.93048    140057.87   -39515.275    2629.0111   -42144.286    37.139082 
    7000    132.78593    89.560724    140172.81   -39512.784     2665.778   -42178.562    37.523252 
    7050    131.56427   -84.285948    140351.24   -39502.645    2641.2521   -42143.897    37.985927 
    7100    131.54413   -37.412977    140522.29   -39481.986    2640.8479   -42122.834    38.121674 
    7150    131.29341   -353.44038    140647.73   -39476.001    2635.8143   -42111.815     38.31127 
    7200    132.14486   -222.44909    140705.02    -39462.02     2652.908   -42114.928    38.704927 
    7250    132.33403   -146.97133    140738.85   -39417.099    2656.7056   -42073.805    38.912801 
    7300    133.94925   -188.16755    140764.07   -39423.288    2689.1324    -42112.42    39.128228 
    7350     130.6685   -95.719482    140763.63   -39431.605     2623.269   -42054.874     39.33022 
    7400    131.63617   -198.50429    140709.94   -39434.076    2642.6955   -42076.772    39.849808 
    7450    131.62309   -182.23099    140608.82   -39430.441     2642.433   -42072.874    40.234381 
    7500    132.69365   -355.39671    140528.26   -39443.704    2663.9253    -42107.63    40.570897 
    7550    132.01824   -147.55236     140473.7   -39475.805     2650.366   -42126.171    40.785559 
    7600    132.92943   -157.05335    140422.23   -39481.558    2668.6588   -42150.217    41.225215 
    7650    130.63461   -148.02594     140409.8   -39465.451    2622.5886    -42088.04     41.52813 
    7700    130.79462    49.066377     140425.2    -39464.65    2625.8008   -42090.451    41.879752 
    7750    129.94388    -12.60479    140442.29   -39479.245    2608.7216   -42087.967     42.00615 
    7800    129.47857    5.6596123    140477.87   -39508.747    2599.3802   -42108.127    42.186731 
    7850     130.2272    -188.6287    140579.95    -39491.61    2614.4094   -42106.019    42.369458 
    7900     130.2228   -82.251288    140705.45   -39466.589    2614.3212    -42080.91    42.574016 
    7950    131.08043   -254.53538    140875.58   -39475.043    2631.5387   -42106.582    42.872217 
    8000    133.18004   -234.93828    141048.12   -39479.481    2673.6899    -42153.17    43.053376 
    8050    129.13444    -162.9435    141186.53   -39485.743    2592.4716   -42078.215    43.073276 
    8100    128.40712    -397.8989    141252.41     -39508.2    2577.8699    -42086.07    43.311883 
    8150    129.92464   -522.18928    141236.61   -39532.675    2608.3353    -42141.01    43.408566 
    8200    132.88179   -407.58484    141128.93   -39510.449    2667.7023   -42178.151    43.487138 
    8250    129.81317   -300.44541     141041.6   -39512.745    2606.0974   -42118.842    43.668801 
    8300    130.02974   -281.45053    140974.63   -39503.323    2610.4453   -42113.768    43.846712 
    8350    130.14165   -218.32092    140884.17   -39536.188     2612.692    -42148.88    44.010572 
    8400    128.78747   -499.65579    140796.51   -39545.365    2585.5057   -42130.871    44.349688 
    8450    128.25253   -278.97988    140638.16   -39537.822    2574.7665   -42112.589    44.430289 
    8500    130.93549   -110.06806    140438.39   -39516.459     2628.629   -42145.088    44.697035 
    8550    129.82091   -201.54777     140279.9   -39498.695    2606.2528   -42104.948    45.046058 
    8600    130.16744   -18.415119    140197.13   -39496.289    2613.2098   -42109.499    45.306945 
    8650    131.80139   -181.85721    140161.95    -39479.21    2646.0125   -42125.223    45.285788 
    8700    135.82014   -276.55134     140111.7   -39460.254    2726.6919   -42186.946     45.66888 
    8750    131.97895     13.34464    140048.45   -39450.271    2649.5772   -42099.849    46.008454 
    8800     132.4549    -124.5561    140034.29   -39439.371    2659.1321   -42098.503    46.279479 
    8850    130.69846    85.381676    140074.24   -39428.019    2623.8703    -42051.89     46.44028 
    8900     133.2905   -142.47451    140182.84   -39430.673    2675.9076    -42106.58    46.564016 
    8950    131.95234    84.361246     140309.9   -39422.673    2649.0429   -42071.716    46.818413 
    9000    133.23807   -301.70984    140484.01   -39427.196    2674.8548   -42102.051    46.983549 
    9050    130.75482   -246.15003    140650.55   -39426.572    2625.0018   -42051.574    47.110689 
    9100    132.60815   -359.99038    140765.38   -39431.009    2662.2089   -42093.218     47.41617 
    9150    133.19345   -264.75639    140852.15    -39431.76    2673.9592   -42105.719     47.70483 
    9200    132.00916   -383.93444    140914.01   -39412.678    2650.1837   -42062.861    47.919167 
    9250    131.67029   -418.81226    140921.14   -39411.235    2643.3805   -42054.615    48.211534 
    9300    130.35693   -294.50817    140887.69   -39443.461    2617.0138   -42060.475    48.554598 
    9350    129.14029   -207.25314    140790.93   -39446.914     2592.589   -42039.503    48.816739 
    9400    135.09798     59.13045    140698.18   -39455.049     2712.194   -42167.243     49.10632 
    9450    129.61423   -398.16727     140640.5   -39458.604    2602.1036   -42060.707    49.395776 
    9500    131.21763   -122.76474     140581.8   -39449.773     2634.293   -42084.066    49.582821 
    9550    134.24982   -78.065157    140592.55   -39459.419    2695.1666   -42154.586    49.736507 
    9600    130.44412   -22.698525    140607.22   -39448.196    2618.7643    -42066.96    50.003521 
    9650    133.18538   -123.47078     140628.8    -39430.96    2673.7972   -42104.758    50.294587 
    9700    132.52373    15.636811    140671.76    -39438.85    2660.5141   -42099.364    50.554851 
    9750    130.08354   -352.83015     140762.3    -39473.57    2611.5254   -42085.095    50.898267 
    9800    129.59421   -216.28432    140814.22   -39468.794    2601.7018   -42070.495    50.954295 
    9850    130.96079   -270.01096    140846.99   -39465.593    2629.1369    -42094.73    51.239045 
    9900    129.89235   -15.994262     140860.2   -39451.328     2607.687   -42059.015     51.61802 
    9950    130.25284   -176.80851    140846.83   -39449.114    2614.9242   -42064.038    51.846681 
   10000    128.97699   -464.25007    140788.36   -39464.873    2589.3106   -42054.183    52.289039 
   10050    130.72001    -194.8272    140702.36   -39454.484     2624.303   -42078.787    52.567901 
   10100    131.25477   -231.79637    140616.51   -39457.968    2635.0386   -42093.007    52.923803 
   10150    130.38408   -87.030595     140545.5   -39454.564    2617.5589   -42072.123    53.116641 
   10200     128.7978   -364.98244    140512.37   -39462.425    2585.7132   -42048.138    53.267143 
   10250    133.35803   -112.90752    140506.37   -39440.996    2677.2633    -42118.26    53.524911 
   10300    130.71892   -234.49945    140546.89   -39427.927    2624.2811   -42052.208    53.735531 
   10350    131.56445   -615.71434    140556.85   -39434.638    2641.2557   -42075.894    54.161864 
   10400    131.40537   -159.12513     140508.8   -39447.056    2638.0621   -42085.118    54.125333 
   10450    128.68611   -508.10223    140481.12   -39420.494    2583.4709   -42003.965    54.297239 
   10500    132.39094   -167.52063    140422.56   -39424.819    2657.8482   -42082.667    54.597455 
   10550    132.03422    -31.80233    140367.55   -39431.322    2650.6868   -42082.009    54.878796 
   10600     132.8155   -28.105602    140357.69   -39430.657    2666.3716   -42097.029    55.233991 
   10650    129.55905   -390.39185    140416.46   -39448.155    2600.9958   -42049.151    55.445873 
   10700    128.68314   -63.166706    140422.76   -39463.293    2583.4112   -42046.704    55.519311 
   10750    132.65262   -281.03955    140388.73   -39461.043    2663.1016   -42124.145    55.581051 
   10800    131.39542   -57.242199    140357.49   -39463.363    2637.8624   -42101.226    55.537285 
   10850     130.9102    99.236014    140341.82   -39471.884    2628.1211   -42100.005    55.880989 
   10900    130.53795   -31.307485    140367.59   -39476.136    2620.6481   -42096.784    55.883233 
   10950     130.6162    161.17781    140404.14   -39493.725    2622.2189   -42115.943    55.886524 
   11000    132.18197    -159.1914    140480.11   -39509.685    2653.6529   -42163.338    55.944844 
   11050    130.21496   -177.34526    140594.45   -39511.841    2614.1638   -42126.004    56.326048 
   11100    131.68339   -95.312437     140726.5   -39538.936    2643.6435   -42182.579    56.545168 
   11150    128.98635   -135.76373    140844.45   -39536.435    2589.4984   -42125.933    56.920072 
   11200    128.92448   -493.98502    140932.56   -39527.639    2588.2563   -42115.896    57.032004 
   11250    128.18091   -345.65648    140946.36   -39526.874    2573.3287   -42100.203    57.312992 
   11300    128.35468   -8.4890795    140898.21    -39539.06    2576.8172   -42115.878    57.498378 
   11350    131.60494   -99.336174    140851.25   -39544.864    2642.0686   -42186.932    57.899356 
   11400    130.24311   -180.20111    140811.96   -39552.525    2614.7288   -42167.254    58.377254 
   11450    131.70177   -115.04878     140782.2   -39542.867    2644.0126   -42186.879    58.640686 
   11500     132.4689   -265.96477    140763.34   -39497.469    2659.4133   -42156.883    58.688381 
   11550    132.43335   -204.38678    140777.02   -39502.886    2658.6996   -42161.586    58.931171 
   11600    129.94219    8.3382422    140809.66   -39528.033    2608.6877   -42136.721    59.067295 
   11650    132.24668   -480.66825    140837.59   -39563.506    2654.9521   -42218.458    59.133324 
   11700    130.34865   -94.248339    140825.31   -39554.949    2616.8476   -42171.797    59.260232 
   11750    129.64682   -275.26182     140802.6   -39581.951    2602.7579   -42184.708    59.526434 
   11800    128.53752   -277.16656     140772.9   -39598.882    2580.4879    -42179.37    59.651804 
   11850    129.60424   -143.84958    140719.45   -39603.177     2601.903   -42205.081    60.009534 
   11900    131.82671    -150.8247    140684.37   -39593.305    2646.5209   -42239.826    60.247361 
   11950    131.40723   -172.42937    140688.92   -39595.967    2638.0995   -42234.067    60.204856 
   12000    132.12242   -6.4730956    140707.69   -39597.248    2652.4574   -42249.705    60.263125 
   12050    130.51454   -84.943152     140751.6   -39618.101    2620.1779   -42238.279    60.450568 
   12100     130.6499   -106.95632    140765.17   -39595.364    2622.8955   -42218.259     60.70039 
   12150     127.2515   -129.64673    140790.33   -39595.002    2554.6701   -42149.672    61.111987 
   12200    130.57591   -341.88019    140884.59   -39578.464    2621.4101   -42199.874    61.370944 
   12250    131.59206   -469.26149    140948.19   -39580.221    2641.8101   -42222.031    61.572154 
   12300    131.86895   -260.06398    140948.79   -39546.638    2647.3689   -42194.007    61.667613 
   12350    131.34564   -333.12217    140918.33    -39572.02    2636.8629   -42208.883    62.016623 
   12400    131.42799   -294.17614    140832.57   -39548.325    2638.5162   -42186.842    62.099621 
   12450    130.91656   -10.659038    140710.49   -39549.255    2628.2489   -42177.504    62.298479 
   12500    128.70196   -84.577355    140623.06   -39569.838     2583.789   -42153.627    62.595952 
   12550    129.76168   -152.37257    140551.45   -39551.818    2605.0637   -42156.882    62.599828 
   12600    129.44495   -258.39697    140511.34    -39568.18    2598.7052   -42166.885    62.804154 
   12650    131.28838   -174.44046    140512.64   -39562.526    2635.7134    -42198.24    62.886903 
   12700    129.40659   -396.09776    140530.18   -39564.714    2597.9351   -42162.649    62.970813 
   12750    130.13541   -57.517364    140539.82   -39553.797    2612.5666   -42166.363    63.089029 
   12800    130.17813    54.119354    140565.74   -39568.948    2613.4244   -42182.372    63.358459 
   12850    130.28147   -231.81379       140633   -39574.466     2615.499   -42189.965    63.712491 
   12900    131.54828   -224.99469    140694.86   -39580.271    2640.9312   -42221.203    63.890099 
   12950    130.06024   -140.99804    140749.34   -39573.415    2611.0577   -42184.473    64.105869 
   13000    131.46632   -315.00649     140822.2    -39554.89    2639.2858   -42194.176     64.36607 
   13050    130.32751   -70.727164    140876.07   -39532.657    2616.4232   -42149.081    64.610044 
   13100    130.69033   -111.18041    140971.04   -39525.394    2623.7071   -42149.101    65.026919 
   13150    129.81163   -180.70119    141080.88   -39545.549    2606.0666   -42151.616    65.275453 
   13200    129.59157   -420.64446    141223.97   -39528.755    2601.6486   -42130.403      65.5099 
   13250    127.28657   -339.61039    141350.03   -39531.718    2555.3741   -42087.092    65.709029 
   13300    128.82711   -322.59792    141439.74   -39536.914    2586.3017   -42123.216    65.849922 
   13350    131.51993   -159.60392    141504.18   -39525.741    2640.3621   -42166.103     65.85526 
   13400    131.99102   -351.11553    141550.65   -39537.693    2649.8194   -42187.512    66.182852 
   13450    129.08377   -283.61057    141512.87   -39521.857    2591.4542   -42113.311    66.281795 
   13500    127.37992   -282.93723    141379.88   -39532.627    2557.2481   -42089.875    66.386872 
   13550    131.02906   -267.19898    141198.45   -39521.723    2630.5074    -42152.23     66.68938 
   13600    132.74385   -334.42094    140986.12   -39530.655    2664.9331   -42195.588    67.005048 
   13650    130.71809   -32.918515    140739.98   -39552.419    2624.2645   -42176.684    66.635801 
   13700    129.50954   -242.03206     140505.9   -39548.287    2600.0019   -42148.289    66.877205 
   13750    131.13526    81.407098     140334.6   -39535.236    2632.6395   -42167.876    67.088874 
   13800    129.67923    26.625583    140258.87    -39523.01    2603.4084   -42126.419    67.340346 
   13850    131.45177     -236.583    140263.34   -39520.822    2638.9936   -42159.816    67.497316 
   13900    130.17566    -304.9555    140311.29   -39534.911    2613.3748   -42148.286    67.837809 
   13950     129.2372   -358.26922    140325.87   -39524.384    2594.5345   -42118.919    67.984087 
   14000    131.60082   -258.50347    140303.27   -39534.467     2641.986   -42176.453    68.079755 
   14050    130.01751   -282.97832    140264.74   -39532.403    2610.1998   -42142.602    68.386616 
   14100    129.39456   -108.11614    140208.98   -39520.694    2597.6935   -42118.388    68.799816 
   14150     129.2148   -191.42362    140164.51   -39529.141    2594.0849   -42123.226    69.200121 
   14200    128.82694   -231.66063    140143.34   -39544.823    2586.2982   -42131.121    69.385515 
   14250    126.21767   -98.828691    140141.31   -39569.945    2533.9151   -42103.861    69.744038 
   14300     128.1634   -39.681268    140167.77   -39549.578     2572.977   -42122.555    69.600606 
   14350    127.22324   -203.12345     140241.5   -39575.019    2554.1028   -42129.122    69.696975 
   14400    128.09981   -238.57585    140310.81    -39565.85    2571.7005   -42137.551    69.929983 
   14450    129.39105   -232.31599    140385.25   -39554.818     2597.623   -42152.441    70.227983 
   14500    129.09096   -231.61323    140487.49   -39537.714    2591.5986   -42129.313    70.477833 
   14550    129.69221   -292.05699    140607.04   -39559.193    2603.6692   -42162.862    71.034476 
   14600    130.43746   -145.85163    140708.08   -39558.185    2618.6307   -42176.816    71.235545 
   14650     128.3238   -278.50572    140806.49   -39553.153    2576.1972    -42129.35    71.528621 
   14700    131.85648   -235.76016    140839.35   -39535.367    2647.1184   -42182.485     72.09786 
   14750    128.85338   -67.805941    140800.39   -39537.465     2586.829   -42124.294    72.200045 
   14800    129.09821   -378.64438    140747.09    -39528.55    2591.7441   -42120.294    72.492085 
   14850    129.35837   -338.91105    140677.91   -39541.759     2596.967   -42138.726    72.718296 
   14900     128.5737    72.496571    140592.73   -39535.157    2581.2143   -42116.372    72.959922 
   14950    127.96876   -226.37529    140601.84   -39556.423    2569.0696   -42125.493    73.138536 
   15000    129.38977    -54.55426    140636.42    -39573.13    2597.5975   -42170.727    73.176564 
   15050    130.45702   -117.09817    140663.56   -39583.213    2619.0232   -42202.236    73.212648 
   15100    129.18276   -167.84762    140669.19   -39597.589    2593.4416   -42191.031    73.435679 
   15150    126.99568   -249.30522    140620.64   -39604.637    2549.5343   -42154.171    73.593323 
   15200     127.8782    86.940738    140497.16   -39634.614    2567.2515   -42201.866    73.512384 
   15250    129.63898    73.009952    140442.56   -39620.754    2602.6005   -42223.354    73.728514 
   15300    129.14338   -203.35515    140447.85   -39616.512    2592.6509   -42209.163    73.857029 
   15350    127.24075   -287.76322    140433.06   -39620.207    2554.4542   -42174.661    73.623996 
   15400    130.46068   -100.42294    140419.51   -39642.925    2619.0967   -42262.022    73.948824 
   15450    125.60482   -258.30634    140401.86   -39700.397    2521.6117   -42222.009    74.156571 
   15500    129.33939   -118.93876    140380.26   -39716.423    2596.5859   -42313.009    74.396719 
   15550    127.55849   -62.150875    140370.95   -39705.195    2560.8331   -42266.028    74.578794 
   15600    126.45939   -146.36029    140395.26     -39683.2    2538.7677   -42221.968    74.922793 
   15650      127.249    70.497676     140422.4    -39645.21    2554.6198    -42199.83     74.85996 
   15700    130.04363   -50.852476    140473.49   -39624.927    2610.7242   -42235.651    75.107125 
   15750    129.37705    55.421259    140574.94   -39617.576     2597.342   -42214.918    75.075242 
   15800    129.68413   -136.09343    140733.15   -39622.606    2603.5069   -42226.112    75.295012 
   15850    129.87357   -185.30507    140883.75   -39633.266    2607.3101   -42240.576      75.5001 
   15900    131.20326   -492.19313    141016.64   -39628.301    2634.0045   -42262.306    75.917549 
   15950    131.21902     -359.934    141073.72   -39622.403     2634.321   -42256.724    76.094309 
   16000    127.96279   -278.25801    141075.02   -39622.263    2568.9497   -42191.213    76.198152 
   16050    129.40851   -253.00084    141059.28   -39621.509    2597.9735   -42219.483    76.361812 
   16100    127.47834   -286.16732    141000.89   -39624.542     2559.224   -42183.766    76.718015 
   16150    129.60883   -231.82445    140933.39   -39612.735    2601.9952    -42214.73    77.196032 
   16200    132.74612   -193.50096    140911.59   -39571.756    2664.9786   -42236.735    77.746871 
   16250    128.69158   -228.47267     140941.9   -39578.397    2583.5807   -42161.978    78.185838 
   16300    130.04583   -108.37818    141013.83   -39568.336    2610.7683   -42179.104    78.392354 
   16350    131.61389   -335.73716    141097.96   -39552.723    2642.2482   -42194.972    78.394811 
   16400    130.55836   -342.80495    141111.79   -39571.076    2621.0577   -42192.134    78.562756 
   16450    132.00637   -388.37391    141107.82   -39557.756    2650.1277   -42207.884    78.865665 
   16500    132.14709    -129.6628    141052.18   -39564.503    2652.9527   -42217.456    79.254963 
   16550    128.40591   -156.93992    141030.43   -39589.553    2577.8457   -42167.398    79.377988 
   16600    130.90013   -394.80643    141052.01   -39597.239     2627.919   -42225.158    79.641088 
   16650    129.03406   -218.96404    141089.58   -39606.159    2590.4562   -42196.615    79.757684 
   16700    129.87001   -334.47623    141169.13   -39587.297    2607.2386   -42194.536    80.357881 
   16750    131.68376   -310.36238    141225.96   -39584.337     2643.651   -42227.988    80.801486 
   16800     130.7026   -262.47876    141190.02   -39565.487    2623.9535   -42189.441    80.993222 
   16850    130.91717   -258.59867    141106.37   -39557.874     2628.261   -42186.135    81.233958 
   16900    130.76828   -73.917963    140970.41   -39580.028     2625.272     -42205.3    81.225877 
   16950    130.17706    109.32702    140835.64   -39575.368    2613.4029    -42188.77    81.607271 
   17000    130.80032   -165.79723    140743.48   -39591.592    2625.9153   -42217.507    81.586827 
   17050    128.92591    61.816272     140715.2   -39567.475    2588.2852    -42155.76    81.784473 
   17100    134.10352   -268.35524    140761.87   -39567.172    2692.2294   -42259.402     82.02577 
   17150    131.18366   -195.72681    140804.12   -39577.182     2633.611   -42210.793    82.401941 
   17200    128.44622   -84.586825    140861.09   -39576.279     2578.655   -42154.934    82.605882 
   17250     130.1032   -309.20192    140937.94    -39597.55      2611.92    -42209.47    82.944663 
   17300    129.42227   -250.56709    140995.53   -39605.914    2598.2498   -42204.164     82.99299 
   17350    127.72271   -412.81574    141025.88   -39622.095    2564.1299   -42186.225      83.0576 
   17400    129.15655   -324.91621    140978.24   -39626.876    2592.9154   -42219.792    83.026914 
   17450    127.83208   -475.71632    140902.18   -39625.459    2566.3257   -42191.785    83.121586 
   17500    127.55853   -514.16489    140754.21   -39669.027    2560.8339    -42229.86    83.404465 
   17550    128.31636   -131.83583    140489.54   -39668.975    2576.0478   -42245.022    83.491512 
   17600    129.72823    101.01155    140250.07   -39663.803    2604.3923   -42268.196    83.541696 
   17650    128.37442    74.538644    140150.45   -39647.857    2577.2135    -42225.07    83.860208 
   17700    128.27248     6.274188    140195.51   -39649.385    2575.1669   -42224.552     84.17508 
   17750    127.99394   -115.00103    140341.05   -39682.603     2569.575   -42252.178    84.377516 
   17800    129.08727   -364.78088    140487.95   -39678.556    2591.5244   -42270.081    84.401376 
   17850    127.75018     -476.813    140554.03   -39697.298    2564.6815   -42261.979    84.443228 
   17900    128.30794   -198.97711    140536.57   -39683.513    2575.8789   -42259.392    84.417587 
   17950    128.20671   -194.52889     140461.8   -39693.889    2573.8465   -42267.735    84.957133 
   18000    129.97764   -177.94657    140356.95   -39707.636    2609.3994   -42317.035    85.173886 
   18050    127.43672   -29.585881    140274.52   -39725.617    2558.3884   -42284.005     85.10193 
   18100      126.656   -139.60432    140224.76   -39720.462    2542.7149   -42263.177    85.407654 
   18150    129.46425   -285.92128    140221.57   -39724.808    2599.0927     -42323.9    85.498456 
   18200    129.95406    12.026047    140255.42   -39736.183    2608.9259   -42345.109    85.777032 
   18250    128.83921    19.091932    140365.08   -39763.361    2586.5445   -42349.905    86.218024 
   18300    129.60487    43.208661    140572.51   -39762.017    2601.9156   -42363.933    86.483811 
   18350    128.93676   -94.894705     140858.8    -39753.18     2588.503   -42341.683    86.886861 
   18400    129.31659   -248.41588    141149.38   -39765.807    2596.1284   -42361.936    87.160116 
   18450    129.20847   -213.28713    141391.38   -39767.416    2593.9577   -42361.374     87.31466 
   18500    127.36499   -425.79096    141563.93   -39748.445    2556.9484   -42305.393    87.577996 
   18550     127.5457   -428.35734    141676.54    -39737.26    2560.5763   -42297.836    88.110721 
   18600      128.518    -568.1274    141669.58   -39721.752    2580.0959   -42301.848    88.574366 
   18650    128.78293    -269.4735    141580.88   -39717.272    2585.4147   -42302.686    88.765339 
   18700     127.5927   -419.09174    141468.43    -39694.01    2561.5198    -42255.53    89.134236 
   18750    130.24801   -371.30096    141318.99   -39666.816    2614.8272   -42281.644    89.416083 
   18800    129.90511   -109.19371       141210   -39665.757    2607.9432     -42273.7    89.635294 
   18850    127.50659   -1.8218768    141161.86   -39662.224    2559.7911   -42222.015    89.562993 
   18900    128.36492    -163.8501    141262.77   -39691.315    2577.0227   -42268.337    89.989212 
   18950    127.11621   -276.05531    141405.91   -39711.128    2551.9539   -42263.082    90.365085 
   19000    129.67599   -215.65351     141504.8   -39690.211    2603.3434   -42293.554    90.260682 
   19050    129.71799   -556.95816    141611.56   -39704.253    2604.1867    -42308.44    90.661608 
   19100    126.40881   -313.64503    141661.73   -39702.643    2537.7525   -42240.396    90.884831 
   19150    128.37488   -389.76316     141595.3   -39695.809    2577.2228   -42273.032     91.08597 
   19200    129.13776   -200.67801    141460.44   -39668.933    2592.5382   -42261.471    91.068099 
   19250    128.47557    -159.7335    141310.73   -39694.932    2579.2442   -42274.176    91.143944 
   19300    129.01455    -274.2617    141129.52   -39669.565    2590.0645    -42259.63    91.358636 
   19350    128.02244    173.91346    140957.67   -39668.386    2570.1472   -42238.533    91.496945 
   19400    128.15625   -300.52649    140843.07   -39664.228    2572.8336   -42237.062    91.724145 
   19450    130.48923   -149.53029     140724.4   -39654.606    2619.6699   -42274.276    92.017626 
   19500    128.60897    -190.6283     140668.7   -39667.671    2581.9222   -42249.593    92.295668 
   19550    130.72854    -107.3809    140666.52   -39696.433    2624.4743   -42320.907    92.215445 
   19600    129.85499   -308.80003    140707.78   -39692.245     2606.937   -42299.182    92.478457 
   19650    129.80639   -60.537107    140709.61   -39680.223    2605.9613   -42286.184    92.690066 
   19700    129.90451   -152.25201    140716.43   -39693.307    2607.9311   -42301.238    92.993085 
   19750    132.25047      -258.69     140743.9   -39680.194    2655.0281   -42335.222    93.364754 
   19800    127.65837   -317.50329    140767.89   -39692.498    2562.8383   -42255.336    93.638572 
   19850    130.58969   -122.42556     140769.9   -39681.384    2621.6867    -42303.07    93.954168 
   19900    129.97628   -322.77763    140788.52   -39672.268    2609.3721    -42281.64    94.195215 
   19950    128.55196    96.635542    140770.14   -39666.389    2580.7778   -42247.167    94.365271 
   20000    128.71928   -189.12807    140805.81   -39687.411    2584.1368   -42271.548    94.598567 
   20050    128.20947   -316.17097    140864.19   -39697.501    2573.9021   -42271.403    95.125672 
   20100    127.56183   -169.68417    140868.46   -39709.335    2560.9001   -42270.236    95.491101 
   20150    125.38716   -19.764819    140809.22   -39721.788    2517.2421    -42239.03    95.536766 
   20200    128.45019   -64.659785    140721.08   -39711.141    2578.7347   -42289.876    95.961563 
   20250    129.09631    17.322618    140643.52   -39716.153    2591.7059   -42307.859    96.008258 
   20300    127.47846    59.703097    140605.38   -39709.898    2559.2265   -42269.124    95.905205 
   20350    129.67056    106.82413    140644.89   -39685.111    2603.2345   -42288.345    96.055727 
   20400    126.97998     -11.9481    140762.87   -39684.905    2549.2191   -42234.124    96.444852 
   20450      127.502   -133.01605    140881.38   -39699.324    2559.6991   -42259.023     96.63687 
   20500    128.40227   -450.92323    140929.01    -39700.96    2577.7726   -42278.733    96.717879 
   20550    127.40454   -274.60009     140886.4   -39686.664    2557.7425   -42244.406    96.890837 
   20600    130.19153   -240.15913     140792.6   -39681.397    2613.6933    -42295.09     97.17152 
   20650    129.51567   -10.275344    140681.27    -39686.11    2600.1249   -42286.235    97.436835 
   20700    126.04929    112.28113    140617.53   -39680.474    2530.5347   -42211.009    97.848682 
   20750     127.9688    64.927652    140635.22   -39647.263    2569.0704   -42216.333    98.121225 
   20800    128.68199   -127.38075    140705.79    -39670.76    2583.3882   -42254.148    98.427029 
   20850    129.83853   -309.74137    140814.72   -39651.138    2606.6066   -42257.744    98.477095 
   20900    129.45298    -132.8003    140888.16   -39649.516    2598.8664   -42248.382       98.658 
   20950    129.75292   -286.50853    140918.77   -39668.066    2604.8879   -42272.954    98.822094 
   21000    128.49941   -242.60943    140896.24   -39665.631    2579.7227   -42245.354    99.067462 
   21050     126.9748   -214.92628    140835.52   -39672.267    2549.1151   -42221.382    99.267277 
   21100    125.67359   -215.97767    140730.65   -39658.406    2522.9923   -42181.398    99.292252 
   21150    131.25874   -201.46552    140625.84   -39662.814    2635.1185   -42297.933    99.667274 
   21200    129.86636    43.668487    140554.33   -39655.349    2607.1654   -42262.515    100.06114 
   21250    129.43195    38.864453    140533.41   -39656.702    2598.4442   -42255.146    100.31737 
   21300    129.63249    32.247576    140509.49   -39651.492    2602.4701   -42253.962    100.77848 
   21350    129.94554   -57.627472    140501.36   -39648.067     2608.755   -42256.822    101.04091 
   21400    129.55803    155.10143    140560.07   -39653.957    2600.9753   -42254.932    101.03701 
   21450    128.88787    -139.7877    140714.67   -39634.238    2587.5214    -42221.76    101.30306 
   21500    130.25176    -187.5672    140873.92    -39631.98    2614.9026   -42246.883    101.36607 
   21550    127.04692    -304.7841    140972.82   -39621.443    2550.5629   -42172.006    101.45401 
   21600    130.74017   -275.28476    140941.55   -39617.706    2624.7076   -42242.413     101.5319 
   21650    128.17695   -16.414311    140804.59   -39592.329    2573.2491   -42165.578     101.6994 
   21700    131.78081    63.937765    140657.45   -39581.879    2645.5994   -42227.479    102.01485 
   21750     132.6695   -208.77076    140552.05   -39584.476    2663.4404   -42247.917    102.13151 
   21800    128.09714     17.71798    140490.37   -39565.849    2571.6469   -42137.495    102.40067 
   21850    131.73775   -8.6109362     140517.4   -39574.997    2644.7349   -42219.732     102.8802 
   21900    127.18304   -66.844822    140648.87   -39580.308    2553.2956   -42133.603    103.11594 
   21950    131.45464   -168.53801    140884.47   -39593.723    2639.0512   -42232.775    103.42474 
   22000    129.32701   -327.59927     141135.4   -39580.885    2596.3375   -42177.222    103.63088 
   22050     128.8747   -468.54437    141297.86   -39566.332     2587.257   -42153.589    103.75532 
   22100     130.1513     -520.655    141330.01   -39557.486    2612.8858   -42170.371     104.0875 
   22150    131.03288   -532.45608    141260.91   -39554.958    2630.5841   -42185.542    104.42385 
   22200    129.61458   -512.02257    141103.01   -39533.317    2602.1107   -42135.427    104.87652 
   22250     130.9175   -208.50735     140871.4   -39538.844    2628.2678   -42167.111    105.02114 
   22300    132.41714   -44.891936    140665.33   -39497.771    2658.3741   -42156.145    105.28689 
   22350    132.08943     -24.4746    140483.63   -39507.494    2651.7951   -42159.289    105.31836 
   22400    130.27597    -29.21808    140369.67   -39508.792    2615.3885   -42124.181    105.52247 
   22450    132.77936    113.19152    140343.14    -39506.18    2665.6461   -42171.826    106.11383 
   22500    132.22226    76.012813     140428.3   -39496.419    2654.4619   -42150.881    106.51296 
   22550    128.92463   -41.576491    140608.07   -39516.691    2588.2593    -42104.95    106.70227 
   22600    129.21414   -198.05878    140807.38   -39516.502    2594.0716   -42110.573    106.88588 
   22650    130.30191   -198.55268    140990.96   -39515.685    2615.9094   -42131.594    107.19188 
   22700    130.82899   -178.43623    141134.85    -39532.76    2626.4908   -42159.251    107.26693 
   22750    130.51927   -378.67337    141231.65    -39556.03    2620.2729   -42176.303    107.57101 
   22800     132.2098   -339.07673    141279.93   -39559.322    2654.2116   -42213.534    107.86478 
   22850    129.90245   -275.07657    141298.81   -39562.357    2607.8898   -42170.246    107.84484 
   22900    130.82748   -374.51473    141306.32   -39573.274    2626.4605   -42199.734    108.16359 
   22950    128.74795   -206.38433    141283.81   -39582.367    2584.7124   -42167.079    108.31818 
   23000    130.67532   -318.05712     141236.4   -39580.223    2623.4057   -42203.628    108.51167 
   23050    132.14266   -37.571795    141195.21    -39560.74    2652.8637   -42213.604    108.53364 
   23100    133.51583   -269.60553    141155.37   -39551.767    2680.4312   -42232.198    108.46935 
   23150      132.938   -133.91215    141138.72   -39566.352    2668.8308   -42235.183    108.71424 
   23200     132.6743   -214.70579    141113.33    -39572.75    2663.5369   -42236.287    108.82569 
   23250    131.90161   -202.59015    141075.32   -39579.401    2648.0246   -42227.425    108.96091 
   23300    129.26357    -257.0043    141021.24    -39582.73    2595.0639   -42177.794    109.05729 
   23350    127.67948   -341.36539    140949.59   -39592.545    2563.2619   -42155.807    109.31865 
   23400    129.96998   -186.44888    140856.19   -39581.229    2609.2455   -42190.475    109.45417 
   23450    132.22512   -195.77205    140814.91   -39602.949    2654.5193   -42257.468    109.71671 
   23500    129.92734   -333.98289    140823.46   -39610.469    2608.3895   -42218.858    110.10125 
   23550    129.87496    -130.1792    140853.44   -39607.211    2607.3379   -42214.549    109.95878 
   23600    130.67541   -164.99698    140868.92   -39594.413    2623.4076   -42217.821    110.24189 
   23650    129.86014   -217.90327    140839.34   -39570.127    2607.0405   -42177.167    110.52726 
   23700    127.33903    -186.4711    140751.06   -39551.419    2556.4272   -42107.847    110.67766 
   23750    127.46277   -138.18454    140638.05   -39551.401    2558.9114   -42110.313    110.65369 
   23800    127.85119   -255.76873     140511.1   -39541.002    2566.7092   -42107.712    110.89117 
   23850    127.25372   -443.18563    140424.29   -39542.133    2554.7146   -42096.848    111.35532 
   23900    127.23688  -0.61166054    140344.18   -39542.881    2554.3766   -42097.257    111.64579 
   23950     131.1625   -7.5615725    140336.77   -39565.751    2633.1863   -42198.937    111.73356 
   24000    131.50177   -187.59739    140397.85   -39566.987    2639.9973   -42206.985    112.01805 
   24050    129.94132   -155.55792    140493.05   -39549.003    2608.6702   -42157.673    112.20417 
   24100    130.33782   -266.33865    140634.57    -39527.89    2616.6303   -42144.521    112.31935 
   24150    127.09533   -216.03739    140796.16   -39537.748    2551.5349   -42089.283     112.5181 
   24200    128.72957   -245.08179    140887.78   -39545.712    2584.3434   -42130.056    112.40485 
   24250    130.39713   -287.42135    140917.34   -39543.747    2617.8209   -42161.568    112.68025 
   24300    129.90602    -274.6854    140902.53    -39554.98    2607.9616   -42162.942    113.27325 
   24350    130.28212   -279.08894     140830.5   -39544.155    2615.5119   -42159.667    113.52773 
   24400    128.79878   -375.09696    140738.09   -39548.218    2585.7328   -42133.951     113.9231 
   24450    130.46767   -130.89988    140641.55   -39563.829     2619.237   -42183.066    114.17523 
   24500    128.26962    23.339877    140598.36    -39561.33    2575.1095    -42136.44    114.34733 
   24550    129.86497    19.207381    140579.05   -39558.943    2607.1375   -42166.081    114.78167 
   24600    131.56432    56.781075    140654.83   -39544.262    2641.2532   -42185.515    115.19244 
   24650    132.19583   -334.26474       140794   -39529.539    2653.9311    -42183.47    115.20883 
   24700    134.36219   -350.68349    140917.26   -39508.095    2697.4225   -42205.518    115.60294 
   24750    131.75282   -397.37402    141027.72   -39478.456    2645.0374   -42123.494     115.5449 
   24800    131.77405   -377.23063    141087.38   -39469.278    2645.4637   -42114.741    115.64626 
   24850    134.62729   -350.47948     141028.1   -39446.406    2702.7447   -42149.151     116.0271 
   24900    134.31111   -274.05502    140883.15   -39461.617    2696.3971   -42158.014    116.17371 
   24950    130.37519   -273.77171    140721.02   -39475.406    2617.3805   -42092.786    116.42675 
   25000    127.55254   -216.88651    140521.51   -39480.487    2560.7136     -42041.2     116.6643 
   25050    128.35649   -92.900114    140309.36   -39484.298    2576.8535   -42061.152    116.72007 
   25100    129.23646   -236.81042    140145.61   -39466.475    2594.5195   -42060.994     117.2011 
   25150    131.11664    -15.59852    139990.33   -39484.898    2632.2657   -42117.163    117.30591 
   25200    131.79777    195.79608    139902.12   -39503.242    2645.9398   -42149.182    117.69952 
   25250    131.66633    51.912622    139922.62    -39528.58    2643.3011   -42171.881    117.93614 
   25300    132.56028   -130.74855    139970.94   -39546.006    2661.2478   -42207.254    118.15104 
   25350    129.05637   -15.524519    140032.49   -39564.012    2590.9042   -42154.916    118.49462 
   25400    130.89233   -29.154912    140119.34   -39563.776    2627.7623   -42191.538    118.47114 
   25450    129.43599    8.9183063    140217.22   -39542.758    2598.5253   -42141.284    119.00142 
   25500    129.69936    68.954768    140316.55   -39539.627    2603.8126   -42143.439     119.0395 
   25550    129.43769    -154.6462    140440.02   -39542.761    2598.5594    -42141.32    119.37417 
   25600    128.45264   -392.45127    140549.89   -39576.306    2578.7837   -42155.089    119.40117 
   25650    128.06762   -133.04566    140618.77   -39566.608    2571.0542   -42137.662    119.64743 
   25700     128.4989   -150.32577    140681.53   -39548.684    2579.7126   -42128.397    120.08143 
   25750     131.3966   -438.91643    140789.42   -39533.791     2637.886   -42171.677    120.46993 
   25800    129.18033    -293.4674     140867.8   -39552.149    2593.3928   -42145.542    120.77931 
   25850    131.93693    -490.6289    140950.29   -39526.294    2648.7336   -42175.027    121.14648 
   25900    130.06401   -367.29168    140950.92   -39531.624    2611.1333   -42142.758    121.60222 
   25950    128.58297   -320.87903    140865.37   -39536.458    2581.4003   -42117.858    121.80505 
   26000    130.33053   -274.51153    140781.16   -39533.736     2616.484    -42150.22    121.72405 
   26050    127.48298   -314.77127    140755.07   -39577.219    2559.3172   -42136.536    121.89117 
   26100    131.77733   -278.18851     140769.4   -39588.836    2645.5294   -42234.365    122.32063 
   26150    130.68306   -303.64444    140806.87   -39573.477    2623.5613   -42197.039    122.35516 
   26200    129.67697   -15.194775    140873.43   -39564.867    2603.3631    -42168.23    122.62128 
   26250    131.31465    -443.9845    140935.59   -39588.125    2636.2408   -42224.366     123.0377 
   26300    129.85087   -351.00717    140925.17     -39596.5    2606.8543   -42203.354    123.44165 
   26350    129.15106   -146.28424    140868.68    -39597.42    2592.8052   -42190.225    123.26131 
   26400    129.87148   -340.84492    140807.38   -39590.339    2607.2682   -42197.608    123.35519 
   26450    130.96324   -175.54872    140707.69   -39583.345    2629.1859   -42212.531    123.45192 
   26500    128.70086    -273.2731    140614.84   -39595.172     2583.767   -42178.939    123.76002 
   26550    127.40146   -177.11272    140539.84   -39604.947    2557.6806   -42162.627    123.61936 
   26600    130.79199   -148.83969    140478.78   -39597.282    2625.7481    -42223.03    123.71657 
   26650     127.9828   -210.32635    140422.98   -39587.053    2569.3515   -42156.405    123.72818 
   26700    130.59531   -79.022665    140391.21    -39570.57    2621.7996    -42192.37    123.88852 
   26750    128.56026   -254.73234    140412.54   -39584.382    2580.9444   -42165.326    124.25783 
   26800    130.93391   -190.25838    140437.61   -39598.504    2628.5972   -42227.102    124.53948 
   26850    129.77906   -62.753726    140459.56   -39598.649    2605.4127   -42204.061    124.67699 
   26900    127.36193   -101.09857       140487   -39590.492     2556.887   -42147.379    124.87325 
   26950    127.42978   -71.678769    140507.93   -39601.561    2558.2492   -42159.811    125.31967 
   27000    130.68555    119.32918    140559.21     -39605.6    2623.6113   -42229.211    125.74324 
   27050    129.87912   -68.407355     140642.6    -39612.14    2607.4215   -42219.562    125.93938 
   27100    132.56549   -54.476918    140779.66   -39613.122    2661.3524   -42274.474    126.23512 
   27150    126.91926   -355.45951    140921.06   -39620.087    2548.0001   -42168.087    126.74929 
   27200     130.5016   -278.63593    140972.43    -39599.04    2619.9182   -42218.959    127.17496 
   27250    132.02467   -66.522767    140993.95   -39593.711     2650.495   -42244.206     127.4782 
   27300    132.88749   -258.85968    141018.15   -39608.262    2667.8168   -42276.079    127.66528 
   27350    132.68039    -236.3668    140962.35   -39592.614     2663.659   -42256.273    128.02327 
   27400    131.35023    60.339203    140866.65   -39579.535    2636.9551    -42216.49    128.16953 
   27450     129.4336    124.63042    140807.02    -39595.89    2598.4773   -42194.368    128.18444 
   27500    132.43825   -130.02177    140802.08   -39581.025    2658.7979   -42239.823    128.19136 
   27550    131.98992   -11.763212    140796.69   -39581.547    2649.7973   -42231.344    128.24289 
   27600     131.5092     59.66782    140841.14   -39599.255    2640.1466   -42239.402    128.66639 
   27650    130.54132   -366.47492    140949.01   -39618.736    2620.7156   -42239.452    129.16636 
   27700    132.61887   -196.08166    141059.95   -39592.149     2662.424   -42254.573    129.59327 
   27750    130.17465    125.28995    141151.76   -39602.829    2613.3545   -42216.183    129.69113 
   27800    131.71562   -54.727372    141254.54   -39592.413    2644.2906   -42236.703    130.03293 
   27850    132.05493    -344.6496    141307.46   -39591.773    2651.1024   -42242.875    130.53578 
   27900    130.50872   -201.37675    141336.01   -39596.354    2620.0611   -42216.415    130.42064 
   27950    131.13089   -294.30223    141360.76   -39594.696    2632.5517   -42227.247    130.81734 
   28000    128.02015   -383.46375       141363    -39591.73    2570.1012   -42161.831    131.20196 
   28050    129.15667   -175.66885       141360   -39597.705    2592.9178   -42190.623    131.78555 
   28100    133.56905   -64.202783    141301.62   -39608.688    2681.4996   -42290.187     131.6704 
   28150     130.0131   -29.644531    141271.24   -39604.874    2610.1112   -42214.986    132.09483 
   28200    127.79845   -21.370016    141297.92   -39608.535    2565.6505   -42174.185     132.2958 
   28250    129.72106   -472.01699     141316.1    -39637.23    2604.2483   -42241.479    132.32355 
   28300    129.40711   -80.873189    141309.09   -39629.365    2597.9455    -42227.31    132.55358 
   28350    129.15502   -323.74156    141312.76   -39634.472    2592.8845   -42227.356    132.87947 
   28400    130.96813   -186.95479    141302.35   -39610.716    2629.2843       -42240     133.3909 
   28450    131.28415   -101.42334    141304.46   -39611.408    2635.6285   -42247.037    133.46417 
   28500    128.83074   -215.86024    141337.24   -39635.413    2586.3744   -42221.787    133.96565 
   28550    131.26845   -213.45961    141359.18   -39636.957    2635.3133    -42272.27    134.30476 
   28600    130.12893   -188.50437    141396.08   -39635.323    2612.4366    -42247.76    134.45624 
   28650     131.1736   -4.0787668    141441.39    -39643.65    2633.4091   -42277.059     134.6157 
   28700    129.40712   -262.85231    141442.38   -39653.057    2597.9457   -42251.002    134.89215 
   28750    130.49336   -406.09561    141418.64   -39662.959    2619.7529   -42282.712    135.19248 
   28800    129.71087   -220.20626     141338.4   -39650.226    2604.0437    -42254.27    135.25469 
   28850    128.27513   -275.94051    141204.96   -39662.002    2575.2202   -42237.222    135.51064 
   28900    128.74978   -98.315586    141027.92   -39686.086    2584.7491   -42270.835    135.77647 
   28950    130.93536   -51.403628    140872.13    -39682.41    2628.6263   -42311.037    135.85513 
   29000    128.09638   -102.16781    140794.39   -39693.992    2571.6316   -42265.624    135.97931 
   29050    128.38117   -19.427195    140797.31   -39708.461    2577.3491    -42285.81     136.4698 
   29100    128.20332   -155.22763    140891.31   -39719.942    2573.7786    -42293.72    136.53681 
   29150     128.4552  -0.44934003    141045.22   -39707.703    2578.8352   -42286.538    136.49367 
   29200     130.3721     -90.9838    141285.94   -39731.566    2617.3184   -42348.885    137.09161 
   29250    129.73039    -274.3815    141583.22   -39757.093    2604.4355   -42361.528    137.56999 
   29300    128.45532   -459.63555    141864.22   -39751.006    2578.8377   -42329.844    137.65605 
   29350    130.37368   -478.78728     142074.2   -39736.792    2617.3502   -42354.143    137.91059 
   29400    126.20455   -557.02492    142141.83   -39731.068    2533.6517    -42264.72    138.60716 
   29450    129.61014   -444.44738    142030.22    -39720.08    2602.0215   -42322.102    138.61823 
   29500    129.73391   -351.08688    141786.19   -39711.829    2604.5062   -42316.335    138.71434 
   29550    129.49678   -20.432492    141487.27    -39691.54    2599.7457   -42291.286     139.2743 
   29600    129.93567    -23.64924    141262.68     -39697.4    2608.5568   -42305.957    139.57153 
   29650    130.38436   -58.881413    141167.22    -39682.34    2617.5645   -42299.905    139.30956 
   29700    130.86507   -99.143983    141163.14   -39661.955    2627.2152    -42289.17    139.79031 
   29750    131.10092   -99.910094    141214.81   -39648.453    2631.9501   -42280.403    139.88427 
   29800    132.03162   -53.735171    141296.96    -39629.04    2650.6345   -42279.675    139.82036 
   29850    129.02519   -323.07174    141391.09   -39626.331    2590.2783   -42216.609    139.91944 
   29900    132.64657   -289.50079    141497.21   -39623.835    2662.9802   -42286.815    140.37997 
   29950    130.79776   -479.07387    141579.81   -39625.692    2625.8639   -42251.556    140.70162 
   30000    131.31085   -324.05556    141561.25   -39620.482    2636.1645   -42256.646    140.64693 
   30050    129.69756   -292.60899    141470.14   -39611.964    2603.7766   -42215.741    140.79598 
   30100    129.11879    -322.8498    141327.48   -39622.487    2592.1572   -42214.645    140.89147 
   30150    132.16827   -271.18917    141168.41   -39607.621    2653.3779   -42260.999    141.17364 
   30200     130.7476   -80.163377    141039.57    -39639.95    2624.8568   -42264.807    141.38298 
   30250    130.84646   -167.38597    141004.69   -39654.659    2626.8415     -42281.5    141.63531 
   30300    130.37976   -262.47499    141007.97   -39661.327    2617.4721   -42278.799    142.02397 
   30350    128.83405   -243.33973     141012.8   -39662.148     2586.441   -42248.589    142.64225 
   30400    130.75444   -257.30863    141051.46   -39693.596    2624.9942    -42318.59    143.27688 
   30450    130.62069   -179.16559    141127.48   -39692.505    2622.3091   -42314.814    143.67492 
   30500    131.36561   -65.301304    141232.85   -39708.606    2637.2639    -42345.87    143.72784 
   30550    130.48638   -339.24324    141351.29   -39660.831    2619.6126   -42280.443    143.76643 
   30600    129.39277   -247.14625    141399.07   -39631.887    2597.6576   -42229.544     144.1392 
   30650    129.73024   -318.77004    141388.94   -39631.294    2604.4325   -42235.726    144.31548 
   30700    133.05868   -339.28356    141321.79   -39630.327    2671.2535   -42301.581    144.62182 
   30750    131.80364   -94.784313    141239.07   -39594.867    2646.0577   -42240.925    144.83109 
   30800    130.45761   -245.61109    141184.74   -39596.068     2619.035   -42215.104    144.89439 
   30850    129.45436   -268.65231    141155.98    -39572.89     2598.894   -42171.784     145.2348 
   30900    130.71944   -88.635688    141152.82    -39573.23    2624.2916   -42197.521    145.30588 
   30950    128.86529   -398.85252    141168.08   -39606.342    2587.0681    -42193.41    145.60126 
   31000    131.29403    -224.4418    141146.29   -39585.678    2635.8269   -42221.505    145.60886 
   31050    131.09877   -105.33981    141144.86    -39607.01     2631.907   -42238.917    146.05223 
   31100     132.0584   -244.75473    141148.78   -39576.167    2651.1722    -42227.34    146.38194 
   31150    130.26245   -151.87304    141106.38   -39583.349    2615.1172   -42198.466    146.71774 
   31200    128.66512   -212.05484    141026.79    -39591.27    2583.0496    -42174.32     146.7496 
   31250    129.97967   -174.98278    140977.11   -39589.701    2609.4402   -42199.141    146.68799 
   31300    129.74365   -169.90936     140988.5   -39602.004    2604.7018   -42206.706    146.56038 
   31350    131.06948   -113.12379    140987.89   -39593.918    2631.3189   -42225.237    146.54181 
   31400    129.27428   -334.36366    140937.58   -39583.959    2595.2789   -42179.238     146.2393 
   31450    130.12205   -61.541466    140860.05   -39610.257    2612.2985   -42222.555    146.48307 
   31500    130.01176    -257.4399     140817.4   -39621.975    2610.0843    -42232.06    146.76466 
   31550    129.65479   -172.80519    140775.68   -39657.694    2602.9178   -42260.612     147.0915 
   31600    129.92557    132.20956    140778.17   -39650.338     2608.354   -42258.692    147.22514 
   31650    130.87546   -313.70356    140821.15   -39634.116    2627.4237    -42261.54    147.45961 
   31700    130.64995     -81.0258     140862.9   -39612.989    2622.8965   -42235.886      148.151 
   31750    129.31813   -150.97103    140937.76   -39610.408    2596.1591   -42206.568    148.41434 
   31800    132.55593   -340.12257    141027.56   -39623.221    2661.1604   -42284.382    148.64101 
   31850     131.4326   -260.43457    141071.05   -39622.165    2638.6087   -42260.774     148.8799 
   31900    129.42552   -185.03273    141068.31   -39620.685    2598.3151       -42219    149.20678 
   31950    132.01595    -22.82633     141020.2   -39602.733      2650.32   -42253.053    149.35389 
   32000    131.40006   -200.50014    140992.55    -39603.89    2637.9556   -42241.845    149.57081 
   32050    130.66179   -149.38462    140974.19   -39608.226    2623.1342    -42231.36    149.43702 
   32100    130.82859   -416.43353    140966.42   -39621.085    2626.4829   -42247.567    149.84909 
   32150    128.61691   -161.87893    140939.04   -39645.442    2582.0817   -42227.523    149.91561 
   32200    129.21233   -107.37853    140899.63   -39633.793    2594.0351   -42227.828    149.80673 
   32250    131.84092   -213.56002    140870.08   -39603.642    2646.8062   -42250.448     149.9139 
   32300    131.52761   -136.28145     140865.6   -39622.668    2640.5162   -42263.184    150.07887 
   32350    131.95738   -290.68043    140913.73   -39651.537    2649.1441   -42300.681    150.19836 
   32400    128.01957   -213.56644    140968.13   -39640.312    2570.0895   -42210.401    150.47236 
   32450    129.48449   -25.674558    141010.34   -39630.689     2599.499   -42230.188    150.86279 
   32500     129.4971   -246.59841    141037.74   -39615.358    2599.7522    -42215.11    151.29534 
   32550       128.81   -23.630241    141030.17   -39617.941    2585.9581   -42203.899    151.50929 
   32600    132.19108   -483.16436    141028.74   -39630.217    2653.8358   -42284.053    151.81881 
   32650    129.15394   -242.77034    140988.65   -39618.534     2592.863   -42211.397    151.99916 
   32700     131.4485   -69.455344    140982.97   -39622.161    2638.9279   -42261.089    152.28468 
   32750    130.76202   -80.273452    140989.97   -39631.666    2625.1464   -42256.812    152.44724 
   32800    130.60298   -70.610356    141002.41   -39620.577    2621.9536    -42242.53    152.71884 
   32850    133.43984     -82.1548    141024.65   -39615.966    2678.9056   -42294.872    152.81914 
   32900    128.63705   -184.73964    141068.35   -39603.688    2582.4861   -42186.174    153.11834 
   32950    131.26953   -363.91345    141091.95   -39606.118    2635.3351   -42241.453     153.3353 
   33000    129.74074   -158.47268    141088.14   -39611.842    2604.6434   -42216.486    153.05479 
   33050    133.22484   -368.15175    141102.67   -39615.307    2674.5893   -42289.897    153.23286 
   33100    130.69682   -347.20635    141064.45     -39606.2    2623.8375   -42230.037    153.21209 
   33150    132.05387    146.12747    140940.33   -39586.844    2651.0812   -42237.925    153.05708 
   33200    130.76726    12.646279    140846.59   -39614.933    2625.2516   -42240.185    153.21519 
   33250    130.21239    112.81568    140789.89   -39583.142     2614.112   -42197.254    153.58919 
   33300    131.03182    7.6705861    140764.33   -39590.114    2630.5628   -42220.677    153.85307 
   33350    131.33134    -87.47434    140823.62   -39582.375    2636.5759   -42218.951     154.1002 
   33400    129.23245   -298.10722    140911.57   -39571.318    2594.4391   -42165.758    154.55528 
   33450    128.16766   -72.589283    140964.94   -39541.591    2573.0626   -42114.654     154.5437 
   33500    130.41755   -403.52039    140971.46   -39513.562    2618.2308   -42131.793    154.64656 
   33550     132.4582   -277.00946     140911.2   -39490.831    2659.1984   -42150.029    154.78328 
   33600    130.21918    -68.41899    140818.06   -39498.601    2614.2484   -42112.849    155.16438 
   33650    131.12894    -80.99526    140763.68   -39500.887    2632.5126     -42133.4     155.3779 
   33700    130.01267   -96.976251    140772.81   -39503.307    2610.1025   -42113.409    155.24623 
   33750    131.13858   -228.72266    140851.93   -39523.103    2632.7061   -42155.809    155.32411 
   33800    134.68106   -285.64718    140923.88   -39528.524     2703.824   -42232.348    155.99415 
   33850    130.08103   -400.19592    140973.38     -39560.7     2611.475   -42172.175    156.14245 
   33900     129.8888   -219.93428    140944.74   -39561.252    2607.6158   -42168.868    156.26365 
   33950    132.25178   -444.70006     140917.4   -39557.005    2655.0544    -42212.06     156.8302 
   34000    130.48696    -369.2928    140857.97   -39561.805    2619.6243   -42181.429    157.11966 
   34050    131.43272   -334.66603    140746.23   -39583.415    2638.6112   -42222.026    157.31479 
   34100    130.29993   -94.822754    140602.85   -39566.255    2615.8695   -42182.124    157.50477 
   34150     130.8508   -206.19061    140453.97   -39589.613    2626.9287   -42216.542    157.29592 
   34200    130.07284    -235.0433    140298.34   -39598.015    2611.3106   -42209.326     157.2382 
   34250    129.98811   -62.169527    140160.29    -39636.48    2609.6095   -42246.089    157.08504 
   34300    128.77856    29.064455    140116.92   -39644.674    2585.3269   -42230.001    157.45443 
   34350     129.1834   -101.80912    140176.54    -39623.14    2593.4543   -42216.595    157.66216 
   34400    127.86388    172.51939    140285.65   -39646.317    2566.9641   -42213.281    157.98915 
   34450    130.03268   -175.88143    140412.63    -39641.46    2610.5043   -42251.965    158.28229 
   34500    127.54807   -73.915769    140488.76    -39644.08     2560.624   -42204.704    158.19195 
   34550    128.76115   -245.27894    140548.41   -39614.715    2584.9774   -42199.693    158.40139 
   34600    130.01178   -35.246271    140573.11   -39604.209    2610.0847   -42214.294    158.86574 
   34650    132.76516   -360.35539    140593.54   -39607.876     2665.361   -42273.237    158.95452 
   34700    129.24787   -186.28765    140565.23   -39611.466    2594.7486   -42206.214    158.76277 
   34750    128.54715   -269.95009    140503.79   -39649.214    2580.6812   -42229.895    159.13629 
   34800    129.01213   -178.32355    140392.25   -39640.706    2590.0159   -42230.721      159.132 
   34850    127.93694    142.73937    140281.46   -39652.095    2568.4307   -42220.526    159.08283 
   34900    128.31248   -109.82877    140241.93   -39650.121      2575.97   -42226.091    159.71402 
   34950    129.45969   -40.638952    140255.03   -39671.503     2599.001   -42270.504    159.69413 
   35000    129.20116      15.6356    140397.33   -39669.596     2593.811   -42263.407     159.8812 
   35050    129.98355   -96.816441    140587.41    -39676.45     2609.518   -42285.968    160.42905 
   35100    130.68303   -46.897466    140763.13   -39677.027    2623.5605   -42300.588    160.25739 
   35150    129.54543   -194.22934    140923.77   -39674.298    2600.7224    -42275.02    160.26182 
   35200    129.15372   -190.66023    141038.41   -39661.135    2592.8585   -42253.993    160.70054 
   35250    129.21933   -401.78692    141109.99   -39659.136    2594.1756   -42253.311    160.81629 
   35300    128.45989     7.592292    141117.97    -39636.17    2578.9294     -42215.1    160.75313 
   35350    131.37276   -129.74503    141111.79   -39637.109    2637.4075   -42274.517     161.0806 
   35400    128.66285   -270.13822    141036.21   -39621.902    2583.0039   -42204.905    161.59027 
   35450     128.8249   -282.52303    140866.69   -39647.967    2586.2573   -42234.225    161.61058 
   35500    130.61601    56.656559    140684.82   -39638.137    2622.2152   -42260.352    161.38823 
   35550    128.25271    1.1211903    140585.19   -39643.048      2574.77   -42217.818     161.6822 
   35600    129.66355   -65.651003    140585.09   -39609.784    2603.0938   -42212.877    161.55066 
   35650     130.0613   -75.153019    140648.79   -39626.187    2611.0789   -42237.265    161.25515 
   35700    131.70478   -129.08627    140733.86   -39627.804    2644.0731   -42271.877     161.1776 
   35750    130.81583    137.35424    140836.78   -39617.317    2626.2267   -42243.544    161.46724 
   35800    129.78646   -49.416116     140963.4   -39611.661    2605.5612   -42217.222    162.15848 
   35850    131.72207   -173.26117    141145.04   -39610.428    2644.4202   -42254.849    162.21083 
   35900    130.25093   -201.89256    141344.64   -39601.504    2614.8858   -42216.389    162.56146 
   35950     128.8298   -346.70037    141507.93   -39605.271    2586.3556   -42191.627    163.15498 
   36000    129.44087   -526.74163    141569.17   -39609.819    2598.6233   -42208.442    163.29098 
   36050    128.80382   -351.11145     141502.3   -39621.178     2585.834   -42207.012    163.37361 
   36100    131.31069   -444.59529    141335.57   -39611.019    2636.1613    -42247.18    163.35788 
   36150    129.24156   -298.73434    141100.46     -39626.9    2594.6219   -42221.522    163.50948 
   36200    129.42203    50.979391    140909.12   -39623.168     2598.245   -42221.413    163.66353 
   36250     129.1112    -51.52372    140853.71   -39630.035    2592.0049    -42222.04    163.77273 
   36300    126.25087   -37.556164    140888.17   -39644.063    2534.5816   -42178.645    164.29793 
   36350     127.6659   -263.63407    140950.43    -39655.78    2562.9895    -42218.77    164.74224 
   36400    129.42406   -321.45723     141005.2    -39642.66    2598.2859   -42240.946    164.92133 
   36450    131.17035   -117.42682    141071.02   -39601.473    2633.3439   -42234.817    165.00139 
   36500    130.00339   -388.12986    141171.73   -39594.303    2609.9164   -42204.219    165.46527 
   36550    131.33012   -181.55429    141222.05     -39589.8    2636.5514   -42226.352    165.63007 
   36600    131.09141   -158.72755    141234.86   -39617.083    2631.7592   -42248.842    165.73396 
   36650    132.73413   -420.10325    141216.95    -39629.68     2664.738   -42294.418    165.96447 
   36700    128.07991   -740.07398     141137.1    -39650.99    2571.3009   -42222.291    166.38114 
   36750     130.6793   -201.25805    140941.64   -39645.362    2623.4857   -42268.847    166.49405 
   36800    127.02178   -261.71459    140774.18   -39652.871    2550.0583   -42202.929    166.44247 
   36850    128.67186   -177.63317    140667.68   -39639.083    2583.1847   -42222.267    167.18233 
   36900    129.56865   -222.58728    140614.01   -39620.477    2601.1885   -42221.666    167.86002 
   36950    129.44821    -26.59731    140593.05   -39632.243    2598.7707   -42231.014    167.88699 
   37000    129.87799   -163.43672    140623.11   -39641.114    2607.3988   -42248.513    167.97053 
   37050    127.61028    -419.2639     140657.5    -39631.19    2561.8729   -42193.063    168.33952 
   37100    129.91757   -323.59874     140667.6   -39604.368    2608.1934   -42212.561    168.46487 
   37150    129.15167   -237.81897    140653.88    -39596.53    2592.8173   -42189.347    168.58235 
   37200      130.278   -75.401597    140641.47   -39596.378    2615.4293   -42211.808    168.63885 
   37250    128.98492    -243.4476    140629.36   -39609.474    2589.4697   -42198.944    168.96314 
   37300    128.59962   -215.69369    140659.25   -39622.945    2581.7346   -42204.679    169.30613 
   37350     134.2027   -174.83569    140716.33   -39607.629    2694.2205    -42301.85    169.80927 
   37400    132.37277    187.51645    140764.44   -39591.184    2657.4833   -42248.667    170.13411 
   37450    130.69082   -78.727749    140854.21   -39586.259     2623.717   -42209.976    170.60037 
   37500     129.6736   -414.64183    140989.29   -39576.953    2603.2955   -42180.248    171.01681 
   37550    128.77258   -304.21379    141111.63   -39609.789    2585.2068   -42194.996    171.02306 
   37600    128.33401   -355.23619    141170.02   -39621.909    2576.4023   -42198.311     171.2465 
   37650    128.02974   -389.21623    141122.98   -39612.555    2570.2938   -42182.848    171.38056 
   37700    129.14525   -464.99421    141023.09    -39618.07    2592.6885   -42210.758    171.28799 
[...]
   40850    127.65723   -295.61941    141031.77   -39761.047    2562.8154   -42323.862    179.11141 
   40900    126.90409   -306.16203    141016.96   -39746.773    2547.6955   -42294.469    179.16165 
   40950    128.20891   -235.45413    140972.98   -39718.082    2573.8908   -42291.972    179.24947 
   41000    129.60076   -325.98156    140883.95   -39717.243    2601.8333   -42319.076    179.17076 
   41050    126.32899   -121.37493    140789.59   -39727.943      2536.15   -42264.093    179.20669 
   41100    127.70819    -214.3763    140713.39   -39727.924    2563.8384   -42291.763    179.21443 
   41150    127.73235   -119.26007    140626.43   -39748.418    2564.3234   -42312.742    179.12167 
   41200    126.75172    -50.86612     140535.4   -39742.493    2544.6365   -42287.129    179.40707 
   41250     127.6087   -8.6927058    140507.71   -39711.838    2561.8411   -42273.679    179.43664 
   41300    129.89819    19.443019    140552.48   -39715.019    2607.8043   -42322.823    179.48084 
   41350    129.45772   -90.905681    140688.18   -39721.814    2598.9616   -42320.775    179.64024 
   41400    130.08617   -91.706923     140854.7   -39710.622    2611.5782     -42322.2    179.57415 
   41450    126.86244   -113.90135    141025.25    -39698.66    2546.8593    -42245.52    180.22802 
   41500    126.76973   -294.68071    141124.88   -39708.404    2544.9981   -42253.402    180.16907 
   41550    129.27257   -216.18748    141140.21   -39702.432    2595.2446   -42297.677    180.26527 
   41600      130.609   -386.20628    141083.34   -39704.879    2622.0744   -42326.953    180.26637 
   41650    128.79344   -94.619048     140987.4     -39701.5    2585.6256   -42287.126    180.58259 
   41700    128.60889   -42.233384    140909.18   -39694.505    2581.9207   -42276.426    180.88796 
   41750    127.95058   -115.05192     140870.6   -39686.778    2568.7046   -42255.482    181.08744 
   41800    127.30049   -87.198421    140883.45    -39704.91    2555.6535   -42260.563     181.2584 
   41850    129.43545   -183.61862    140894.08   -39700.266    2598.5144   -42298.781    181.46544 
   41900     129.2149   -74.453706    140890.82   -39668.492    2594.0868   -42262.579    181.63529 
   41950    129.55212   -101.03933     140906.4   -39658.432    2600.8567   -42259.289    181.61859 
   42000    126.86065   -139.22776    140955.97   -39675.153    2546.8234   -42221.977    181.75454 
   42050    129.75905   -80.461523    140990.59   -39660.636     2605.011   -42265.647    182.21774 
   42100    127.60541   -298.69135    141017.71   -39664.885    2561.7751    -42226.66    182.55019 
   42150    127.18288   -323.41026    141013.94   -39687.746    2553.2924   -42241.038    182.72743 
   42200    127.21391    -173.8064    140974.74   -39690.208    2553.9153   -42244.123    183.13257 
   42250    126.60221   -249.07543    140866.25   -39689.662    2541.6351   -42231.297    183.29386 
   42300    127.19725   -171.48714    140694.87   -39722.053     2553.581   -42275.634    183.78986 
   42350    127.19869   -143.46008    140520.35    -39722.03    2553.6097    -42275.64    183.72323 
   42400    130.47435   -53.689295    140402.39   -39730.594    2619.3712   -42349.966    183.64151 
   42450    127.12527    52.943572    140352.58   -39743.498    2552.1359   -42295.634    183.75678 
   42500    126.82796    28.196221    140398.12   -39737.269    2546.1671   -42283.436    183.98809 
   42550    126.98495   -70.450026    140550.69   -39739.257    2549.3187   -42288.576    183.99134 
   42600    126.22958   -346.66258    140777.65   -39757.636    2534.1541   -42291.791    184.36535 
   42650    127.98884   -593.06095    140946.25   -39759.894    2569.4726   -42329.367    184.56438 
   42700    127.33768   -406.87175    141013.91    -39773.34    2556.4001    -42329.74    184.87292 
   42750    128.71333   -126.94576    141019.72   -39768.772    2584.0174   -42352.789    184.90414 
   42800    129.06606   -339.68597    141016.56   -39759.743    2591.0987   -42350.842    185.19795 
   42850     126.8906    40.955507     141028.5   -39748.644    2547.4248   -42296.069    185.77195 
   42900    129.66907   -111.43527    141065.37   -39737.915    2603.2045    -42341.12    185.87117 
   42950     127.8953   -104.51731    141112.84   -39718.171    2567.5948   -42285.766    186.25587 
   43000    128.25678   -239.69968    141204.37    -39715.92    2574.8517   -42290.772    186.15094 
   43050    126.55603    -367.4874    141283.75   -39719.324    2540.7079   -42260.032    186.44667 
   43100    129.96673   -503.77093     141320.4   -39727.955    2609.1802   -42337.135    186.50738 
   43150    127.64195   -372.12519    141233.82   -39713.395    2562.5086   -42275.904    186.30942 
   43200    130.06538   -166.83107    141102.13    -39718.15    2611.1608    -42329.31    186.66598 
   43250    127.85535    -30.14375    140973.16    -39728.35    2566.7928   -42295.142    186.81024 
   43300    128.06279   -166.39841    140907.59   -39722.257    2570.9573   -42293.215    186.73535 
   43350    129.96032   -311.97813    140886.83   -39722.889    2609.0515   -42331.941    186.53924 
   43400    127.84087   -298.00876    140883.43   -39707.525    2566.5021   -42274.027    187.08562 
   43450    126.63669   -328.67133    140868.33   -39710.427    2542.3273   -42252.754     187.0599 
   43500     127.3298   -274.94758    140826.99   -39697.236    2556.2419   -42253.477    187.33323 
   43550    127.93333   -432.76431    140768.25    -39692.12    2568.3582   -42260.479    187.33028 
   43600    130.28076   -266.53823    140644.37   -39700.158    2615.4847   -42315.642    187.55676 
   43650      130.426   -91.188848    140531.23   -39690.223    2618.4005   -42308.623    187.72704 
   43700    129.99642   -127.40386    140453.71   -39649.184    2609.7764   -42258.961    187.73261 
   43750    127.98709   -85.512255    140385.92   -39659.941    2569.4375   -42229.379    187.52314 
   43800    129.51759   -18.507564    140316.59   -39675.776    2600.1635   -42275.939    187.85476 
   43850    128.69291   -188.52484    140293.44   -39659.111    2583.6075   -42242.718    188.42243 
   43900    125.68918    -62.09096    140300.96   -39661.585    2523.3052    -42184.89    188.41688 
   43950    127.75604   -85.626054       140344   -39691.653     2564.799   -42256.452    188.31867 
   44000    127.34582    -276.0144    140390.47   -39688.157    2556.5635    -42244.72    188.92369 
   44050    126.90685   -67.112536    140405.58   -39697.806    2547.7509   -42245.557    188.93128 
   44100    125.34392   -227.71861    140397.87   -39693.234    2516.3739   -42209.608    189.13537 
   44150    122.06739   -283.90432    140321.55   -39697.866    2450.5951   -42148.461    189.28551 
   44200    123.26456    -245.5642    140166.64   -39734.236    2474.6292   -42208.865    189.07045 
   44250    127.04903   -68.185537     139992.6   -39709.296    2550.6053   -42259.901     188.9139 
   44300    126.35332     117.6493    139916.96   -39705.334    2536.6384   -42241.973    189.04688 
   44350    128.07448    185.62184    139939.96   -39689.238     2571.192    -42260.43    188.98265 
   44400    129.67383    1.2141693    140060.49   -39696.173    2603.3001   -42299.473    189.24351 
   44450    129.41487    8.9850715    140286.44   -39673.501    2598.1014   -42271.602    189.98959 
   44500    128.17758   -161.04911    140550.59   -39666.606    2573.2619   -42239.867     190.3314 
   44550    129.58119   -206.45184    140795.56   -39642.163    2601.4403   -42243.603     190.8463 
   44600    126.29803   -515.24633    141030.84   -39636.164    2535.5284   -42171.692    191.34081 
   44650    127.48839   -415.35227    141148.04   -39625.394    2559.4258    -42184.82    191.74722 
   44700    127.53129   -417.46316    141140.19   -39643.719     2560.287   -42204.006    191.82197 
   44750    128.20733    -131.6532     141017.7   -39622.609     2573.859   -42196.468    192.18397 
   44800    129.04525   -46.520976    140833.16   -39592.996     2590.681   -42183.677    192.42163 
   44850    130.11342   -40.691966    140719.74   -39591.612    2612.1251   -42203.737    192.37499 
   44900    132.25435    23.101114    140683.86   -39582.883    2655.1059   -42237.989    192.78445 
   44950     128.0843    4.6838006    140717.83   -39568.678    2571.3891   -42140.067    192.94559 
   45000    130.87191   -231.78113       140841   -39627.979    2627.3525   -42255.331    193.13924 
   45050    128.00367   -305.89211    141027.62   -39628.392    2569.7703   -42198.162    193.79483 
   45100    126.90249   -551.40567     141167.5   -39640.489    2547.6634   -42188.152    194.17533 
   45150    129.04435   -192.90996    141206.14   -39658.385    2590.6628   -42249.048    194.34089 
   45200    131.12676   -307.87567     141195.9   -39653.551    2632.4688    -42286.02    195.03246 
   45250    131.09367   -442.96143    141137.19   -39662.792    2631.8045   -42294.597    195.16597 
   45300    131.44517   -239.87727     141035.3   -39676.025    2638.8612   -42314.886    195.25243 
   45350    129.23025   -189.96261    140942.84   -39707.302     2594.395   -42301.697    195.97168 
   45400     129.3014   -48.953181    140867.42   -39714.051    2595.8233   -42309.875    196.40033 
   45450    132.02949   -300.58358    140787.07    -39694.99    2650.5919   -42345.582    196.42416 
   45500    129.63666    -91.86299    140711.48   -39688.655    2602.5539   -42291.209    196.88548 
   45550    129.24893   -13.631469    140696.44   -39695.422      2594.77   -42290.192    197.36391 
   45600    127.31328   -273.24022    140697.78   -39712.551    2555.9103   -42268.461    197.76927 
   45650    128.42908   -208.38978    140677.25   -39708.367    2578.3108   -42286.678    197.65805 
   45700     126.5421    14.808365    140685.21   -39705.595    2540.4282   -42246.023    197.86517 
   45750    127.42773    97.364666    140701.55   -39678.739     2558.208   -42236.947    198.68466 
   45800    128.56923    5.5843401    140734.84   -39673.114    2581.1245   -42254.239    199.11913 
   45850    129.55083   -457.86805     140778.8   -39668.291    2600.8309   -42269.122    199.02808 
   45900    128.40829   -435.50592    140777.48   -39674.487    2577.8934    -42252.38    199.40509 
   45950    130.46497   -436.73009    140719.75   -39678.779    2619.1829   -42297.962    199.26772 
   46000    129.60827   -486.43505    140601.31   -39672.864    2601.9839   -42274.848    199.51374 
   46050     129.0139   -33.732906    140479.34   -39679.953    2590.0516   -42270.004    199.92797 
   46100    128.67213   -116.45617    140448.98    -39672.33    2583.1903    -42255.52    200.10306 
   46150    128.52947     31.42188    140497.68   -39669.446    2580.3262   -42249.772      200.268 
   46200    127.84818    -187.8199    140613.41   -39707.532    2566.6489    -42274.18    200.52859 
   46250    129.80277   -339.29486    140755.86     -39706.9    2605.8888   -42312.789    200.86131 
   46300    125.93312   -423.40499    140861.57   -39710.622    2528.2025   -42238.824    201.02136 
   46350    129.15022   -230.43403    140918.54   -39690.949    2592.7883   -42283.737    201.45212 
   46400    128.76503   -183.64913    140980.64   -39691.256    2585.0554   -42276.311    201.68184 
   46450    128.97898   -90.820514    141044.61   -39685.656    2589.3504   -42275.006    201.81113 
   46500    132.94016   -278.71046    141122.18   -39709.932    2668.8742   -42378.806    202.22747 
   46550    126.70627   -238.01702    141169.09   -39705.069    2543.7241   -42248.793    202.68398 
   46600    130.79781   -257.96421    141150.92   -39697.757    2625.8649   -42323.622    202.90337 
   46650     130.1616   -250.65641    141071.04    -39700.78    2613.0924   -42313.872    203.05915 
   46700    131.35732   -138.67255    140937.23   -39676.386    2637.0976   -42313.484    203.22246 
   46750    130.59702   -86.745757    140817.49   -39675.563    2621.8339   -42297.397    203.05569 
   46800    127.28792   -37.589755    140752.22   -39668.874    2555.4012   -42224.275    202.95111 
   46850    128.41518   -258.91991    140755.58   -39668.206    2578.0317   -42246.237    203.44554 
   46900    129.98852   -278.95514    140777.27   -39665.836    2609.6177   -42275.454    203.82759 
   46950    130.74425   -249.32346     140858.7   -39631.734    2624.7896   -42256.524    203.90723 
   47000    128.28057   -281.37642    140992.85   -39651.127    2575.3293   -42226.456    203.89708 
   47050    128.93076    -317.3941    141147.89    -39626.36    2588.3825   -42214.743    204.28797 
   47100     130.3657   -354.07653    141246.35   -39619.056    2617.1899   -42236.246    204.25321 
   47150     129.9822   -352.29693    141269.86   -39608.476    2609.4909   -42217.967    204.64353 
   47200    130.84066    -238.5464    141249.75   -39621.685    2626.7252   -42248.411    204.81837 
   47250    129.71777   -189.12226    141235.13    -39592.76    2604.1822   -42196.943    204.91597 
   47300    131.25267   -241.13269    141251.79    -39576.39    2634.9965   -42211.386    204.73496 
   47350    131.04981   -578.55068    141241.66   -39572.491     2630.924   -42203.415    205.27301 
   47400    128.47215   -477.83948     141128.9   -39553.746    2579.1754   -42132.921    205.17828 
   47450     132.7272    -345.5648    140945.59   -39570.889    2664.5989   -42235.488    205.49907 
   47500    130.11826   -194.54878    140719.99   -39546.365    2612.2224   -42158.588    205.38458 
   47550    133.11922   -83.487861    140521.94    -39540.24     2672.469   -42212.709    205.61716 
   47600    132.81221    -140.1205    140428.74   -39539.779    2666.3056   -42206.084    206.08651 
   47650    134.19087   -96.940436    140431.94   -39519.093    2693.9832   -42213.077    206.35516 
   47700    133.38967   -102.09991    140520.53   -39533.238    2677.8984   -42211.137    206.59266 
   47750    132.70595   -228.01951    140597.71   -39522.793    2664.1722   -42186.965    206.03057 
   47800    130.15918   -175.71986    140674.35   -39513.991    2613.0438   -42127.035    206.18175 
   47850     130.5924    -200.5928    140738.08    -39485.93    2621.7412   -42107.672    206.53825 
   47900     129.0635   -193.21985    140761.95    -39496.78    2591.0472   -42087.827    206.47893 
   47950    129.92354   -282.01469    140806.14   -39499.389    2608.3132   -42107.702    206.47642 
   48000    129.39218   -197.52988    140847.15   -39515.502    2597.6459   -42113.147    206.56026 
   48050    131.02897   -229.28822    140863.09   -39495.325    2630.5057    -42125.83    206.38501 
   48100     128.1084   -372.65613    140866.56   -39500.628    2571.8729   -42072.501    206.48876 
   48150    131.42726   -296.48519    140828.25   -39510.753    2638.5016   -42149.254    207.15594 
   48200    129.74169   -531.33172    140742.67   -39508.186    2604.6625   -42112.849    207.14194 
   48250    131.53681   -175.47621    140620.23   -39514.633    2640.7008   -42155.334    207.19378 
   48300    134.41007   -298.55551    140541.84   -39487.736    2698.3838    -42186.12    207.57995 
   48350    133.12546   -60.906512    140473.91    -39490.68    2672.5942   -42163.274    207.81284 
   48400    131.48089   -25.634078    140423.33   -39489.962    2639.5782    -42129.54    207.64899 
   48450    132.44072     -149.181    140425.51    -39509.13    2658.8475   -42167.977    207.49107 
   48500    131.12393   -116.78697    140446.77    -39555.63     2632.412   -42188.042    207.85502 
   48550    129.72964   -254.83676    140475.33   -39556.058    2604.4205   -42160.479    207.89083 
   48600    127.18696   -163.33462    140509.04   -39549.793    2553.3742   -42103.167    208.38327 
   48650    130.16517   -269.86254    140548.72   -39527.839    2613.1641   -42141.003    208.49053 
   48700    130.34284    9.2423435    140575.83   -39534.572    2616.7309   -42151.303    208.83293 
   48750    131.46288   -310.54013    140637.67   -39508.788    2639.2167   -42148.005    209.14801 
   48800    132.76986   -21.481546    140695.89    -39489.17    2665.4552   -42154.625    209.20593 
   48850    131.86497   -195.10541    140727.89   -39482.498    2647.2889   -42129.786    209.35749 
   48900    130.08918   -239.44408    140716.98   -39488.309    2611.6387   -42099.948    209.83643 
   48950    133.74268   -183.41148    140683.19   -39473.813    2684.9854   -42158.798    209.95658 
   49000    130.12647   -133.85074    140671.97   -39469.105    2612.3872   -42081.493    210.55759 
   49050    133.58572    -268.3967    140684.88   -39478.179    2681.8343   -42160.014    210.60219 
   49100    131.71301   -281.12101    140685.05   -39492.279    2644.2383   -42136.517    210.70278 
   49150    130.41229   -163.47175    140715.31   -39493.518    2618.1253   -42111.643    210.86322 
   49200    130.70075   -242.37496    140764.45   -39508.452    2623.9163   -42132.368    211.42306 
   49250    130.56698   -413.74844    140809.33   -39503.811    2621.2308   -42125.042    212.04109 
   49300    130.21456   -101.94331    140805.57   -39486.031    2614.1557   -42100.187    212.19974 
   49350    131.99999   -99.083144    140788.82   -39492.802    2649.9995   -42142.802    211.99652 
   49400    130.67138   -228.76674    140784.33   -39514.952    2623.3268   -42138.279     211.9321 
   49450    129.85028    -6.859893    140769.14   -39501.732    2606.8426   -42108.575    212.20227 
   49500    130.78431   -140.44053    140714.07   -39501.795    2625.5939   -42127.389    212.35638 
   49550    132.21976    209.68823    140623.44   -39508.253    2654.4116   -42162.664    211.95874 
   49600    131.55164    -57.29795    140597.32   -39532.969    2640.9985   -42173.968    212.85709 
   49650    129.77722   -137.73034    140555.95   -39510.809    2605.3757   -42116.185    213.08282 
   49700    130.76058   -190.78801     140472.7   -39504.643    2625.1174    -42129.76    213.23212 
   49750     130.9065    -265.6372    140401.63   -39497.436    2628.0468   -42125.482    213.34066 
   49800    129.60149   -166.94386    140350.49   -39507.522    2601.8479   -42109.369    213.34265 
   49850     128.3863   -156.97555    140314.93   -39519.728     2577.452    -42097.18    213.69725 
   49900    132.10545   -46.836568    140283.52   -39510.452    2652.1167   -42162.569    213.77763 
   49950    129.63357   -152.14884    140287.87   -39496.956    2602.4918   -42099.447    213.57458 
   50000    132.17533   -274.16899    140339.15   -39505.202    2653.5197   -42158.722    214.13526 
Loop time of 406.556 on 12 procs for 50000 steps with 6736 atoms

Performance: 106.258 ns/day, 0.226 hours/ns, 122.984 timesteps/s
97.6% CPU use with 12 MPI tasks x no OpenMP threads

MPI task timing breakdown:
Section |  min time  |  avg time  |  max time  |%varavg| %total
---------------------------------------------------------------
Pair    | 64.32      | 148.08     | 321.18     | 957.1 | 36.42
Neigh   | 6.8185     | 12.288     | 23.654     | 215.1 |  3.02
Comm    | 40.002     | 224        | 313.02     | 827.1 | 55.10
Output  | 0.12682    | 0.13141    | 0.17207    |   3.4 |  0.03
Modify  | 19.615     | 19.896     | 20.114     |   3.3 |  4.89
Other   |            | 2.159      |            |       |  0.53

Nlocal:        561.333 ave         936 max         383 min
Histogram: 8 0 0 0 0 0 0 0 1 3
Nghost:        2097.75 ave        2392 max        1949 min
Histogram: 8 0 0 0 0 0 0 0 2 2
Neighs:        0.00000 ave           0 max           0 min
Histogram: 12 0 0 0 0 0 0 0 0 0
FullNghs:      67696.2 ave      157195 max       24975 min
Histogram: 8 0 0 0 0 0 0 0 0 4

Total # of neighbors = 812354
Ave neighs/atom = 120.59887
Neighbor list builds = 5900
Dangerous builds = 0

# Create data file for import to other simulations
#
write_data data.${NAME}
write_data data.graphite_substrate
System init for write_data ...


Total wall time: 0:06:46
