LAMMPS data file via write_data, version 16 Mar 2018, timestep = 100000

6328 atoms
2 atom types

0.0000000000000000e+00 4.9219999999999999e+01 xlo xhi
0.0000000000000000e+00 4.9019635930410494e+01 ylo yhi
3.6490465703256838e+00 5.6412953429674332e+01 zlo zhi

Masses

1 18.015
2 12.01

Atoms # atomic

3508 1 4.8687266554150970e+00 3.9677598847627835e+00 7.0763046856231302e+00 -1 0 0
2037 1 5.5785998227035360e+00 1.5946583136817898e+00 5.8363662213309135e+00 0 0 0
3142 1 5.7930283212444156e+00 6.1824524017353566e+00 1.6418745185315149e+01 1 0 0
3279 1 5.8702921176211902e+00 5.6111520627366627e+00 3.9148905889385004e+00 0 1 1
3347 1 7.4662806137126401e+00 5.5592846783066792e+00 7.3594249410248782e+00 1 1 0
2085 1 1.7732456776901215e+00 9.5436483848681952e+00 1.5436254503019232e+01 0 0 1
6017 1 7.1267678163091901e+00 3.0998299498869417e+00 1.6252167572175896e+01 1 -1 1
51 1 1.1304197769897380e+01 5.9443529969388260e+00 1.6551636451898279e+01 1 0 1
2 1 9.0095859579341919e+00 4.2135360244321962e+00 5.7179648071845754e+00 0 1 0
5319 1 3.4395642147240770e+00 5.9468760051582947e+00 5.3778582401345787e+00 1 1 1
3073 1 2.0484013000647607e+00 7.8096712118762053e+00 7.3364184829836940e+00 0 1 1
4650 1 5.2930888885329157e+00 1.1682617772052945e+01 1.4024416634535172e+01 1 1 1
1554 1 7.4072503954075639e+00 7.7343164845209031e+00 5.2816063861452118e+00 1 0 1
301 1 4.4550483304297313e+00 8.7691955606406289e+00 1.4223799104184458e+01 1 -1 0
1756 1 4.0597946850982716e+00 1.1977880400759767e+01 4.6984131933452602e+00 1 -1 0
4783 1 1.0460691384889252e+01 6.2943395915290843e+00 1.2356632322133240e+01 1 1 1
4950 1 1.0522223574771957e+01 7.6013815157020348e+00 5.5467746199901997e+00 0 0 0
3055 1 5.4004259954380995e-01 1.0340047244019228e+01 7.7369526432424971e+00 0 0 0
3238 1 9.2528395249233668e+00 1.2229247179913550e+01 1.1412959519588558e+01 1 0 0
3615 1 6.0940169374909825e+00 9.8557495553377201e+00 4.5728885939673241e+00 1 -1 1
4959 1 7.3067046148579946e+00 1.1174233095114772e+01 7.1705336097257630e+00 0 0 0
256 1 2.7650216086490604e+00 1.1593335010168029e+00 5.5372600601797064e+00 1 0 1
6221 1 6.6033278136850146e+00 7.1734590399617293e+00 1.3361077947291001e+01 1 1 0
5013 1 1.4301333975380988e+00 1.4448605732460835e+00 1.4129005793809290e+01 0 0 0
4579 1 5.6513396228602977e+00 5.8207605416929331e-01 9.8478937241085518e+00 1 0 0
5976 1 6.1887615341233886e+00 3.3469070392904712e+00 9.7329672463787880e+00 1 0 1
1692 1 8.7680538355808739e+00 2.1675573253125013e+00 9.7599086071952712e+00 0 0 0
2903 1 1.0184182935661667e+01 7.5818134276653142e+00 8.1205485579724268e+00 1 -1 1
1865 1 9.7049174075497309e+00 1.6203764917757160e+00 7.2510268631926049e+00 1 1 1
4840 1 6.3917915538257486e-01 1.1728880660463483e+01 1.3483907342835803e+01 1 0 1
1683 1 2.6831696225294324e+00 3.9981831286036891e+00 8.9653404825712322e+00 0 0 0
3609 1 8.0307998718182494e-01 2.4115867781731173e-01 1.1667961151554820e+01 2 0 0
3229 1 7.8502175147443898e-01 5.8330398535232177e+00 8.5143060928115109e+00 1 0 1
3441 1 6.0694276370009304e+00 4.7442553045786875e+00 1.2157539125672617e+01 -1 1 0
4527 1 3.3798956761870911e+00 5.1525185483633900e+00 1.1239805580101377e+01 -1 1 1
4930 1 8.4400916082670800e+00 6.4536579725622403e+00 9.9884652576338073e+00 1 1 0
6002 1 8.7738415140227168e+00 3.9301492333300461e+00 1.2529452581681788e+01 0 0 1
6300 1 1.2954923496374517e+00 1.0098070592133768e+01 1.0936180389977249e+01 2 -1 1
3457 1 4.1300035159709081e+00 1.0045824574399230e+01 1.1413282096527745e+01 2 0 0
1825 1 3.8510975751534926e+00 7.6114200630487403e+00 9.5645742454054776e+00 1 1 0
119 1 6.4580191420666369e+00 8.5241743424790304e+00 8.8950261051952335e+00 0 1 0
1717 1 8.4621672308347780e+00 9.5798850011907373e+00 1.0752798255299940e+01 0 0 1
3012 1 1.0946642411083083e+01 1.0132588603859279e+01 9.3448972418770264e+00 0 0 1
2939 1 4.0058620174829223e+00 6.5195285040922424e-01 1.4461123053867897e+01 0 1 0
3661 1 2.0544415331820072e+00 4.7001070856840039e+00 1.3950289871909588e+01 1 -1 0
4911 1 2.6767618234498003e-01 9.5052318812160035e+00 4.0778872314617320e+00 2 0 0
2935 1 8.1037718408761794e+00 1.4849374700288540e+00 1.4031726912613115e+01 1 2 1
4943 1 1.1306403019201385e+01 2.6344174890567689e+00 1.1018871393146039e+01 2 1 0
1443 1 8.6860885182853025e+00 5.4735856008489430e+00 1.5218477474011745e+01 0 1 1
1779 1 9.9173096091518360e+00 1.0483535643149281e+01 1.4843987540218793e+01 -1 0 1
2071 1 3.6658983447928373e+00 4.4542099126408772e+00 1.6326147858273764e+01 0 1 1
4905 1 2.2554963415753950e+00 7.4409104177904659e+00 1.2756950724074830e+01 0 -1 1
1728 1 1.1567966487386929e+01 1.0313463685643747e+01 5.3841128749348268e+00 0 0 1
1800 1 5.0355550907925615e+00 3.2597474638291497e+00 1.4129398901427036e+01 1 0 0
5997 1 1.1938703518619169e+01 7.0848531972463595e+00 1.0199015791252448e+01 1 0 1
1777 1 1.1804765344244192e+01 4.8693412734384367e+00 5.0731973848207392e+00 0 0 0
2978 1 5.0403931212991218e+00 1.1372860758778209e+01 9.0087703084076161e+00 0 0 1
1477 1 1.0272224737763995e+01 1.0541597399869935e+00 1.5794826614599616e+01 0 1 1
1805 1 8.8799967763736731e+00 8.4039942612250318e+00 1.3114874571345691e+01 -1 0 0
6079 1 6.3558634176580708e-01 2.1872325126194165e+00 9.4612311818009367e+00 1 1 1
3215 1 1.5744030680663563e+00 5.1219763812823587e+00 3.8667485703508278e+00 1 0 0
4851 1 1.0007733226637276e+01 1.1753037248269289e+01 7.2273979439654328e+00 -1 0 0
6117 1 9.6047491910464655e-01 1.2081039669423484e-01 7.5591663075721716e+00 1 1 1
289 1 2.8559701051532493e+00 8.9579041238584729e+00 4.4512183663268559e+00 1 -1 1
175 1 1.2242832291116271e+01 1.1974697218611849e+00 3.7340806553073378e+00 1 1 0
3111 1 4.8041247366599178e+00 1.7022539278371800e+00 1.8480804731182999e+01 0 0 1
1955 1 1.6934133539705526e-01 4.2435617113872981e+00 1.9084561888448338e+01 1 1 1
3045 1 8.0035303574172489e-01 1.5843896102025883e+00 2.0399927534830589e+01 1 0 0
3722 1 4.8595480381869560e+00 8.7423702667182042e+00 1.7111152743167079e+01 1 0 0
184 1 7.6911610242405306e+00 4.0412746585504838e-01 1.9077275589379507e+01 1 1 1
4515 1 3.5977753288449525e+00 1.1409438655287003e+01 2.1581226947043810e+01 0 0 0
1834 1 6.1819667790892732e+00 1.0474690913742609e+01 2.1395997856796019e+01 0 1 0
730 2 9.8440000000000012e+00 8.5251540748539956e+00 2.6882305740399481e+01 0 0 0
1665 1 8.6087475342290034e+00 3.0477769748993984e+00 1.8966363473080090e+01 1 0 0
326 1 6.2657060014191313e+00 1.2019066819811718e+01 2.4257708550874639e+01 1 0 1
1372 1 2.9497713130910834e+00 3.7884415023597091e+00 1.9034618500328371e+01 1 2 1
2973 1 2.7597015390922488e+00 8.4439180754893410e+00 1.9123847755279634e+01 1 0 1
3679 1 7.5993944140983629e+00 8.0614446961602084e+00 1.8424884027219861e+01 1 1 0
5003 1 9.2680344362206686e+00 5.1066785497709200e+00 2.1074094713285835e+01 0 1 0
773 2 1.1074500000000002e+01 1.0656442593567498e+01 2.6882305740399481e+01 0 0 0
1567 1 1.9948775400320384e+00 6.7762684704499332e+00 1.6859752439921284e+01 1 0 0
3373 1 1.6211676844974103e+00 1.0784452103023321e+01 1.9914461213341134e+01 0 1 0
1830 1 3.6826143516581578e-01 8.7085815625314744e+00 2.4314742517275938e+01 0 1 0
3367 1 9.7013429609705160e+00 7.8894358574020185e+00 2.0472863186906796e+01 1 0 0
6109 1 6.9768914877832469e+00 1.0765596708766113e+01 1.8636469383737541e+01 0 1 1
4901 1 9.4995041611719824e+00 1.0952036471932207e+01 2.1557265268521768e+01 -1 0 0
728 2 9.8440000000000012e+00 1.1366872099805333e+01 2.6882305740399481e+01 0 0 0
3415 1 1.2055563075972492e+01 5.2165859256568199e+00 2.1912870935222671e+01 -1 0 0
386 1 1.0008006447238744e+01 8.8483213802956779e+00 1.7026257398725573e+01 0 -1 0
2128 1 3.4542538691065197e+00 1.8050250179740508e+00 2.1621430349106355e+01 0 0 0
3301 1 5.7471253833368854e+00 4.9231765766791868e+00 2.3876014979838715e+01 0 -1 0
4542 1 6.8509394267948673e+00 2.6772741714057906e+00 2.1746070835720321e+01 1 1 0
3068 1 3.6723939194796569e+00 2.1996551956456427e+00 2.4172614505173996e+01 0 -1 1
1267 1 1.0807512081478007e+01 3.2622153876077178e+00 2.3697403037734027e+01 -1 0 1
81 1 1.2224207792826656e+01 7.4224909419148402e+00 2.4263755452296721e+01 1 -1 -1
726 2 8.6134999999999984e+00 1.0656442593567498e+01 2.6882305740399481e+01 0 0 0
4741 1 2.3639201482022112e+00 6.6618009494375992e+00 2.1175124233169168e+01 1 0 0
140 1 9.1732594271837229e+00 1.1919650453131004e+01 1.7588417352373291e+01 0 1 0
497 1 2.3795338309200469e+00 4.7140300317130599e+00 2.4535504853964579e+01 -1 1 1
3157 1 6.5286539630594858e+00 5.0525062177672488e+00 1.9004547525250892e+01 -1 0 0
1851 1 6.4175119289789988e+00 1.5384595121691114e+00 2.4266785006884852e+01 0 1 1
4938 1 4.5337514276743907e+00 4.7177365741371302e+00 2.1119891119659336e+01 1 1 0
6227 1 5.4570879357086133e+00 7.8544727093113291e+00 2.0613601803463986e+01 1 0 1
239 1 9.6417945313086619e+00 7.2222439348233269e+00 2.3571065826121636e+01 1 -1 0
4915 1 8.5854521722399397e+00 5.0602256833767312e+00 2.4032407162431245e+01 0 0 0
732 2 1.1074500000000002e+01 9.2355835810918343e+00 2.6882305740399481e+01 0 0 0
1346 1 5.6233085463243198e+00 7.8197982737631158e+00 2.3412467851650923e+01 1 1 1
1919 1 9.6017445344943901e+00 1.9768258733260085e+00 2.1654936230826269e+01 1 -1 1
477 1 2.6612750611036837e+00 7.3950376433290534e+00 2.3616745764041212e+01 0 -1 0
1866 1 8.3090186216655759e+00 9.6715262885648663e+00 2.3960455605865477e+01 0 1 0
5283 1 1.0258049904064693e+01 1.1686612309944158e+01 2.4296701461511386e+01 1 0 1
1298 1 1.1433647046474494e+01 1.1785596572851841e+01 1.9315754505967501e+01 1 -1 0
552 2 0.0000000000000000e+00 2.8417180249513345e+00 2.6882305740399481e+01 0 0 0
554 2 0.0000000000000000e+00 0.0000000000000000e+00 2.6882305740399481e+01 0 0 0
556 2 1.2305000000000001e+00 7.1042950623783474e-01 2.6882305740399481e+01 0 0 0
563 2 1.2305000000000001e+00 2.1312885187134998e+00 2.6882305740399481e+01 0 0 0
565 2 2.4610000000000003e+00 2.8417180249513345e+00 2.6882305740399481e+01 0 0 0
567 2 2.4610000000000003e+00 0.0000000000000000e+00 2.6882305740399481e+01 0 0 0
569 2 3.6915000000000004e+00 7.1042950623783474e-01 2.6882305740399481e+01 0 0 0
584 2 3.6914999999999996e+00 2.1312885187134998e+00 2.6882305740399481e+01 0 0 0
586 2 4.9220000000000006e+00 2.8417180249513332e+00 2.6882305740399481e+01 0 0 0
588 2 4.9220000000000006e+00 0.0000000000000000e+00 2.6882305740399481e+01 0 0 0
590 2 6.1524999999999999e+00 7.1042950623783407e-01 2.6882305740399481e+01 0 0 0
613 2 6.1524999999999999e+00 2.1312885187134989e+00 2.6882305740399481e+01 0 0 0
615 2 7.3829999999999991e+00 2.8417180249513345e+00 2.6882305740399481e+01 0 0 0
617 2 7.3829999999999991e+00 0.0000000000000000e+00 2.6882305740399481e+01 0 0 0
619 2 8.6134999999999984e+00 7.1042950623783407e-01 2.6882305740399481e+01 0 0 0
650 2 8.6134999999999984e+00 2.1312885187135002e+00 2.6882305740399481e+01 0 0 0
652 2 9.8440000000000012e+00 2.8417180249513332e+00 2.6882305740399481e+01 0 0 0
654 2 9.8440000000000012e+00 0.0000000000000000e+00 2.6882305740399481e+01 0 0 0
656 2 1.1074500000000002e+01 7.1042950623783330e-01 2.6882305740399481e+01 0 0 0
695 2 1.1074500000000002e+01 2.1312885187135002e+00 2.6882305740399481e+01 0 0 0
559 2 0.0000000000000000e+00 4.2625770374269996e+00 2.6882305740399481e+01 0 0 0
561 2 1.2305000000000001e+00 4.9730065436648339e+00 2.6882305740399481e+01 0 0 0
576 2 1.2305000000000001e+00 6.3938655561404980e+00 2.6882305740399481e+01 0 0 0
580 2 2.4610000000000003e+00 4.2625770374269996e+00 2.6882305740399481e+01 0 0 0
582 2 3.6914999999999996e+00 4.9730065436648339e+00 2.6882305740399481e+01 0 0 0
605 2 3.6914999999999996e+00 6.3938655561404980e+00 2.6882305740399481e+01 0 0 0
557 2 0.0000000000000000e+00 7.1042950623783341e+00 2.6882305740399481e+01 0 0 0
578 2 2.4610000000000003e+00 7.1042950623783341e+00 2.6882305740399481e+01 0 0 0
609 2 4.9220000000000006e+00 4.2625770374269978e+00 2.6882305740399481e+01 0 0 0
611 2 6.1524999999999999e+00 4.9730065436648339e+00 2.6882305740399481e+01 0 0 0
642 2 6.1524999999999999e+00 6.3938655561404980e+00 2.6882305740399481e+01 0 0 0
646 2 7.3829999999999991e+00 4.2625770374269996e+00 2.6882305740399481e+01 0 0 0
607 2 4.9220000000000006e+00 7.1042950623783341e+00 2.6882305740399481e+01 0 0 0
644 2 7.3830000000000009e+00 7.1042950623783341e+00 2.6882305740399481e+01 0 0 0
648 2 8.6135000000000002e+00 4.9730065436648339e+00 2.6882305740399481e+01 0 0 0
687 2 8.6135000000000002e+00 6.3938655561404980e+00 2.6882305740399481e+01 0 0 0
691 2 9.8440000000000012e+00 4.2625770374270004e+00 2.6882305740399481e+01 0 0 0
693 2 1.1074500000000002e+01 4.9730065436648339e+00 2.6882305740399481e+01 0 0 0
734 2 1.1074500000000002e+01 6.3938655561404980e+00 2.6882305740399481e+01 0 0 0
689 2 9.8440000000000012e+00 7.1042950623783341e+00 2.6882305740399481e+01 0 0 0
572 2 0.0000000000000000e+00 8.5251540748539991e+00 2.6882305740399481e+01 0 0 0
574 2 1.2305000000000001e+00 9.2355835810918343e+00 2.6882305740399481e+01 0 0 0
601 2 2.4610000000000003e+00 8.5251540748539991e+00 2.6882305740399481e+01 0 0 0
603 2 3.6915000000000004e+00 9.2355835810918343e+00 2.6882305740399481e+01 0 0 0
570 2 0.0000000000000000e+00 1.1366872099805333e+01 2.6882305740399481e+01 0 0 0
597 2 1.2305000000000001e+00 1.0656442593567498e+01 2.6882305740399481e+01 0 0 0
599 2 2.4610000000000003e+00 1.1366872099805333e+01 2.6882305740399481e+01 0 0 0
634 2 3.6914999999999996e+00 1.0656442593567499e+01 2.6882305740399481e+01 0 0 0
681 2 7.3829999999999991e+00 1.1366872099805333e+01 2.6882305740399481e+01 0 0 0
683 2 7.3830000000000009e+00 8.5251540748539991e+00 2.6882305740399481e+01 0 0 0
679 2 6.1524999999999999e+00 1.0656442593567499e+01 2.6882305740399481e+01 0 0 0
640 2 6.1524999999999999e+00 9.2355835810918343e+00 2.6882305740399481e+01 0 0 0
636 2 4.9220000000000006e+00 1.1366872099805333e+01 2.6882305740399481e+01 0 0 0
638 2 4.9220000000000006e+00 8.5251540748539991e+00 2.6882305740399481e+01 0 0 0
685 2 8.6134999999999984e+00 9.2355835810918343e+00 2.6882305740399481e+01 0 0 0
775 2 1.2304999999999998e+01 1.1366872099805333e+01 2.6882305740399481e+01 0 0 0
6121 1 9.4665927082937404e+00 3.3121086485273160e-01 2.4519712217184349e+01 1 1 1
1738 1 2.0424074230027598e+00 1.1616787599311852e+01 1.7152981505312709e+01 1 0 0
1661 1 3.4093152316865645e+00 1.1516691352128765e+01 2.4374494691227628e+01 0 0 1
3056 1 1.2374064578155912e+00 4.8259149835325432e-01 2.4075042149949439e+01 -1 0 1
2927 1 1.0825174602367426e+01 3.2689360906795275e+00 1.7424419986907786e+01 0 0 1
2954 1 3.0337928667236724e-03 1.1766392619560657e+01 2.4606076581631882e+01 0 1 1
401 1 4.8900769203603076e+00 1.1834620001423184e+01 1.6936394419489055e+01 1 1 0
6159 1 5.4565312939713637e+00 1.4387313406956537e-02 2.1206975469153953e+01 1 1 1
553 2 0.0000000000000000e+00 1.4208590124756650e+00 3.0031000000000063e+01 0 0 0
555 2 0.0000000000000000e+00 0.0000000000000000e+00 3.0031000000000063e+01 0 0 0
564 2 1.2305000000000001e+00 2.1312885187134998e+00 3.0031000000000063e+01 0 0 0
566 2 2.4610000000000003e+00 1.4208590124756650e+00 3.0031000000000063e+01 0 0 0
568 2 2.4610000000000003e+00 0.0000000000000000e+00 3.0031000000000063e+01 0 0 0
585 2 3.6914999999999996e+00 2.1312885187134998e+00 3.0031000000000063e+01 0 0 0
562 2 1.2305000000000001e+00 3.5521475311891644e+00 3.0031000000000063e+01 0 0 0
583 2 3.6914999999999996e+00 3.5521475311891644e+00 3.0031000000000063e+01 0 0 0
881 2 0.0000000000000000e+00 2.8417180249513345e+00 3.3179694259600460e+01 0 0 0
882 2 0.0000000000000000e+00 0.0000000000000000e+00 3.3179694259600460e+01 0 0 0
883 2 1.2305000000000001e+00 7.1042950623783474e-01 3.3179694259600460e+01 0 0 0
887 2 1.2305000000000001e+00 2.1312885187134998e+00 3.3179694259600460e+01 0 0 0
888 2 2.4610000000000003e+00 2.8417180249513345e+00 3.3179694259600460e+01 0 0 0
889 2 2.4610000000000003e+00 0.0000000000000000e+00 3.3179694259600460e+01 0 0 0
890 2 3.6915000000000004e+00 7.1042950623783474e-01 3.3179694259600460e+01 0 0 0
898 2 3.6914999999999996e+00 2.1312885187134998e+00 3.3179694259600460e+01 0 0 0
587 2 4.9220000000000006e+00 1.4208590124756650e+00 3.0031000000000063e+01 0 0 0
589 2 4.9220000000000006e+00 0.0000000000000000e+00 3.0031000000000063e+01 0 0 0
614 2 6.1524999999999999e+00 2.1312885187134989e+00 3.0031000000000063e+01 0 0 0
616 2 7.3829999999999991e+00 1.4208590124756659e+00 3.0031000000000063e+01 0 0 0
618 2 7.3829999999999991e+00 0.0000000000000000e+00 3.0031000000000063e+01 0 0 0
612 2 6.1524999999999999e+00 3.5521475311891644e+00 3.0031000000000063e+01 0 0 0
899 2 4.9220000000000006e+00 2.8417180249513332e+00 3.3179694259600460e+01 0 0 0
900 2 4.9220000000000006e+00 0.0000000000000000e+00 3.3179694259600460e+01 0 0 0
901 2 6.1524999999999999e+00 7.1042950623783407e-01 3.3179694259600460e+01 0 0 0
913 2 6.1524999999999999e+00 2.1312885187134989e+00 3.3179694259600460e+01 0 0 0
914 2 7.3829999999999991e+00 2.8417180249513345e+00 3.3179694259600460e+01 0 0 0
915 2 7.3829999999999991e+00 0.0000000000000000e+00 3.3179694259600460e+01 0 0 0
651 2 8.6134999999999984e+00 2.1312885187135002e+00 3.0031000000000063e+01 0 0 0
653 2 9.8440000000000012e+00 1.4208590124756659e+00 3.0031000000000063e+01 0 0 0
655 2 9.8440000000000012e+00 0.0000000000000000e+00 3.0031000000000063e+01 0 0 0
696 2 1.1074500000000002e+01 2.1312885187135002e+00 3.0031000000000063e+01 0 0 0
649 2 8.6134999999999984e+00 3.5521475311891657e+00 3.0031000000000063e+01 0 0 0
694 2 1.1074500000000002e+01 3.5521475311891644e+00 3.0031000000000063e+01 0 0 0
916 2 8.6134999999999984e+00 7.1042950623783407e-01 3.3179694259600460e+01 0 0 0
932 2 8.6134999999999984e+00 2.1312885187135002e+00 3.3179694259600460e+01 0 0 0
933 2 9.8440000000000012e+00 2.8417180249513332e+00 3.3179694259600460e+01 0 0 0
934 2 9.8440000000000012e+00 0.0000000000000000e+00 3.3179694259600460e+01 0 0 0
935 2 1.1074500000000002e+01 7.1042950623783330e-01 3.3179694259600460e+01 0 0 0
955 2 1.1074500000000002e+01 2.1312885187135002e+00 3.3179694259600460e+01 0 0 0
558 2 0.0000000000000000e+00 5.6834360499026637e+00 3.0031000000000063e+01 0 0 0
560 2 0.0000000000000000e+00 4.2625770374269996e+00 3.0031000000000063e+01 0 0 0
577 2 1.2305000000000001e+00 6.3938655561404980e+00 3.0031000000000063e+01 0 0 0
579 2 2.4610000000000003e+00 5.6834360499026637e+00 3.0031000000000063e+01 0 0 0
581 2 2.4610000000000003e+00 4.2625770374269996e+00 3.0031000000000063e+01 0 0 0
606 2 3.6914999999999996e+00 6.3938655561404980e+00 3.0031000000000063e+01 0 0 0
575 2 1.2305000000000001e+00 7.8147245686161639e+00 3.0031000000000063e+01 0 0 0
604 2 3.6914999999999996e+00 7.8147245686161639e+00 3.0031000000000063e+01 0 0 0
885 2 0.0000000000000000e+00 4.2625770374269996e+00 3.3179694259600460e+01 0 0 0
886 2 1.2305000000000001e+00 4.9730065436648339e+00 3.3179694259600460e+01 0 0 0
894 2 1.2305000000000001e+00 6.3938655561404980e+00 3.3179694259600460e+01 0 0 0
896 2 2.4610000000000003e+00 4.2625770374269996e+00 3.3179694259600460e+01 0 0 0
897 2 3.6914999999999996e+00 4.9730065436648339e+00 3.3179694259600460e+01 0 0 0
909 2 3.6914999999999996e+00 6.3938655561404980e+00 3.3179694259600460e+01 0 0 0
884 2 0.0000000000000000e+00 7.1042950623783341e+00 3.3179694259600460e+01 0 0 0
895 2 2.4610000000000003e+00 7.1042950623783341e+00 3.3179694259600460e+01 0 0 0
608 2 4.9220000000000006e+00 5.6834360499026637e+00 3.0031000000000063e+01 0 0 0
610 2 4.9220000000000006e+00 4.2625770374269978e+00 3.0031000000000063e+01 0 0 0
643 2 6.1524999999999999e+00 6.3938655561404980e+00 3.0031000000000063e+01 0 0 0
645 2 7.3829999999999991e+00 5.6834360499026637e+00 3.0031000000000063e+01 0 0 0
647 2 7.3829999999999991e+00 4.2625770374269996e+00 3.0031000000000063e+01 0 0 0
641 2 6.1524999999999999e+00 7.8147245686161639e+00 3.0031000000000063e+01 0 0 0
911 2 4.9220000000000006e+00 4.2625770374269978e+00 3.3179694259600460e+01 0 0 0
912 2 6.1524999999999999e+00 4.9730065436648339e+00 3.3179694259600460e+01 0 0 0
928 2 6.1524999999999999e+00 6.3938655561404980e+00 3.3179694259600460e+01 0 0 0
930 2 7.3829999999999991e+00 4.2625770374269996e+00 3.3179694259600460e+01 0 0 0
910 2 4.9220000000000006e+00 7.1042950623783341e+00 3.3179694259600460e+01 0 0 0
929 2 7.3830000000000009e+00 7.1042950623783341e+00 3.3179694259600460e+01 0 0 0
688 2 8.6135000000000002e+00 6.3938655561404980e+00 3.0031000000000063e+01 0 0 0
690 2 9.8440000000000012e+00 5.6834360499026637e+00 3.0031000000000063e+01 0 0 0
692 2 9.8440000000000012e+00 4.2625770374270004e+00 3.0031000000000063e+01 0 0 0
735 2 1.1074500000000002e+01 6.3938655561404980e+00 3.0031000000000063e+01 0 0 0
686 2 8.6135000000000002e+00 7.8147245686161639e+00 3.0031000000000063e+01 0 0 0
733 2 1.1074500000000002e+01 7.8147245686161639e+00 3.0031000000000063e+01 0 0 0
931 2 8.6135000000000002e+00 4.9730065436648339e+00 3.3179694259600460e+01 0 0 0
951 2 8.6135000000000002e+00 6.3938655561404980e+00 3.3179694259600460e+01 0 0 0
953 2 9.8440000000000012e+00 4.2625770374270004e+00 3.3179694259600460e+01 0 0 0
954 2 1.1074500000000002e+01 4.9730065436648339e+00 3.3179694259600460e+01 0 0 0
975 2 1.1074500000000002e+01 6.3938655561404980e+00 3.3179694259600460e+01 0 0 0
952 2 9.8440000000000012e+00 7.1042950623783341e+00 3.3179694259600460e+01 0 0 0
571 2 0.0000000000000000e+00 9.9460130873296642e+00 3.0031000000000063e+01 0 0 0
573 2 0.0000000000000000e+00 8.5251540748539991e+00 3.0031000000000063e+01 0 0 0
600 2 2.4610000000000003e+00 9.9460130873296642e+00 3.0031000000000063e+01 0 0 0
602 2 2.4610000000000003e+00 8.5251540748539991e+00 3.0031000000000063e+01 0 0 0
596 2 1.2305000000000001e+00 1.2077301606043163e+01 3.0031000000000063e+01 0 0 0
598 2 1.2305000000000001e+00 1.0656442593567498e+01 3.0031000000000063e+01 0 0 0
633 2 3.6914999999999996e+00 1.2077301606043163e+01 3.0031000000000063e+01 0 0 0
635 2 3.6914999999999996e+00 1.0656442593567499e+01 3.0031000000000063e+01 0 0 0
892 2 0.0000000000000000e+00 8.5251540748539991e+00 3.3179694259600460e+01 0 0 0
893 2 1.2305000000000001e+00 9.2355835810918343e+00 3.3179694259600460e+01 0 0 0
907 2 2.4610000000000003e+00 8.5251540748539991e+00 3.3179694259600460e+01 0 0 0
908 2 3.6915000000000004e+00 9.2355835810918343e+00 3.3179694259600460e+01 0 0 0
891 2 0.0000000000000000e+00 1.1366872099805333e+01 3.3179694259600460e+01 0 0 0
905 2 1.2305000000000001e+00 1.0656442593567498e+01 3.3179694259600460e+01 0 0 0
906 2 2.4610000000000003e+00 1.1366872099805333e+01 3.3179694259600460e+01 0 0 0
924 2 3.6914999999999996e+00 1.0656442593567499e+01 3.3179694259600460e+01 0 0 0
637 2 4.9220000000000006e+00 9.9460130873296642e+00 3.0031000000000063e+01 0 0 0
639 2 4.9220000000000006e+00 8.5251540748539991e+00 3.0031000000000063e+01 0 0 0
682 2 7.3830000000000009e+00 9.9460130873296642e+00 3.0031000000000063e+01 0 0 0
684 2 7.3830000000000009e+00 8.5251540748539991e+00 3.0031000000000063e+01 0 0 0
678 2 6.1524999999999999e+00 1.2077301606043163e+01 3.0031000000000063e+01 0 0 0
680 2 6.1524999999999999e+00 1.0656442593567499e+01 3.0031000000000063e+01 0 0 0
926 2 4.9220000000000006e+00 8.5251540748539991e+00 3.3179694259600460e+01 0 0 0
927 2 6.1524999999999999e+00 9.2355835810918343e+00 3.3179694259600460e+01 0 0 0
949 2 7.3830000000000009e+00 8.5251540748539991e+00 3.3179694259600460e+01 0 0 0
925 2 4.9220000000000006e+00 1.1366872099805333e+01 3.3179694259600460e+01 0 0 0
947 2 6.1524999999999999e+00 1.0656442593567499e+01 3.3179694259600460e+01 0 0 0
948 2 7.3829999999999991e+00 1.1366872099805333e+01 3.3179694259600460e+01 0 0 0
729 2 9.8440000000000012e+00 9.9460130873296642e+00 3.0031000000000063e+01 0 0 0
731 2 9.8440000000000012e+00 8.5251540748539956e+00 3.0031000000000063e+01 0 0 0
725 2 8.6135000000000002e+00 1.2077301606043163e+01 3.0031000000000063e+01 0 0 0
727 2 8.6134999999999984e+00 1.0656442593567498e+01 3.0031000000000063e+01 0 0 0
772 2 1.1074500000000002e+01 1.2077301606043163e+01 3.0031000000000063e+01 0 0 0
774 2 1.1074500000000002e+01 1.0656442593567498e+01 3.0031000000000063e+01 0 0 0
950 2 8.6134999999999984e+00 9.2355835810918343e+00 3.3179694259600460e+01 0 0 0
973 2 9.8440000000000012e+00 8.5251540748539956e+00 3.3179694259600460e+01 0 0 0
974 2 1.1074500000000002e+01 9.2355835810918343e+00 3.3179694259600460e+01 0 0 0
971 2 8.6134999999999984e+00 1.0656442593567498e+01 3.3179694259600460e+01 0 0 0
972 2 9.8440000000000012e+00 1.1366872099805333e+01 3.3179694259600460e+01 0 0 0
995 2 1.1074500000000002e+01 1.0656442593567498e+01 3.3179694259600460e+01 0 0 0
996 2 1.2304999999999998e+01 1.1366872099805333e+01 3.3179694259600460e+01 0 0 0
2142 1 1.0274192912650677e+00 1.9929146950793970e+00 3.5831069827749559e+01 1 0 0
4552 1 2.0439338730655825e+00 2.2622190619701348e+00 3.9118299997037042e+01 1 0 0
6073 1 3.3670278306093873e+00 2.9972337475387403e+00 3.6340324931627748e+01 2 1 -1
2918 1 5.3014081450953503e+00 1.0601930937916890e+00 3.6574549555607021e+01 1 1 -1
4522 1 9.2088893873455753e+00 4.3714717926461127e-01 3.5611660769118522e+01 -1 1 0
66 1 1.1035685567652859e+01 1.1405152363361413e+00 3.8450587249240556e+01 0 1 0
6214 1 2.7037810038956542e+00 5.5542813957080428e+00 3.7920218660427167e+01 0 0 -1
41 1 4.3718617466082098e-02 3.9324848401941770e-01 4.3024913891873354e+01 1 0 0
1237 1 4.7557544248509140e+00 5.8843620436908637e+00 3.9908828481686768e+01 1 1 0
1824 1 5.8623053712414626e+00 7.2689610507343527e+00 3.7731082940029438e+01 1 1 -1
181 1 4.3989517648449477e+00 5.6221835797729254e+00 3.5452600227243167e+01 0 0 -1
4792 1 7.4468655359497200e+00 2.3093383450980962e+00 3.7278130723147456e+01 1 1 -1
3074 1 4.2822904012134986e+00 8.9252611873015812e+00 3.5615745125706439e+01 1 0 -1
3540 1 6.9235009911989138e+00 4.8348699456717510e+00 3.6446105836565948e+01 1 1 -1
6118 1 9.7035552082113519e+00 6.0692767001650045e+00 3.8839315329675841e+01 0 0 -1
3450 1 9.5750810128182575e+00 5.9473421228836418e+00 3.5832052211339175e+01 0 0 -1
1261 1 6.9853229665556094e-01 4.8036484575782179e+00 4.1579699750393573e+01 0 1 0
1302 1 1.0146644138650366e+01 8.5617449250135387e+00 3.5753890415510114e+01 0 0 0
4496 1 1.5252231365017992e+00 9.3669646369157693e+00 3.6021086345690634e+01 0 1 0
1560 1 5.9845005008790260e+00 5.0321090930348389e-01 4.0193260538479691e+01 0 0 -1
381 1 5.7144026374063639e+00 1.1108161156640074e+01 3.5900209283918969e+01 0 0 -1
2908 1 1.0998453578201229e+01 8.8832458796774354e+00 4.1934991501432151e+01 0 1 0
299 1 8.3772024307936661e+00 1.0694430608926146e+01 3.5790152173154993e+01 0 1 -1
2802 1 1.9588181145544499e+00 2.2620657667848914e+00 4.2095005278852938e+01 1 0 0
1965 1 4.9864231832079602e+00 3.0869711027852786e+00 3.9448914033407760e+01 0 0 0
3158 1 4.5656664414114534e+00 2.4604899531655899e+00 4.2463024413058577e+01 0 0 0
3100 1 9.8474906010435070e+00 1.1473295387595472e+01 4.1533503065870022e+01 0 0 -1
6165 1 8.5149469914350870e+00 1.4926187835632458e+00 3.9590376597564088e+01 -1 0 0
6260 1 1.8437065990012074e+00 8.2605515364853535e+00 3.8350711385552188e+01 1 -1 -1
5045 1 7.7329086371232592e+00 6.0418783486651959e+00 4.2967925222431489e+01 1 -1 -1
5264 1 5.6209734867491612e+00 8.0501761351447829e+00 4.2334233625290651e+01 0 1 0
2997 1 3.0422611571050058e+00 6.6436251439060250e+00 4.2367056818692305e+01 0 1 -1
1548 1 1.1444630511070089e+01 1.8180347386497047e+00 3.5900214185034542e+01 1 0 0
2086 1 7.4372718546518168e+00 4.4065551521305837e+00 4.0254904145196633e+01 -1 1 -1
4556 1 5.4731677225735877e+00 1.1834491073289804e+01 3.8761822438944961e+01 -1 0 0
3526 1 3.1141355770703321e+00 1.0445734813634299e+01 3.9798163692057827e+01 0 0 -1
538 1 6.4108427319495922e+00 8.8811224412082481e+00 3.9808099893448869e+01 1 0 0
6024 1 2.3373951218678792e+00 9.6948546351160854e+00 4.2429011140518369e+01 0 1 -1
2873 1 1.0245513087961930e+01 8.6736270956632566e+00 3.8931187730408666e+01 2 1 0
4640 1 8.5160136060639449e+00 1.1025353867186354e+01 3.8900934493546814e+01 0 0 0
3004 1 1.0562224716663708e+01 5.8581305080397765e+00 4.1895620196127112e+01 0 0 -1
4823 1 8.3359022642708683e-02 4.4601931253854321e+00 3.8360283718481810e+01 1 0 0
441 1 8.9695359870389328e+00 2.8134889229126907e+00 4.2406153895725865e+01 -1 0 0
2809 1 1.2027970752207082e+01 4.8342879339528055e+00 3.6420673790016863e+01 0 1 0
5977 1 1.2227480192086938e+01 5.7737313254751585e+00 3.9213421384810843e+01 -1 1 0
3720 1 7.3861456631945952e+00 1.2136618439510425e+01 4.2323657778351688e+01 1 1 0
6113 1 7.0504130960863911e+00 9.0334961564257943e-01 5.6142480422379265e+01 0 1 0
1991 1 3.2302343534709390e+00 2.5165110692634567e+00 4.5899025235103380e+01 0 1 0
2988 1 8.2664244532512932e+00 9.8028552120463752e-01 4.8715158749211881e+01 -1 1 0
5265 1 8.0296682920163622e+00 2.6282317791701035e+00 4.4832669438577923e+01 0 1 0
4704 1 2.8007327957468315e+00 1.2222627494256521e+01 5.4846821301153653e+01 1 0 0
5231 1 6.4582200530902911e+00 7.5495119990050359e+00 5.4589888922701192e+01 0 1 0
1437 1 8.4537692589080393e-02 9.9247296728835313e+00 4.6781531969902701e+01 0 1 -1
3217 1 4.0344292297874587e+00 4.5384527506838683e+00 4.4050885895520977e+01 1 1 0
1958 1 2.0975526640432993e+00 5.9051937066928151e+00 4.5750535566239606e+01 0 1 -1
6064 1 1.0017310060581499e+01 2.9818655415368243e+00 4.7164885048848078e+01 1 0 0
2093 1 6.5973077167311684e+00 5.1055922583086417e+00 4.5028102511687237e+01 1 0 0
5250 1 1.1117992994718184e+01 5.0309634759642039e+00 4.5769491800289572e+01 0 0 0
3310 1 8.8785766895200062e+00 8.4768623644461307e+00 4.3731807997608030e+01 0 1 -1
6223 1 1.0805158597955382e+01 2.9894150119373029e+00 5.4769500786744828e+01 0 0 -1
1414 1 4.7503081036148025e+00 9.3497962350476023e+00 4.7954510734857649e+01 0 1 -1
1730 1 1.5201561039822800e+00 8.4218399204510295e+00 4.4916850475636735e+01 -1 0 -1
5165 1 1.0712533457296933e+01 1.0559231686415362e+01 4.6722031294681216e+01 0 0 -2
4763 1 6.5587428671282391e+00 1.0225855987768490e+01 4.4092651762834905e+01 1 1 -1
3593 1 1.3714419949489394e+00 6.4256470762775492e-02 4.5598794916166398e+01 0 1 -1
4680 1 8.1191289162557787e+00 6.2129487714634752e+00 5.2371984855322694e+01 1 -1 -1