LAMMPS data file via write_data, version 16 Mar 2018, timestep = 8000000

6328 atoms
2 atom types

0.0000000000000000e+00 4.9219999999999999e+01 xlo xhi
0.0000000000000000e+00 4.9019635930410494e+01 ylo yhi
2.0744829128984215e+00 5.7987517087108124e+01 zlo zhi

Masses

1 18.015
2 12.01

Atoms # atomic

1969 1 1.7513369226220750e+00 1.6665160465744311e+00 5.0492775835821160e+00 1 -1 0
6031 1 6.4756842873666187e+00 9.9313165135747372e-01 4.8454079593373169e+00 0 -4 1
1361 1 7.4685932468155674e+00 8.4501432082177299e+00 1.3056560641071261e+01 0 -2 0
420 1 1.0641928825807828e+01 3.3815270701861078e-01 4.8526135597974971e+00 -2 0 0
3346 1 1.1083889893100270e+01 2.6747926034407268e+00 6.0315954570181054e+00 -1 0 0
2015 1 1.1223847302791106e+00 1.0913935920939444e+01 1.2342698659533374e+01 0 -1 0
6085 1 2.9491661555654791e+00 8.8562607798660213e+00 1.3412454808303941e+01 1 -2 1
1649 1 4.6322435239311837e+00 5.0780209307383704e+00 5.2135672615730773e+00 -2 3 0
2085 1 3.0269488500900171e-01 5.5015296283337367e+00 1.3431462783388019e+01 2 0 1
4984 1 9.0320294180517564e+00 4.3012155478241816e+00 5.1761110580493899e+00 1 0 1
1257 1 1.1952838562894405e+01 7.5969517444381234e+00 1.3567990018115703e+01 3 -2 1
1572 1 2.8373564245780583e+00 8.9762749950495095e+00 5.4092128852079640e+00 0 -3 1
1290 1 8.8701062462444575e+00 1.6347933128145837e+00 1.2537884383151496e+01 4 -1 1
4872 1 7.2694573387361077e+00 8.1883961659071449e+00 5.0111167889781463e+00 -2 3 0
2087 1 2.8695675404249381e-02 6.1056329571400623e+00 4.7965983790484632e+00 1 1 1
3490 1 1.1780082855479417e+01 7.6574117299325639e+00 4.7578670772459812e+00 -1 4 0
1574 1 6.3849199779820305e+00 1.1908918547301168e+00 2.1781365880522223e+00 -1 1 1
1386 1 1.0646051551974676e+01 1.1429957871755084e+01 1.5843523453784480e+01 -1 2 1
4854 1 1.9198069811552161e+00 1.7908171433568119e+00 2.2475907965741806e+00 -5 1 1
6285 1 8.9643889752794124e+00 4.1319581690131360e+00 1.3630876648657283e+01 1 4 1
1817 1 6.6018042016872647e+00 3.2806611515653614e+00 6.2354666469766427e+00 0 3 1
3444 1 6.5487715740266905e+00 3.3449371450912095e+00 9.0379518901603149e+00 -5 2 0
4452 1 1.1289444755598229e+01 2.5018332186626351e+00 8.6686972625514329e+00 4 2 1
99 1 2.1646405068359695e+00 4.3188961917787259e+00 5.6729320560163199e+00 0 -1 0
5278 1 2.2892697000569604e+00 3.8283774213286246e+00 8.7007815545147622e+00 -1 -1 1
12 1 3.6453673788942909e-01 8.4704715751974984e+00 6.1737659299116876e+00 -1 -2 0
6193 1 4.9281386330111081e+00 7.2973448074445937e+00 6.3021034984700748e+00 0 -1 0
81 1 4.9361595463502468e+00 7.2869604507481194e+00 9.0820997840426578e+00 -1 -2 -1
2063 1 9.4417053007924245e+00 6.9496485447502439e+00 5.9101820600709791e+00 4 0 1
1548 1 9.6287331119599848e+00 6.3771338844271970e+00 8.7785892369677967e+00 -1 0 1
3491 1 9.0508142241145806e-01 8.3196091579216809e+00 9.1216128982710742e+00 1 -4 0
6323 1 3.2374688329492747e+00 1.1574731268886319e+01 6.0816421895596022e+00 2 0 1
5200 1 3.1571273342851303e+00 1.1868699130618330e+01 8.7716246843647863e+00 -4 -5 0
4718 1 7.5015174475132396e+00 1.0786783826224919e+01 6.0756594209392611e+00 -3 -4 1
4661 1 7.7336675522464491e+00 1.0465176948032095e+01 9.0533560390157177e+00 1 2 0
3420 1 1.2027661257111271e+01 1.0095992286154647e+01 5.9499383950947493e+00 -6 0 0
1393 1 3.8885644409668143e+00 2.1105037722891570e-01 5.8848378299475854e+00 2 2 1
1483 1 4.9469721518484651e+00 4.7717320810200370e+00 1.3589594709944398e+01 -4 3 1
5981 1 1.0084175018314189e+01 1.1924855336889697e+01 1.3256788134366468e+01 2 0 0
1517 1 3.9414378853260419e+00 2.2248060529467883e+00 9.8714862054981474e+00 1 -4 1
1663 1 8.7840769686547038e+00 1.8394156847197423e+00 9.8330151423869108e+00 1 0 0
4662 1 2.7075904189302991e+00 6.3617243696957928e+00 9.8849188603278524e+00 -3 -4 1
6132 1 2.7763265966362742e+00 6.1775993675200818e+00 1.2549455781251263e+01 1 3 1
1795 1 7.2560943271974674e+00 6.0103680396645762e+00 9.6425059934515076e+00 5 -2 0
1418 1 7.2198073036945356e+00 5.9523444692354373e+00 1.2237409214373855e+01 -7 -6 0
5304 1 1.1430472482269751e+01 4.9914207343057218e+00 1.2629909165222669e+01 2 -6 1
262 1 1.1466465094333651e+01 4.7889076917300617e+00 9.8590172970038772e+00 2 -2 0
1929 1 8.0204262713931718e-01 1.0941169697925565e+01 9.5771919853152117e+00 3 -3 0
1340 1 5.0707529995653733e+00 1.0045924262092436e+01 1.2239601497388188e+01 -3 -3 1
5242 1 5.0645344409138211e+00 9.8607934977391309e+00 9.3787820393554782e+00 1 0 0
3344 1 1.0005054209015729e+01 9.1928787492648727e+00 1.2290909058479590e+01 -2 5 0
1811 1 1.0132757730000664e+01 8.9369009458745197e+00 9.6746041513623098e+00 -4 -3 0
228 1 1.8799343969196909e+00 1.2066766972981093e+00 1.3315916066236831e+01 2 -1 0
5152 1 4.5323577208939341e+00 2.1854579723642735e+00 1.2647481728029106e+01 -5 -1 0
3692 1 6.6420334536994234e+00 8.2299813219034079e-01 1.3611282485100549e+01 0 4 1
3585 1 7.3082123389547746e+00 8.2595706631078922e+00 2.2393101657964998e+00 0 2 0
1373 1 9.8969538040003400e+00 1.1621304625215945e+01 4.9255423013751667e+00 2 5 1
3246 1 4.5891801340757414e+00 5.1924439919250407e+00 2.1630711631466939e+00 -2 -1 1
3375 1 6.0258434048158130e-02 3.1733488401235879e+00 1.2483620799744395e+01 -2 -3 1
4510 1 2.9596502462241729e+00 9.1993840906743607e+00 2.7505495003707257e+00 -4 4 1
2956 1 1.0153564827904642e+01 1.1601238423756778e+01 2.1690690483064388e+00 1 2 1
2830 1 8.8782262693272003e+00 4.3352525008667273e+00 2.2618309556867029e+00 -3 5 1
1312 1 7.3559063279129484e+00 8.3382924755640495e+00 1.5662203626752815e+01 1 -1 1
1968 1 1.0931296876416269e+01 2.4580894891447969e-01 1.3658249983782662e+01 3 4 0
5056 1 1.2137654768957661e+01 1.0408680802365881e+01 8.6903358683679279e+00 1 2 0
2004 1 3.2775653116526731e+00 8.8850426529977469e+00 1.6046438657162444e+01 5 3 1
5060 1 2.0089689092309457e-01 5.8740606494092482e+00 2.1852176872355500e+00 -1 0 1
2151 1 1.0674676815451029e+01 2.9941341203047039e-01 2.1184838924902607e+00 -3 2 0
4572 1 4.3001491547780262e+00 1.1951140849911249e+01 2.0604571314953649e+01 0 0 1
683 2 7.3830000000000009e+00 8.5251540748539991e+00 2.6694381083403570e+01 0 0 0
773 2 1.1074500000000002e+01 1.0656442593567498e+01 2.6694381083403570e+01 0 0 0
344 1 4.2436365912944725e+00 2.1282266881263854e+00 1.7114684863731579e+01 1 4 1
726 2 8.6134999999999984e+00 1.0656442593567498e+01 2.6694381083403570e+01 0 0 0
2919 1 8.8877131575007446e+00 1.6920956611240008e+00 1.7372607598612706e+01 -2 3 0
3562 1 2.6709406704416190e+00 6.2106615020518410e+00 1.7171877167039170e+01 -8 0 0
681 2 7.3829999999999991e+00 1.1366872099805333e+01 2.6694381083403570e+01 0 0 0
5139 1 7.2653893546002113e+00 5.8711603103806338e+00 1.7132375934003534e+01 -2 1 1
1652 1 4.5854301800449626e+00 1.2176831678449176e+01 2.3675311373526487e+01 2 -2 0
3559 1 1.2004611874242523e+01 5.1087365481533249e+00 1.7426879884084467e+01 3 3 0
775 2 1.2304999999999998e+01 1.1366872099805333e+01 2.6694381083403570e+01 0 0 0
1643 1 9.4195463919990097e-01 6.0016401540249360e+00 2.4024057223953676e+01 -1 0 1
2909 1 1.2616015115353252e+00 1.0867841171728557e+01 1.6949342207537107e+01 2 5 0
730 2 9.8440000000000012e+00 8.5251540748539956e+00 2.6694381083403570e+01 0 0 0
1934 1 5.4485441890489463e+00 1.0103833019188727e+01 1.6569832211733900e+01 0 1 0
679 2 6.1524999999999999e+00 1.0656442593567499e+01 2.6694381083403570e+01 0 0 0
1397 1 9.6829201758848402e+00 9.1024237950006324e+00 1.6879422103500954e+01 -3 3 0
243 1 2.4006878454283456e+00 3.8415291908784073e+00 2.0728019451420749e+01 3 0 1
685 2 8.6134999999999984e+00 9.2355835810918343e+00 2.6694381083403570e+01 0 0 0
4568 1 4.1746286925176532e+00 2.2585259971760960e+00 1.9968624515423063e+01 -1 -2 1
180 1 6.8328968837637740e+00 3.3528667983359624e+00 2.0857752338649739e+01 2 -2 0
6108 1 8.8168885648973774e+00 1.5093600950337540e+00 2.0203214341350364e+01 -1 3 1
3177 1 1.1313183154689295e+01 2.6585718772427640e+00 2.0751612991543521e+01 3 -2 0
4948 1 3.2794047755861087e+00 6.3800190278698414e+00 1.9959850387978122e+01 1 0 0
1822 1 7.3949445177161817e+00 5.8612400928773738e+00 1.9778655885351512e+01 -1 2 0
3074 1 5.7134193864917791e+00 7.9041422266450372e+00 2.0583420130066028e+01 1 1 0
1541 1 1.2051528810589891e+01 5.3066997901035755e+00 2.0217604219020270e+01 -6 0 0
6098 1 9.7940765757923653e+00 6.8457404177658150e+00 2.0939425773647066e+01 -1 -1 1
4801 1 1.5458867059020767e+00 8.1806974411380295e+00 2.0531410976907864e+01 1 1 0
6002 1 1.8717225989662782e+00 1.0841276984450047e+01 1.9902148884401889e+01 -1 1 1
3092 1 5.9406152900610731e+00 1.0378752517547072e+01 1.9195855513888478e+01 -6 -3 1
4889 1 1.1749507232905287e+01 7.4761001951649915e+00 1.6207569173655063e+01 -1 -3 0
4627 1 8.3912205047371025e+00 1.1160980617984361e+01 2.0498483033535138e+01 -1 -3 1
3527 1 1.0286050509041383e+01 9.2230344165381268e+00 1.9643636853030191e+01 1 3 1
2805 1 1.6382795958520633e+00 1.2607151054878072e+00 2.4216627912848182e+01 0 -5 1
1873 1 2.6528519077825665e+00 3.8848339896588526e+00 2.3694030978471325e+01 -5 1 0
3278 1 6.7102314392964120e+00 3.4276711868174363e+00 2.3397182536397622e+01 -1 3 0
1788 1 6.2358654879323066e+00 6.8080677253537902e-01 2.4356673474039667e+01 -1 3 0
2933 1 1.1289671784840609e+01 3.2170529336850575e+00 2.3760764825656054e+01 -1 4 1
6086 1 4.9051493288467816e+00 4.4828101546170753e+00 1.6249942994689892e+01 3 -3 0
2983 1 5.0144062527117850e+00 5.3460114178926634e+00 2.3870195890325466e+01 6 2 1
4541 1 5.7716228427454270e+00 8.1073052103915177e+00 2.3365765732763421e+01 -4 2 1
3663 1 9.0693956590838738e+00 4.3809644907315173e+00 2.4336538619169680e+01 -5 1 0
4459 1 1.0065444862031176e+01 6.8879043405302314e+00 2.3515658007219955e+01 0 1 1
728 2 9.8440000000000012e+00 1.1366872099805333e+01 2.6694381083403570e+01 0 0 0
5025 1 1.7793817659671012e+00 8.5777965273790020e+00 2.3405016070303184e+01 3 -2 0
2000 1 3.9192471147303940e+00 9.6611446315843867e+00 2.4475815906289856e+01 -2 4 0
1261 1 8.2497817479406166e+00 8.5102321916516139e+00 2.4194374062479419e+01 -3 3 1
732 2 1.1074500000000002e+01 9.2355835810918343e+00 2.6694381083403570e+01 0 0 0
3121 1 8.9165279897173271e+00 1.0924329066652851e+01 2.3385486347257022e+01 0 -1 0
552 2 0.0000000000000000e+00 2.8417180249513345e+00 2.6694381083403570e+01 0 0 0
554 2 0.0000000000000000e+00 0.0000000000000000e+00 2.6694381083403570e+01 0 0 0
556 2 1.2305000000000001e+00 7.1042950623783474e-01 2.6694381083403570e+01 0 0 0
563 2 1.2305000000000001e+00 2.1312885187134998e+00 2.6694381083403570e+01 0 0 0
565 2 2.4610000000000003e+00 2.8417180249513345e+00 2.6694381083403570e+01 0 0 0
567 2 2.4610000000000003e+00 0.0000000000000000e+00 2.6694381083403570e+01 0 0 0
569 2 3.6915000000000004e+00 7.1042950623783474e-01 2.6694381083403570e+01 0 0 0
584 2 3.6914999999999996e+00 2.1312885187134998e+00 2.6694381083403570e+01 0 0 0
586 2 4.9220000000000006e+00 2.8417180249513332e+00 2.6694381083403570e+01 0 0 0
588 2 4.9220000000000006e+00 0.0000000000000000e+00 2.6694381083403570e+01 0 0 0
590 2 6.1524999999999999e+00 7.1042950623783407e-01 2.6694381083403570e+01 0 0 0
613 2 6.1524999999999999e+00 2.1312885187134989e+00 2.6694381083403570e+01 0 0 0
615 2 7.3829999999999991e+00 2.8417180249513345e+00 2.6694381083403570e+01 0 0 0
617 2 7.3829999999999991e+00 0.0000000000000000e+00 2.6694381083403570e+01 0 0 0
619 2 8.6134999999999984e+00 7.1042950623783407e-01 2.6694381083403570e+01 0 0 0
650 2 8.6134999999999984e+00 2.1312885187135002e+00 2.6694381083403570e+01 0 0 0
652 2 9.8440000000000012e+00 2.8417180249513332e+00 2.6694381083403570e+01 0 0 0
654 2 9.8440000000000012e+00 0.0000000000000000e+00 2.6694381083403570e+01 0 0 0
656 2 1.1074500000000002e+01 7.1042950623783330e-01 2.6694381083403570e+01 0 0 0
695 2 1.1074500000000002e+01 2.1312885187135002e+00 2.6694381083403570e+01 0 0 0
559 2 0.0000000000000000e+00 4.2625770374269996e+00 2.6694381083403570e+01 0 0 0
561 2 1.2305000000000001e+00 4.9730065436648339e+00 2.6694381083403570e+01 0 0 0
576 2 1.2305000000000001e+00 6.3938655561404980e+00 2.6694381083403570e+01 0 0 0
580 2 2.4610000000000003e+00 4.2625770374269996e+00 2.6694381083403570e+01 0 0 0
582 2 3.6914999999999996e+00 4.9730065436648339e+00 2.6694381083403570e+01 0 0 0
605 2 3.6914999999999996e+00 6.3938655561404980e+00 2.6694381083403570e+01 0 0 0
557 2 0.0000000000000000e+00 7.1042950623783341e+00 2.6694381083403570e+01 0 0 0
578 2 2.4610000000000003e+00 7.1042950623783341e+00 2.6694381083403570e+01 0 0 0
609 2 4.9220000000000006e+00 4.2625770374269978e+00 2.6694381083403570e+01 0 0 0
611 2 6.1524999999999999e+00 4.9730065436648339e+00 2.6694381083403570e+01 0 0 0
642 2 6.1524999999999999e+00 6.3938655561404980e+00 2.6694381083403570e+01 0 0 0
646 2 7.3829999999999991e+00 4.2625770374269996e+00 2.6694381083403570e+01 0 0 0
607 2 4.9220000000000006e+00 7.1042950623783341e+00 2.6694381083403570e+01 0 0 0
644 2 7.3830000000000009e+00 7.1042950623783341e+00 2.6694381083403570e+01 0 0 0
648 2 8.6135000000000002e+00 4.9730065436648339e+00 2.6694381083403570e+01 0 0 0
687 2 8.6135000000000002e+00 6.3938655561404980e+00 2.6694381083403570e+01 0 0 0
691 2 9.8440000000000012e+00 4.2625770374270004e+00 2.6694381083403570e+01 0 0 0
693 2 1.1074500000000002e+01 4.9730065436648339e+00 2.6694381083403570e+01 0 0 0
734 2 1.1074500000000002e+01 6.3938655561404980e+00 2.6694381083403570e+01 0 0 0
689 2 9.8440000000000012e+00 7.1042950623783341e+00 2.6694381083403570e+01 0 0 0
572 2 0.0000000000000000e+00 8.5251540748539991e+00 2.6694381083403570e+01 0 0 0
574 2 1.2305000000000001e+00 9.2355835810918343e+00 2.6694381083403570e+01 0 0 0
601 2 2.4610000000000003e+00 8.5251540748539991e+00 2.6694381083403570e+01 0 0 0
603 2 3.6915000000000004e+00 9.2355835810918343e+00 2.6694381083403570e+01 0 0 0
570 2 0.0000000000000000e+00 1.1366872099805333e+01 2.6694381083403570e+01 0 0 0
599 2 2.4610000000000003e+00 1.1366872099805333e+01 2.6694381083403570e+01 0 0 0
597 2 1.2305000000000001e+00 1.0656442593567498e+01 2.6694381083403570e+01 0 0 0
634 2 3.6914999999999996e+00 1.0656442593567499e+01 2.6694381083403570e+01 0 0 0
636 2 4.9220000000000006e+00 1.1366872099805333e+01 2.6694381083403570e+01 0 0 0
638 2 4.9220000000000006e+00 8.5251540748539991e+00 2.6694381083403570e+01 0 0 0
640 2 6.1524999999999999e+00 9.2355835810918343e+00 2.6694381083403570e+01 0 0 0
3479 1 1.0925464509814333e+01 1.2227103638854938e+01 2.4450486173106061e+01 0 0 0
3234 1 1.0722911090503469e+01 5.0555646511106100e-01 2.3708097694855425e+01 -1 2 0
3391 1 6.5619061259496902e+00 5.8071314521740502e-01 1.6403179746933318e+01 2 4 1
3122 1 9.4414007462862148e+00 4.3709520277826739e+00 1.6427835352834471e+01 3 -2 1
3335 1 1.0743231264701683e+01 1.7220619482079513e-01 1.6428994355071943e+01 -1 1 0
1516 1 1.2243177739210157e+01 8.3050824910690473e+00 2.4443551999499242e+01 2 -3 1
2913 1 9.9967595880222859e-02 3.4875767091328891e+00 1.7154325869064959e+01 -1 0 1
5150 1 3.4536109554290584e-01 6.0072193200726582e+00 1.6124171990281766e+01 0 2 1
1358 1 1.9444275529822646e+00 1.6020653278193744e+00 1.6236931903523359e+01 4 -2 0
553 2 0.0000000000000000e+00 1.4208590124756650e+00 3.0031000000003328e+01 0 0 0
555 2 0.0000000000000000e+00 0.0000000000000000e+00 3.0031000000003328e+01 0 0 0
564 2 1.2305000000000001e+00 2.1312885187134998e+00 3.0031000000003328e+01 0 0 0
566 2 2.4610000000000003e+00 1.4208590124756650e+00 3.0031000000003328e+01 0 0 0
568 2 2.4610000000000003e+00 0.0000000000000000e+00 3.0031000000003328e+01 0 0 0
585 2 3.6914999999999996e+00 2.1312885187134998e+00 3.0031000000003328e+01 0 0 0
562 2 1.2305000000000001e+00 3.5521475311891644e+00 3.0031000000003328e+01 0 0 0
583 2 3.6914999999999996e+00 3.5521475311891644e+00 3.0031000000003328e+01 0 0 0
881 2 0.0000000000000000e+00 2.8417180249513345e+00 3.3367618916621666e+01 0 0 0
882 2 0.0000000000000000e+00 0.0000000000000000e+00 3.3367618916621666e+01 0 0 0
883 2 1.2305000000000001e+00 7.1042950623783474e-01 3.3367618916621666e+01 0 0 0
887 2 1.2305000000000001e+00 2.1312885187134998e+00 3.3367618916621666e+01 0 0 0
888 2 2.4610000000000003e+00 2.8417180249513345e+00 3.3367618916621666e+01 0 0 0
889 2 2.4610000000000003e+00 0.0000000000000000e+00 3.3367618916621666e+01 0 0 0
890 2 3.6915000000000004e+00 7.1042950623783474e-01 3.3367618916621666e+01 0 0 0
898 2 3.6914999999999996e+00 2.1312885187134998e+00 3.3367618916621666e+01 0 0 0
587 2 4.9220000000000006e+00 1.4208590124756650e+00 3.0031000000003328e+01 0 0 0
589 2 4.9220000000000006e+00 0.0000000000000000e+00 3.0031000000003328e+01 0 0 0
614 2 6.1524999999999999e+00 2.1312885187134989e+00 3.0031000000003328e+01 0 0 0
616 2 7.3829999999999991e+00 1.4208590124756659e+00 3.0031000000003328e+01 0 0 0
618 2 7.3829999999999991e+00 0.0000000000000000e+00 3.0031000000003328e+01 0 0 0
612 2 6.1524999999999999e+00 3.5521475311891644e+00 3.0031000000003328e+01 0 0 0
899 2 4.9220000000000006e+00 2.8417180249513332e+00 3.3367618916621666e+01 0 0 0
900 2 4.9220000000000006e+00 0.0000000000000000e+00 3.3367618916621666e+01 0 0 0
901 2 6.1524999999999999e+00 7.1042950623783407e-01 3.3367618916621666e+01 0 0 0
913 2 6.1524999999999999e+00 2.1312885187134989e+00 3.3367618916621666e+01 0 0 0
914 2 7.3829999999999991e+00 2.8417180249513345e+00 3.3367618916621666e+01 0 0 0
915 2 7.3829999999999991e+00 0.0000000000000000e+00 3.3367618916621666e+01 0 0 0
651 2 8.6134999999999984e+00 2.1312885187135002e+00 3.0031000000003328e+01 0 0 0
653 2 9.8440000000000012e+00 1.4208590124756659e+00 3.0031000000003328e+01 0 0 0
655 2 9.8440000000000012e+00 0.0000000000000000e+00 3.0031000000003328e+01 0 0 0
696 2 1.1074500000000002e+01 2.1312885187135002e+00 3.0031000000003328e+01 0 0 0
649 2 8.6134999999999984e+00 3.5521475311891657e+00 3.0031000000003328e+01 0 0 0
694 2 1.1074500000000002e+01 3.5521475311891644e+00 3.0031000000003328e+01 0 0 0
916 2 8.6134999999999984e+00 7.1042950623783407e-01 3.3367618916621666e+01 0 0 0
932 2 8.6134999999999984e+00 2.1312885187135002e+00 3.3367618916621666e+01 0 0 0
933 2 9.8440000000000012e+00 2.8417180249513332e+00 3.3367618916621666e+01 0 0 0
934 2 9.8440000000000012e+00 0.0000000000000000e+00 3.3367618916621666e+01 0 0 0
935 2 1.1074500000000002e+01 7.1042950623783330e-01 3.3367618916621666e+01 0 0 0
955 2 1.1074500000000002e+01 2.1312885187135002e+00 3.3367618916621666e+01 0 0 0
558 2 0.0000000000000000e+00 5.6834360499026637e+00 3.0031000000003328e+01 0 0 0
560 2 0.0000000000000000e+00 4.2625770374269996e+00 3.0031000000003328e+01 0 0 0
577 2 1.2305000000000001e+00 6.3938655561404980e+00 3.0031000000003328e+01 0 0 0
579 2 2.4610000000000003e+00 5.6834360499026637e+00 3.0031000000003328e+01 0 0 0
581 2 2.4610000000000003e+00 4.2625770374269996e+00 3.0031000000003328e+01 0 0 0
606 2 3.6914999999999996e+00 6.3938655561404980e+00 3.0031000000003328e+01 0 0 0
575 2 1.2305000000000001e+00 7.8147245686161639e+00 3.0031000000003328e+01 0 0 0
604 2 3.6914999999999996e+00 7.8147245686161639e+00 3.0031000000003328e+01 0 0 0
885 2 0.0000000000000000e+00 4.2625770374269996e+00 3.3367618916621666e+01 0 0 0
886 2 1.2305000000000001e+00 4.9730065436648339e+00 3.3367618916621666e+01 0 0 0
894 2 1.2305000000000001e+00 6.3938655561404980e+00 3.3367618916621666e+01 0 0 0
896 2 2.4610000000000003e+00 4.2625770374269996e+00 3.3367618916621666e+01 0 0 0
897 2 3.6914999999999996e+00 4.9730065436648339e+00 3.3367618916621666e+01 0 0 0
909 2 3.6914999999999996e+00 6.3938655561404980e+00 3.3367618916621666e+01 0 0 0
884 2 0.0000000000000000e+00 7.1042950623783341e+00 3.3367618916621666e+01 0 0 0
895 2 2.4610000000000003e+00 7.1042950623783341e+00 3.3367618916621666e+01 0 0 0
608 2 4.9220000000000006e+00 5.6834360499026637e+00 3.0031000000003328e+01 0 0 0
610 2 4.9220000000000006e+00 4.2625770374269978e+00 3.0031000000003328e+01 0 0 0
643 2 6.1524999999999999e+00 6.3938655561404980e+00 3.0031000000003328e+01 0 0 0
645 2 7.3829999999999991e+00 5.6834360499026637e+00 3.0031000000003328e+01 0 0 0
647 2 7.3829999999999991e+00 4.2625770374269996e+00 3.0031000000003328e+01 0 0 0
641 2 6.1524999999999999e+00 7.8147245686161639e+00 3.0031000000003328e+01 0 0 0
911 2 4.9220000000000006e+00 4.2625770374269978e+00 3.3367618916621666e+01 0 0 0
912 2 6.1524999999999999e+00 4.9730065436648339e+00 3.3367618916621666e+01 0 0 0
928 2 6.1524999999999999e+00 6.3938655561404980e+00 3.3367618916621666e+01 0 0 0
930 2 7.3829999999999991e+00 4.2625770374269996e+00 3.3367618916621666e+01 0 0 0
910 2 4.9220000000000006e+00 7.1042950623783341e+00 3.3367618916621666e+01 0 0 0
929 2 7.3830000000000009e+00 7.1042950623783341e+00 3.3367618916621666e+01 0 0 0
688 2 8.6135000000000002e+00 6.3938655561404980e+00 3.0031000000003328e+01 0 0 0
690 2 9.8440000000000012e+00 5.6834360499026637e+00 3.0031000000003328e+01 0 0 0
692 2 9.8440000000000012e+00 4.2625770374270004e+00 3.0031000000003328e+01 0 0 0
735 2 1.1074500000000002e+01 6.3938655561404980e+00 3.0031000000003328e+01 0 0 0
686 2 8.6135000000000002e+00 7.8147245686161639e+00 3.0031000000003328e+01 0 0 0
733 2 1.1074500000000002e+01 7.8147245686161639e+00 3.0031000000003328e+01 0 0 0
931 2 8.6135000000000002e+00 4.9730065436648339e+00 3.3367618916621666e+01 0 0 0
951 2 8.6135000000000002e+00 6.3938655561404980e+00 3.3367618916621666e+01 0 0 0
953 2 9.8440000000000012e+00 4.2625770374270004e+00 3.3367618916621666e+01 0 0 0
954 2 1.1074500000000002e+01 4.9730065436648339e+00 3.3367618916621666e+01 0 0 0
975 2 1.1074500000000002e+01 6.3938655561404980e+00 3.3367618916621666e+01 0 0 0
952 2 9.8440000000000012e+00 7.1042950623783341e+00 3.3367618916621666e+01 0 0 0
571 2 0.0000000000000000e+00 9.9460130873296642e+00 3.0031000000003328e+01 0 0 0
573 2 0.0000000000000000e+00 8.5251540748539991e+00 3.0031000000003328e+01 0 0 0
600 2 2.4610000000000003e+00 9.9460130873296642e+00 3.0031000000003328e+01 0 0 0
602 2 2.4610000000000003e+00 8.5251540748539991e+00 3.0031000000003328e+01 0 0 0
596 2 1.2305000000000001e+00 1.2077301606043163e+01 3.0031000000003328e+01 0 0 0
598 2 1.2305000000000001e+00 1.0656442593567498e+01 3.0031000000003328e+01 0 0 0
633 2 3.6914999999999996e+00 1.2077301606043163e+01 3.0031000000003328e+01 0 0 0
635 2 3.6914999999999996e+00 1.0656442593567499e+01 3.0031000000003328e+01 0 0 0
892 2 0.0000000000000000e+00 8.5251540748539991e+00 3.3367618916621666e+01 0 0 0
893 2 1.2305000000000001e+00 9.2355835810918343e+00 3.3367618916621666e+01 0 0 0
907 2 2.4610000000000003e+00 8.5251540748539991e+00 3.3367618916621666e+01 0 0 0
908 2 3.6915000000000004e+00 9.2355835810918343e+00 3.3367618916621666e+01 0 0 0
891 2 0.0000000000000000e+00 1.1366872099805333e+01 3.3367618916621666e+01 0 0 0
905 2 1.2305000000000001e+00 1.0656442593567498e+01 3.3367618916621666e+01 0 0 0
906 2 2.4610000000000003e+00 1.1366872099805333e+01 3.3367618916621666e+01 0 0 0
924 2 3.6914999999999996e+00 1.0656442593567499e+01 3.3367618916621666e+01 0 0 0
637 2 4.9220000000000006e+00 9.9460130873296642e+00 3.0031000000003328e+01 0 0 0
639 2 4.9220000000000006e+00 8.5251540748539991e+00 3.0031000000003328e+01 0 0 0
682 2 7.3830000000000009e+00 9.9460130873296642e+00 3.0031000000003328e+01 0 0 0
684 2 7.3830000000000009e+00 8.5251540748539991e+00 3.0031000000003328e+01 0 0 0
678 2 6.1524999999999999e+00 1.2077301606043163e+01 3.0031000000003328e+01 0 0 0
680 2 6.1524999999999999e+00 1.0656442593567499e+01 3.0031000000003328e+01 0 0 0
926 2 4.9220000000000006e+00 8.5251540748539991e+00 3.3367618916621666e+01 0 0 0
927 2 6.1524999999999999e+00 9.2355835810918343e+00 3.3367618916621666e+01 0 0 0
949 2 7.3830000000000009e+00 8.5251540748539991e+00 3.3367618916621666e+01 0 0 0
925 2 4.9220000000000006e+00 1.1366872099805333e+01 3.3367618916621666e+01 0 0 0
947 2 6.1524999999999999e+00 1.0656442593567499e+01 3.3367618916621666e+01 0 0 0
948 2 7.3829999999999991e+00 1.1366872099805333e+01 3.3367618916621666e+01 0 0 0
729 2 9.8440000000000012e+00 9.9460130873296642e+00 3.0031000000003328e+01 0 0 0
731 2 9.8440000000000012e+00 8.5251540748539956e+00 3.0031000000003328e+01 0 0 0
725 2 8.6135000000000002e+00 1.2077301606043163e+01 3.0031000000003328e+01 0 0 0
727 2 8.6134999999999984e+00 1.0656442593567498e+01 3.0031000000003328e+01 0 0 0
772 2 1.1074500000000002e+01 1.2077301606043163e+01 3.0031000000003328e+01 0 0 0
774 2 1.1074500000000002e+01 1.0656442593567498e+01 3.0031000000003328e+01 0 0 0
950 2 8.6134999999999984e+00 9.2355835810918343e+00 3.3367618916621666e+01 0 0 0
973 2 9.8440000000000012e+00 8.5251540748539956e+00 3.3367618916621666e+01 0 0 0
974 2 1.1074500000000002e+01 9.2355835810918343e+00 3.3367618916621666e+01 0 0 0
971 2 8.6134999999999984e+00 1.0656442593567498e+01 3.3367618916621666e+01 0 0 0
972 2 9.8440000000000012e+00 1.1366872099805333e+01 3.3367618916621666e+01 0 0 0
995 2 1.1074500000000002e+01 1.0656442593567498e+01 3.3367618916621666e+01 0 0 0
996 2 1.2304999999999998e+01 1.1366872099805333e+01 3.3367618916621666e+01 0 0 0
5959 1 1.8258838259391703e+00 3.6012488343826132e+00 3.6506923717191228e+01 4 0 0
3609 1 5.1739541418779105e+00 1.0018023343628133e+01 4.2614683412467912e+01 5 5 -1
3681 1 4.1362758947762703e+00 1.9707480022312358e+00 3.6228228588047259e+01 -2 1 0
5253 1 6.6770999440505063e+00 3.1804757772231831e+00 3.6384020200024892e+01 -2 2 -1
4778 1 8.9019312040311096e+00 1.6452211822499647e+00 3.5716853589546076e+01 0 -1 -1
4812 1 1.1418016336526652e+01 2.7467338979205209e+00 3.6440110139229887e+01 3 -1 -1
3511 1 2.2999047817342100e+00 6.3549574642954454e+00 3.5690642323153611e+01 4 2 -1
4819 1 2.6682096625509599e-01 1.0265687007985500e+01 3.5790661089079521e+01 2 0 0
4559 1 7.0737165750021793e+00 5.7828900796697909e+00 3.5606711439074004e+01 3 -2 0
5239 1 4.8791172523764663e+00 7.1155167993074517e+00 3.6068060145285742e+01 -1 1 -1
5094 1 1.3674250143901004e-01 1.0426764169765001e+01 4.2584086924173391e+01 0 -1 -1
2837 1 9.2547909442060856e+00 7.0038030637187010e+00 3.6329300367583699e+01 -3 0 0
1469 1 2.6636983925003066e+00 1.1672393953455019e+01 3.6329007350602524e+01 -2 1 0
323 1 1.1997021269655450e+01 1.0902982927468804e+01 4.3152425781134454e+01 -2 5 0
204 1 4.8605475563044633e+00 9.9606814795305958e+00 3.6049489821702053e+01 0 2 0
3228 1 7.2290326823597413e+00 1.1389990814410625e+01 3.6116483252516630e+01 4 -1 -1
1747 1 9.5873601614584540e+00 9.7939239484754097e+00 3.6155371075747411e+01 1 1 -1
255 1 9.7173013967144879e+00 9.8118669544574839e+00 4.2269757493979441e+01 -2 1 -1
1265 1 1.9077812627588078e+00 3.8135046025840640e+00 3.9037041924177657e+01 -2 -1 0
51 1 3.9864935704320819e+00 2.1327404500654628e+00 3.9762043992326880e+01 -3 -2 0
2809 1 6.6307437273526988e+00 3.3395204208493370e+00 3.9291304513806239e+01 0 3 0
3268 1 1.1244991063367296e+01 2.9406412610652253e+00 3.9193294054312133e+01 0 1 -1
4630 1 8.9168301406139800e+00 1.7215728500410301e+00 3.9930190031051083e+01 2 1 0
6169 1 2.3321241947488098e+00 6.3784860878583851e+00 4.0063124199100443e+01 2 0 -1
1324 1 1.1786725005669638e+01 5.7436810136744612e+00 4.2530881122422130e+01 2 1 0
1602 1 4.6699459469286451e+00 7.4849275586560911e+00 3.8933207798000183e+01 3 5 -1
1394 1 6.7895579785162257e+00 5.9888910405240328e+00 3.9896932362840673e+01 4 2 -1
1789 1 1.1898145179405782e+01 5.5610415225231131e+00 3.9844823157631637e+01 -3 1 -1
86 1 9.6117818341334136e+00 7.1853347759579647e+00 3.9037245813655090e+01 0 1 -1
3086 1 1.1291616791545954e+01 5.5065923681325222e+00 3.5746492429918419e+01 -3 4 0
3037 1 2.7065515501409725e+00 1.1946349191232889e+01 3.9076166963086763e+01 -2 0 0
1700 1 4.7784759639217480e+00 1.0014801519650813e+01 3.9611046120768492e+01 0 -3 0
5229 1 7.0892377371538595e+00 1.1230364151476456e+01 3.8894876567565305e+01 -4 2 -1
220 1 9.6253553122688391e+00 9.9129682725835853e+00 3.9483091451409067e+01 3 5 -1
3612 1 7.5889853957506848e+00 1.1301563528582713e+01 4.3451850943219100e+01 7 -3 0
1472 1 2.2396483116986516e+00 3.5996977217464048e+00 4.3369145988372452e+01 2 1 -1
1510 1 7.1125862050311977e+00 3.1587513284745743e+00 4.3369327938697964e+01 3 -7 0
1438 1 4.4570568465732023e+00 1.9836213835802197e+00 4.2644727245655190e+01 1 -1 0
1959 1 9.4230311025480820e+00 1.7308026795878033e+00 4.2815157903202930e+01 2 -2 -1
4791 1 1.1740655533666507e+01 3.1576418760560525e+00 4.3706552913680866e+01 4 3 -1
4611 1 2.2658836937059599e+00 6.2231442095655298e+00 4.2933974737748031e+01 -2 0 0
5154 1 2.7450880630328780e+00 1.1654432201274599e+01 4.3352946044021806e+01 -1 -2 -1
6189 1 6.7836916570024020e+00 5.7733051792168668e+00 4.2659741721223710e+01 1 1 0
1745 1 4.9082855889319594e+00 7.2916809880491718e+00 4.3722157679455734e+01 -1 3 -1
4925 1 9.3264323221847008e+00 6.9887198592851218e+00 4.3134369146372350e+01 -3 -1 0
6052 1 2.5405122374033046e-01 8.0308950038463198e+00 3.9248773410317014e+01 -3 5 -1
4768 1 2.6037833581088615e-01 7.7364181504345924e+00 3.6442046175329310e+01 1 0 -1
2900 1 1.2265461007011455e+01 1.0904058991714757e+01 3.6310118794911588e+01 0 0 0
3118 1 2.0656894117618072e+00 3.2743113821403766e+00 4.6110212204275271e+01 -1 -2 0
5975 1 1.8352817156126111e+00 5.7857346235793994e-01 4.6369431671335576e+01 0 2 -1
4862 1 6.7780605201207225e+00 2.8839976925579820e+00 4.6273712990678760e+01 3 3 -1
4737 1 1.0191541452859717e+01 1.2143896233922737e+01 4.9504318506105761e+01 -4 0 -1
1768 1 1.1797767037874017e+01 3.1803285005405835e+00 4.6377507185480596e+01 -1 1 -1
1695 1 1.1945265719022061e+01 7.9642493972710877e+00 4.9535780018398711e+01 2 3 -1
4923 1 1.6299197767814320e+00 2.6007604832125453e-01 4.9203065858062629e+01 0 1 -1
4427 1 5.5274658358763755e+00 1.2182965538778912e+01 4.9145399679129326e+01 2 1 0
3714 1 4.4320628612749635e+00 4.1076893255531903e+00 4.7041652152531299e+01 -1 -2 -1
6209 1 4.7345058495444432e+00 7.0020567536066904e+00 4.6454914716112512e+01 -7 1 -1
4621 1 9.2179115558566629e+00 4.3740693626087532e+00 4.6711228885200640e+01 4 3 0
4930 1 9.1733291294536947e+00 7.0561155091832299e+00 4.6072896554420296e+01 -1 -3 -1
541 1 1.1609970540538702e+01 8.0860696134706398e+00 4.6862569199600415e+01 2 -1 0
4503 1 2.6823856271145492e+00 1.1316791721193853e+01 4.6060810616825577e+01 1 3 0