LAMMPS data file via write_data, version 29 Oct 2020, timestep = 100000

6435 atoms
2 atom types

0.0 49.22 xlo xhi
0.0 49.019635930410494 ylo yhi
1.2135093919220097 58.848490608077725 zlo zhi

Masses

1 18.015
2 12.01

Atoms # atomic

1852 1 1.571820656624448 1.2128860260642043 4.021766155925651 0 1 0
261 1 6.452386473325442 1.6819809821504874 1.4493265267809348 1 2 0
447 1 7.366238569859834 4.037537063240083 2.5601739780905994 0 4 0
4535 1 4.270062116951508 2.955036350988778 3.095201745267958 1 1 1
5342 1 10.0202102551001 3.4834971095138663 2.0238282561439838 2 1 0
2093 1 9.924591210978033 3.8499418181176353 5.8432414058047195 0 2 1
419 1 11.208393823876696 1.7325984897525528 4.6217473701233835 1 1 0
5087 1 14.404147838862157 1.0874445479091102 4.932727948413101 1 1 0
5301 1 15.483782649322812 2.9126612963260046 2.886147890942831 -1 1 1
515 1 17.98831197394424 2.517768744209291 3.5107921013326364 1 0 1
1280 1 21.950482585673097 2.287643424044685 2.3835184728169394 -2 1 1
364 1 1.0233868146828933 7.948654780942301 2.8751355279111093 0 1 0
97 1 1.8218469200039684 5.2574534473514145 3.759388836037013 -1 0 0
3597 1 7.891544693738724 5.822210005368816 5.157573073925931 -1 1 0
1624 1 4.618654462709102 5.339207417767394 4.818182280460349 0 2 1
3752 1 5.953308875060894 7.247644047812952 3.370491797403069 1 -1 1
2097 1 9.754102509506971 7.899665140879367 5.808272765604021 0 -1 1
1993 1 10.650003665015976 6.141943092275779 1.3842214223750373 0 2 0
1678 1 11.754354004008762 7.844714794989209 3.926834714218925 1 1 0
6197 1 14.562954305399474 7.377909153296454 4.377672015709158 0 2 0
4987 1 13.678385884502678 5.227082554326638 2.223056569783817 0 1 0
1652 1 20.060524164111392 7.7522996605844625 1.5739783428141982 -2 1 0
6191 1 17.58390808149638 5.200486068477251 4.808810828810648 -1 1 1
1540 1 17.301817683824016 7.328093514078676 2.8158373969697577 1 0 1
1560 1 20.038342257382272 5.168956080567236 5.829343621336389 1 3 1
1352 1 21.65029863825681 6.883733404061958 4.22167575259655 -2 2 1
3069 1 23.178120640076692 4.318834053352231 3.688053866666926 0 1 1
5111 1 23.101889805114677 6.495280431914545 1.3509136238516888 1 1 0
3442 1 3.0233396769907244 12.249797301019564 5.196712849273894 0 0 1
4855 1 2.514347693211566 9.547760985745413 4.868827307591483 1 1 0
1740 1 3.8905682340028442 11.38919866214592 2.284902477300639 1 1 0
2873 1 6.382897712441613 10.296833059253972 3.1348087688231185 1 2 0
3054 1 11.90400239274605 10.783903307869927 3.2305945750301914 1 1 0
4591 1 8.638120320752856 11.450300190321869 4.151087114871196 -2 -1 1
141 1 15.234736928481027 11.436803062948648 2.884485263405689 -1 -1 1
4895 1 15.336385773849843 10.317206144976337 5.429085288006766 2 0 1
3086 1 18.878925489225754 8.367178865573369 5.091878273698454 0 0 1
415 1 18.203074573068744 11.430987995373622 2.911952228201881 1 -1 0
3676 1 18.16272077698122 11.165341260499142 5.836422521262791 -1 0 0
4803 1 23.24149584938968 9.036480009793534 5.332982878721191 0 1 0
2105 1 22.859368239257154 11.940174414576692 4.747083039789487 1 -1 1
1261 1 20.570924183016025 9.789965508690173 3.3480534720063204 0 -1 1
2901 1 24.269497332026962 8.457509347413303 2.9007172678377855 0 -1 1
3066 1 21.663562398636948 11.895587014451829 1.912027413114922 -2 1 1
1912 1 2.780137196816781 15.189758973109072 2.4512763780320324 2 0 0
3554 1 0.6415310748572509 16.00849202183257 5.783039817905714 0 2 1
2952 1 0.9609746360166593 13.93303212457809 4.113327867351611 0 3 1
3519 1 7.011175440727672 16.081841531104075 2.3396633484247547 0 0 0
3549 1 5.608690987321046 13.57569030867037 5.974605658762242 -1 -1 0
1952 1 5.370232598013009 13.720241499620858 2.3692832454007857 -2 0 0
296 1 11.415384119341528 12.357684998965837 5.496863729836618 1 1 0
4743 1 10.298849270725023 15.765249819101655 4.531010705646787 -2 1 1
4649 1 8.783745411785455 14.079327108896802 2.888953328125367 1 0 1
1277 1 16.232042298335355 15.703528790131978 2.8058669714718643 1 -1 1
3579 1 12.94320152650418 14.709962635543546 5.110921873308657 0 0 0
1987 1 14.198041395158418 13.999859238173904 2.604989243392496 1 3 0
5345 1 19.859277665674263 16.08040908939553 5.307041854239689 1 -2 1
6164 1 18.102045327466733 14.158135282228415 4.422479744476881 -1 0 1
4759 1 19.32568281991565 13.738777786373156 1.5309371010505424 -1 2 1
2925 1 24.1433296251308 14.715369760221499 5.902078855081732 2 0 1
6321 1 22.031955874348053 15.699095375742516 1.666942146510291 -1 -1 1
4913 1 3.51356624532718 20.20058038310002 5.530353772703027 0 0 1
3004 1 0.5306558541650104 16.834430556457708 1.644457938129717 1 0 1
262 1 1.583126285486244 18.294488591841166 4.160976712809926 0 3 0
2939 1 3.8830682820984253 19.58604417026597 1.4100438122497394 1 1 1
3351 1 4.46338391499703 17.35329723050371 3.561123526864963 1 0 0
1805 1 6.480896713785875 20.15295880444263 2.402603316001677 1 -2 0
6363 1 6.304065576391569 19.223528069753957 5.207961490421914 0 0 0
5012 1 8.633617437655442 18.47590901694736 3.7229850109630336 1 0 0
3532 1 12.240122771348073 20.305574665756037 4.684092831369774 -1 1 0
4878 1 10.581892051630806 18.15217673421091 1.2507391817940388 2 0 1
1697 1 12.779012091387974 16.60307801398218 2.2359776426020543 -1 0 0
1835 1 14.056032148379888 18.28675725750936 3.6789971038390434 1 2 1
4693 1 15.130988378180584 20.196952659433222 1.4682065642493678 -1 0 1
6062 1 19.765635238490827 18.020867996709818 3.449269360788658 1 0 1
3399 1 17.092323197146378 17.572123191787863 4.910759579424303 1 3 0
2890 1 24.386363795541413 18.663871556710813 2.3195148735924054 2 1 1
5269 1 21.29974596834718 20.340464331563506 4.35173344306003 1 -2 0
3286 1 24.475885534499685 18.443458626368745 5.412075725047074 -1 3 0
1398 1 22.661539956265333 16.519182094864004 4.237313429784491 -1 -2 1
2091 1 2.548092962270675 21.873388631198686 1.838383620005421 0 2 0
6138 1 3.62375215433127 23.138021247914036 4.393750453957494 1 -1 1
1806 1 6.356603710362056 23.256607870887613 5.858918346353007 1 -1 0
1344 1 10.608201301113576 24.286923788561555 1.5390180071933917 2 0 1
4847 1 10.567848366554188 22.568787872179144 5.014258401348044 0 -1 0
57 1 9.990843926713328 20.656285122967954 2.3803597328819124 1 0 0
4985 1 8.414914542111843 23.351040018520987 3.3362171495602007 1 0 1
2037 1 14.499223176463301 21.831762174181648 3.870839952597524 2 -1 0
1308 1 16.91015363673064 20.474443405290792 5.587516610703978 0 0 1
1320 1 18.440411291551413 21.716464401801655 4.284833570883479 1 -2 1
6351 1 18.694786430374723 24.473816905168192 4.953537008982623 1 -1 1
1249 1 16.679131932458684 23.778011071294824 2.376941408002817 1 0 1
3659 1 24.058350989379193 21.7720955893361 3.41536988533521 3 0 0
1645 1 20.935012953816805 22.18676938536128 1.6520497686222 -1 1 0
3116 1 21.665130089219197 23.753467502810782 4.3138142951547 1 0 1
5144 1 1.6562296120817404 0.021627425792234117 8.179237192876613 1 1 0
4974 1 1.874480294021513 2.5554236578594707 6.673765891508926 0 -1 0
4735 1 4.419639771367433 2.5697291368490296 6.491151822765375 0 2 1
3337 1 5.143660218113533 1.6309876351832375 9.51707561571249 0 0 1
2924 1 7.319857028699968 2.4040590053586897 7.432507029176426 0 0 0
3231 1 6.939306175156268 0.08184879232339892 10.801012703092306 2 1 0
3593 1 11.371067382935545 1.110040675684649 7.858239529963288 1 -1 0
6115 1 13.313601968515384 0.3014101831473705 10.428291196229642 0 0 1
3288 1 13.109240120712169 2.997608322130738 9.521246389004851 2 2 1
3263 1 14.814400487067115 2.579399693010687 7.442633276633672 1 3 0
3285 1 17.555888882133488 3.977570774559834 10.189654529516709 1 1 0
299 1 19.876317254158863 3.372250647002236 7.572364989178962 0 0 0
28 1 17.272057104263034 1.7347613319892932 8.453689743675593 0 0 0
442 1 22.327019257237783 2.197888273174763 9.065332749185709 0 1 0
5146 1 1.0533180831103213 5.023440393683719 6.66400296401885 1 1 0
4740 1 2.6708394765999137 8.07226179976727 7.506938587059485 1 1 1
3026 1 3.787323509604695 5.528402415256334 7.702981785361163 0 2 1
5026 1 2.663967691357175 4.192841705761465 10.240331064471492 -1 1 0
3626 1 6.800960586905469 5.363055218652968 7.482302449198939 -1 -1 0
4873 1 7.009111612870264 6.102936594565167 10.202913483439056 1 1 0
1390 1 10.994788036541589 4.296059418941249 8.681045377404942 -1 1 1
418 1 11.19945598273728 7.180901949934627 8.2635120029648 0 -1 0
410 1 14.210700237169824 7.124801744926388 7.419367862553912 0 -1 0
4579 1 15.95536710571175 5.056470775672196 7.109326121883895 0 -1 1
3168 1 13.037381695288245 7.418421943800035 10.333749155007178 2 2 1
6220 1 16.61501919720922 6.701466505608229 9.252305092683695 3 1 0
2024 1 20.021107212963027 5.788190021906189 9.836742844001629 1 0 0
5385 1 22.697919812441807 5.362815257263924 8.714974326169656 0 2 1
194 1 20.59779152264624 7.631846001163599 7.556293068863149 -2 1 0
4697 1 23.935641065984765 5.719596266202178 6.240484953381475 -1 -2 1
6412 1 24.54070915694244 6.7929724119966295 10.631544427631887 1 1 1
1720 1 1.7832578625726005 11.14748339605015 9.772467454108352 2 0 0
158 1 3.963909297157188 9.5490988002725 10.08474635208777 1 0 0
3193 1 7.530139591772058 9.022437571453368 9.899008066744056 -1 0 0
3361 1 7.489985246660532 8.912546306682458 7.103150994375268 2 0 0
2931 1 7.409501945002497 11.551474707788572 6.773263258437641 -1 0 1
206 1 5.730706072496954 11.54584922720486 9.371061478912996 1 -1 0
3078 1 11.269169526729824 10.743617959990456 10.73917344037892 1 0 1
5239 1 13.28700994291195 10.715490971109125 7.158368414927877 -1 1 1
1647 1 14.12091570018373 10.01594509457311 9.71514637612522 -1 -1 1
1880 1 18.648997776594513 8.48818599432874 9.412064854976444 1 -1 1
4727 1 21.84274798527856 8.43162272666832 10.794964116675017 2 -2 1
3678 1 20.93103497842867 11.791720443848533 7.089430764960467 0 -2 0
6323 1 24.34213033840724 9.199109171813115 9.101924736854501 0 1 1
3008 1 2.7698533413183366 13.952560836857922 10.350745142181095 -1 -1 1
1931 1 5.265864967789134 15.72362397548521 7.999627131732205 -1 1 1
200 1 4.9981945910673 15.481201661742674 10.558376445023592 0 0 1
3298 1 11.520923591452089 13.64616543599167 10.104890962105463 0 1 0
1293 1 9.288775328863082 15.738098108519193 7.122314137979434 -1 -2 1
1358 1 9.473008218446763 13.096703755232033 7.944136817518497 0 1 1
5414 1 14.016560008023445 15.150358317726003 7.60506573014469 1 1 1
5045 1 15.50790172356044 12.68107362181536 10.380229467522582 2 0 0
6178 1 16.50638667122101 12.879415666758936 7.565061006054513 -1 0 1
248 1 16.97345338933107 15.873076460725365 7.930509561640986 1 -1 1
217 1 19.569110036485142 14.042791321037829 7.969359922592466 2 2 1
3570 1 17.850666970120667 14.046548335004672 10.556796856577801 0 2 0
1589 1 22.78200617816768 13.389943803822137 8.664070216449366 1 0 0
3396 1 2.239560521337446 19.03330326299912 9.554181817519414 1 0 1
4821 1 1.8255256965582787 16.544936468816616 9.399531903230708 1 0 1
3074 1 0.17772966187423528 20.270539723275764 7.6319090110824295 0 0 0
3245 1 3.2730856373587467 16.829480952490833 6.705804582300754 1 0 0
4700 1 7.76155258802958 17.540124550919735 10.415025059044035 1 0 1
3205 1 7.352184415632458 17.57099300699525 7.563814054688782 1 0 1
1304 1 5.045699406776885 18.343964417104473 10.217533073516678 2 -1 1
2864 1 11.355921351458706 16.8438322938542 9.259558584678434 0 -1 1
1485 1 10.878365710375366 20.05441455757903 9.914286415353608 0 -2 0
1655 1 8.479889193905377 20.12919025806039 8.551459598862237 -1 1 1
1841 1 13.521905106620533 17.816507805848634 8.203704240207239 1 0 0
5408 1 14.86374309360407 18.64916070756269 10.729032575550924 0 -1 1
4754 1 12.848529651940915 20.15593597557109 7.5368031463217955 1 -1 1
430 1 17.613535915328114 18.076241461805342 9.509722493700503 0 -1 0
191 1 19.428510206402663 20.14395816399876 8.676153400877457 1 0 1
3055 1 21.69659280760031 19.61778285215863 7.365082668733321 0 1 0
2186 1 23.17144409361855 18.070110799332472 9.05688425133794 -1 0 1
3150 1 3.741837803681653 21.46454645243207 8.110057585457476 0 0 1
3566 1 1.5850156624372442 23.1412583631691 8.357118268355695 1 0 0
1986 1 6.1932346508317435 23.504744086373442 8.59516451788675 -1 0 0
128 1 6.168594664007749 21.16196476969397 10.087403614083916 0 1 0
1585 1 8.061116484367508 21.527351108619488 6.083702077987181 1 -3 1
2167 1 9.209410712972332 23.638298668651863 9.258906033441445 0 1 1
1460 1 10.82267880480673 22.28197605208963 7.576329048207245 1 -2 1
1728 1 14.96778811387397 21.668659472168503 9.506492295097646 -1 1 0
1844 1 13.868707710715364 23.072667377868996 6.868744071672383 0 0 0
6167 1 17.087427318608206 22.215493466318186 7.7064587887197105 0 0 1
5307 1 19.190977511507608 24.04282883673315 7.898070942640693 -1 1 0
6298 1 21.423655818884573 22.676945492085153 6.8630204053910004 0 -1 1
4510 1 1.1519307275809139 1.1010565590451844 10.863758045616901 1 -2 1
3581 1 3.011651189613488 1.458441635971022 14.119034711226849 1 1 0
1609 1 2.4068366786234585 3.820741355393113 13.19941974164179 0 0 1
562 1 5.510724442909482 0.834998416444415 15.023712054201875 1 1 1
5415 1 7.102481949661677 1.8259802103053853 13.06972208668242 2 -1 0
6068 1 9.92640715861444 0.3789525678113084 12.007442341147119 0 0 1
5228 1 9.453036887227563 0.766972724448505 14.554857888309757 0 0 0
5147 1 8.668930073818563 3.8048009214914886 15.277804246768033 1 1 0
14 1 12.585035375715874 0.45430179112313634 13.374646768005885 0 0 1
1894 1 13.341192812858232 3.770223918179844 13.28134697399342 1 2 0
4769 1 15.787340077605593 3.924219146925837 14.23113168979149 1 0 1
3622 1 19.028444426217188 3.2918073381880357 12.389270943247494 0 0 0
48 1 16.870905050724776 1.8448866341833992 13.126014669231402 0 0 0
5158 1 23.750496601006656 2.9141227950674953 12.879539458962677 0 -1 0
4932 1 21.413878363616433 1.9985170518775215 11.533052151888768 1 2 0
4599 1 2.9893684949508175 6.878837594775771 11.974571869104532 1 1 1
2010 1 1.9294990191920944 6.045795023386799 15.451140503974361 0 0 0
4669 1 6.079172411074642 4.323793022872848 14.42800933710389 1 -1 1
3057 1 7.844502497476308 6.362154706102571 13.431984498790007 -1 -1 0
3591 1 9.744005741183042 6.961097558247238 10.916236970736506 1 0 0
3447 1 11.51540441001324 5.344066990514542 15.10916607340488 -1 1 0
4601 1 9.44297978521679 7.857258564787564 15.405973377250866 2 0 1
6251 1 16.106944030842037 6.936234088444607 13.648603565989353 -1 -2 0
63 1 14.612794618122608 4.796742154863136 10.874628435070843 2 -1 0
3087 1 18.866416035844495 5.571584832386769 14.111885180832918 0 2 1
5040 1 21.076680241308 7.330180693033972 13.424513526013072 0 0 0
4748 1 23.452187751611028 5.693517156847139 12.921692209327226 0 0 1
5295 1 3.9083966573042974 8.236446479611653 14.980074748029025 1 0 0
4555 1 5.589025781948557 8.384494325852366 12.554613844830474 1 -1 1
24 1 8.748356134515342 10.850579137998139 11.630468332057191 1 -1 0
286 1 10.334426838425355 10.62777449464925 14.227912695178645 0 -1 0
4806 1 13.846973484602064 8.643814809314144 13.00477135238512 -1 -1 1
6406 1 12.67646234984582 12.13281310443726 13.427248978304108 0 -1 1
1573 1 12.750996254251843 9.265892893512074 15.464416130157883 1 -1 0
5381 1 15.348627241172716 11.294967165370647 13.353980620034026 1 -2 1
1508 1 19.37811759097037 10.852017083932068 13.746003494069782 1 -1 1
6080 1 18.374162695301514 10.784679200468856 11.157117869803828 1 0 1
443 1 17.0395817014833 9.103390846930434 14.917778948163374 1 0 1
1431 1 23.517272145398067 11.123438488004254 14.089059746584596 0 -1 1
1855 1 21.605502166556608 10.97300555310345 11.980291442329932 -1 0 0
1274 1 23.114976737540605 8.882151066197927 15.2380253615534 0 2 1
2956 1 3.0223514954101574 14.887895062820052 13.239369032095357 -1 -1 1
1418 1 1.172815776983662 12.976455115676732 14.778949100270497 -1 -1 0
98 1 5.638911439498838 13.757351418224028 14.222795932337878 1 -1 0
6348 1 6.72542834983223 13.338232788280916 11.229818710377408 0 -1 1
5263 1 8.803746914951182 13.237147584676185 14.18903033654535 -1 0 0
2957 1 12.210138621662702 13.920912378803155 15.588330198270786 -1 -1 0
2127 1 9.505276249776424 15.933926747121228 13.814468839349352 0 2 1
3080 1 8.867414634469698 14.9011452593066 10.94919225714287 0 1 1
6435 1 11.94083994159313 16.025678860723836 11.912551368033416 1 0 1
3474 1 14.890077253857353 14.111853818995252 14.551799174321777 2 -1 0
4996 1 14.880713749475865 15.855958915385312 11.425274352448572 0 0 1
2096 1 18.473478507538516 15.178780250800546 12.995599126618107 1 0 1
1628 1 17.6298938818342 12.925859369979328 14.2963870861362 0 0 1
4911 1 21.077496509792685 15.257707438122862 12.946725179418276 -1 1 1
5360 1 20.90795000740992 13.544681659322666 10.829394001546895 1 0 1
1833 1 22.01352164768074 13.806849436756854 15.004980612811583 1 0 0
1531 1 3.673166660279738 19.310617184102977 13.103610205023765 0 0 1
1775 1 1.4462144324757815 17.04766211280773 12.770333246097405 2 2 1
3293 1 0.5484300212389114 20.255556736235395 13.093437206839322 -1 1 0
2929 1 5.146289203567923 16.978267708816233 13.430274124692922 1 0 1
6121 1 7.801169157989022 18.026704935434918 14.896714431275484 2 1 1
6249 1 7.513977109590571 19.901002134367335 12.409970155562423 0 0 0
72 1 12.415934938407903 18.713783161220068 12.060143814251866 0 0 0
3402 1 13.119254957538473 18.488549768503997 14.933739381635087 0 -1 0
3558 1 15.429315033150155 17.15609957628756 14.050467389841138 2 -1 0
3776 1 19.254777143614348 19.05874882891732 11.914953867760591 0 1 2
1923 1 17.75981395987273 18.27142248350671 13.948652166391245 -1 0 0
17 1 23.363140533727798 18.11108661607325 14.473912156645923 -1 0 0
463 1 21.823688827892617 17.784300844590827 11.738934426097721 1 1 0
449 1 23.348936975413846 20.395590110125404 11.881747575484845 0 -1 0
384 1 2.34978229496052 21.917971193548667 11.356409005918806 1 0 1
3289 1 2.8389723795431605 24.49712543463156 13.96576695549298 1 -2 0
272 1 0.7123257706857073 23.434895900240143 15.45883078816125 1 1 1
3502 1 5.445197833545042 22.915420177429876 12.568391567022017 2 0 0
391 1 5.805343830888532 24.427060498346624 15.153435035725897 0 1 0
1435 1 5.909699379581161 20.474040888466362 14.689377700395761 0 0 1
5349 1 8.27701552419247 23.086831548612235 15.354181344276757 1 0 1
349 1 9.691858025853609 24.2227145970038 12.019925653796255 1 0 0
1889 1 9.731805508557102 21.46208432876589 12.24701148145139 -2 1 0
6350 1 11.094742418918443 21.823452858649112 14.734171462652998 -1 2 0
3123 1 15.549661827794157 22.199513545072662 13.097367855957588 -1 1 1
4490 1 14.413188485885623 24.202133184434565 15.152332036166944 0 1 1
3213 1 14.112733212801697 23.59099734562998 11.234414232875526 -1 1 0
3128 1 19.40723431828158 23.613977291997614 11.190103328708489 1 -1 1
3631 1 17.52401651446181 23.28947201592767 14.094994049510714 -1 -2 0
1394 1 17.72787003921068 21.249357420775134 10.999115758701606 0 2 1
1716 1 19.7403150150933 21.55587936718636 13.962873132980798 1 2 0
297 1 24.029365602008625 23.302859355311103 12.686621095849286 0 -1 0
5224 1 22.45957256690344 22.31516972837598 15.292392902843726 0 1 0
190 1 3.0063441698243314 1.811800810531809 17.082715062081007 2 1 0
6109 1 1.4024993411016833 3.9646134243462345 17.39305833491935 0 -1 1
1982 1 2.305250644173254 0.18434493432057286 19.44567746477753 0 0 0
5037 1 7.351444127700284 1.2961401696512844 16.776251766411164 1 2 0
361 1 7.666240882663987 3.2408413557018156 20.40839337390612 0 0 1
2070 1 5.420620326397797 2.46740623332859 18.939061227875055 0 2 1
439 1 11.468632214269508 2.5186964007461965 15.664502185584938 2 -1 0
4668 1 9.274724824881334 3.886025918875604 17.93487223730541 1 1 1
6133 1 11.556575894914793 2.710457841407958 18.343525948568153 1 1 1
139 1 14.513127753471906 2.51272730432434 18.121530049082846 1 1 0
4815 1 18.386205546174658 0.6604666417695926 17.124630197361654 1 0 0
3256 1 17.051702280332204 1.149424097316765 20.026146188560407 2 2 1
5237 1 21.353534866066056 0.4687973760223602 17.229260859979064 0 2 0
6061 1 24.526142866027552 2.9319672380650417 18.002156722592645 -1 2 1
3578 1 23.096435123428552 3.5187540091289935 15.893371429087349 0 1 0
268 1 20.700325905993815 3.2874629989716335 17.252055668938755 -1 0 0
1950 1 0.6861034259059834 6.11056327695785 18.721282780582534 -1 0 0
2930 1 6.470216041872408 7.679214699821077 16.337274085002722 -1 -2 1
196 1 4.486677210090727 4.691698559973031 17.055838232945007 1 0 0
3734 1 6.099171584725152 6.074842181999992 18.944687873882362 -1 -1 1
208 1 9.098123865979387 6.764969176859279 18.057985454416944 0 2 0
3432 1 12.889654753317398 6.5874392019518515 17.017167120307214 2 1 0
6184 1 12.55263102861199 5.1246509055815705 19.36530050985621 2 0 1
3095 1 15.63029575520677 4.7822188139366775 20.038373735220674 1 1 1
5317 1 15.818961990751454 4.919315025944875 16.876831525614243 0 -1 0
3006 1 18.577153184077762 5.424310584365371 16.632081600759175 -1 -4 1
4907 1 19.09448761837536 8.031597922152725 17.748451650089255 -1 0 0
4997 1 20.503895981869942 4.312326072346042 19.94938780208045 2 2 0
3469 1 20.228609786416726 7.374213389506063 20.259669823665888 0 1 0
39 1 23.341844535376286 7.246205207433165 20.092066139965855 2 -1 0
3099 1 24.30859796040142 6.013017731692151 15.751566251989873 1 1 1
1696 1 2.359563198088694 11.784789241017384 18.439824018363115 -1 0 0
6336 1 1.996785271590038 10.4198777469626 15.819006573856232 0 0 1
4564 1 4.2948124114302155 9.435487069743218 18.576414220289138 -1 0 0
275 1 7.497604370766094 10.523089795333206 16.04026433390583 0 1 0
4644 1 4.797619606348097 11.476110487105974 16.236871149598045 0 1 0
174 1 11.65703187867424 8.531758819417375 18.74713401044245 1 3 0
3623 1 9.253115334337988 11.061794089182964 19.055112904087 1 0 1
4520 1 16.11727017904695 11.97480327393897 18.73132577051673 0 2 1
4509 1 14.035894224778378 9.045041774816518 20.132392220446384 1 0 1
1577 1 13.752595425963763 10.604176034427278 17.612327845103504 0 1 1
4716 1 16.447503101979162 9.002621278318598 17.91423650144785 1 0 0
3084 1 20.83113116312882 11.924012615478178 17.048910567280387 -1 0 1
278 1 20.71797189077028 9.347774006906528 16.273042556908614 -1 -3 0
3603 1 23.665226523795823 9.154209906153554 18.19201670209261 1 0 0
2063 1 23.21403682179626 12.006625109316754 18.99968197951794 0 0 0
5359 1 1.752458187019094 14.10185651425048 20.121599995712316 1 2 1
2949 1 1.8576505052483465 15.500489374428433 16.181152407891823 0 1 1
6183 1 4.459758355509361 16.013879461166862 16.03845718874799 0 1 0
3081 1 8.203302349907453 14.988659920722718 18.42679333728285 0 1 1
148 1 5.001123535507312 13.508561383492816 18.26397815156665 1 1 1
6419 1 7.105706556246721 12.981927210579336 20.327488080917636 1 -1 1
3461 1 9.533543679637035 13.299719043561073 16.649785173927917 1 2 0
6305 1 15.2767525127629 14.659560748116295 17.23419835716799 1 0 1
4986 1 13.394335366563746 15.001627301513489 19.083028099333603 0 1 0
6393 1 18.90172924921136 15.279495087735425 18.869513867518748 0 2 1
1511 1 18.38790655694734 12.87359786023335 17.019921418838855 2 0 0
3120 1 19.653695863080614 12.755812023738732 20.27531639309346 -1 2 0
1803 1 24.58695270579328 14.95354824162869 19.213410663705638 0 0 1
1348 1 21.68715480782306 14.750843231536578 17.618998862650823 1 -1 1
3791 1 24.587846457203344 14.138947043064208 16.177408905988813 0 -2 0
3419 1 21.603546380451842 16.252299560190895 20.241322435156697 0 -1 0
3203 1 1.4527217792940843 17.832866043271384 18.931016527001088 1 0 1
6150 1 3.8498232073500205 18.860594369636708 17.959605531073002 1 0 1
3764 1 0.4595382174011391 20.08827526008238 17.94578330469147 0 0 1
1634 1 5.969036805331295 16.96643955138529 18.823373114457997 0 0 1
1359 1 6.6532521944923575 19.65753313972822 19.75483052853763 1 -1 1
1994 1 8.988566960534481 18.197555163343473 17.474046715826454 0 0 0
5270 1 12.110132455613682 17.384679744795836 18.964296254270934 0 0 0
62 1 11.369697654935543 16.73758785548053 16.13046940305194 1 -1 0
6099 1 9.78068503154337 16.799968643015582 20.173114111223093 0 1 1
5043 1 12.858440818762679 20.214557873661732 19.018355809391725 0 1 0
4937 1 15.877828867978161 17.513146007168462 19.99099243311859 0 1 0
1548 1 17.114021788186893 16.45689697299379 16.87265863880549 0 1 1
1410 1 17.154556271258052 19.121530010309144 17.848247038354327 1 0 1
4807 1 19.40020278858125 19.095337358731758 15.755539004227304 1 -2 1
3488 1 20.046053989413466 18.70801079408413 19.041941535584698 -1 1 0
3106 1 21.699543279266948 17.204359317326748 16.39976177286639 -1 1 1
3142 1 22.856701284895987 18.832716023813312 18.36145490425531 0 1 1
1372 1 1.3268119380298096 22.30337994676872 19.576051137418858 1 0 0
1891 1 3.3480792079790884 21.3999807763212 15.905037088529209 -1 -1 0
3410 1 3.607175595066848 20.723001390531884 20.124089407864822 -2 -1 0
4611 1 2.9178296079649333 24.434916722765735 18.285927617060818 0 2 0
3327 1 5.1491391916561 23.21522692376182 17.625371105870354 0 -2 0
4893 1 7.434525263672318 20.980912399175715 17.00223516200191 1 0 0
6192 1 8.792119704015981 24.367083730167533 17.757563369253493 3 0 1
1478 1 8.743951722085054 22.492499773702296 20.245392133321452 0 1 1
1822 1 15.178863063215973 23.386422583183727 19.066214216801534 -1 1 1
2143 1 13.822171915851845 21.582641897741777 15.648736974124729 1 1 1
30 1 14.979098114984854 20.85741059055772 18.17491118041745 -1 1 1
6253 1 12.61034532087658 23.706172903342516 20.243899867774395 0 3 1
1279 1 19.177055385184364 24.1689580691233 19.56591944631154 -1 0 1
1754 1 20.070094355958396 23.07587172587345 16.497034049010757 -1 0 0
4576 1 24.016383727558896 23.21417544879611 19.8399419279874 -1 -1 1
1671 1 21.41636190372957 21.432443705444463 18.472259916031014 1 0 0
4560 1 24.247512777831286 21.097992112380577 16.796446890792232 -1 -2 1
533 1 1.0183698550370333 3.9860088631829704 21.11990005269142 0 -1 1
3301 1 3.636791782880773 2.1333877225679543 21.20187195885275 0 1 0
2003 1 1.6575372719556352 3.739036532682141 23.835481939575313 -1 -1 0
3671 1 7.69109193244567 2.6847795701098853 23.267079765306157 1 -1 0
25 1 4.557779946113695 2.4350841886392836 23.815603026714317 2 1 0
4572 1 9.334477065561025 0.5125529411025028 23.93317238328159 0 1 1
2860 1 11.079524088229995 1.1955285275274548 20.86120685315585 0 1 0
1828 1 14.50371299385724 1.1112922996744072 24.550558596521142 1 1 0
47 1 14.136744732364514 1.7280248465327213 21.415221818612675 0 0 0
1759 1 12.643989675621896 3.4100564182159867 24.609520568263978 1 0 0
465 1 16.751657993037494 1.5188048842728916 23.485206098644912 -1 -1 1
5375 1 19.013868671111705 0.21298134940811178 21.87722746912739 0 1 1
3586 1 17.92730816936482 3.499368410609351 21.048474185176833 0 -1 0
2126 1 20.028351953207455 2.1531309557685474 23.865748263710188 0 1 1
4840 1 22.66453546241374 0.6108818800936279 20.8337164260526 0 2 0
1549 1 22.24866973022391 2.9195381910210725 22.349664827234413 2 0 1
4943 1 24.56958088608227 0.24254882781147272 23.6258566190274 -2 1 0
3696 1 3.1907914015622625 5.878419588525558 20.728191851657655 1 -1 1
1256 1 3.655283785738013 5.659906759266538 24.1070935904768 2 1 0
3679 1 5.679649068758186 4.927521930962161 21.941992983087818 1 0 1
1469 1 7.084289348903606 6.953994313585315 23.177811554843153 0 -1 1
6413 1 7.350161925011468 8.148724810981639 20.729418760129136 2 1 0
4757 1 9.537829572569713 5.426563171028204 22.198042253177718 2 0 1
179 1 9.842342018261695 4.14415609986684 24.38186939182748 1 1 0
522 1 10.094289489163302 7.692770277159807 20.911324369439953 1 1 1
3235 1 14.57209632709522 5.454788914307399 24.257785983760268 2 0 0
6092 1 13.677084356133989 8.013429607806714 22.766996286820838 0 0 1
3345 1 12.475737108762967 4.127693431374927 22.01410483631897 1 1 0
1991 1 17.433967524980485 5.158348948328396 23.367032184310258 0 -1 1
3571 1 18.198399868122706 7.764336743163361 22.836653808632107 0 0 0
4822 1 16.568035707781814 7.456204961672436 20.546225387555936 0 0 1
4764 1 23.70482416353012 4.387750216349047 20.49359843203216 -2 0 1
274 1 0.15592291606667166 8.187388860464052 22.70809613289417 -1 1 0
1632 1 3.9710014597485017 10.883247419706958 23.02634311365118 0 1 1
4988 1 2.085532099912565 10.3642101124795 20.61351150868377 2 0 0
2166 1 3.008711823882798 8.182544946898023 23.297346485143095 1 1 1
195 1 5.841390499218418 10.446619063260018 20.5613531874717 -1 0 0
3702 1 11.287852762299092 8.812565697935698 23.6430530825565 3 -1 1
4779 1 8.926287581552478 11.65852953077934 23.832810547854937 0 0 1
4571 1 11.862066094540136 11.374213973730074 20.517990865772582 -1 0 1
6079 1 11.891278168047029 12.084477229889677 23.407412505388887 1 2 1
5050 1 16.015157516537123 9.76952386716262 22.729616261594458 0 0 0
245 1 14.509741103736777 11.310186264303143 24.286436064426507 0 1 0
1276 1 18.317959724114225 11.29845310760416 23.67492710218012 0 0 1
303 1 20.622695196196823 10.702166498850264 22.246772003100233 0 -1 0
1984 1 23.178484857104113 11.331320945311012 21.98644941281004 1 0 0
2989 1 1.6223023360422515 12.375241657243226 23.682000565889332 1 0 1
3737 1 0.16639585516534083 13.932091387366386 22.15315636684997 1 0 1
360 1 3.4922361796174664 15.085671628866008 22.962812788572645 0 0 0
6424 1 4.902795468640257 13.327743503421921 24.343279590382263 0 1 0
3470 1 6.061389115417617 16.031027390086596 21.68116816587098 0 1 0
6384 1 7.268832769163627 13.571630884599855 23.069360402449256 -2 0 1
3371 1 11.378628293487152 15.972587975279719 23.61699702303566 1 1 0
188 1 10.314118268018364 14.237925177692464 21.72245468382077 2 -1 0
2992 1 15.363105789013959 16.083714599833403 24.04964972760057 0 0 1
4616 1 13.373771589682054 14.491288476005835 22.039945434200686 0 -1 1
4612 1 16.328974844633603 13.510308184232313 24.80801958744529 0 1 1
3478 1 16.162882528824497 12.848675155932224 21.686279851260768 -1 0 0
436 1 19.470992115820554 14.128961160651606 23.920335707551097 0 -1 0
2953 1 17.25285992377373 15.25499372169961 21.002389081695934 2 0 1
6388 1 21.454338954065232 14.273268729834959 21.88053225196388 -2 0 1
5294 1 24.36748666561232 13.142428564411711 23.38972399761017 -1 0 1
4561 1 0.21971137280474157 19.252320288394298 24.821118982443203 0 1 1
5179 1 2.8331541062864716 19.94537858085027 23.38878203488025 0 1 0
3749 1 0.8336482350006182 16.352801061422763 23.750293726552975 1 0 1