LAMMPS data file via write_data, version 29 Oct 2020, timestep = 100676

4609 atoms
1 atom types

0.0 49.22 xlo xhi
0.0 49.019635930410494 ylo yhi
0.9470496045166499 59.11495039548309 zlo zhi

Masses

1 18.015

Atoms # atomic

146 1 0.768626432781402 2.7758342654973376 3.9558230210040555 1 0 0
3294 1 6.479789483877884 3.516314400127335 2.3140815416484086 1 0 1
3644 1 24.38900173861437 2.0982857940942083 18.941135775267718 0 1 0
437 1 14.858908399095252 0.21646273082153755 10.152162946536661 0 0 0
2314 1 8.56468999173065 2.503098164169135 3.515180010857021 1 0 0
300 1 13.380615116410393 3.5033809570625736 1.2794704860247126 0 1 0
3694 1 20.249310132182494 1.8196796267828652 3.406757816373603 1 1 0
3236 1 23.368395922897598 0.9885098887870082 3.2217304213475195 1 0 1
887 1 23.53145131319006 3.8084978140702295 2.583758349880913 0 0 1
1915 1 4.662720101722714 6.028033631770634 2.3805529421625984 0 1 1
12 1 11.3011470198161 5.346272143249442 2.046764620004832 0 0 0
1334 1 17.473337631638785 4.3200086447023445 3.1807459576715824 0 1 0
175 1 20.026103983100683 4.233035583242144 2.1052029693780616 0 0 0
1965 1 4.390136954737151 14.924096131855048 1.5237058175924991 0 1 1
363 1 5.304571183018534 8.503669754412593 3.1219164286507657 0 0 0
295 1 7.917406871332387 9.115320078223746 2.7914579332915257 0 0 0
466 1 12.934962925543312 7.60569257829659 2.51278133436563 0 0 0
1317 1 16.291943710483825 8.589663032076002 1.9135764384141272 0 0 0
3941 1 17.099072680595707 7.116015382473747 4.149547367970511 1 1 0
117 1 6.079531370968195 24.16320188224953 18.66818087231101 0 0 0
70 1 17.96745199948923 15.82009864524207 1.1763179170424007 0 0 0
1942 1 0.14303467550520454 10.43701919175825 4.288213873599801 0 1 1
1007 1 0.8985946150247158 9.659337480998914 1.67647549856044 0 0 1
2555 1 3.5659737994163536 10.457428003527967 2.128345491196463 1 0 0
1315 1 7.907899181350468 11.90255539779185 3.736418327672905 0 1 0
302 1 12.102126431727418 11.950351956336942 3.4974623518422576 0 0 0
3507 1 24.55812034250441 0.819997542363002 5.709254797256056 0 1 0
311 1 14.74563314907545 11.366045598453702 3.0299805570465597 0 0 0
301 1 10.423734252339177 1.5336047036409626 17.357092466971345 0 0 0
828 1 20.686405858376485 9.789831898578596 1.1683580333842718 0 0 1
3106 1 19.61179827022769 7.4898665572912 3.169724468188022 0 0 1
3349 1 23.11391127604039 11.394233803912371 1.6051697893104948 0 0 1
4352 1 1.1204032129071668 12.99675826228606 4.398505110915641 1 0 1
2245 1 3.683191517765849 12.999741031822632 3.4847587353961558 0 0 1
2455 1 23.764142409515216 12.738940371428104 4.019626037008559 0 0 0
170 1 8.700101714698228 13.404519094527018 1.8058929425579195 0 0 0
348 1 12.300506793792872 15.887364409551404 1.1193811633230104 0 0 0
159 1 16.64826974128737 13.345034380023634 3.5306937341846663 0 0 0
1358 1 20.03973032081839 10.528215547193883 4.0651966990748605 0 0 0
417 1 10.670394423566123 23.92518110002625 19.99122868829683 0 0 0
333 1 4.868938101659921 1.8513351582354918 4.141269401810009 0 0 0
98 1 4.992017030671873 17.485244315881054 2.6757297113775307 0 0 0
262 1 13.439033367294739 24.05692331878136 1.5175960315731918 0 0 0
197 1 9.25996084225515 19.515688767553343 1.7920326604052872 0 0 0
2360 1 9.74441499605443 16.07443450863999 1.753469713556214 1 0 0
2305 1 15.307082721336217 15.964365390017749 2.5399969194504113 0 0 0
320 1 16.06383658022094 17.686377000001563 4.705485963758067 0 0 0
666 1 0.3770861199234977 10.45853035405745 11.246177578571722 0 0 0
2766 1 24.393348659352547 7.09938595672109 12.171874861928005 0 0 0
109 1 4.913856848757554 21.251431456661475 2.0940681626875923 0 0 0
607 1 10.231544768152478 24.219715917406198 11.781355924500675 0 0 0
269 1 9.950034575915348 21.889438567842156 3.7064121714846747 0 0 0
4324 1 15.013242317203865 20.014466346525353 2.8555011474800844 0 0 1
177 1 19.610538884845436 18.050773399293472 1.8874408863927994 0 0 0
3187 1 22.414553658084756 20.70409644792023 2.763682845034811 0 0 1
1130 1 7.203961494088047 23.166578091475863 3.1634710092330676 0 0 0
222 1 21.351562335871524 1.3704332420246284 12.143205471267303 0 0 0
3804 1 18.790949429920243 0.05173611230774978 12.865342539777915 1 1 0
933 1 17.53017428397975 21.984972939416117 1.9744784943351061 0 0 1
4388 1 2.695348423957307 1.4133928864969918 5.666297977966887 1 1 1
1205 1 4.968608057342457 4.272122192437185 6.643593863729431 0 1 0
106 1 7.133243599277754 2.4727927848126745 6.175206357456751 0 0 0
3510 1 20.897685206692874 7.181632803214365 20.04705922600562 0 1 0
1419 1 14.01250402037983 2.1492672735723226 3.425750726927204 0 1 0
1521 1 16.425302676717095 2.4190294157697547 4.8534114299583795 0 1 0
305 1 19.200335257066442 1.6436952995878302 5.929781306256874 0 0 0
717 1 24.547789394612884 20.1240228060269 17.174208538548104 0 0 0
32 1 3.354888429157303 4.661121403162239 4.468358282754345 0 0 0
3674 1 6.136269396810463 6.820555311604763 6.968927818854285 1 1 0
2572 1 9.851075675444536 4.996520602057842 4.594553710790002 1 0 0
1726 1 12.503523901091048 3.719647864511078 5.32071461052569 0 1 0
340 1 22.25340103107185 6.582021504189045 2.952098603861736 0 0 0
2590 1 23.18139864495863 5.769998026841234 6.067127568252683 0 0 0
29 1 1.361094093731094 6.268534675705796 5.6320929740068015 0 0 0
96 1 1.8837263237745268 8.863223658931302 6.1742001849194015 0 0 0
4 1 4.751306549391549 8.531735245803725 5.692412023621882 0 0 0
2680 1 8.249491062063193 7.087253768236052 5.04814197899693 1 0 0
4414 1 9.484856605300886 8.389409994594178 7.0831077075319335 1 1 1
2196 1 13.240281459651168 8.517616734071554 5.061701844946222 0 1 1
672 1 13.251120150469918 6.175970210776524 6.531143370575759 0 0 0
438 1 20.83417529346419 7.188267275203152 5.9843385519480465 0 0 0
3814 1 17.443633154567802 0.30462363868520925 10.036663392525545 0 1 0
275 1 22.22507069882405 9.376467222268328 5.578320884294547 0 0 0
2650 1 18.60264877319034 21.29085841268624 17.537767290934852 0 0 0
2147 1 5.749886216852049 13.190672902330089 5.30939643058423 0 0 1
54 1 5.242555599234888 11.01499919122306 7.004180236886629 0 0 0
652 1 10.98394777047043 10.111676275731881 5.830520779452237 0 0 0
544 1 15.385055635113394 10.27555921527604 5.374277694510431 0 0 0
589 1 17.80661175067421 9.489505740602729 5.838757960709567 0 0 0
881 1 22.978470611402404 10.87630549667416 8.202596810158795 0 0 1
122 1 0.25272863309085614 21.649552381899746 13.304785972297513 0 0 0
3959 1 5.821485675517864 15.496680490068986 6.902694174346199 0 1 0
357 1 10.092608081090116 12.920839784682832 5.536166599651321 0 0 0
72 1 13.308342945398058 14.504912834751737 4.356708755998055 0 0 0
233 1 14.732884530254466 14.666246656668372 6.676910391045132 0 0 0
965 1 20.88850025009333 13.278628461046113 4.74596220881657 0 0 1
1375 1 10.593369929161783 0.20887249495232643 11.352839134040119 0 1 0
343 1 22.67989196639022 13.282653687825587 6.804431691772413 0 0 0
1514 1 6.4292361280610075 17.30966830588795 5.10243358590926 0 0 0
4585 1 8.85209880533148 17.729755112449293 4.085027918682778 1 0 1
3240 1 10.62565939242256 15.456824530767264 4.622281340706854 0 0 1
173 1 12.642735542591383 20.780469093719653 4.046310944903981 0 0 0
219 1 14.63333572487693 17.77521273289324 7.370319735517819 0 0 0
1162 1 18.57367315063596 16.978246848969654 5.936772270483532 0 1 0
2412 1 21.194992449142198 16.129815878666108 5.177048291968085 0 0 0
1991 1 22.292385189865456 16.7963645930711 2.6454754795308983 0 1 1
973 1 17.11774139911904 22.333860634073744 4.686834483061006 0 0 1
3749 1 24.415147790208508 13.656416282687553 16.444383219968636 0 1 0
948 1 4.59761751611066 21.127840526024148 4.877676130677017 0 0 1
3414 1 5.580795223978369 19.26969398138228 6.608520103735574 1 0 1
3459 1 9.533493855299255 19.792159832059074 5.868208687052796 1 0 1
2209 1 12.180928790385721 19.175073277500182 6.577312076773614 0 0 1
4590 1 14.547163244402073 22.341881478835067 5.731787688646291 1 0 1
1041 1 18.03909679218771 19.488443421957005 3.5908626611220082 0 0 1
324 1 22.065936447719114 19.05006518525708 5.105622974296159 0 0 0
3028 1 4.167777938228059 23.184657451918447 14.180779301422028 1 0 0
4526 1 1.7523679386965674 21.434916222183578 5.243384530806384 1 0 1
861 1 5.517083901301474 23.64031911401243 5.3755299442688 0 0 1
2089 1 9.272698068827946 22.171519108572724 8.141999996365648 0 0 1
2116 1 10.091664214259044 23.75774000057817 5.6894386771452075 0 0 1
388 1 3.0609206007787866 22.73979959495228 11.149201459969971 0 0 0
739 1 8.627678399531641 24.30888827023217 17.905923893364974 0 0 0
4312 1 22.30859740526881 23.533976089109753 5.570836295344105 0 0 1
3151 1 3.3015370479482535 2.7910480407035907 8.056830487439543 1 0 1
56 1 8.677212228466287 20.47687314050739 19.699876240952523 0 0 0
2140 1 4.712095019100378 0.10930576629136865 7.93630775940197 0 1 1
4253 1 9.724900869862035 1.171899746229469 8.779566645857981 1 1 1
1238 1 12.225163039544148 2.0613784619253392 7.421031355729665 0 1 0
364 1 14.23503097910947 2.6076267845390366 9.253808253534714 0 0 0
1296 1 16.217507110380097 3.3088819050391507 7.78956044563478 0 1 0
3504 1 18.38955979416233 2.9149439048027665 9.687079972261987 1 1 0
2049 1 12.369668127424873 20.987014658827714 16.814280698063563 0 0 1
1258 1 20.75206111934962 2.237020480683933 8.163991030423233 0 1 0
308 1 23.409998674093963 3.1037225404498523 7.169716069848526 0 0 0
1920 1 0.49627195041048916 13.139953168601906 11.604138764654351 0 0 1
1882 1 9.596253686057716 3.8297924848570117 7.3234312736584934 0 1 0
4128 1 10.935507335781164 6.098954914039296 8.095061848030142 1 1 0
1283 1 16.097751973308497 6.2228721789948445 6.89298605910572 0 1 0
2498 1 20.18141689752109 5.8356782728280265 9.866144465436713 0 0 0
154 1 22.86583182821403 6.752792972188648 9.653592209145085 0 0 0
979 1 1.2858084354806774 9.227689974792288 8.890661868254785 0 0 1
3767 1 1.4730454610840726 6.821790449515712 10.010209775004606 1 1 0
2280 1 6.596152937788527 6.346649199639411 9.722829293720258 1 0 0
3017 1 8.055903798773453 8.800684455719582 10.19392474214941 1 0 0
1850 1 12.908380380771304 8.406514585986141 8.851222986658017 0 1 0
123 1 15.441415943698784 7.772452356835665 9.545708727775443 0 0 0
2520 1 18.720145875334502 7.26254165075595 8.059655857650544 0 0 0
1088 1 3.309884716945923 11.291110983398637 8.89951550256515 0 0 1
559 1 7.978784911993313 10.71732585548629 8.224493991209851 0 0 0
661 1 12.220769087153077 10.816044235996383 8.001711613003392 0 0 0
2607 1 10.934357863577464 8.584515461831698 10.933799351979864 1 0 0
1140 1 14.714558570680131 12.142720074919447 7.538466451887664 0 0 0
315 1 19.11583844379506 12.301410208674728 7.009011337501504 0 0 0
347 1 20.639998052447428 12.310867574065103 9.45520750401906 0 0 0
180 1 5.093548854029667 0.4033714329871921 13.463241954923115 0 0 0
852 1 2.1265060554733104 15.144525428800831 10.679816058145812 0 0 1
2304 1 3.160225865452824 15.404190313235693 8.22637846554067 1 0 0
2394 1 9.331693524144844 12.946343596874861 8.168572146476997 0 0 0
2407 1 7.663906559743184 14.840011884325607 9.159530273014184 1 0 0
25 1 6.973939868343286 14.944032337994438 11.66190939517304 0 0 0
3773 1 11.659726349571624 13.053578200126418 9.611596758322092 1 1 0
2760 1 12.680243417393221 15.44554439517924 8.657844768978865 1 0 0
398 1 17.466640157940724 14.492989633270732 6.037505626527381 0 0 0
205 1 0.22778459161810014 17.01280833396944 10.457312104796733 1 0 0
2584 1 3.7034825265317233 18.14196532437732 8.253916928373943 1 0 0
1438 1 8.820090064147566 17.142962811205823 8.709387720080308 0 0 0
232 1 10.873609029845673 16.849285847637635 6.9019185828419145 0 0 0
545 1 12.585668268008435 16.699440297650664 11.205751955239032 0 0 0
3556 1 18.550159645378145 17.940652695185836 8.961383527852183 0 0 0
1612 1 22.909084048967607 16.23088170305962 7.512584764148948 0 0 1
3711 1 7.866068992645193 19.68193216433429 8.04632813787857 1 0 0
3388 1 6.161163454298831 20.982713117331862 9.91751052979829 0 0 1
126 1 9.982077897901926 18.216170513944974 10.763422189145329 0 0 0
1274 1 14.696196839904326 18.291083732820365 10.141262224742237 0 1 0
73 1 16.12337465314425 22.387310893277455 8.031914803416143 0 0 0
3544 1 19.40833693931125 19.772660511903055 6.28819449624853 0 0 0
435 1 19.712962657457233 22.184245117669775 10.315634633754291 0 0 0
3278 1 24.040726590141176 19.859882860356226 6.910693687665484 0 0 1
2917 1 20.598558799981568 22.026688746649963 7.165391080702997 0 0 0
41 1 22.38365670497664 0.3135294977980166 17.312871037801642 0 0 0
3577 1 4.642552721409215 23.08780181386365 8.79346952468596 1 0 0
1331 1 2.3277555782833965 23.58974375124529 7.140590645518881 0 0 0
1555 1 7.925975289265275 23.175897385896455 10.338460495287045 0 0 0
4082 1 12.153000032621259 19.702444537245746 9.190911377348243 0 0 0
916 1 13.748678463950858 22.168738529272172 9.832934285982756 0 0 1
3018 1 17.78436281309356 20.543608310552937 9.477464539215362 0 0 0
2387 1 18.786074742756476 23.94602154451219 6.891078107238039 0 0 0
2823 1 23.507148603100617 9.117020847468236 18.126117968161623 0 0 0
452 1 15.236900154815324 22.2889838488705 19.443794108420118 0 0 0
1291 1 3.2812588253539685 2.610320830081509 10.903043107809893 0 1 0
3280 1 21.47256058029279 13.963903856525013 1.8162926058424107 0 0 1
3482 1 20.755036287696324 22.15571265935043 1.0338223566531015 1 0 0
235 1 22.995546307530994 24.475048394357763 7.9963463271979744 0 0 0
490 1 18.617352528491775 4.913034717048037 20.021591729671783 0 0 0
3511 1 12.124547150408556 2.0107893732883095 12.630290849879719 0 1 0
1473 1 18.41206521456379 4.366135154519181 12.161082432235812 0 1 0
639 1 21.81015350752995 16.583376683197525 18.702306901789257 0 0 0
716 1 20.23311676997687 3.00992265462394 13.829201601016061 0 0 0
3838 1 24.154017113376216 4.340800231392121 11.769959584765646 0 1 0
3443 1 23.34397126181791 2.177080874806861 10.348531485964841 0 0 1
1 1 4.4493668178918 2.848883165234877 14.734614979551164 0 0 0
1229 1 5.103088204327198 4.556949406074544 11.867601313994351 0 1 0
57 1 8.536803200158586 4.566812919600918 10.232255485988473 0 0 0
186 1 10.73508131192855 5.869948265378992 11.242925687575086 0 0 0
3965 1 15.528522668912835 4.86325767236367 12.564041937589952 1 1 0
3003 1 12.98800603067089 4.15863042827355 11.309885292161644 1 0 0
1090 1 18.748807061871876 7.2137716534406495 12.601588546596062 0 0 1
1277 1 18.95259516247164 12.972695056756923 1.9591723499939022 0 1 0
4022 1 4.090142800954947 7.437953861301323 10.920261058254619 1 1 0
422 1 3.909946196588639 5.651642389098679 14.004977734358178 0 0 0
669 1 15.958774667497114 7.620241635013827 12.8873797206592 0 0 0
1191 1 19.096290007754753 8.961004550156627 10.52267084638262 0 1 0
3296 1 21.787611372912075 9.514738285582391 10.59484390157385 0 1 1
2346 1 1.0227256487986813 3.7816300775038747 11.65676916347865 1 0 0
602 1 4.431409238724981 10.291222036466115 11.407281047599627 0 0 0
1665 1 7.319834067506847 10.14467257144773 12.351948581302166 0 1 0
2118 1 12.374504894171185 10.446887985582578 13.015193897752312 0 1 1
2070 1 15.238659852217884 9.93476673723636 11.843790859724532 0 0 0
368 1 16.415953790328818 9.863732745453818 8.663149561076537 0 0 0
1091 1 17.925704507001846 11.405400374647643 11.061296891659834 0 0 1
596 1 23.22873729572133 9.643714459545105 13.237385067840894 0 0 0
2592 1 4.440733434937729 14.946366820644997 12.72439460102529 1 0 0
2589 1 3.9254353564797824 11.980975383792424 13.378575020212041 1 0 0
1745 1 8.17648757950114 12.70382311405753 12.56606098995519 0 0 0
38 1 10.881079452353147 12.711380146547915 12.321852836219431 0 0 0
964 1 14.43123918880027 12.46839709162983 10.388216899901652 0 0 1
47 1 17.110370409990633 13.613819408990981 8.889085171692898 0 0 0
407 1 18.73324698363721 11.911610570453519 13.808726500073965 0 0 0
424 1 21.369826566578475 14.502479731558402 11.057828740662634 0 0 0
217 1 23.985159669055975 13.97321972034103 12.14827149844604 0 0 0
27 1 1.7583370282440476 17.91646159155494 14.043023342425832 0 0 0
163 1 4.178725410771958 17.81708373594218 12.74797197234542 0 0 0
141 1 8.661479789080563 16.469368040773148 13.21626442265704 0 0 0
854 1 11.276490403500308 15.19509616218285 13.382977057887741 0 0 1
540 1 14.313821557511814 14.55881798506906 12.208755605071495 0 0 0
517 1 16.59386916581042 16.327123491913607 10.024069754090698 0 0 0
3572 1 16.86620153710766 15.765655681423699 12.98927255748632 0 0 0
2549 1 21.280191803880264 16.79355937960772 9.486502001274197 0 0 0
1759 1 21.804171097305055 18.026475847773153 11.850567229538267 0 1 0
4572 1 14.98967175286283 0.07811237242181815 18.480726010396687 0 1 1
3197 1 3.828124207392119 19.684365191307215 10.563747238891748 0 0 1
441 1 6.867531306322309 20.61396837673305 12.548691478907006 0 0 0
341 1 9.502517411104435 19.845805382915824 12.900742536109405 0 0 0
454 1 16.391869729867256 20.161544053056204 11.803578053968026 0 0 0
4204 1 21.995829399310864 20.626303161290263 11.103879694887679 0 0 0
2574 1 22.68179820948056 18.76378906570333 15.306632028350446 0 0 0
1388 1 12.29289475725887 21.61513972672219 19.483197339842885 0 0 0
766 1 23.717461744984337 9.12755669968585 3.169782325834149 0 0 1
244 1 6.988068973005022 23.23823303733004 13.760958489672845 0 0 0
61 1 21.618067788886034 22.56058887325137 14.63235526349894 0 0 0
3996 1 11.545127526302531 21.92301789597077 12.509099348307764 0 0 0
224 1 14.21966799877407 21.99651873452125 12.448870838059152 0 0 0
603 1 18.406024939285754 21.92799156469242 13.063815537083869 0 0 0
1450 1 7.555465862189357 0.4673130940371192 11.776599711614631 0 1 0
3418 1 22.711521330244423 20.59054076825409 18.88718224254218 0 0 1
3957 1 23.718392407110297 21.067369237457306 13.564772295654294 0 0 0
1200 1 5.198652836763474 2.3857301882222215 17.512623637928492 0 1 0
511 1 7.55898702074209 3.4416479251978647 12.661729034809095 0 0 0
3780 1 1.4043817081277439 20.538656252128742 16.765370709984843 1 0 0
1030 1 11.760183603055202 2.926336118718206 15.342691981939959 0 0 0
3611 1 16.146835006072433 1.9030313394753473 16.22501526295563 0 1 0
1849 1 18.461058258326343 3.2738859132350164 16.15350652581656 0 1 0
2802 1 22.503667559707214 4.26577653023086 14.294650105333842 0 0 0
209 1 1.3627696812513646 4.20268222313286 15.428102477534944 0 0 0
1841 1 7.566705559035844 4.4627412515184295 15.36661109890545 0 1 0
713 1 10.06956563599357 5.2196719290113744 15.732090643611063 0 0 0
3490 1 14.573537434939304 3.7763241917616974 14.794575664212148 0 1 0
3596 1 17.73874432898083 5.570078039150436 17.342947445439002 0 1 0
3705 1 19.271041609622728 7.132980446020213 15.478489470961291 0 0 0
2840 1 21.711784194552564 6.1681329046606015 16.008847905245425 1 0 0
2929 1 1.3781433607678522 6.551791849489585 13.00414273487021 1 0 0
3090 1 1.998790496729658 9.31266491499427 12.943291648215759 1 0 1
2703 1 5.943379323860509 6.898497121919624 15.581117835372577 1 0 0
28 1 8.066760649029076 8.545996836880239 14.536248009198893 0 0 0
2284 1 10.286216651638188 7.07753211456465 13.755755198141957 1 0 0
660 1 12.375270449477659 8.295352174552772 15.261730892417471 0 0 0
231 1 15.277162511316963 8.446200096227699 15.33591645898101 0 0 0
724 1 16.341847063188073 10.296163440634649 17.329736846365925 0 0 0
89 1 18.94714776841989 9.615359212203789 16.56113528000539 0 0 0
2889 1 23.74243519161159 7.925358274493248 15.533073615117434 0 0 0
254 1 1.2867029091274271 11.223948822571714 15.002537711665825 0 0 0
151 1 8.765914548610795 10.522723879141795 16.331575453590194 0 0 0
2810 1 11.589235445415444 11.338680221525877 16.03879369037791 0 0 0
1021 1 15.940682034428006 11.423100122350963 14.56087673516943 0 0 0
280 1 21.206417967429896 10.845224549783756 14.934064234857162 0 0 0
3356 1 16.282460199519193 22.66937365000155 16.746911913051218 0 0 0
2474 1 1.2049763424730242 15.035744183578943 15.659910872097264 1 0 0
3313 1 5.646492113438693 11.399857548486077 15.658002606239542 0 0 1
167 1 4.12759640771567 15.618532662119854 15.717873033585755 0 0 0
1609 1 7.655762119946071 12.9686797381604 15.246842439013884 0 1 0
1744 1 10.278440757546747 13.712789324797294 16.215919042880486 0 0 0
943 1 13.555336654573885 12.88301968920348 14.373593733413802 0 0 0
228 1 12.839183950051707 15.794483006957144 15.72886994362112 0 0 0
576 1 16.17036620664769 13.128316121124886 17.128976485378082 0 0 0
3783 1 19.66955508878108 14.384843902094635 13.309209274478984 0 1 0
78 1 20.966625401094973 15.867442431530929 15.436808967877969 0 0 0
2605 1 19.511742305867326 24.38899122007722 1.7908456123454868 0 0 0
380 1 6.381579352160622 18.56149372992691 14.190437983620885 0 0 0
2919 1 7.146588216801717 15.823199989486367 15.69512088089446 1 0 0
2672 1 9.634567665970113 18.31934008386602 15.436348204509844 1 0 0
36 1 15.738539226253154 15.465907183536462 15.64130230248233 0 0 0
1988 1 19.91683447367159 18.010770718798913 13.873191747718964 0 0 0
263 1 23.485018689184244 15.267415017235145 14.42853650410345 0 0 0
2438 1 2.5620032797101935 20.856138851411153 14.165206742008246 1 0 0
2886 1 5.374551106398941 20.36368850992407 16.352246822332283 0 0 0
440 1 8.131824432289854 20.012201125202346 17.025003116511982 0 0 0
458 1 12.101869179936687 18.17549557641973 17.35787361938326 0 0 0
1029 1 15.617836441972624 18.30785006629396 16.472991323118777 0 0 1
844 1 16.930374316132 18.419197167897075 13.901917298584173 0 0 0
2522 1 19.767073152714293 20.526171667899447 14.94044557719826 0 0 0
694 1 17.87064124744301 18.320518160058146 18.304268051732674 0 0 0
4439 1 0.8920482027399859 20.007765574417824 10.88701072366469 1 0 1
55 1 4.666816373836531 22.918626380804096 16.886072276001016 0 0 0
362 1 8.622746622867863 22.64522190540811 15.890818676134462 0 0 0
21 1 11.027669848842542 22.55875664892188 15.144567267589705 0 0 0
573 1 14.733409205903165 20.765027688988145 15.121812052411597 0 0 0
1276 1 11.097016701533093 22.879027402486518 1.3985546694009017 0 0 0
419 1 14.992517414857835 24.392676068317655 13.224587366246134 0 0 0
688 1 0.8081222193681944 2.370918754876571 19.098698327436367 0 0 0
3936 1 7.2922236743096365 18.26381190468713 20.238099950241473 1 0 0
4552 1 8.093728668418887 3.1091441693694377 18.105237505828544 1 1 1
597 1 0.9316028960022802 14.790287212034979 6.740847485190448 0 0 0
2339 1 13.877960669916458 2.441347433364383 20.049407686887125 1 0 0
1968 1 24.051404130469628 7.924953463472973 7.552688315573177 0 0 1
448 1 19.810682470719886 2.018872306221211 18.385379698597433 0 0 0
430 1 21.71069235464419 3.579438733480689 19.755872706362567 0 0 0
2826 1 2.8399528247906702 3.672777711231664 17.816837191068217 1 0 0
1316 1 2.649054074725768 6.148500314911493 18.708118999864908 0 1 0
3764 1 7.225051529308568 7.14417291222261 18.75906172727383 1 1 0
1327 1 9.973258420793531 5.600893698089075 18.56414092812985 0 1 0
4503 1 7.6345555486762855 0.17155113273450404 7.088430908967536 1 1 1
834 1 14.043045759336536 5.653756147131027 19.239226540409746 0 0 0
1727 1 15.01010073640198 5.9017179302592355 16.40536441659787 0 0 0
3409 1 1.267055312938031 19.032092564379788 7.182638124159524 1 0 1
2059 1 22.954925558311185 5.846367334111116 18.502111205939798 0 1 0
2731 1 0.355108862236676 7.403313892729585 17.913398896989506 1 0 0
1146 1 4.3695671653174255 7.8137897832046015 17.517187966240126 0 1 0
2508 1 11.907030310726121 7.564421357465532 18.029239978425252 0 0 0
4553 1 0.4212459483447258 6.9346060370313545 1.6423710160207619 1 1 1
2463 1 24.009112423799507 22.83819838919141 3.2597246465855125 0 0 0
611 1 20.687095264090456 9.71337596691627 18.89563671063478 0 0 0
3261 1 17.59486636498611 24.03248201441399 14.31239654003646 0 0 1
1865 1 2.8362419816444144 0.5116699188887414 19.83417445745417 0 0 0
66 1 0.7459180347456708 10.168314826422181 18.10917998908983 1 0 0
191 1 4.977366185404929 10.430455557074735 18.413926558965564 0 0 0
1868 1 19.47666258740817 23.40564441216847 19.051080048903945 0 0 0
2249 1 7.936661516683625 9.735625349268922 18.718746661088083 0 1 1
635 1 5.001903882152678 18.83939944683846 18.76260409154432 0 0 0
590 1 12.02872038499504 11.114132707103192 18.754196615553266 0 0 0
2385 1 14.635044087263038 10.073062316510836 19.582210528931935 0 0 0
2598 1 23.712050544136023 1.5925977271231735 15.312765874487367 0 0 0
459 1 22.500874871381985 12.19302409691844 17.161128303186693 0 0 0
2537 1 23.141355388581687 21.499862975887677 8.89890623193257 0 0 0
2002 1 1.5953809436433146 12.900963609149224 17.733017348313407 0 0 0
1246 1 4.1833692674643395 13.470607940795231 17.411599667269822 0 1 0
667 1 6.167354873350056 14.108150832636433 19.257340168088984 0 0 0
2696 1 24.102792829183773 16.956916584471262 19.889780085750036 0 0 0
155 1 13.64024624780459 14.056625874830376 17.917593761066037 0 0 0
1475 1 20.813026373192322 14.100009278844608 18.19980061978661 0 1 0
2413 1 18.119620315561153 13.654356457037295 19.00711011696336 0 0 0
4372 1 3.27482529665774 19.010121680014503 1.0177112131870643 1 0 1
4222 1 0.7671415147862778 18.196299984682934 18.020060924586172 1 0 0
403 1 2.979369105951678 16.938136991717826 18.285735851648283 0 0 0
1567 1 7.744548725446205 16.19257240869644 18.384894452683106 0 0 0
988 1 10.182770719598079 9.25377642118902 19.66492348045316 0 0 0
608 1 10.66217314753267 15.574311241449042 18.38340250647516 0 0 0
1846 1 22.055875919385965 23.362825252122168 18.62986362100646 0 0 0
812 1 17.167425792191345 16.19151193134835 20.124911063857528 0 0 0
3754 1 7.063851205897492 23.950334478351092 7.433521665588019 1 0 0
251 1 20.801388284212862 19.046629026873795 17.682380723821613 0 0 0
2645 1 1.9548581401166882 22.871108469694725 17.806735211765307 1 0 0
2472 1 1.2830173805430043 4.827517827325015 8.062430286063165 1 0 0
4294 1 0.9008011221450178 22.80825886579162 2.7175043415943287 1 0 1
397 1 17.017697391607363 20.26958840521979 20.18843890456706 0 0 0
1032 1 0.4446297137338769 18.412309467133245 1.6164750655905125 0 0 1
2184 1 12.1363615958194 0.021525486758082336 3.8960748909422116 0 1 1
3484 1 12.575003098815813 24.501440991020267 5.6365786740104795 1 0 0
2492 1 11.234710753228159 18.972063955647087 20.01879867878626 1 0 0
249 1 14.133790528545282 15.943446742672558 19.964504507676587 0 0 0
2320 1 3.252131457075542 23.172015208026092 1.0429694604482531 1 0 0
789 1 2.168252645411869 2.80757136448262 1.3294329489488963 0 0 1
2443 1 1.094995001020359 24.506794331048866 10.059260241622985 1 0 0
1770 1 5.04489227717421 2.9768948367484374 23.59333405699068 0 1 0
806 1 1.334386118657817 4.565580232422172 38.13359362929071 0 0 0
367 1 14.508568179792622 7.691015273423349 20.932998725606527 0 0 0
929 1 11.144434823992919 5.48204967822092 22.843761292575344 0 0 0
1295 1 6.747502991425582 24.45657753982644 25.883123677743125 0 0 0
2970 1 19.556636905805338 2.30570086202927 23.1631347860271 0 1 0
683 1 22.199121890211874 2.1802898351491775 22.382966650767294 0 0 0
135 1 2.1481840413322444 5.532868573850579 21.844131687750806 0 0 0
3469 1 7.52636782324782 3.5558365287141975 22.52053820076748 1 1 0
3859 1 9.976819904013368 3.325515419494873 24.04806299049075 1 1 0
1835 1 16.07523656183351 4.1261755614437 21.255580132203914 0 1 0
1351 1 19.530380569198027 6.63030119944756 22.523981682633984 0 1 0
1237 1 23.693829468278373 3.861660764565095 24.303007509185015 0 1 0
3004 1 1.2787758825996596 7.697127428947393 23.582844810330737 1 0 0
4258 1 9.519737819955159 24.42629787302112 26.727704506312364 1 0 0
1723 1 4.512863400917853 7.10428603752213 22.449304550772013 0 1 0
513 1 6.885300308164654 5.860351720394645 21.174385651520492 0 0 0
2817 1 8.8273043718081 6.905612191373264 22.875814306224918 1 0 0
533 1 12.980706249176816 8.633693287098863 22.85630089580787 0 0 0
1098 1 16.105013913559638 6.830742667353104 25.711433517331454 0 0 0
3769 1 20.670088266969444 9.290227022264023 23.654436392944014 0 1 0
105 1 24.17662473854316 6.591644533741478 24.01385601600442 0 1 0
1009 1 14.667813229078106 18.690389702877305 20.681947072042043 0 0 0
747 1 1.4333535165636084 10.702508157240583 21.189276427566366 0 0 0
2829 1 4.033769650504571 10.018391532481584 21.18854686464552 1 0 0
387 1 10.150293617903749 9.46901145726093 22.283848038363445 0 0 0
613 1 22.850502542871055 7.822569321294276 21.793308269722477 0 0 0
43 1 6.941388720798808 11.82066247793205 20.722610805810753 0 0 0
1094 1 23.549543077660406 10.8470687622045 21.692119348917725 0 0 0
815 1 24.537075419289955 5.7665656837866655 35.809132431246994 0 0 0
2444 1 0.6407806395509269 13.281923738259591 20.86363259812956 1 0 0
605 1 4.980992429840928 15.131650401228153 21.36735268334045 0 0 0
2855 1 9.395021409463746 12.146964275405459 21.7026740713957 1 0 0
552 1 9.754872418527027 13.287204208654003 24.067127785707726 0 0 0
521 1 20.503481704945067 23.726244469587485 29.829233357243936 0 0 0
2762 1 13.282259067609806 11.659383724903577 21.910181427147425 0 0 0
59 1 20.026531965149506 16.730229449436173 20.934192865824848 0 0 0
748 1 19.75928389851928 12.88811033317672 25.259315842654864 0 0 0
2626 1 19.99837320880882 14.744734972490054 22.55383638022474 0 0 0
44 1 1.5526914702131644 17.706551316985696 22.17347480523262 0 0 0
431 1 17.355519214803156 14.80770506539768 22.80833194043396 0 0 0
1869 1 6.13193409047331 17.44189435725885 22.50038738450478 0 0 0
1397 1 11.05535573282107 15.83955546348744 24.213747573932412 0 1 0
3737 1 16.050135637770982 12.435919005122608 22.633525385850415 0 0 0
658 1 14.861500880767654 17.445107426778804 39.434165955736496 0 0 0
1499 1 15.418759496454319 14.684047645091994 39.484825024326746 0 0 0
832 1 24.34492264170365 7.779249108495746 37.57782511395379 0 0 0
99 1 10.493190529377403 18.818867138119817 23.018113586284507 0 0 0
2271 1 8.72417429572593 20.990582166271018 23.996772340719268 0 0 0
7 1 12.609774155907596 22.18046515672101 22.57289861707637 0 0 0
4102 1 16.56617194647702 17.08969056795357 24.03114721902025 0 1 0
4512 1 2.0823692941953853 24.293608937875856 26.074369232894007 1 0 0
1330 1 19.871730914325823 19.99550776971397 20.431089548073825 0 0 0
735 1 23.198813911984047 20.372663069187656 21.720440619051544 0 0 0
148 1 0.6554818177047209 23.077380245656382 22.5102337210528 0 0 0