
# read in water data
read_data data.liquid_ML_1 group water extra/atom/types 1
Reading data file ...
  orthogonal box = (0.0000000 0.0000000 0.9470496) to (49.220000 49.019636 59.114950)
  2 by 2 by 3 MPI processor grid
  reading atoms ...
  4609 atoms
  reading velocities ...
  4609 velocities
  read_data CPU = 0.010 seconds

# remove area for graphite
region substrate block 0 ${XDIM} 0 ${YDIM} ${Z_LO} ${Z_HI}
region substrate block 0 49.22 0 ${YDIM} ${Z_LO} ${Z_HI}
region substrate block 0 49.22 0 49.019635930410494 ${Z_LO} ${Z_HI}
region substrate block 0 49.22 0 49.019635930410494 25 ${Z_HI}
region substrate block 0 49.22 0 49.019635930410494 25 35.062
delete_atoms region substrate
Deleted 816 atoms, new total = 3793

# Insert substrate
read_data data.graphite add append shift 0.0 0.0 ${Z_LO} group graphite offset 1 0 0 0 0
read_data data.graphite add append shift 0.0 0.0 25 group graphite offset 1 0 0 0 0
Reading data file ...
  orthogonal box = (0.0000000 0.0000000 0.9470496) to (49.220000 49.019636 59.114950)
  2 by 2 by 3 MPI processor grid
  reading atoms ...
  2760 atoms
  reading velocities ...
  2760 velocities
  read_data CPU = 0.005 seconds


# Define potential
# CHECK ON THIS %%%%%%%%%%%%
#
pair_style sw
pair_coeff * * MLC_e.sw mW C


# Delete water and ice atoms that are overlapping
#
delete_atoms overlap 2.5 water graphite
System init for delete_atoms ...
Neighbor list info ...
  update every 1 steps, delay 10 steps, check yes
  max neighbors/atom: 2000, page size: 100000
  master list distance cutoff = 7.76
  ghost atom cutoff = 7.76
  binsize = 3.88, bins = 13 13 15
  2 neighbor lists, perpetual/occasional/extra = 1 1 0
  (1) command delete_atoms, occasional, copy from (2)
      attributes: full, newton on
      pair build: copy
      stencil: none
      bin: none
  (2) pair sw, perpetual
      attributes: full, newton on
      pair build: full/bin/atomonly
      stencil: full/bin/3d
      bin: standard
Deleted 118 atoms, new total = 6435

# set timestep
#
timestep 10.0

# Define output
#
compute 1 all msd
thermo 50
thermo_style custom step temp press vol etotal ke pe c_1[4]

# Neighbor lists
#
neigh_modify delay 0 every 1 check yes


# Fix graphite atoms in place
# CHECK ON THIS %%%%%%%%%%%%%%%%%%%%
#
fix 1 graphite setforce 0.0 0.0 0.0
velocity graphite set 0.0 0.0 0.0

# Set fixes
#
fix 2 water momentum 10 linear 1 1 1 rescale
fix 3 all nph z ${PRES} ${PRES} ${PCOUPL}
fix 3 all nph z 1 ${PRES} ${PCOUPL}
fix 3 all nph z 1 1 ${PCOUPL}
fix 3 all nph z 1 1 10000.0
fix 4 all temp/csvr ${TEMP} ${TEMP} ${TCOUPL} 837492
fix 4 all temp/csvr 235 ${TEMP} ${TCOUPL} 837492
fix 4 all temp/csvr 235 235 ${TCOUPL} 837492
fix 4 all temp/csvr 235 235 5000.0 837492


# Run 1.0 ns equilibration of water
#
dump 1 all atom 1000 eq.all.${NAME}.dump
dump 1 all atom 1000 eq.all.graphite_ML_1atm_e.dump
run 100000
Neighbor list info ...
  update every 1 steps, delay 0 steps, check yes
  max neighbors/atom: 2000, page size: 100000
  master list distance cutoff = 7.76
  ghost atom cutoff = 7.76
  binsize = 3.88, bins = 13 13 15
  1 neighbor lists, perpetual/occasional/extra = 1 0 0
  (1) pair sw, perpetual
      attributes: full, newton on
      pair build: full/bin/atomonly
      stencil: full/bin/3d
      bin: standard
Per MPI rank memory allocation (min/avg/max) = 4.558 | 4.688 | 4.953 Mbytes
Step Temp Press Volume TotEng KinEng PotEng c_1[4] 
       0    134.11859   -642.91555     140344.4   -34076.507    2572.1977   -36648.705            0 
      50     144.0268   -1046.9599     140239.8   -33907.622    2762.2225   -36669.845   0.54889656 
     100    146.53383   -967.26126    139741.12    -33719.05    2810.3037   -36529.353   0.93090123 
     150    149.79269   -885.97333    138861.44   -33542.316    2872.8038    -36415.12    1.3811147 
     200    153.98468    -557.0169     137934.8   -33442.939       2953.2   -36396.139    1.7716617 
     250    159.27762   -239.99517    137279.62   -33291.065     3054.711   -36345.776    2.1815936 
     300    161.67237   -571.07737       136812   -33103.538    3100.6387   -36204.177    2.6345553 
     350    163.00032    -367.3111    136381.15   -32998.301    3126.1068   -36124.408    3.1708147 
     400    160.80975    -477.2823    135971.39   -32874.782     3084.095   -35958.876    3.7068282 
     450    166.81553    -216.1934    135586.06   -32708.675     3199.277   -35907.952    4.2579005 
     500    167.40765   -247.18672    135242.53   -32603.164     3210.633   -35813.797    4.9549716 
     550    167.03751   -226.95946       134943   -32486.902    3203.5343   -35690.436    5.6378531 
     600    170.16006     -410.632    134634.09   -32373.522    3263.4202   -35636.942    6.3936358 
     650    172.93798   -68.821661    134359.67   -32249.539    3316.6965   -35566.236    7.1311129 
     700    175.53266   -213.65382    134151.52   -32132.407    3366.4586   -35498.866    7.9893616 
     750    173.60513    40.664774    134010.83   -32029.561    3329.4914   -35359.053    8.8312868 
     800    177.00601   -163.70648    133922.74   -31908.151    3394.7154   -35302.867    9.7064513 
     850      180.466   -281.27663    133863.77   -31782.592    3461.0729   -35243.665    10.750761 
     900    181.84779   -232.55895    133779.22   -31671.971    3487.5737   -35159.544    11.766793 
     950    185.09329    125.00526    133705.05   -31570.799    3549.8176   -35120.617    12.822909 
    1000    182.76941   -346.57216     133674.2       -31480    3505.2489   -34985.249    13.854824 
    1050     187.4866    426.75844    133673.21   -31399.361    3595.7177   -34995.078     14.93405 
    1100    187.97407   -250.73461    133731.67   -31326.162    3605.0667   -34931.229    16.016012 
    1150     188.5336   -504.96757    133767.98   -31241.146    3615.7977   -34856.943     17.22661 
    1200    192.58734     43.90837     133759.2   -31176.346    3693.5425   -34869.888    18.477047 
    1250     191.8188    18.218048    133729.83    -31107.64    3678.8029   -34786.443    19.665274 
    1300    193.95427   -348.97006    133735.69   -31048.922    3719.7581    -34768.68    20.862412 
    1350    197.91593    320.84928     133717.6   -30988.749    3795.7369   -34784.486    22.128182 
    1400    198.11098    81.260472    133814.27    -30899.45    3799.4777   -34698.928    23.551856 
    1450    200.08475    -424.5905    133939.03   -30825.691    3837.3317   -34663.023     25.16086 
    1500    200.82728   -276.00542    134046.24   -30771.872    3851.5725   -34623.445    26.728831 
    1550    199.28265    472.84549    134217.52    -30716.29    3821.9487   -34538.239    28.327595 
    1600    201.91259   -208.59624    134505.94   -30652.942     3872.387   -34525.329    29.765432 
    1650    203.00268   -85.487576    134752.77   -30605.401    3893.2934   -34498.695    31.279096 
    1700    202.65014     3.708456    134955.19   -30533.104    3886.5322   -34419.636    32.831238 
    1750    207.44851    618.85687    135102.43   -30496.801    3978.5578   -34475.359    34.274059 
    1800    206.00204   -307.24374    135313.91    -30419.95    3950.8168   -34370.767     35.88633 
    1850    206.94487   -31.130471    135469.46   -30355.456    3968.8987   -34324.355    37.503496 
    1900    210.37506     164.9321    135558.53    -30282.06    4034.6848   -34316.745    39.301308 
    1950    205.47937   -147.52079    135670.44   -30219.041    3940.7926   -34159.834    40.778089 
    2000    212.26272   -427.66006    135846.93   -30157.434    4070.8874   -34228.321    42.061652 
    2050     212.0514   -330.17642    135996.28   -30137.103    4066.8344   -34203.937    43.547107 
    2100     211.4799   -148.57927    136118.67   -30108.715     4055.874   -34164.589    45.211797 
    2150    213.79289   -81.126616    136249.76   -30063.877    4100.2338   -34164.111    46.623811 
    2200    213.95682    -210.4269    136352.21   -30003.965    4103.3776   -34107.342    48.105499 
    2250    215.85874   -313.10008    136472.58   -29972.546    4139.8537     -34112.4    49.438615 
    2300    218.58039   -450.47843    136579.42   -29898.087     4192.051   -34090.138    51.292683 
    2350    218.41698    43.444374     136633.1   -29832.153    4188.9169    -34021.07    53.039448 
    2400    216.71754   -229.53151    136717.37   -29798.628    4156.3242   -33954.953    54.702517 
    2450    217.74954   -328.75187    136811.03   -29762.094    4176.1165   -33938.211    56.771008 
    2500    218.17567    184.85314    136917.29   -29702.159     4184.289   -33886.448    58.612628 
    2550    220.37467   -170.15914    137042.11   -29669.703    4226.4627   -33896.166    59.812906 
    2600    215.94332    146.51571    137131.82   -29644.325    4141.4758   -33785.801    60.907657 
    2650    220.70786     514.7451    137260.07    -29582.34    4232.8528   -33815.193    62.062186 
    2700    226.03442   -144.55257    137459.53   -29554.445    4335.0083   -33889.453    63.254061 
    2750    221.16612   -117.15923    137651.81   -29555.171    4241.6415   -33796.812    64.645868 
    2800    224.53772   -72.871589    137801.74    -29534.07    4306.3039   -33840.374    65.979529 
    2850    220.70574   -369.74667    137903.66   -29529.594    4232.8121   -33762.406     67.04838 
    2900    224.02565   -66.587195    137953.85   -29528.201     4296.483   -33824.684     68.67508 
    2950    219.69764   -199.26818    138069.09   -29515.407    4213.4781   -33728.885    70.374487 
    3000    223.81889   -295.52549    138148.23   -29472.978    4292.5178   -33765.496    71.820205 
    3050    219.93164   -619.06978    138174.74   -29467.435    4217.9659   -33685.401    73.520486 
    3100    226.77508   -360.46323    138161.13   -29452.206    4349.2132   -33801.419    75.141743 
    3150    223.48472   -73.211321     138090.7   -29446.288    4286.1087   -33732.397    76.840447 
    3200    222.03064    196.27754    138019.68   -29406.702    4258.2218   -33664.924    78.159498 
    3250    223.18608    203.25153    137960.57   -29379.356    4280.3814   -33659.738    79.903979 
    3300    225.01739    115.20571    137944.43   -29341.652    4315.5031   -33657.155    81.981944 
    3350    227.89628    2.6112704    138034.23   -29261.743     4370.716   -33632.459    83.986629 
    3400    228.34616    3.1834915     138148.6   -29291.592     4379.344   -33670.936    85.770877 
    3450    230.30327    134.65828    138232.44   -29298.355    4416.8786   -33715.234    87.786595 
    3500    226.47912   -18.642746    138306.47   -29283.552     4343.537   -33627.089    89.622118 
    3550     229.0821    329.06313    138389.83   -29244.614    4393.4584   -33638.072    91.496103 
    3600     223.6739   -215.20156    138492.69    -29240.89     4289.737   -33530.627    93.171446 
    3650    229.06203   -191.57432    138583.61    -29245.49    4393.0734   -33638.564    94.446345 
    3700    231.46357    197.17688     138696.4   -29233.126    4439.1315   -33672.258    96.225403 
    3750    230.88921   -26.688244    138869.28   -29239.987    4428.1161   -33668.103    98.014336 
    3800    226.20238   -153.62978    139048.59   -29232.161    4338.2296   -33570.391    100.13168 
    3850    227.81967   -108.34613    139183.11   -29218.179    4369.2468   -33587.426    101.63016 
    3900    229.62086   -145.99347    139316.99   -29219.044    4403.7909   -33622.835    103.70619 
    3950    227.55583   -823.87021    139400.38     -29178.2    4364.1868   -33542.387    105.17057 
    4000    227.59969      120.724    139336.73   -29181.535    4365.0278   -33546.563    106.47097 
    4050    230.31559   -72.494267    139279.79   -29159.862    4417.1148   -33576.977    108.39817 
    4100    228.18962   -399.37516    139182.35   -29143.053    4376.3419   -33519.395    110.02868 
    4150    224.98934   -334.57733    138980.27    -29108.55    4314.9653   -33423.515     111.4086 
    4200    232.54275    446.86372     138768.8   -29106.864    4459.8285   -33566.693    112.69077 
    4250    230.13401   -228.89977    138592.61     -29083.1    4413.6325   -33496.732    113.93469 
    4300    230.91834   -137.95437    138491.15   -29093.886    4428.6748   -33522.561    115.70095 
    4350    232.78084   -341.58505    138405.31   -29098.425    4464.3947    -33562.82    117.45616 
    4400    233.79153    8.7129478    138341.85   -29088.807    4483.7783   -33572.586    118.98212 
    4450    232.45569     113.8515    138350.57   -29036.933    4458.1588   -33495.092    120.68391 
    4500     234.4954   -35.988521    138407.67   -28995.643    4497.2776   -33492.921    122.76424 
    4550    231.63783    -405.4723    138475.08   -28961.458    4442.4735   -33403.932    123.99019 
    4600    234.28535   -404.09987    138504.29   -28957.066    4493.2491   -33450.315    125.59513 
    4650     238.3819    -33.37212     138509.3   -28911.563    4571.8148   -33483.378    127.43491 
    4700    237.69609    21.058776    138486.58   -28897.733    4558.6621   -33456.395    129.37129 
    4750    238.02519   -219.06129    138518.31   -28910.547    4564.9736    -33475.52    131.14616 
    4800    232.77752     70.27993    138595.11   -28901.925    4464.3311   -33366.256    133.07466 
    4850    234.87799    201.37324    138684.11     -28899.8    4504.6149   -33404.415    134.58634 
    4900    238.25001   -188.28671    138784.52   -28898.038    4569.2853   -33467.324    136.07035 
    4950    233.43392    1.5018191    138895.22   -28892.933    4476.9199   -33369.853    137.37776 
    5000    237.47647    109.97132    139056.71   -28909.848    4554.4501   -33464.298    139.35064 
    5050    233.92803   -606.37882    139210.34   -28922.081    4486.3963   -33408.477    141.08982 
    5100    231.68956   -493.18599    139235.54   -28913.499    4443.4656   -33356.965    143.29342 
    5150    233.02275   -545.00963    139213.69    -28927.67    4469.0342   -33396.704    144.82528 
    5200    233.36717   -229.10415    139147.26    -28931.87    4475.6397   -33407.509    146.39372 
    5250    234.76391   -222.94265    139063.93   -28918.657    4502.4271   -33421.084    148.30995 
    5300    234.22119   -100.53232     138992.2   -28901.434    4492.0186   -33393.453    150.62466 
    5350     237.0324   -427.61804    138954.88   -28886.801    4545.9334   -33432.735    153.59087 
    5400    240.34781   -118.92506    138888.67   -28917.705    4609.5181   -33527.223     155.8035 
    5450    235.92089   -79.176843    138840.76   -28902.935    4524.6163   -33427.551    157.64647 
    5500    234.84483    14.463356    138812.32   -28894.369    4503.9791   -33398.348    158.66415 
    5550    231.43235   -203.05697    138825.91    -28927.21    4438.5327   -33365.742    160.70249 
    5600    234.01831    15.051019    138833.58   -28959.766    4488.1275   -33447.894    162.67561 
    5650    233.20012   -178.59542    138862.36     -29027.6     4472.436   -33500.036    164.51745 
    5700    230.64148    121.72614    138828.68   -29010.068     4423.365   -33433.433    166.61732 
    5750    235.13963   -334.96031    138800.38   -28995.188    4509.6329   -33504.821    169.03651 
    5800    233.41237   -73.503232    138856.27   -28992.705    4476.5065   -33469.212     171.3044 
    5850    232.31737    -388.3394    138961.85   -28945.433    4455.5062    -33400.94    173.07304 
    5900    231.48034    30.343521    138970.31   -28957.449     4439.453   -33396.902    175.16436 
    5950    234.95037   -303.18399    138996.77    -28971.95    4506.0032   -33477.953    176.80713 
    6000    235.12556    33.694502    139033.66   -28966.958     4509.363   -33476.321    178.77553 
    6050     234.8971   -264.69631    139049.94   -28923.885    4504.9815   -33428.867    181.48703 
    6100    238.08435   -113.87591    138959.94   -28939.722    4566.1084   -33505.831    182.96665 
    6150    231.03829   -114.15404    138842.95   -28920.434    4430.9751   -33351.409    184.90122 
    6200    232.18902    331.42663    138695.35   -28938.965    4453.0446    -33392.01     186.4352 
    6250    232.21266    88.637719    138647.99   -28931.967    4453.4978   -33385.465    187.93333 
    6300    232.62223   -196.92223    138660.21    -28900.98    4461.3529   -33362.333    189.67759 
    6350    236.98191   -395.10648    138743.35   -28881.903     4544.965   -33426.868    191.58716 
    6400    235.41772   -290.51741    138828.41   -28926.435    4514.9662   -33441.401    193.17953 
    6450    234.08959    209.78675     138933.6   -28937.425    4489.4947    -33426.92    195.13104 
    6500    237.98507   -86.859499    139064.45   -28903.989    4564.2043   -33468.193    197.14794 
    6550    235.80356   -424.49479    139184.12    -28879.26     4522.366   -33401.626     199.0142 
    6600    232.63839      75.6412    139248.45    -28894.67    4461.6629   -33356.333    201.22366 
    6650    238.20561    326.59012     139280.9   -28917.859    4568.4339   -33486.293    202.47548 
    6700    235.25119    261.84045     139324.7   -28936.229    4511.7724   -33448.001    203.53425 
    6750     234.4626   -331.35306    139404.51   -28945.705    4496.6485   -33442.354    205.29621 
    6800    234.06324    32.346291     139450.8    -28936.95    4488.9892    -33425.94    206.97959 
    6850    235.80809    121.23074    139443.99   -28921.326    4522.4529   -33443.779    208.82641 
    6900    230.44243     115.9463    139480.74   -28897.637    4419.5474   -33317.185    210.77662 
    6950    232.52113   -361.83298    139503.35   -28894.761    4459.4139   -33354.175    212.91145 
    7000    231.15006   -115.02321    139440.73   -28864.901    4433.1188    -33298.02    214.51565 
    7050    238.26795   -250.61298     139386.9   -28868.143    4569.6294   -33437.773    215.82673 
    7100    235.18923   -526.43383    139367.28   -28861.845    4510.5841   -33372.429    218.23489 
    7150    230.29849   -583.11319    139326.18   -28898.311    4416.7868   -33315.098    220.23459 
    7200    233.26597   -234.77793    139215.21   -28922.818    4473.6989   -33396.517    222.97922 
    7250    232.43142   -282.46497    139044.12   -28898.085    4457.6934   -33355.778    224.38281 
    7300    232.51047   -337.47378    138883.44   -28877.129    4459.2094   -33336.338    226.04062 
    7350    236.09207   -86.221536    138744.99   -28860.089    4527.8992   -33387.988    227.51943 
    7400    233.59307    184.58355    138634.13   -28844.772    4479.9722   -33324.744    228.61298 
    7450    235.43169   -625.71566    138613.75   -28830.226    4515.2342    -33345.46    230.40973 
    7500    239.42104   -145.66677    138585.67   -28880.695    4591.7441   -33472.439    232.04531 
    7550    237.27932    549.47696    138606.93   -28908.407     4550.669   -33459.076    234.68841 
    7600    236.12809    112.32682    138730.95    -28874.21    4528.5901     -33402.8    237.25651 
    7650    234.33286    39.149956    138858.77    -28872.22    4494.1602    -33366.38    239.38371 
    7700     234.6503   -233.89885     138998.9   -28871.793    4500.2482   -33372.041    241.21257 
    7750     235.2934    -171.5046    139073.21   -28854.369     4512.582   -33366.951      243.047 
    7800    237.45249   -186.75232    139129.05   -28889.488    4553.9902   -33443.478    245.17678 
    7850    234.66402    32.506045    139212.55   -28866.727    4500.5114   -33367.238    247.20007 
    7900    231.49556     75.64497    139278.19   -28881.198    4439.7451   -33320.943    248.66324 
    7950    234.14198   -300.95518    139370.15   -28908.385    4490.4994   -33398.884    250.34591 
    8000    233.63319    22.334743    139446.61   -28908.149    4480.7416   -33388.891    252.02997 
    8050    234.39155   -374.20874     139535.2   -28884.991    4495.2858   -33380.277    254.69853 
    8100    233.74156   -1.1734099     139545.4   -28914.714    4482.8199   -33397.534    256.11206 
    8150    235.00463    -378.1173    139556.05   -28886.794    4507.0439   -33393.837    257.72752 
    8200      236.652   -269.23415    139522.55   -28891.974    4538.6379   -33430.612    259.00945 
    8250    233.72399    165.51555    139492.39   -28891.358    4482.4831   -33373.841    260.13554 
    8300    233.45144    -336.8513    139453.58   -28878.901    4477.2559   -33356.157    262.40616 
    8350    235.88264   -114.96835    139360.29   -28908.636    4523.8828   -33432.519    264.08223 
    8400    237.79555   -21.405993    139269.44   -28915.585    4560.5696   -33476.155     266.3672 
    8450    234.85459   -244.79201    139155.91   -28922.492    4504.1662   -33426.658    267.92294 
    8500    234.64573   -115.98894    139049.07   -28915.598    4500.1606   -33415.758    269.30699 
    8550    232.98281   -4.1296836    138965.98   -28928.886    4468.2682   -33397.154    270.88182 
    8600    234.31188    298.94506    138905.33   -28927.685    4493.7578   -33421.443    272.99863 
    8650    236.41685   -326.81339    138950.18   -28924.839    4534.1281   -33458.967     275.3194 
    8700    235.37823    103.98854    139031.75   -28924.863    4514.2089   -33439.071    277.64498 
    8750    232.06247   -98.189622    139119.84   -28883.648    4450.6174   -33334.266    279.20503 
    8800    236.75986   -447.38815    139183.69   -28891.572    4540.7066   -33432.279    281.28179 
    8850    234.70385   -194.25474    139182.36     -28913.6    4501.2752   -33414.875    283.20997 
    8900    235.73567   -94.834822    139169.38    -28935.28    4521.0641   -33456.344    284.85991 
    8950    238.18405    115.23527    139166.89   -28918.992    4568.0203   -33487.012    286.19753 
    9000     231.6574   -113.00372    139186.98   -28920.622    4442.8487    -33363.47    289.21838 
    9050    231.45356   -125.06092    139141.91   -28920.571    4438.9395    -33359.51     291.8385 
    9100     234.2055   -21.988513    139067.67    -28967.79    4491.7177   -33459.508    293.86248 
    9150    235.82179   -201.07549    139050.31   -28935.798    4522.7157   -33458.514    294.98841 
    9200    234.90345    -643.3918    139050.31    -28937.78    4505.1033   -33442.883    296.99334 
    9250    231.25289   -171.14003    139020.54   -28959.503    4435.0909   -33394.594     299.1856 
    9300    236.32537   -563.53507    138974.01   -28989.069    4532.3736   -33521.443    300.22056 
    9350    237.09299   -416.32568    138917.66   -28980.263    4547.0954   -33527.358    302.16374 
    9400    237.41033   -395.15987    138846.54   -28969.528    4553.1817    -33522.71    303.76436 
    9450    237.14718   -399.14189    138762.89   -28946.292    4548.1348   -33494.427    305.03783 
    9500    238.92411    39.830983    138660.53   -28974.008    4582.2137   -33556.222    307.50105 
    9550    234.78161   -151.56125    138642.11   -28954.566    4502.7667   -33457.332    308.18753 
    9600    239.59147   -17.973358    138616.14   -28946.814    4595.0126   -33541.826    310.07344 
    9650    229.30565   -555.71158    138648.28    -28962.66    4397.7457   -33360.405     312.9217 
    9700    231.50499    381.08142    138679.97   -28961.257    4439.9258   -33401.183    314.52625 
    9750    237.38004   -696.60057     138770.2   -28964.378    4552.6007   -33516.979    317.32664 
    9800     235.1178   -277.43008    138838.08   -28977.761    4509.2142   -33486.975    319.28842 
    9850    233.76206   -6.0448624    138871.58   -28971.581    4483.2132   -33454.794     321.0856 
    9900    233.60661   -490.42629    138944.55    -28969.25    4480.2319   -33449.482    323.13745 
    9950    234.81259  -0.30884437    139029.17   -28960.477    4503.3607   -33463.838    325.52698 
   10000    236.34917    -130.0677    139155.39   -28945.171    4532.8301   -33478.001    327.05521 
   10050    237.54355   -369.55921    139278.17   -28952.214    4555.7366   -33507.951    328.84823 
   10100    237.01069    -335.1615    139351.91   -28934.154    4545.5171   -33479.672    330.07905 
   10150    236.22993    68.524536    139401.98   -28916.991    4530.5432   -33447.534    331.92313 
   10200    233.03687   -567.82648    139466.59   -28902.657    4469.3051   -33371.962    333.87025 
   10250     236.9176    -62.73531    139398.01   -28907.868    4543.7318     -33451.6    336.26799 
   10300    234.94601     -128.604    139312.49   -28896.656    4505.9195   -33402.576     338.1395 
   10350    236.10804   -87.888797    139246.83   -28893.192    4528.2055   -33421.397    340.19961 
   10400    235.04388   -575.60474    139155.07   -28936.251    4507.7965   -33444.047    341.12197 
   10450    237.19551    171.51908    139051.71   -28921.218    4549.0617    -33470.28    342.92379 
   10500    233.65086   -351.37147    139051.36   -28916.164    4481.0804   -33397.244    344.33345 
   10550    234.86073   -166.82628    139080.01   -28912.376     4504.284    -33416.66    346.02007 
   10600    233.49337    16.242029    139148.62   -28902.558    4478.0601   -33380.618    348.04062 
   10650    240.30341    54.275772    139258.16   -28898.586    4608.6666   -33507.252    350.36066 
   10700    237.60849    -708.5252    139368.55    -28912.37     4556.982   -33469.352    352.58286 
   10750    232.91183   -329.35593    139435.65   -28891.958     4466.907   -33358.865    353.14318 
   10800    235.66852    455.54236    139480.92   -28915.163    4519.7762   -33434.939    354.38022 
   10850    234.55348   -616.05569    139582.57   -28876.367    4498.3913   -33374.758     356.5198 
   10900    235.58896   -26.996831    139645.37   -28872.836    4518.2504   -33391.086    358.34443 
   10950     231.1941   -633.58385    139656.68    -28874.46    4433.9635   -33308.424    360.05498 
   11000    233.78213   -381.37481    139575.46   -28903.176    4483.5981   -33386.774    362.15538 
   11050    235.90555   -246.03799    139471.92   -28929.002    4524.3222   -33453.324    363.29217 
   11100    235.11326   -544.20909    139402.51   -28903.566    4509.1271   -33412.693    363.94854 
   11150    232.01646     76.89629    139350.62   -28915.374     4449.735   -33365.109    364.84879 
   11200    239.11394   -176.66803    139279.56   -28912.888    4585.8543   -33498.742    366.48247 
   11250    233.49502    2.5814086    139222.92   -28932.012    4478.0917   -33410.104    368.23217 
   11300    237.43015    24.383462    139158.79   -28933.781    4553.5618   -33487.343    369.76753 
   11350    234.73786    420.51882    139107.03   -28943.588    4501.9276   -33445.516    371.20677 
   11400    233.15043   -165.85653    139173.06   -28956.926     4471.483   -33428.409    373.60352 
   11450    230.31365   -499.61151    139277.99   -28992.483    4417.0777   -33409.561    375.37941 
   11500    231.75721   -396.97649    139293.63    -28982.83    4444.7631   -33427.593    377.33336 
   11550    231.63358   -126.48707    139315.31   -28988.052     4442.392   -33430.444    378.52415 
   11600    233.43923   -572.47466    139401.43   -28980.761    4477.0217   -33457.783    380.22513 
   11650    228.93212   -236.33734    139400.44   -28954.988    4390.5819    -33345.57    381.34706 
   11700      233.605   -203.74911    139310.35   -28944.124    4480.2009   -33424.325    382.99482 
   11750    235.02848   -218.70249    139165.68   -28944.506    4507.5013   -33452.007    384.73971 
   11800    236.17486   -157.35945    139016.45    -28965.17     4529.487   -33494.657    386.41396 
   11850    233.47408    177.82747     138888.5   -28913.064      4477.69   -33390.754       388.58 
   11900    232.09693    202.84807    138806.74   -28959.196    4451.2783   -33410.474    390.35558 
   11950    236.50391   -299.10931    138749.46   -28962.975    4535.7978   -33498.773    392.29761 
   12000    237.29008   -184.22643    138667.94   -28965.536    4550.8753   -33516.412    393.55139 
   12050    234.76277   -293.08795    138564.56   -28956.431    4502.4052   -33458.836    394.57284 
   12100    232.39443   -210.29641    138457.75   -28947.908    4456.9841   -33404.893    397.13339 
   12150    235.18429    159.96774    138366.31   -28936.912    4510.4894   -33447.401    398.78055 
   12200    229.02312   -137.52416    138398.38   -28932.244    4392.3273   -33324.572    400.88464 
   12250    235.26304   -11.525843     138450.6   -28901.965    4511.9998   -33413.965     402.6211 
   12300    230.41283    192.89255    138538.98   -28904.766    4418.9798   -33323.746    404.50931 
   12350    230.57796   -255.58226    138676.07   -28929.615    4422.1467   -33351.762    406.08586 
   12400      230.691   -195.28656    138793.66   -28961.819    4424.3146   -33386.134    407.93731 
   12450     234.1325   -216.90908    138855.32    -28943.91    4490.3175   -33434.227     409.0897 
   12500    234.39005   -672.76173     138936.7   -28932.397    4495.2571   -33427.654     410.8251 
   12550     233.4212   -150.06954     139008.7   -28957.136    4476.6759   -33433.812    412.56584 
   12600    237.42409     199.6498    139093.12   -28925.178    4553.4454   -33478.623    414.28949 
   12650    234.96953    86.646047    139174.86   -28936.268    4506.3706   -33442.639     416.3132 
   12700    233.07538   -121.20054    139251.38    -28906.25    4470.0437   -33376.294    419.19485 
   12750    232.57242   -302.58835     139293.1   -28943.541    4460.3975   -33403.939    421.11822 
   12800    232.36398   -232.68886    139302.72   -28957.779    4456.3999   -33414.179    424.35078 
   12850    229.38999   -75.990765    139282.17   -28949.538    4399.3633   -33348.901    425.87385 
   12900    233.98185    193.63949    139166.78   -28952.549    4487.4283   -33439.977    427.30156 
   12950    235.88477   -37.611335    139114.22   -28944.673    4523.9237   -33468.597    429.39761 
   13000    240.58818    167.56855    139156.86   -28939.584    4614.1281   -33553.712    431.70782 
   13050    236.02208   -259.03202    139269.55   -28922.487    4526.5569   -33449.044    434.01429 
   13100    237.82944   -85.983045    139272.27   -28903.677    4561.2195   -33464.896    435.55494 
   13150    234.05682    242.62727    139219.07   -28923.579    4488.8662   -33412.445    437.18163 
   13200    231.03581    306.22299    139206.82   -28930.328    4430.9277   -33361.256    438.53827 
   13250    233.08079   -481.61679    139262.82   -28969.356    4470.1474   -33439.503    440.98563 
   13300    232.47538   -195.46069     139284.7   -28965.546    4458.5364   -33424.083     443.2368 
   13350    234.42603    94.583108    139209.99   -28958.754    4495.9471   -33454.701    444.99162 
   13400    230.74588    -191.1848    139115.31   -28970.053    4425.3672    -33395.42    447.08495 
   13450    232.01009      516.405    138975.59   -28988.705    4449.6129   -33438.318    447.45981 
   13500    232.67538   -100.45767    138896.77   -28969.291    4462.3721   -33431.663    450.12867 
   13550    228.50276   -503.37011    138823.22   -29022.865    4382.3475   -33405.212    452.36512 
   13600    229.13805    434.23007    138684.35   -29029.839    4394.5313   -33424.371    454.02575 
   13650    227.32442     117.4959    138594.39   -29018.583    4359.7487   -33378.332    456.94544 
   13700    232.95955    520.81742    138557.21   -29025.683    4467.8221   -33493.505    457.75359 
   13750    229.30654   -200.01508    138611.79    -29022.65    4397.7629   -33420.413    458.58428 
   13800     231.8786    -242.3998    138707.75   -29027.556     4447.091   -33474.647    460.25567 
   13850    235.65714   -348.74332    138814.57   -29031.117     4519.558   -33550.675    461.98283 
   13900    230.88029   -128.57142    138937.01   -29022.177    4427.9451   -33450.122    463.02714 
   13950    236.71594   -42.191548    139050.52    -29031.47    4539.8643   -33571.334    465.37845 
   14000    235.30067   -516.90769    139136.54   -29017.231    4512.7214   -33529.952    467.68205 
   14050    232.35374   -196.36223    139197.53   -28992.615    4456.2036   -33448.819    470.20028 
   14100     232.4872   -382.91366    139257.52   -28985.872    4458.7633   -33444.635    470.71302 
   14150    231.54257   -48.801947    139281.55   -28954.606    4440.6466   -33395.253    472.24322 
   14200    235.93099    -212.5492     139273.2   -28966.504    4524.8101   -33491.315    473.57597 
   14250    232.39174   -414.35781    139232.86   -28921.298    4456.9324    -33378.23    475.73264 
   14300    233.89698   -201.92214    139132.19   -28924.981    4485.8006   -33410.782    476.71185 
   14350    233.63423    220.73306    139012.95    -28927.18    4480.7616   -33407.941    477.08731 
   14400    234.49337    20.374755    138927.17    -28890.15    4497.2385   -33387.388    478.42209 
   14450    237.38955   -200.17474    138900.08    -28928.63     4552.783   -33481.413    479.20552 
   14500    236.53559   -4.3159766    138861.76   -28932.378    4536.4053   -33468.783    481.09467 
   14550      232.489    71.603916    138806.72   -28969.008    4458.7977   -33427.806    482.34983 
   14600       236.73    8.9456855    138826.04   -28985.338    4540.1339   -33525.472    484.14153 
   14650    234.92462   -339.63305    138838.17   -28982.279    4505.5093   -33487.788    485.57059 
   14700     235.7715   -14.283363    138735.95   -28973.688    4521.7512    -33495.44    486.78505 
   14750    234.52361   -123.93707    138604.99   -28972.043    4497.8184   -33469.861    488.22906 
   14800    231.84083    123.51196    138495.65   -29003.268    4446.3667   -33449.635    489.08073 
   14850    234.28896   -15.061316    138397.16   -29027.084    4493.3182   -33520.402    490.97503 
   14900    232.11765   -61.553003    138326.75   -29037.494    4451.6758    -33489.17    492.75402 
   14950    232.45964   -294.39561    138305.55   -29068.673    4458.2347   -33526.908    494.32444 
   15000    227.81817     -187.131    138321.91   -29079.298     4369.218   -33448.516    497.18957 
   15050    230.80981   -340.06285    138405.88   -29084.337    4426.5932    -33510.93    498.28854 
   15100     229.2219    63.059051    138514.58   -29065.189    4396.1396   -33461.329    499.92183 
   15150    234.94276   -31.828857    138643.82   -29074.923    4505.8572    -33580.78    501.69655 
   15200    233.89359    500.39273    138738.15    -29079.57    4485.7356   -33565.306    503.99408 
   15250    230.91159    59.911332    138847.51   -29081.383    4428.5453   -33509.929    506.02107 
   15300    232.62476   -260.31405    138936.14   -29051.191    4461.4014   -33512.592    507.97339 
   15350    230.31287   -289.93156    139020.77    -29039.62    4417.0628   -33456.683    509.91766 
   15400    232.59135   -494.81337    139088.86   -29021.711    4460.7607   -33482.472    511.28725 
   15450    236.70235   -112.50007    139143.26   -29027.311    4539.6035   -33566.915    511.94782 
   15500     229.7244   -183.54823    139239.32   -29012.253    4405.7767    -33418.03     513.5864 
   15550    228.90114   -682.81437    139353.86   -29017.811    4389.9878   -33407.799    514.43435 
   15600    231.08101   -575.13751     139441.1   -29011.421    4431.7946   -33443.215    515.71338 
   15650    232.89825   -137.25014    139476.63   -29020.886    4466.6465   -33487.532    516.90983 
   15700     232.9996   -360.67213    139487.01   -28997.268    4468.5903   -33465.858    519.29959 
   15750    227.27796   -392.96472    139462.18   -28995.369    4358.8575   -33354.227     521.7625 
   15800    233.72097   -102.68545     139386.4   -28992.245    4482.4251    -33474.67    523.04922 
   15850    231.46887   -310.55416    139324.84   -28979.508     4439.233   -33418.741    524.39713 
   15900    229.96628    -362.7189    139262.66   -28982.712    4410.4157   -33393.128    525.97427 
   15950    233.38301   -179.98781    139187.84   -28958.985    4475.9435   -33434.929       527.98 
   16000     233.4286   -50.969393    139135.57   -28943.491    4476.8178   -33420.308    529.62597 
   16050    234.71157   -201.31316    139080.92   -28914.182    4501.4233   -33415.606    531.35484 
   16100    243.95298   -241.49995    139024.06   -28897.174      4678.66   -33575.834    531.75783 
   16150    232.80395    10.097431    138934.97   -28899.469     4464.838   -33364.307    533.22171 
   16200    231.75654   -825.23761    138870.79   -28859.656    4444.7502   -33304.406    535.38718 
   16250     238.8187   -155.71267    138720.63   -28856.741     4580.192   -33436.933    536.81516 
   16300     235.8921    127.88111    138549.35   -28869.818    4524.0642   -33393.883    538.69364 
   16350    235.49555   -53.808757    138459.33   -28877.478    4516.4588   -33393.937    540.57252 
   16400    232.26929    110.52545    138421.19   -28870.849     4454.584   -33325.433    542.01848 
   16450    233.09303    -183.4574    138416.27   -28899.488    4470.3821    -33369.87    544.79071 
   16500    235.66975    195.97171    138408.41    -28882.24    4519.7999    -33402.04     545.7707 
   16550    235.68229    14.389736    138468.37   -28853.145    4520.0403   -33373.185    548.47002 
   16600    240.39324     82.55044     138527.6   -28846.247    4610.3893   -33456.636    551.74158 
   16650    236.57301   -58.837765    138593.47   -28808.989    4537.1231   -33346.112    553.01263 
   16700    241.14662   -101.97513    138682.11   -28868.312    4624.8381    -33493.15    554.97464 
   16750    233.49405    155.55316    138813.03   -28865.745    4478.0732   -33343.818     557.2917 
   16800    235.09872   -352.75884    138902.85   -28883.073    4508.8484   -33391.921    558.61614 
   16850    238.44575      277.722    138927.59    -28912.48    4573.0395    -33485.52    559.13279 
   16900    239.75225   -89.413557    138953.71   -28898.826    4598.0961   -33496.922    560.38143 
   16950    240.48626   -276.83687    138980.94   -28890.074    4612.1733   -33502.247    561.88233 
   17000    234.42018   -183.53334    138987.31   -28908.112    4495.8349   -33403.947    563.15478 
   17050    233.13332    420.65228    139012.83   -28874.149    4471.1547   -33345.304    564.82203 
   17100    235.15669   -351.74251    139126.34   -28890.105      4509.96   -33400.065    566.36013 
   17150    235.14084   -185.80559    139207.29    -28846.98    4509.6561   -33356.636    567.48028 
   17200    233.69714    294.08952    139299.35   -28794.059     4481.968   -33276.027    569.39388 
   17250    237.37818    99.954853    139454.65    -28811.13     4552.565   -33363.695    572.18855 
   17300    238.50272   -114.62664    139635.18   -28775.084     4574.132   -33349.216    574.72669 
   17350    235.07486   -260.60054     139753.2   -28782.024    4508.3906   -33290.414    576.31827 
   17400    238.61002   -123.59762    139825.07   -28807.515    4576.1899   -33383.705     577.7768 
   17450    239.35118   -346.16723     139878.9   -28782.117    4590.4043   -33372.521    578.76366 
   17500    235.44853   -111.64045    139927.08   -28806.449    4515.5571   -33322.007    580.43385 
   17550    238.87253     114.7279    139901.78   -28848.082    4581.2244   -33429.307    582.89069 
   17600    231.75322   -16.116175    139856.82   -28834.303    4444.6864   -33278.989    584.46836 
   17650    239.30188   -513.27119    139799.24   -28810.175    4589.4588   -33399.634    586.82307 
   17700    236.90531   -172.88586    139646.74   -28774.804    4543.4961     -33318.3    588.42816 
   17750      235.539    60.073608    139433.09    -28761.36    4517.2921   -33278.652    589.38344 
   17800    238.49548     77.94439    139245.64   -28768.888    4573.9932   -33342.881    590.71421 
   17850    238.92552   -176.26647    139105.39   -28796.487    4582.2406   -33378.728    592.12499 
   17900     238.9345   -407.89281     139009.1   -28809.868     4582.413   -33392.281    593.54793 
   17950    240.24545   -440.39558    138870.51   -28815.068     4607.555   -33422.623    595.01291 
   18000     234.3259   -217.87618    138621.07   -28863.602    4494.0267   -33357.628    595.65941 
   18050    239.18492    47.943717    138443.66   -28883.106    4587.2157   -33470.321    596.25205 
   18100    232.61275   -391.49704    138360.51    -28925.45    4461.1711   -33386.621    597.87687 
   18150    238.88985    411.34389     138311.3   -28949.189    4581.5567   -33530.746     598.9773 
   18200    238.89276   -182.18053    138316.37   -28923.416    4581.6124   -33505.028     599.8014 
   18250    236.76719    -328.9056    138362.41   -28873.551    4540.8471   -33414.398    600.67084 
   18300    237.22189   -74.869921    138423.58   -28872.787    4549.5676   -33422.354    601.25428 
   18350    237.48595   -221.70155    138474.13   -28864.362    4554.6318   -33418.994     602.3406 
   18400    235.91632    448.74804    138544.44   -28869.452    4524.5286   -33393.981     604.1504 
   18450    229.59412   -110.03207    138717.82   -28895.883    4403.2782   -33299.161    605.46343 
   18500    234.85087   -385.49865    138891.32    -28863.03    4504.0948   -33367.125    606.92159 
   18550     240.9286   -103.77695    138999.01   -28839.903    4620.6568    -33460.56    608.47979 
   18600    236.25414   -82.129625    139107.32   -28821.655    4531.0075   -33352.662    611.00313 
   18650    237.40681   -560.68339    139167.55   -28841.982    4553.1141   -33395.097    612.18777 
   18700     237.1067   -330.31868    139164.75   -28868.102    4547.3583    -33415.46    613.48427 
   18750    233.17035   -398.12638     139189.2   -28841.587    4471.8651   -33313.452    614.36883 
   18800    238.73241   -339.97899    139220.62   -28817.467    4578.5372   -33396.004    616.27163 
   18850     230.8428   -48.016617    139283.69   -28840.657    4427.2261   -33267.883    617.24918 
   18900    237.13713   -205.87669    139364.38   -28843.409    4547.9421   -33391.351    619.17962 
   18950    236.71726   -356.43156    139447.88     -28873.6    4539.8894   -33413.489    620.71914 
   19000    235.56742   -277.66212    139507.86   -28853.666    4517.8373   -33371.504    622.36315 
   19050    241.58622   -576.75176     139547.1   -28838.176     4633.269   -33471.445     623.9905 
   19100    236.75884   -689.35587    139605.21   -28846.001     4540.687   -33386.688    625.79088 
   19150    232.78536    -287.1328     139655.4   -28850.249    4464.4814    -33314.73    627.01153 
   19200    231.18999   -488.84086    139721.58   -28842.577    4433.8846   -33276.461    628.96185 
   19250    234.58262    -58.19708    139716.46   -28834.538    4498.9503   -33333.489    630.05316 
   19300    235.64941    184.85715    139642.13   -28850.891    4519.4096   -33370.301    631.20958 
   19350    233.48431    516.15847    139544.09   -28870.259    4477.8862   -33348.145    633.13301 
   19400    236.33229   -113.11586    139465.17   -28892.788    4532.5064   -33425.295    634.81336 
   19450    233.69632    6.5084401    139418.33   -28888.893    4481.9523   -33370.846    636.21232 
   19500     233.8207    116.94266    139363.41     -28931.5    4484.3378   -33415.838    637.11705 
   19550      236.597    -301.0877    139323.31   -28889.157    4537.5831    -33426.74     637.4267 
   19600    233.49295    143.53084    139261.61   -28878.137    4478.0519   -33356.189    638.84269 
   19650    237.47383   -91.205511    139209.88   -28857.283    4554.3994   -33411.683     640.8711 
   19700    234.58513   -222.71948    139164.19   -28832.112    4498.9984    -33331.11    642.42778 
   19750    238.06193    231.39494    139132.12   -28831.276    4565.6783   -33396.954    642.39484 
   19800    237.17447     369.1011    139162.04   -28845.393    4548.6582   -33394.052    643.88478 
   19850    236.81615    64.539285    139336.76   -28834.741    4541.7861   -33376.527    646.15923 
   19900    238.48178   -537.84234    139495.13   -28814.806    4573.7305   -33388.536    649.06635 
   19950    237.20821   -625.01149    139585.08   -28788.849    4549.3052   -33338.154    650.73051 
   20000    240.67175   -24.192017    139595.02   -28781.739    4615.7309    -33397.47    650.76525 
   20050    239.09961   -618.15735     139603.3   -28794.815    4585.5795   -33380.395    652.41035 
   20100    238.77482   -264.95832    139546.37    -28819.94    4579.3504   -33399.291    654.00112 
   20150    233.25557   -36.523285    139452.94   -28844.186    4473.4994   -33317.685    656.56243 
   20200    234.31014   -120.60279    139346.98   -28842.563    4493.7245   -33336.288    658.28618 
   20250    237.04703   -680.20699    139226.73   -28859.587    4546.2141   -33405.801    660.26988 
   20300    237.17666   -75.922697    139018.32   -28851.229    4548.7001   -33399.929    661.94896 
   20350    239.11928   -12.299357    138818.45   -28850.728    4585.9568   -33436.685    664.42514 
   20400    240.07127    434.76924    138638.17   -28828.386    4604.2145   -33432.601    665.81309 
   20450    238.21737   -159.65112    138578.97   -28793.586    4568.6594   -33362.246    666.12068 
   20500    234.99241   -182.90177    138542.85   -28782.867    4506.8094   -33289.677    666.83501 
   20550    240.99254   -317.70806    138518.74   -28774.266    4621.8831   -33396.149    669.07093 
   20600    243.18975    -47.26466    138554.21   -28784.219    4664.0223   -33448.242    669.85484 
   20650    240.74695   -61.230444    138686.41   -28763.965    4617.1731   -33381.138    672.75685 
   20700    236.38684   -505.47887    138815.05   -28806.046    4533.5525   -33339.599      675.932 
   20750    239.20051    -175.5582    138927.55   -28803.134    4587.5146   -33390.649    678.29023 
   20800    235.14235    119.72106    139009.08   -28799.578    4509.6851   -33309.263    679.99106 
   20850    236.37978    355.11292    139094.35   -28802.077    4533.4171   -33335.494    681.99621 
   20900    237.64702   -387.02689    139182.56   -28748.784    4557.7209   -33306.505    684.32129 
   20950    237.24866    332.45962    139219.16   -28777.434    4550.0809   -33327.515    686.01758 
   21000    238.21535   -24.049863    139286.15   -28797.061    4568.6206   -33365.681    687.81406 
   21050    240.11204   -261.66407    139410.25   -28783.361    4604.9965   -33388.357    690.46304 
   21100     236.3141   -5.9388728    139511.36   -28778.547    4532.1574   -33310.705    693.24689 
   21150    239.31873   -72.595072    139627.42   -28781.804    4589.7819   -33371.586    695.14769 
   21200    238.86883   -217.01014    139725.21   -28806.433    4581.1535   -33387.587    698.29903 
   21250    232.95094   -302.54396    139762.46    -28832.78    4467.6571   -33300.437    700.68257 
   21300    235.12804   -238.01467    139792.44   -28813.959    4509.4106    -33323.37    703.32526 
   21350    235.06838    -50.04953     139821.1   -28857.039    4508.2664   -33365.306    706.73896 
   21400    233.38618    86.661039    139821.53    -28864.38    4476.0043   -33340.384    707.58749 
   21450    236.60184   -327.25284    139852.35    -28852.18    4537.6758   -33389.856    709.51931 
   21500    237.84462   -72.860256    139822.43   -28847.642    4561.5105   -33409.153    712.63065 
   21550    238.29438   -9.3394324    139724.32   -28844.008    4570.1363   -33414.144    715.76661 
   21600     236.3342   0.71200454    139608.76   -28874.865    4532.5429   -33407.408    717.92237 
   21650    234.70899    -302.7542    139503.89   -28867.655    4501.3738   -33369.028     720.4032 
   21700    240.57855    74.502401    139356.59   -28863.344    4613.9434   -33477.287    721.29114 
   21750    236.87217   -41.166156    139234.87   -28860.007    4542.8605   -33402.868    723.46174 
   21800    233.80421   -204.94259    139127.77   -28861.532    4484.0215   -33345.553    725.36024 
   21850    235.23075   -100.46312    139057.98   -28858.384    4511.3804   -33369.765    726.59706 
   21900    234.53046   -101.38637    139064.99   -28861.264    4497.9499   -33359.214    727.84905 
   21950     235.8807   -391.15505    139169.62   -28837.768    4523.8454   -33361.614    731.10339 
   22000    235.02551   -523.36787    139302.35   -28841.931    4507.4443   -33349.375    734.27691 
   22050    236.25449    -129.7966    139381.77   -28849.548    4531.0144   -33380.562    737.09994 
   22100    234.61809   -188.67569    139461.99   -28823.698    4499.6304   -33323.328    738.29774 
   22150    240.06533   -226.75199    139548.39   -28827.273    4604.1006   -33431.374    740.53121 
   22200    237.11312    -164.2531    139617.34   -28804.528    4547.4815   -33352.009    742.86409 
   22250    233.38885     275.9535    139596.16   -28811.147    4476.0554   -33287.202    743.65767 
   22300     237.2112    103.61548     139578.1   -28806.707    4549.3626    -33356.07    745.90695 
   22350    232.91943   -45.831494    139537.65   -28836.872    4467.0528   -33303.925    748.03566 
   22400     237.4792   -299.43222    139463.83   -28858.668    4554.5025   -33413.171    750.36183 
   22450    236.63956    -62.70001    139355.53   -28845.637    4538.3994   -33384.036    752.74618 
   22500    240.83951   -248.98049    139264.07   -28785.205    4618.9481   -33404.153    753.68677 
   22550    238.38946   -108.73609    139120.79   -28809.653    4571.9598   -33381.613    754.87209 
   22600    236.75502     -213.028    138959.28   -28834.985    4540.6138   -33375.599    757.59674 
   22650    234.40639    103.29973    138833.22   -28824.738    4495.5705   -33320.309    759.66893 
   22700    238.80873     30.51223    138758.16   -28825.364    4580.0009   -33405.364    762.00021 
   22750    236.07841   -133.04091     138734.6   -28807.419    4527.6373   -33335.056    764.66224 
   22800    240.17843    -10.73653    138741.67   -28825.399    4606.2697   -33431.669     765.6896 
   22850    233.97263   -29.793917    138817.41   -28822.478    4487.2515   -33309.729    768.02385 
   22900     241.3085    144.83432    138931.18   -28780.155    4627.9427   -33408.098    769.87528 
   22950    239.01973   -119.44947    139063.51   -28781.659    4584.0476   -33365.707    772.45435 
   23000    239.02399    121.65515    139227.55   -28836.787    4584.1292   -33420.916    776.23319 
   23050    240.39105   -379.30949    139384.57   -28799.067    4610.3475   -33409.415    778.66056 
   23100    238.64591   -77.398344    139448.98   -28847.461    4576.8782   -33424.339     780.1278 
   23150    232.78091    352.00774    139506.53   -28850.368     4464.396   -33314.764    782.07371 
   23200    234.87905    225.31971    139604.03   -28838.648    4504.6353   -33343.283    784.30594 
   23250    238.28242    -154.5152    139751.82   -28824.403     4569.907    -33394.31    787.12446 
   23300    233.58163   -94.245193    139842.37   -28829.653    4479.7526   -33309.406    789.59351 
   23350    235.02801   -437.65456    139922.26    -28828.65    4507.4923   -33336.143    793.08406 
   23400    231.47293   -222.47871    139897.56   -28815.892     4439.311   -33255.203    794.95892 
   23450    236.29178    295.47394     139838.2   -28828.187    4531.7294   -33359.916    795.96675 
   23500    234.57114   -176.98033    139823.79   -28831.064      4498.73   -33329.794    798.85423 
   23550    234.69978    288.98139    139735.27   -28844.075    4501.1973   -33345.272    800.61261 
   23600    231.99207    33.757904    139674.32    -28853.46    4449.2674   -33302.727    802.85915 
   23650    239.75195   -469.69422     139592.5   -28886.847    4598.0905   -33484.938     804.0298 
   23700     235.3482   -168.40505    139497.47   -28889.144     4513.633   -33402.777    804.77849 
   23750    238.76011   -187.73017    139335.31   -28885.029    4579.0683   -33464.097    805.22069 
   23800    232.07898   -178.25569    139214.03   -28866.499    4450.9341   -33317.433    807.09267 
   23850    238.98367   -193.22593    139096.83   -28858.606     4583.356   -33441.962     808.7533 
   23900    235.81112    37.358742    138994.42   -28853.709     4522.511    -33376.22    811.79906 
   23950    233.95931   -167.28698    138927.21   -28876.959    4486.9961   -33363.955    813.80715 
   24000    235.23363   -644.12318    138847.91   -28872.824    4511.4357    -33384.26    815.12395 
   24050    241.02872    14.945272    138790.69   -28854.392    4622.5769   -33476.969    815.48249 
   24100    236.39554   -156.62853    138804.63   -28863.723    4533.7194   -33397.442    816.88905 
   24150    234.82901   -19.969816    138877.57   -28842.898    4503.6757   -33346.574    819.21333 
   24200    234.69609   -230.07421    138961.72    -28839.76    4501.1264   -33340.887    822.64018 
   24250    235.60942     97.99579    138974.26   -28804.171    4518.6427   -33322.813    824.88315 
   24300    237.92169    93.469342    139051.62   -28828.811    4562.9887     -33391.8    827.32968 
   24350    237.59147   -196.55179    139182.68   -28855.412    4556.6556   -33412.068    828.62216 
   24400    239.30273   -104.28609    139297.19   -28875.026     4589.475   -33464.501    830.87492 
   24450    236.25022   -533.92085    139433.38   -28878.534    4530.9324   -33409.466    833.20423 
   24500    233.80408   -37.462655    139536.62    -28865.04    4484.0189   -33349.059    835.86098 
   24550    236.93091   -338.29374    139655.43   -28876.303    4543.9869   -33420.289    838.76487 
   24600    235.54604   -11.222626    139714.87   -28884.892    4517.4273   -33402.319    839.42759 
   24650    235.45357   -174.95073    139742.25   -28893.324    4515.6538   -33408.978      840.475 
   24700    237.73447   -310.21014    139738.95   -28893.911    4559.3982   -33453.309    842.71837 
   24750    232.42434   -263.72709    139682.28   -28891.821    4457.5576   -33349.379    845.18852 
   24800    234.73731   -142.95359    139628.15   -28904.534     4501.917   -33406.451    846.61671 
   24850    236.34661   -153.55915    139658.74   -28884.213    4532.7809   -33416.994    848.62901 
   24900    231.79711   -559.76933    139701.28   -28913.699    4445.5283   -33359.227    850.57688 
   24950    239.66744   -768.69769    139708.17   -28917.265    4596.4696   -33513.735    852.65828 
   25000     239.0272   -341.10194    139567.88    -28905.09    4584.1907   -33489.281    853.24243 
   25050    231.39076    72.979098    139339.32   -28891.635     4437.735    -33329.37    852.63547 
   25100     234.1107    173.17157    139088.42   -28921.262    4489.8996   -33411.162     853.8306 
   25150    236.78983   -182.75094       138930   -28897.933    4541.2812   -33439.214    855.73751 
   25200    234.18382   -313.83358    138828.23   -28877.709    4491.3018   -33369.011    857.71541 
   25250    235.22183    158.27614    138747.42   -28863.171    4511.2093   -33374.381    859.91827 
   25300    239.35109   -77.631292    138691.42   -28853.461    4590.4025   -33443.864    860.63549 
   25350    238.53277   -321.40868    138654.12   -28845.594    4574.7083   -33420.303    862.86048 
   25400    233.74926    -543.5254    138688.45   -28881.046    4482.9676   -33364.014    863.53031 
   25450    232.64133   -422.37522    138715.84   -28883.947    4461.7191   -33345.666    866.91542 
   25500    232.64481   -20.811171    138761.79   -28887.991    4461.7859   -33349.777    869.66369 
   25550    235.68999    -172.6137    138846.68   -28910.997     4520.188   -33431.185    872.84139 
   25600    235.17914   -220.81647    138894.78   -28912.168    4510.3906   -33422.559    874.45823 
   25650    231.05627   -212.86479    138863.64   -28902.098    4431.3201   -33333.418    876.87793 
   25700    233.44114   -139.41953       138842   -28871.758    4477.0583   -33348.817    878.59477 
   25750    237.39715   -79.967816    138877.67   -28891.572    4552.9288   -33444.501    880.16676 
   25800    235.00466    282.95771    138937.07   -28861.365    4507.0443   -33368.409    883.74818 
   25850    237.28513   -248.11853    138997.58   -28889.319    4550.7805     -33440.1    885.57061 
   25900    237.37076   -125.41924    139034.23   -28902.737    4552.4227    -33455.16     886.1958 
   25950    234.13293   -90.993274    139120.41   -28910.036    4490.3259   -33400.362    888.39316 
   26000    230.59005    -283.1856    139156.54   -28938.885    4422.3787   -33361.264    891.63017 
   26050    236.75383   -289.51386    139177.04   -28929.039    4540.5909    -33469.63    893.75583 
   26100    236.01526   -74.609113     139160.7   -28932.928    4526.4262   -33459.354    894.93349 
   26150    233.47068    17.488099     139160.4   -28900.597    4477.6248   -33378.222    897.26305 
   26200    237.83422   -350.95936    139192.52   -28881.885    4561.3111   -33443.196    898.81908 
   26250    232.80152    7.9216244    139203.28   -28865.525    4464.7913   -33330.316    901.08048 
   26300    235.19131   -251.39622     139204.3   -28891.449    4510.6241   -33402.073    902.61799 
   26350    239.23014   -333.91701    139118.09   -28845.381    4588.0829   -33433.464    903.41546 
   26400    235.93479   -775.62175    139004.13    -28840.03    4524.8829   -33364.912    905.52255 
   26450    240.30227    44.820047    138818.88     -28855.4    4608.6448   -33464.045    906.15039 
   26500    235.76616    226.31478    138721.36   -28857.788    4521.6489   -33379.437    908.88838 
   26550    233.83546   -286.96219    138697.48   -28881.071    4484.6208   -33365.691    911.42182 
   26600    236.38302   -358.06809    138740.83   -28878.601    4533.4793    -33412.08    913.57642 
   26650    236.37194   -416.52862    138806.29   -28907.689    4533.2667   -33440.955    915.61177 
   26700     233.0954     -169.178    138884.63   -28932.036    4470.4276   -33402.463     916.0933 
   26750    238.46669    21.043448    138987.73   -28952.207    4573.4409   -33525.648    917.95201 
   26800    233.29614   -572.31511    139102.85   -28970.441    4474.2775   -33444.718    919.67745 
   26850    236.29173   -387.81613    139102.51   -28998.247    4531.7284   -33529.975    920.85004 
   26900    233.90926   -91.796634    139025.48   -29028.596    4486.0362   -33514.632    921.19555 
   26950    233.40927   -47.356343    138915.03    -29028.49    4476.4471   -33504.937    921.79808 
   27000    232.43709   -171.08668    138811.42   -29031.352    4457.8022   -33489.154    923.28396 
   27050    236.48747   -242.34106    138771.14   -29030.093    4535.4825   -33565.576    925.33779 
   27100    230.46593   -433.34176    138743.96   -29065.564    4419.9982   -33485.562    927.20751 
   27150    235.64198    229.10218    138654.51   -28996.899    4519.2673   -33516.166    927.73358 
   27200    233.03963   -380.74093    138639.37    -28997.78    4469.3579   -33467.138    929.20491 
   27250    232.98545    -113.3606    138651.66   -29000.219    4468.3188   -33468.538    930.97074 
   27300    232.72402   -491.60228    138672.04   -28995.258    4463.3051   -33458.563    932.99014 
   27350    230.91892    20.257678    138596.75   -28981.546    4428.6859   -33410.232     934.1442 
   27400    236.33523   -173.47613    138515.09   -28974.362    4532.5628   -33506.925    934.88608 
   27450    235.70985    28.198924    138460.04    -28937.69    4520.5688   -33458.259    936.65989 
   27500    237.35387   -179.03434    138418.43   -28916.752    4552.0987   -33468.851     937.9038 
   27550    232.07419   -75.090982    138425.38   -28895.201    4450.8422   -33346.043    937.84164 
   27600    233.72439    581.41229    138385.37   -28874.813    4482.4907   -33357.303     938.6346 
   27650    235.89464      167.567    138431.45   -28894.162    4524.1129   -33418.275    939.44201 
   27700    236.15211    61.975173    138539.57   -28923.158    4529.0507   -33452.209    941.90663 
   27750    241.20753   -384.26501    138638.14   -28900.901    4626.0062   -33526.907    943.48089 
   27800    229.91483   -110.96472    138667.83   -28918.274    4409.4288   -33327.702    945.02359 
   27850    236.93158   -31.040473    138652.26   -28897.117    4543.9998   -33441.116    945.64813 
   27900    237.84465    187.50834    138677.66   -28859.942    4561.5113   -33421.453    945.67547 
   27950    235.25576   -321.51882    138783.73   -28871.183    4511.8601   -33383.043     947.3991 
   28000    236.00131    437.81346    138897.51   -28867.858    4526.1586   -33394.016    948.98291 
   28050    232.84649   -150.32547    139008.56   -28854.573    4465.6538   -33320.227    950.49415 
   28100    236.37809   -65.431648    139065.99   -28837.575    4533.3848    -33370.96    951.74677 
   28150     235.5457   -152.01314    139085.34    -28871.16    4517.4207   -33388.581    953.12334 
   28200    233.93604   -62.999624     139062.5   -28895.228    4486.5498   -33381.778    953.56053 
   28250    235.74965    193.74354     139025.2   -28861.825    4521.3323   -33383.157    954.30821 
   28300    238.75877   -63.635449    138996.05   -28852.181    4579.0427   -33431.224    955.10574 
   28350    237.70029   -130.64205    138930.36   -28872.392    4558.7426   -33431.135    956.18192 
   28400    234.69899    -170.7429    138852.86    -28882.32    4501.1821   -33383.502    957.43928 
   28450    238.44984    -228.0534    138743.66   -28872.512    4573.1179    -33445.63    957.82813 
   28500    238.93421    214.25295    138598.64   -28840.541    4582.4074   -33422.948    956.94269 
   28550    238.94672    16.936289    138558.81   -28812.248    4582.6473   -33394.896    958.45682 
   28600    236.63443   -84.998852    138611.85   -28788.773    4538.3009   -33327.074    960.11459 
   28650    238.46743   -45.534379    138725.67   -28788.284    4573.4552   -33361.739    961.82161 
   28700    239.39735    60.183563    138828.11   -28763.519    4591.2898   -33354.809    963.52334 
   28750     235.6391      620.995    138949.42   -28780.079    4519.2121   -33299.291    964.61335 
   28800    235.16395    69.465172    139209.38   -28830.074    4510.0992   -33340.174    966.78844 
   28850    234.53656   -110.72562    139493.14   -28843.953     4498.067    -33342.02    971.00795 
   28900    231.45502    80.890034     139713.9   -28825.893    4438.9675   -33264.861    973.62567 
   28950    231.93599    -159.6269    139842.48   -28839.634    4448.1919   -33287.825     976.1311 
   29000    238.32302    116.62122    139874.61    -28867.93    4570.6857   -33438.616     976.4934 
   29050    234.71714   -180.73856    139879.28   -28869.793    4501.5301   -33371.323    978.09478 
   29100    231.95894   -532.07536    139831.16   -28851.986     4448.632   -33300.618     981.5726 
   29150    235.67853   -416.36132    139720.01   -28858.138    4519.9681   -33378.107     983.3967 
   29200    232.25443   -290.33745    139595.22   -28864.011     4454.299    -33318.31    984.97057 
   29250    230.59879    131.52951       139452   -28823.013    4422.5462   -33245.559    988.36312 
   29300    235.23886    196.92128    139294.84    -28834.52     4511.536   -33346.056    991.69075 
   29350    241.61617   -412.50531    139109.07   -28875.357    4633.8434     -33509.2    991.87073 
   29400     235.4836   -204.97246    138967.87   -28888.099    4516.2298   -33404.329    991.46073 
   29450    232.93308    105.38725    138851.71   -28891.974    4467.3144   -33359.289    993.25674 
   29500    237.63223   -61.904864    138774.39   -28912.902    4557.4374    -33470.34    994.55631 
   29550    235.76165   -168.37385    138686.01   -28862.966    4521.5623   -33384.528     995.0813 
   29600    234.02028    128.44739    138614.42   -28855.723    4488.1655   -33343.889    996.64329 
   29650    236.21153    359.13546    138547.18   -28843.103    4530.1904   -33373.293    998.12048 
   29700    238.39876    40.588758    138579.39   -28871.907    4572.1382   -33444.045    999.59511 
   29750    235.87723   -469.27175     138655.1   -28871.674     4523.779   -33395.453    1001.9125 
   29800    235.66286   -298.10023    138719.66   -28840.768    4519.6677   -33360.436    1006.0666 
   29850    238.55026    180.93643    138825.34    -28847.86    4575.0438   -33422.904    1005.6631 
   29900    236.77845   -106.00541    138951.05   -28827.133    4541.0631   -33368.196     1007.042 
   29950    237.92705    570.08126    139083.98   -28814.922    4563.0915   -33378.013    1009.1591 
   30000     235.5348   -286.26976    139322.53   -28828.439    4517.2117   -33345.651    1012.6626 
   30050    235.02241   -211.48644    139534.55   -28855.226    4507.3847   -33362.611    1013.8966 
   30100    238.53394   -495.54172    139698.43   -28819.196    4574.7308   -33393.927    1016.2062 
   30150    236.19413   -329.21704     139850.3   -28817.552    4529.8567   -33347.408    1019.6466 
   30200    234.89831   -241.12466    139996.92   -28823.976    4505.0048    -33328.98    1022.6654 
   30250    235.91517   -212.10067    140125.38   -28819.503    4524.5066    -33344.01    1025.2222 
   30300    232.92302    -257.4513    140161.36   -28803.665    4467.1216   -33270.787     1028.168 
   30350    234.85264    133.12565    140127.59   -28824.136    4504.1288   -33328.265    1028.9126 
   30400    229.41449   -393.91949    140103.27   -28858.135    4399.8331   -33257.968    1030.5388 
   30450    229.94517   -108.65177    140018.86    -28884.08    4410.0108   -33294.091    1031.2704 
   30500    237.35562   -514.33162     139882.8   -28841.794    4552.1323   -33393.926    1032.8359 
   30550    234.98706   -257.73725    139719.93   -28832.111    4506.7069   -33338.817    1033.8539 
   30600     239.8326   -1.3083272    139552.88   -28873.586    4599.6372   -33473.223    1034.5237 
   30650    236.26416    -397.5672    139395.64   -28899.148    4531.1998   -33430.348    1035.7046 
   30700    233.22471   -318.03645    139279.43   -28877.919    4472.9076   -33350.827    1036.5697 
   30750    236.68271    -281.6312    139135.01   -28892.939    4539.2268   -33432.166    1037.2562 
   30800    232.68005    367.98033    138928.32   -28918.474    4462.4618   -33380.936    1038.2945 
   30850    236.07761    28.509089    138720.94   -28937.225    4527.6219   -33464.847    1039.3884 
   30900    232.51921   -152.11429    138533.15   -28922.648    4459.3771   -33382.025    1039.2818 
   30950    233.51983    139.95215    138363.22    -28953.43    4478.5675   -33431.997    1039.7353 
   31000    232.94254    81.185026    138197.69   -28948.711    4467.4958   -33416.206    1040.4775 
   31050    240.08077   -74.131687    138131.59   -28939.986    4604.3968   -33544.383    1041.8935 
   31100    231.55586   -25.105947    138147.33   -28924.534    4440.9014   -33365.436    1043.2209 
   31150      235.184   -368.01186     138209.9   -28912.837    4510.4839   -33423.321     1046.294 
   31200     236.7054    352.11667    138205.21   -28899.293    4539.6621   -33438.955    1046.6326 
   31250     236.8074    631.87184    138264.43   -28906.764    4541.6183   -33448.383    1047.1119 
   31300    237.61782   -366.54442    138418.28   -28893.835    4557.1608   -33450.996    1050.2116 
   31350    235.14345    82.850181     138610.6    -28915.45    4509.7062   -33425.156     1053.158 
   31400    235.72372   -401.68855    138808.81   -28931.685    4520.8349    -33452.52    1055.8054 
   31450    236.82518    348.50157    138963.97    -28932.44    4541.9593   -33474.399    1057.1007 
   31500    235.36017   -137.37388    139139.24   -28930.587    4513.8625    -33444.45    1059.3421 
   31550    234.80289   -117.16374    139259.23    -28948.24    4503.1747   -33451.415    1061.9433 
   31600    233.45585    108.94351    139361.71   -28961.764    4477.3405   -33439.104    1065.3018 
   31650    235.63128   -239.43529     139441.9   -28922.409    4519.0621   -33441.471    1066.1312 
   31700    235.50201   -100.07022    139549.69   -28922.385    4516.5827   -33438.968    1066.3086 
   31750    232.29665   -775.89598    139703.95   -28916.597    4455.1087   -33371.706     1067.221 
   31800    236.27571   -22.861705    139746.96   -28914.727    4531.4212   -33446.148    1068.7511 
   31850    233.79898   -394.07926    139716.27   -28944.813    4483.9213   -33428.734    1069.2378 
   31900    231.01669   -532.60179    139643.21   -28956.397    4430.5609   -33386.958     1070.933 
   31950    228.65245    59.871648    139463.46   -28940.349    4385.2183   -33325.567    1072.2069 
   32000    236.86339   -174.40272    139301.55   -28946.942    4542.6921   -33489.634    1074.1971 
   32050    234.71429   -26.984577    139104.42    -28954.21    4501.4755   -33455.685    1076.5535 
   32100    235.01082   -152.83193    138864.09   -28935.295    4507.1625   -33442.457    1076.2146 
   32150     231.8165   -218.71278    138657.41   -28960.735    4445.9002   -33406.635    1075.0532 
   32200    234.47316    -277.3885    138503.36   -28936.679     4496.851    -33433.53     1075.685 
   32250    233.80256    294.23057    138364.33   -28937.144    4483.9899   -33421.134     1077.319 
   32300    234.80607   -0.4264564    138279.92   -28925.971    4503.2356   -33429.206    1079.7322 
   32350    240.29699   -256.71239    138265.76   -28933.238    4608.5435   -33541.782    1079.6535 
   32400    234.86014    342.11314    138284.15   -28941.867    4504.2726   -33446.139    1081.7175 
   32450    236.62195   -169.70926    138375.48   -28961.742    4538.0617   -33499.804    1083.4714 
   32500    235.29697    59.548354    138470.03   -28967.552    4512.6505   -33480.203    1086.4108 
   32550    235.59247    -222.2173    138579.79   -28958.001    4518.3177   -33476.319    1087.0271 
   32600     237.3235   -123.22775    138675.72   -28911.625    4551.5162   -33463.141    1088.2621 
   32650    231.93567    68.661669    138723.55   -28936.282    4448.1856   -33384.467    1090.0184 
   32700    240.23724   -68.824626    138735.38   -28923.662    4607.3976   -33531.059     1091.449 
   32750    234.73824   -32.842528    138708.51   -28919.089    4501.9349   -33421.024    1093.5337 
   32800    232.63596   -194.26421     138705.2   -28918.648    4461.6161   -33380.264    1095.6227 
   32850    234.81969    175.53454    138733.59   -28931.566    4503.4969   -33435.063    1097.5216 
   32900    233.07685    49.916109    138801.83   -28942.412    4470.0718   -33412.484    1098.0915 
   32950    235.62626   -157.09236     138911.6   -28962.689    4518.9658   -33481.655     1100.833 
   33000    237.13462   -109.83947     139040.8   -28952.453    4547.8939   -33500.347    1101.3489 
   33050    232.85804   -88.061035    139140.11   -28934.282    4465.8754   -33400.157    1103.3743 
   33100    234.70104   -496.29776     139209.6   -28935.146    4501.2214   -33436.368    1105.9358 
   33150    238.85232   -168.60467    139240.56   -28948.474    4580.8369   -33529.311    1107.1915 
   33200    230.39979   -22.080952    139325.04   -28966.474    4418.7296   -33385.203    1108.7158 
   33250    230.69217   -107.73972    139390.34   -28971.161    4424.3372   -33395.498    1112.3648 
   33300    236.70734    26.463741    139358.89   -28961.373    4539.6992   -33501.072    1113.5971 
   33350    227.54351   -354.35947    139331.89   -28999.208    4363.9505   -33363.158    1115.1168 
   33400    234.97611   -506.54306    139305.56   -28951.858    4506.4968   -33458.355    1117.6543 
   33450    232.93161   -160.27801    139233.33   -28934.649    4467.2864   -33401.935    1120.2461 
   33500    235.94695   -187.99819    139113.85   -28950.618    4525.1161   -33475.734    1120.3892 
   33550     233.6238    137.12859    138999.02   -28946.952    4480.5614   -33427.513     1121.767 
   33600    234.95026   -395.89061    138985.27     -28946.6    4506.0011   -33452.601     1124.148 
   33650    232.78513    -48.39024    138973.57   -28966.793     4464.477    -33431.27    1126.0882 
   33700    235.08132    -260.9982    138936.42   -28944.929    4508.5146   -33453.444    1128.2863 
   33750    233.33357    99.204226    138875.25   -28934.929    4474.9952   -33409.924    1128.7046 
   33800    233.82947   -338.36217    138886.22   -28928.685     4484.506   -33413.191    1130.9569 
   33850    235.30929   -57.265465    138835.13   -28936.093    4512.8867   -33448.979    1132.7783 
   33900    233.56918   -258.28081    138768.99   -28948.288     4479.514   -33427.802    1133.9598 
   33950    234.62457    310.00895    138659.87   -28940.387    4499.7549   -33440.141    1134.6803 
   34000    236.43384   -63.212306    138607.37   -28941.332    4534.4539   -33475.786    1135.8008 
   34050    238.25333   -403.39637    138581.51   -28927.786    4569.3491   -33497.135    1135.9939 
   34100    232.81445   -64.772534    138550.11   -28954.491    4465.0393   -33419.531    1138.1186 
   34150    229.18721    284.07883    138557.22   -28968.158    4395.4741   -33363.633    1139.9093 
   34200    231.37677   -52.943121     138645.2    -28965.01    4437.4667   -33402.477    1142.2398 
   34250     239.2274    -122.3337    138727.75   -28968.363    4588.0303   -33556.394    1143.6336 
   34300    237.83779   -61.288547    138824.94   -28954.057    4561.3796   -33515.437    1144.4735 
   34350    231.39458   -346.74783    138924.95   -28951.288    4437.8083   -33389.096    1145.9306 
   34400    238.30184   -38.718894    139020.17   -28980.045    4570.2793   -33550.324    1147.8714 
   34450    236.74899   -160.15463    139138.76   -28963.375     4540.498   -33503.873    1149.9405 
   34500    235.13004   -339.54765    139223.72   -28974.915     4509.449   -33484.364    1152.3885 
   34550    230.56789   -558.50588    139220.88   -29000.131    4421.9537   -33422.085    1154.0728 
   34600    234.45215   -28.058018    139128.77   -29037.681     4496.448   -33534.129    1155.0147 
   34650    234.17468    -363.2767    139020.13   -29012.309    4491.1266   -33503.435    1156.1563 
   34700    238.40577    224.10723    138812.39    -28996.35    4572.2726   -33568.623    1156.0313 
   34750    236.77872   -436.68791    138665.91   -29008.528    4541.0683   -33549.596    1158.3292 
   34800    234.42027    434.58258    138478.78   -29018.509    4495.8366   -33514.346    1157.9733 
   34850    229.53024   -15.954029    138368.18   -29011.501     4402.053   -33413.554    1159.2997 
   34900    230.07412    254.86717    138275.81   -29016.848    4412.4839   -33429.332    1160.1588 
   34950     233.7529   -119.48465    138240.45   -28979.409    4483.0375   -33462.447     1161.136 
   35000    235.34564    -10.99318     138263.3   -28963.142    4513.5838   -33476.726    1161.9839 
   35050    231.98772    147.73284    138360.04   -28968.482    4449.1838   -33417.666    1164.1707 
   35100    232.97418   -124.59908    138487.94   -28982.905    4468.1027   -33451.007    1165.8946 
   35150    232.49489    89.692051    138622.14   -29006.155    4458.9106   -33465.065    1166.1549 
   35200    229.04285   -304.33127    138779.11   -29002.127    4392.7056   -33394.833    1167.2863 
   35250    229.78182    323.19397    138892.86   -28969.818    4406.8779   -33376.696    1167.0366 
   35300    232.63477   -509.28558    139029.59   -28953.294    4461.5933   -33414.887    1167.9335 
   35350    233.07805   -37.231551    139105.71   -28925.949    4470.0948   -33396.044    1169.7705 
   35400    231.78716   -34.612424    139184.69   -28968.338    4445.3374   -33413.676    1169.8744 
   35450    235.03007   -344.81922    139235.67   -28935.892    4507.5317   -33443.424    1171.9947 
   35500    234.90737    53.281021    139262.46   -28911.939    4505.1784   -33417.117    1175.1956 
   35550    228.45012   -361.36122    139304.03   -28926.637    4381.3379   -33307.975    1178.0703 
   35600    234.38407   -142.61403     139322.9   -28900.616    4495.1423   -33395.758    1180.4647 
   35650    235.46876   -431.10795    139313.87   -28872.671    4515.9451   -33388.617    1182.6902 
   35700    234.00106    115.27878    139270.18   -28903.644    4487.7967   -33391.441    1183.7365 
   35750    235.72618   -283.10709    139265.91   -28915.062     4520.882   -33435.944     1185.946 
   35800    235.55197   -429.64946    139256.81   -28925.015    4517.5409   -33442.556    1187.8031 
   35850    239.74289   -194.54938    139221.36   -28895.249    4597.9167   -33493.166    1188.9079 
   35900    234.23419   -857.89408    139209.81   -28862.854    4492.2678   -33355.122    1191.8547 
   35950    235.55992   -310.98834    139105.18   -28889.317    4517.6935    -33407.01    1194.3375 
   36000    236.34175    -37.25516    138990.32   -28901.398    4532.6877   -33434.085    1194.9196 
   36050    231.88311    -205.6805    138916.97   -28940.908    4447.1775   -33388.086    1196.8524 
   36100    235.56396   -219.23964    138830.45    -28921.48     4517.771   -33439.251    1198.8537 
   36150    235.21644   -247.89715    138757.57   -28912.701    4511.1061   -33423.807    1200.3711 
   36200    234.56564   -88.913146    138649.37   -28920.943    4498.6247   -33419.568    1200.6478 
   36250    236.84457    260.09034    138567.19   -28908.563    4542.3312   -33450.894    1201.8629 
   36300       231.61     179.8231    138646.67   -28939.071    4441.9398   -33381.011    1203.0635 
   36350    235.11767   -248.00756    138726.25   -28915.768    4509.2116   -33424.979     1204.565 
   36400     233.9749    66.596973    138772.63   -28929.809    4487.2951   -33417.104    1204.7763 
   36450    235.51705   -154.06069    138807.38   -28913.832    4516.8712   -33430.703    1207.4083 
   36500     237.9878   -323.20741    138842.64   -28921.155    4564.2567   -33485.412    1208.8653 
   36550    240.09079   -215.83105    138883.85   -28902.439    4604.5889   -33507.027    1209.9725 
   36600    238.25302   -277.38306    138982.52   -28879.104    4569.3431   -33448.447    1213.5421 
   36650     234.1729   -130.08538    139062.68   -28880.614    4491.0923   -33371.706    1215.0865 
   36700    239.40959    223.15338    139063.19   -28882.134    4591.5244   -33473.658    1215.4636 
   36750     239.4802   -278.69572    139065.47   -28909.255    4592.8787   -33502.134     1217.148 
   36800    232.48136   -40.958606    139060.98    -28891.28    4458.6512   -33349.931    1219.3494 
   36850    235.44893   -261.90325    139094.02   -28887.737    4515.5648   -33403.302     1221.129 
   36900    238.07281   -610.39103    139100.09   -28900.097    4565.8871   -33465.984     1223.061 
   36950    231.82953    160.51058    139008.09   -28900.758      4446.15   -33346.908    1224.8034 
   37000    234.51275   -139.96451    138917.46   -28938.505    4497.6103   -33436.115     1224.516 
   37050    232.20697    170.69466    138833.82   -28947.418    4453.3888   -33400.807    1226.0866 
   37100    237.26298   -5.4614304    138734.43   -28928.589    4550.3557   -33478.945    1226.7272 
   37150    235.58938   -93.742957    138599.58   -28927.997    4518.2585   -33446.255    1227.3568 
   37200     233.4059   -201.12204    138442.02   -28936.246    4476.3825   -33412.629    1227.5795 
   37250     233.2758   -18.033022    138283.97   -28923.496    4473.8874   -33397.384    1229.7119 
   37300    234.83182     223.6223     138141.5   -28947.453    4503.7295   -33451.183    1230.8875 
   37350    232.16717    -238.7815    138034.55   -28932.426    4452.6254   -33385.051     1230.661 
   37400    237.22448   -11.254067     138014.1   -28927.996    4549.6172   -33477.613    1232.6766 
   37450    235.41689    310.89918     138096.1   -28951.341    4514.9503   -33466.292    1234.8686 
   37500    229.36425   -192.51974    138280.39   -28943.747    4398.8696   -33342.616    1238.1885 
   37550    236.51014   -224.75521    138476.81   -28933.132    4535.9173   -33469.049    1239.1876 
   37600    236.31391   -72.651162    138662.96   -28946.144    4532.1539   -33478.298    1240.9803 
   37650     236.2864   -93.276439    138801.87   -28928.484    4531.6262    -33460.11    1242.7553 
   37700    233.64574    -113.1454    138907.68   -28927.951    4480.9823   -33408.933    1246.7196 
   37750    235.89349    229.62635    139004.85   -28935.741    4524.0908   -33459.832    1249.5871 
   37800    233.48749   -11.076005    139132.93   -28964.286    4477.9473   -33442.233    1251.7997 
   37850    228.96642      30.3902    139251.67   -28977.966    4391.2397   -33369.206    1253.1938 
[...]
   90850    231.38657   -86.875406       139627   -28737.621    4437.6546   -33175.276    2739.1511 
   90900    235.96388    247.66591    139656.54   -28753.019    4525.4407   -33278.459     2741.583 
   90950    234.67526    108.91123    139643.71   -28764.285     4500.727   -33265.012    2743.7679 
   91000    245.25767   -102.49428    139705.33   -28748.616    4703.6821   -33452.298    2744.4603 
   91050    239.04332   -596.87262    139779.77   -28754.491    4584.4999   -33338.991    2745.5876 
   91100    242.10798   -225.17551    139778.85   -28754.742    4643.2757   -33398.018    2748.1585 
   91150    233.67038    258.68897    139750.82   -28742.111    4481.4548   -33223.565    2750.5057 
   91200    238.09747   -490.99662       139707   -28780.099    4566.3599   -33346.459    2752.6781 
   91250    236.51986    -447.3126    139584.61   -28770.899    4536.1036   -33307.003    2753.4591 
   91300     238.5163   -264.47554    139466.37   -28770.681    4574.3925   -33345.074    2754.3137 
   91350    233.02792   -112.93627    139405.14   -28774.319    4469.1333   -33243.453    2754.9369 
   91400    235.58265   -113.94937    139369.71   -28810.878    4518.1293   -33329.008    2756.8357 
   91450     232.2145   -464.95753    139294.97   -28796.353    4453.5331   -33249.886    2757.1124 
   91500    240.25186   -166.72264    139161.91   -28811.204    4607.6779   -33418.882    2757.8738 
   91550    234.20868   -93.225438    138998.05   -28811.628    4491.7786   -33303.406    2757.1642 
   91600    234.68676    144.20403    138809.93   -28820.039    4500.9476   -33320.986    2757.2122 
   91650    236.08428   -603.24158     138655.9   -28862.172    4527.7499   -33389.922    2757.1652 
   91700     233.5435   -492.70929    138515.86   -28884.379    4479.0214     -33363.4    2758.3205 
   91750    232.44044    86.953843    138411.49   -28863.657    4457.8664   -33321.523    2762.2721 
   91800    233.24939   -294.84091    138379.83   -28860.089     4473.381    -33333.47    2765.0372 
   91850    234.41717    180.69609    138374.98   -28853.556    4495.7772   -33349.333    2767.4465 
   91900    234.06767   -34.209851    138408.92   -28879.896    4489.0744    -33368.97    2766.5782 
   91950    235.16252    122.38915    138480.34   -28899.734    4510.0719   -33409.806    2766.9117 
   92000    232.50351   -471.66652    138582.53   -28915.046    4459.0761   -33374.122    2768.8263 
   92050    231.54076   -276.20419    138652.62   -28931.404    4440.6119   -33372.016     2769.985 
   92100    235.26747   -107.34183    138691.47   -28897.454    4512.0846   -33409.538    2775.1336 
   92150    235.24883     44.37267    138707.59   -28888.749    4511.7272   -33400.477     2776.656 
   92200    236.71238    262.92551    138756.14    -28885.47    4539.7959   -33425.266    2776.3205 
   92250    235.68105   -284.62052    138862.81   -28865.436    4520.0166   -33385.453    2775.8695 
   92300     234.9567    32.751068    138925.25   -28872.275    4506.1245   -33378.399    2779.8386 
   92350    240.53203   -620.37679    139009.11   -28868.523    4613.0512   -33481.574    2783.8804 
   92400    234.01583    260.46278    139098.96   -28890.279    4488.0801   -33378.359    2786.2073 
   92450    234.72764   -570.52782    139226.71   -28866.355    4501.7316   -33368.086     2787.704 
   92500    230.10645     142.3509    139387.37   -28894.613    4413.1038   -33307.717      2790.54 
   92550    237.67545    -105.8604    139583.63   -28865.614    4558.2663    -33423.88    2794.0705 
   92600     234.2907   -529.73902    139764.98   -28894.982    4493.3516   -33388.333    2794.3371 
   92650    233.73845    125.85492    139873.31    -28923.21    4482.7603    -33405.97    2794.3227 
   92700    227.73123   -61.886656    139965.21   -28884.742    4367.5507   -33252.293    2796.5589 
   92750    234.05357    -219.4123    140007.41   -28929.639    4488.8039   -33418.443    2797.5897 
   92800    230.99994    280.41157     139969.1   -28941.301    4430.2397    -33371.54     2799.978 
   92850    233.43925   -283.23618     139882.6   -28906.112    4477.0221   -33383.134    2801.6625 
   92900    232.57154   -227.49801    139693.85   -28932.293    4460.3807   -33392.674    2801.7092 
   92950    231.55984    178.98539    139543.75   -28889.774    4440.9778   -33330.752    2802.4551 
   93000    233.61421   -591.95248    139495.59   -28877.573    4480.3775    -33357.95    2804.5837 
   93050    236.57566   -132.72225    139393.46   -28887.184    4537.1739   -33424.358    2807.1995 
   93100    235.69896    182.75558    139240.24   -28871.922      4520.36   -33392.282    2810.1943 
   93150    233.52679    260.14303    139089.05   -28869.849    4478.7009   -33348.549    2811.1457 
   93200    238.05207     39.80613    138990.83   -28871.416    4565.4891   -33436.905    2813.8636 
   93250     241.3297   -254.53735     138911.7   -28859.614    4628.3494   -33487.963    2817.2647 
   93300    238.77212    221.70662    138832.64   -28856.033    4579.2986   -33435.332    2821.6135 
   93350    235.26835   -430.49376    138794.67   -28873.879    4512.1016   -33385.981    2822.9798 
   93400    233.46574   -129.71499    138766.79   -28897.036    4477.5302   -33374.566    2823.5532 
   93450    234.80501   -10.175022    138727.93   -28869.802    4503.2153   -33373.018    2823.0655 
   93500    232.60248   -17.902868    138661.98   -28898.229    4460.9741   -33359.203     2823.434 
   93550    236.46885   -219.27771    138601.41   -28875.563    4535.1255   -33410.688     2825.535 
   93600    236.77481    179.35187    138542.31   -28820.539    4540.9932   -33361.533    2828.7972 
   93650    238.81128    235.20361    138528.23   -28862.464    4580.0498   -33442.514     2833.487 
   93700    236.80055    154.25979    138545.94   -28845.827    4541.4869   -33387.314    2835.5125 
   93750    237.47363   -379.82265    138533.25   -28853.601    4554.3955   -33407.997    2836.1957 
   93800    241.53674    3.0274535    138498.46   -28830.789      4632.32   -33463.109    2837.1941 
   93850    238.42628   -43.199494    138511.19   -28846.274     4572.666    -33418.94     2838.467 
   93900    236.98668   -427.32072    138557.55    -28845.06    4545.0566   -33390.117    2840.2158 
   93950    236.46922    212.37991    138587.16   -28856.229    4535.1325   -33391.362    2839.6757 
   94000    237.48544   -140.48029    138596.26   -28832.662    4554.6221   -33387.284    2840.8282 
   94050    239.09309   -769.41238    138579.76   -28827.228    4585.4545   -33412.682    2842.2659 
   94100    235.69073   -32.822889    138542.74   -28814.686    4520.2021   -33334.888    2841.1418 
   94150    234.31159    111.98989    138612.54   -28813.439    4493.7522   -33307.191    2843.2668 
   94200    241.01044   -69.588833    138776.88   -28804.966    4622.2264   -33427.193     2844.201 
   94250    238.91469   -86.732275    138966.54   -28799.418     4582.033   -33381.451    2846.3848 
   94300    238.76888   -191.43812    139188.68   -28779.343    4579.2366   -33358.579    2849.3251 
   94350     233.9377   -40.757596    139376.74   -28774.813    4486.5817   -33261.394    2851.3218 
   94400    237.52725   -27.838659    139567.82   -28789.203    4555.4239   -33344.627    2853.2841 
   94450    237.45422   -497.85872    139752.68   -28781.929    4554.0233   -33335.953    2854.5632 
   94500    230.25833   -435.77172    139844.86   -28804.172    4416.0167   -33220.189    2857.6563 
   94550    238.58828    54.461846    139887.69    -28778.47    4575.7729   -33354.243    2858.8639 
   94600    237.30129   -438.13865    139889.13   -28791.897    4551.0903   -33342.987    2858.3741 
   94650    238.17499   -357.72262    139906.26   -28776.465    4567.8466   -33344.311    2859.5701 
   94700    238.06632   -321.58143    139953.56    -28755.41    4565.7625   -33321.172    2859.2767 
   94750    235.66501    188.61078    139947.16   -28766.079    4519.7088   -33285.788    2861.0571 
   94800    235.76614   -219.06419     139911.6   -28766.851    4521.6485     -33288.5    2862.3615 
   94850    237.65543    15.843303    139860.51   -28797.264    4557.8822   -33355.146    2863.6538 
   94900    235.76218     232.3687    139757.71   -28789.034    4521.5726   -33310.606    2863.6503 
   94950    233.49871   -528.04209    139704.93   -28811.369    4478.1625   -33289.531    2864.1565 
   95000    235.70116    93.417441    139641.95   -28836.303    4520.4023   -33356.706    2866.1202 
   95050    235.86466   -245.91109    139609.52   -28820.275    4523.5379   -33343.813     2867.171 
   95100    237.61219    -20.59376    139541.58   -28808.329     4557.053   -33365.382    2866.1464 
   95150     237.4276   -12.784361    139452.75   -28814.722    4553.5127   -33368.235    2866.4961 
   95200    235.47594    225.09951    139368.63   -28835.092    4516.0828   -33351.175    2865.5436 
   95250    238.60591   -428.83954    139351.03   -28837.645     4576.111   -33413.756    2869.4554 
   95300    237.82145    306.14814    139353.52   -28822.819    4561.0662   -33383.886    2872.4514 
   95350    235.48349   -91.839717     139414.7   -28857.209    4516.2276   -33373.436    2874.4926 
   95400    233.82607    201.04642     139454.3   -28843.648    4484.4408   -33328.089    2873.6944 
   95450    233.24484   -239.32018    139462.67   -28856.492    4473.2935   -33329.786    2873.8037 
   95500    234.78617   -178.74951    139456.61   -28842.457    4502.8541   -33345.311    2876.9913 
   95550    231.76941   -268.56839     139437.2    -28855.06     4444.997   -33300.057    2879.5077 
   95600    235.77997    47.735535    139403.14   -28883.567    4521.9138    -33405.48    2881.2024 
   95650    233.25319   -313.83066    139344.89   -28862.378    4473.4537   -33335.831    2885.2625 
   95700    235.70803    58.261642    139294.41   -28862.865     4520.534   -33383.399    2886.3968 
   95750    235.44991   -253.88583     139284.7   -28867.397    4515.5835    -33382.98    2887.9089 
   95800     234.9894    -344.7614    139244.06   -28842.659    4506.7516    -33349.41    2889.7319 
   95850    240.09858   -218.44173    139168.73   -28876.883    4604.7383   -33481.621    2889.2613 
   95900    235.31593   -194.75977    139001.97   -28884.297     4513.014   -33397.311    2890.3279 
   95950    237.67333   -274.70238    138801.14   -28859.754    4558.2254    -33417.98    2892.5621 
   96000      234.079   -461.92762     138622.4   -28861.445    4489.2916   -33350.737    2892.7935 
   96050    240.24304    47.240036    138445.72   -28865.315    4607.5087   -33472.824    2894.7325 
   96100    241.05525   -175.90757    138294.67   -28822.494    4623.0859    -33445.58    2897.7587 
   96150    240.11306    184.62261    138133.22   -28832.849     4605.016   -33437.865     2898.009 
   96200    237.73634   -14.748948    138070.96   -28801.283    4559.4339   -33360.716    2899.9372 
   96250    243.64479    221.69577    138099.96   -28802.122    4672.7493   -33474.871    2900.5136 
   96300    240.79304   -445.36329    138173.28   -28815.177    4618.0571   -33433.234    2902.8145 
   96350    243.22401   -198.90519    138253.75   -28824.099    4664.6794   -33488.778    2906.6372 
   96400    236.76965    379.24122    138366.94   -28833.467    4540.8942   -33374.361    2908.0558 
   96450    238.31008     147.7729    138613.22    -28844.97    4570.4374   -33415.408    2909.1102 
   96500     239.0561    -32.60467    138937.83   -28801.028    4584.7451   -33385.773    2909.8979 
   96550    237.29589    76.460408    139266.75    -28818.03    4550.9869   -33369.017    2912.4017 
   96600    241.18761   -30.943016    139561.71   -28801.072    4625.6242   -33426.696    2913.5438 
   96650    234.97003   -273.84224     139788.8   -28801.785    4506.3803   -33308.166    2915.0069 
   96700    237.53293   -486.72049    139918.81   -28831.049    4555.5329   -33386.582    2917.5882 
   96750    235.06637     9.759446    139957.18   -28846.214     4508.228   -33354.442    2918.2441 
   96800    233.47747    247.75578    139967.35   -28830.498    4477.7552   -33308.253    2918.6538 
   96850    236.72168   -278.66596    139945.03   -28851.422    4539.9743   -33391.396    2920.1562 
   96900    235.04835   -220.08413       139857    -28840.49    4507.8822   -33348.372    2922.1923 
   96950    233.14601    177.50092     139698.2   -28808.618    4471.3982   -33280.017    2923.4694 
   97000    233.75903     77.87198    139505.04   -28833.937    4483.1549   -33317.092    2923.8758 
   97050    240.77937   -202.24383    139352.36   -28830.081    4617.7949   -33447.876    2925.9361 
   97100    236.97784   -474.87072    139184.62   -28849.906    4544.8871   -33394.794    2927.3406 
   97150    234.28793     645.0114    138962.79   -28874.707    4493.2986   -33368.005    2926.5193 
   97200    239.28832   -149.25949    138843.61   -28863.207    4589.1988   -33452.406    2926.9375 
   97250    233.10542   -194.48515    138780.65   -28873.712    4470.6197   -33344.332    2926.6066 
   97300    234.69651   -109.20846    138744.19   -28866.215    4501.1345   -33367.349    2926.5625 
   97350     231.7602    -200.6448    138729.94   -28899.667    4444.8204   -33344.487    2927.4431 
   97400    235.20386    241.04812     138777.1   -28892.555    4510.8646    -33403.42    2927.9916 
   97450    235.35667   -61.120408     138892.7   -28934.767    4513.7954   -33448.563    2927.6297 
   97500    233.25902   -514.62554    139035.66   -28950.288    4473.5656   -33423.853    2930.7003 
   97550    235.50395   -103.91587    139129.44   -28906.413      4516.62   -33423.033    2932.6936 
   97600    233.26554    -186.7219    139232.65   -28903.411    4473.6905   -33377.101    2935.9298 
   97650    232.43095    14.154921    139260.82   -28873.426    4457.6843    -33331.11    2934.4366 
   97700    229.83711   -77.492209    139281.29   -28864.801    4407.9384    -33272.74    2936.5073 
   97750    233.55257    -176.5886    139320.49    -28860.57    4479.1954   -33339.765    2940.2539 
   97800    232.23948    126.16706    139355.89   -28887.201    4454.0122   -33341.213    2939.8427 
   97850    236.21609    -34.67763    139417.96   -28920.749    4530.2778   -33451.027    2939.7681 
   97900    235.85546   -520.65754    139494.93   -28938.737    4523.3615   -33462.098    2940.8318 
   97950    234.19989   -340.29439    139524.87   -28943.726      4491.61   -33435.336    2943.2446 
   98000    230.37817   -236.81516    139551.63   -28921.543    4418.3152   -33339.858    2945.3813 
   98050    233.81033   -289.58244     139578.6   -28943.971    4484.1388   -33428.109    2946.4385 
   98100    232.66317   -395.98886    139628.63   -28937.168     4462.138   -33399.306      2950.95 
   98150    233.44137   -129.21584     139572.4   -28954.271    4477.0627   -33431.333     2952.173 
   98200    232.20405   -270.26499    139396.99   -28960.837    4453.3327   -33414.169    2953.0769 
   98250     235.7117   -498.40516     139204.4   -28973.891    4520.6043   -33494.495    2952.8533 
   98300    234.28663   -142.52556    139013.08   -28959.729    4493.2737   -33453.002    2951.5655 
   98350    234.51923   -523.97431    138838.92   -28983.056    4497.7346   -33480.791    2953.7227 
   98400    232.66175   -263.69099     138701.3   -28932.063    4462.1107   -33394.173    2955.3766 
   98450    232.47372   -21.628701    138595.81   -28924.543    4458.5046   -33383.047     2955.318 
   98500    237.09321    35.709139    138540.93    -28958.34    4547.0998   -33505.439    2956.2458 
   98550    236.95749   -83.108251    138476.13    -28943.95    4544.4968   -33488.447     2956.618 
   98600    229.95444    260.96999    138452.56    -28956.86    4410.1886   -33367.049     2959.961 
   98650    236.69487    290.73098     138531.3   -28978.825    4539.4602   -33518.286    2961.1522 
   98700    233.97976    315.91046    138641.18   -28968.656    4487.3883   -33456.044    2964.4745 
   98750     234.3776   -89.855105    138765.68   -28966.176    4495.0183   -33461.194    2965.5149 
   98800    234.73382    140.31384    138878.68   -28972.423      4501.85   -33474.273    2966.8188 
   98850    231.16433   -288.97408    138973.73   -28955.503    4433.3924   -33388.895    2968.6265 
   98900     232.3592   -359.37615    138999.29   -28939.423    4456.3082   -33395.731    2969.1846 
   98950    231.21679    242.54146    139007.59   -28931.842    4434.3985    -33366.24    2970.1197 
   99000    236.19402   -60.656191    139026.05    -28947.63    4529.8545   -33477.485    2968.7188 
   99050    234.32408    53.901491    139034.21   -28940.671    4493.9919   -33434.663    2969.7197 
   99100    235.86049    -220.8086    139012.21    -28934.33    4523.4579   -33457.788    2973.5641 
   99150    231.73709    -98.91475     139004.1   -28951.037    4444.3771   -33395.414    2973.4489 
   99200    230.76793   -68.657346    139048.72   -28959.341    4425.7901   -33385.131    2975.2549 
   99250    237.83533    468.02151    139058.86   -28965.728    4561.3325   -33527.061    2973.3638 
   99300    232.32446    -382.3994    139098.13   -28993.425     4455.642   -33449.067    2975.7491 
   99350     234.0184   -226.01827    139119.27   -29014.758    4488.1294   -33502.887    2977.5842 
   99400    231.65188   -315.26727    139104.27   -28994.999     4442.743   -33437.742    2978.7545 
   99450    233.30484    -237.6506    139104.51   -28988.572    4474.4444   -33463.016    2980.4558 
   99500     233.3268   -162.88742    139219.27   -29007.377    4474.8655   -33482.242    2982.3442 
   99550     234.8933   -81.289451    139283.76   -28985.363    4504.9087   -33490.272    2982.5445 
   99600     232.1293    232.94613    139404.49   -28965.035    4451.8991   -33416.935    2981.8354 
   99650    230.12211   -535.72742    139519.91   -28980.582    4413.4042   -33393.986    2982.6077 
   99700    236.04423   -627.26092    139533.14   -28969.055    4526.9818   -33496.037    2983.4182 
   99750    231.21342   -20.653045    139461.27   -28972.097    4434.3339   -33406.431    2984.1922 
   99800    230.02149   -113.34084     139407.9   -28970.778    4411.4744   -33382.252    2985.6153 
   99850    233.42373    151.99119    139336.64   -28966.172    4476.7244   -33442.896    2985.9006 
   99900    231.70085   -271.59599    139270.43    -28976.82     4443.682   -33420.502    2987.0968 
   99950    235.79982   -264.65352    139174.31   -28959.902    4522.2944   -33482.197    2986.7924 
  100000    232.29029    189.60078     139058.6   -28929.058    4454.9867   -33384.045    2988.4046 
Loop time of 629.824 on 12 procs for 100000 steps with 6435 atoms

Performance: 137.181 ns/day, 0.175 hours/ns, 158.775 timesteps/s
97.2% CPU use with 12 MPI tasks x no OpenMP threads

MPI task timing breakdown:
Section |  min time  |  avg time  |  max time  |%varavg| %total
---------------------------------------------------------------
Pair    | 85.276     | 206.69     | 447.58     |1180.1 | 32.82
Neigh   | 18.578     | 33.032     | 62.341     | 348.5 |  5.24
Comm    | 83.421     | 352.4      | 488.05     |1009.0 | 55.95
Output  | 0.46626    | 0.51068    | 0.62754    |   5.2 |  0.08
Modify  | 33.301     | 33.635     | 33.892     |   3.0 |  5.34
Other   |            | 3.555      |            |       |  0.56

Nlocal:        536.250 ave         887 max         364 min
Histogram: 8 0 0 0 0 0 0 0 0 4
Nghost:        1998.00 ave        2294 max        1845 min
Histogram: 8 0 0 0 0 0 0 0 2 2
Neighs:        0.00000 ave           0 max           0 min
Histogram: 12 0 0 0 0 0 0 0 0 0
FullNghs:      62411.5 ave      144989 max       22684 min
Histogram: 8 0 0 0 0 0 0 0 0 4

Total # of neighbors = 748938
Ave neighs/atom = 116.38508
Neighbor list builds = 16687
Dangerous builds = 0

# Create data file for import to other simulations
#
write_data data.${NAME}
write_data data.graphite_ML_1atm_e
System init for write_data ...


Total wall time: 0:10:29
