
# Create simulation box and atoms

read_data data.ML_graphite_m1000atm_250K
  orthogonal box = (0 0 1.24595) to (49.22 49.0196 32.694)
  4 by 4 by 4 MPI processor grid
  reading atoms ...
  4560 atoms
  reading velocities ...
  4560 velocities
group water type 1
1800 atoms in group water
group graphite type 2
2760 atoms in group graphite

# Define potential

pair_style sw
pair_coeff * * MLC_e.sw mW C


# Fix graphite atoms in place

fix 5 graphite setforce 0.0 0.0 0.0
velocity graphite set 0.0 0.0 0.0


# Equilibration of molecular water

# Add velocity/set timestep

velocity	    water create ${TEMP} ${SEED} rot yes dist gaussian
velocity	    water create 250 ${SEED} rot yes dist gaussian
velocity	    water create 250 6101 rot yes dist gaussian
timestep	    5.0

# Define output

compute			1 water msd
compute			3 water temp
thermo	    	50
thermo_style	custom step temp press vol etotal ke pe c_1[4] c_3

# Neighbor lists

neigh_modify    delay 0 every 1 check yes

# Set fixes

fix             1 water momentum 10 linear 1 1 1 rescale
fix             2 water nve
fix             3 water temp/csvr ${TEMP} ${TEMP} 500.0 ${SEED}
fix             3 water temp/csvr 250 ${TEMP} 500.0 ${SEED}
fix             3 water temp/csvr 250 250 500.0 ${SEED}
fix             3 water temp/csvr 250 250 500.0 6101
fix             4 water press/berendsen z ${PRES} ${PRES} 1000.0 modulus 20000
fix             4 water press/berendsen z -1000 ${PRES} 1000.0 modulus 20000
fix             4 water press/berendsen z -1000 -1000 1000.0 modulus 20000

# Run 0.5 ns equilibration

dump		    1 all atom 2000 ${DIR}/eq.${NAME}-${TEMP}.dump
dump		    1 all atom 2000 run_3/eq.${NAME}-${TEMP}.dump
dump		    1 all atom 2000 run_3/eq.het_freeze_3-${TEMP}.dump
dump		    1 all atom 2000 run_3/eq.het_freeze_3-250.dump

reset_timestep  0

run	            100000
Neighbor list info ...
  update every 1 steps, delay 0 steps, check yes
  max neighbors/atom: 2000, page size: 100000
  master list distance cutoff = 6.67472
  ghost atom cutoff = 6.67472
  binsize = 3.33736, bins = 15 15 10
  1 neighbor lists, perpetual/occasional/extra = 1 0 0
  (1) pair sw, perpetual
      attributes: full, newton on
      pair build: full/bin/atomonly
      stencil: full/bin/3d
      bin: standard
Per MPI rank memory allocation (min/avg/max) = 4.068 | 4.29 | 4.492 Mbytes
Step Temp Press Volume TotEng KinEng PotEng c_1[4] c_3 
       0     98.65102   -1309.4651    75876.271   -17199.746    1340.6193   -18540.366            0          250 
      50    100.00285    -1066.559    75906.981    -17232.95      1358.99    -18591.94   0.51785262    253.42579 
     100    100.01839   -1219.1376    75981.562   -17218.025    1359.2012   -18577.227    0.8722688    253.46517 
     150    101.86352   -1291.5782    76038.437   -17246.586    1384.2756   -18630.862     1.116344    258.14106 
     200    98.147672   -1665.2164    76035.009   -17258.667    1333.7791   -18592.446    1.3937363    248.72442 
     250     97.46814   -1268.7713    75983.485   -17257.404    1324.5446   -18581.948    1.5647644    247.00236 
     300     98.86954   -1595.2733    76028.175   -17268.248    1343.5889   -18611.837    1.6909321    250.55377 
     350    100.23392   -1502.5233    76014.031   -17246.195    1362.1302   -18608.325    1.8980529    254.01136 
     400     100.0133   -1506.5012    75925.666   -17250.154     1359.132   -18609.286    2.0644353    253.45227 
     450    100.54221   -1471.0937    75870.256   -17267.703    1366.3197   -18634.023    2.2219192    254.79264 
     500    99.856082   -1495.9221    75863.058   -17280.357    1356.9955   -18637.353    2.3374734    253.05385 
     550    97.447371   -1425.0262    75820.981   -17304.492    1324.2623   -18628.754    2.5844747    246.94973 
     600     96.80107   -1562.1733    75736.304   -17287.155    1315.4794   -18602.634    2.8281768    245.31188 
     650    95.657468   -1660.9047    75719.125   -17288.112    1299.9384   -18588.051    3.0627731    242.41378 
     700    96.436037   -1611.6207    75717.935   -17301.444    1310.5188   -18611.962    3.3045822    244.38682 
     750    99.496312   -1521.2379    75703.101   -17305.787    1352.1064   -18657.893    3.5313123    252.14213 
     800    97.441589    -1524.649    75641.978    -17290.16    1324.1837   -18614.344    3.6878014    246.93508 
     850    97.448038   -1274.3565     75655.99   -17332.517    1324.2714   -18656.789    3.8518018    246.95142 
     900    95.291175   -1012.9579    75739.843   -17346.608    1294.9607   -18641.568     4.013684    241.48553 
     950     99.15014   -1370.9787    75780.559   -17344.374    1347.4021   -18691.776    4.1708878    251.26486 
    1000    98.788451   -1223.4108    75771.518   -17282.059    1342.4869   -18624.546     4.411778    250.34828 
    1050    97.471891   -1578.9779    75731.247   -17279.265    1324.5955    -18603.86    4.7269083    247.01187 
    1100    98.709466   -1442.2098    75703.275   -17286.666    1341.4136   -18628.079     4.871571    250.14811 
    1150    101.61874    -1557.293    75679.242   -17267.016    1380.9492   -18647.965    5.0786975    257.52076 
    1200    101.10755   -1354.2912    75720.384   -17263.498    1374.0024   -18637.501    5.3206254    256.22531 
    1250    98.506854   -1187.1615     75710.26   -17272.969    1338.6602   -18611.629    5.5158942    249.63466 
    1300    97.331359    -1330.202    75723.106   -17280.337    1322.6858   -18603.023    5.7980046    246.65573 
    1350     98.67602   -1438.4934    75726.499   -17254.169    1340.9591   -18595.129     5.980039    250.06335 
    1400    99.638723   -1419.9222    75703.574   -17250.265    1354.0417   -18604.306    5.9582809    252.50302 
    1450    98.956894   -1624.1825    75661.139   -17230.547     1344.776   -18575.323    6.1083186    250.77514 
    1500    100.54524   -1527.0671    75583.181   -17268.973    1366.3608   -18635.334    6.2629836     254.8003 
    1550    98.687186   -1603.5873    75556.336   -17269.748    1341.1108   -18610.859    6.3901254    250.09165 
    1600    99.567061   -1371.9385    75535.844    -17247.68    1353.0679   -18600.748    6.5380532    252.32142 
    1650     100.1911   -1540.8587    75559.294    -17268.12    1361.5482   -18629.668    6.5999284    253.90284 
    1700    97.527218   -1307.9781    75502.482   -17280.151    1325.3474   -18605.499    6.9497266    247.15208 
    1750    100.28936   -1377.8926    75475.657   -17239.621    1362.8836   -18602.505    7.1999959    254.15186 
    1800    99.229123   -1771.7139    75469.805    -17257.99    1348.4755   -18606.466    7.2524467    251.46502 
    1850    98.299857   -932.52214    75474.509   -17248.578    1335.8472   -18584.426    7.2908178    249.11009 
    1900    101.61947   -1560.1171     75550.49   -17285.675    1380.9591   -18666.634    7.3658758    257.52259 
    1950    100.03701   -981.80536    75598.024   -17278.097    1359.4543   -18637.551    7.4651683    253.51236 
    2000    98.224093   -1371.2228    75568.329   -17286.792    1334.8176    -18621.61    7.5470659    248.91809 
    2050    100.32672   -1247.3282    75562.239   -17275.203    1363.3913   -18638.594     7.665676    254.24654 
    2100    97.689081   -1392.6886     75563.42   -17310.526     1327.547   -18638.073    7.7542799    247.56227 
    2150    97.446683   -1303.6377    75598.767   -17282.293     1324.253   -18606.546    7.8888579    246.94799 
    2200    97.751459   -1394.4738    75629.547   -17288.807    1328.3947   -18617.201    8.1010191    247.72035 
    2250    100.65685   -1250.4702    75602.744   -17339.406    1367.8776   -18707.284     8.328927    255.08315 
    2300    102.67467   -1325.4539    75587.651   -17293.116    1395.2987   -18688.415    8.3630001    260.19667 
    2350    97.193659    -1329.757    75617.195   -17293.685    1320.8145   -18614.499    8.5143704    246.30678 
    2400    99.984618   -1183.5158    75683.642    -17301.65    1358.7423   -18660.393    8.6523155    253.37959 
    2450     95.15187   -1361.4146    75694.734   -17321.258    1293.0676   -18614.326    8.7901372    241.13251 
    2500     98.16693   -1446.0177    75665.264   -17336.318    1334.0408   -18670.359    9.0141575    248.77323 
    2550    97.594645   -1436.9584    75671.553   -17305.681    1326.2637   -18631.945     9.229681    247.32295 
    2600    99.370014   -1535.3522    75656.339   -17314.302    1350.3901   -18664.692    9.5758282    251.82207 
    2650    97.850522   -1293.2126    75602.775   -17307.005    1329.7409   -18636.746    10.027819    247.97139 
    2700     96.12719   -1274.7755    75604.486   -17354.277    1306.3217   -18660.599    10.292803    243.60415 
    2750    97.825428    -1543.823    75572.665   -17353.989    1329.3999   -18683.389    10.523458     247.9078 
    2800    93.245787   -1127.4962    75562.059   -17387.337    1267.1648   -18654.502     10.78493    236.30214 
    2850    96.861441   -1324.2251    75596.522   -17339.924    1316.2998   -18656.224    11.094716    245.46488 
    2900    97.154445   -1366.8587    75564.578   -17327.177    1320.2816   -18647.459    11.252315     246.2074 
    2950    94.609155   -1365.8553    75579.272   -17343.702    1285.6923   -18629.395    11.442021    239.75716 
    3000    95.851917    -1196.975    75613.938   -17365.199    1302.5809    -18667.78     11.60241    242.90655 
    3050     98.11659   -1154.1857    75606.878   -17329.713    1333.3567    -18663.07    11.818118    248.64565 
    3100    97.463872   -1003.6714     75662.04   -17278.943    1324.4866    -18603.43    12.093427    246.99155 
    3150    100.35224   -997.98188    75700.385   -17252.909    1363.7381   -18616.647    12.217308    254.31121 
    3200    101.22824   -1535.9084    75686.704   -17236.171    1375.6425   -18611.814    12.295986    256.53115 
    3250    97.422832   -979.44531    75662.106   -17259.344    1323.9288   -18583.272    12.434987    246.88754 
    3300    99.086986   -1370.6195    75663.314   -17252.825    1346.5439   -18599.369    12.603332    251.10482 
    3350    101.81191   -1170.8563    75682.299   -17237.591    1383.5743   -18621.165    12.861418    258.01029 
    3400    98.655162   -1323.2388    75610.986   -17253.592    1340.6756   -18594.268    12.957819     250.0105 
    3450     96.53834      -1193.8     75587.19    -17260.94     1311.909   -18572.849    13.291162    244.64608 
    3500    100.04328   -1453.2422    75556.987   -17246.091    1359.5394   -18605.631    13.503247    253.52824 
    3550    101.19126   -1009.2017    75625.972   -17232.286    1375.1399   -18607.426    13.746138    256.43743 
    3600    99.678561   -1629.6506     75654.09   -17264.813    1354.5831   -18619.396    13.818382    252.60398 
    3650     96.35314   -1320.5349    75545.324   -17290.914    1309.3922   -18600.306     13.99657    244.17674 
    3700    97.104078   -1399.3588     75496.21   -17267.548    1319.5971   -18587.145    14.209496    246.07976 
    3750    99.832652   -1177.3505    75499.002   -17254.186    1356.6771   -18610.863    14.394848    252.99448 
    3800    97.969205   -964.04915    75502.065   -17301.223    1331.3538   -18632.577    14.555999    248.27215 
    3850    98.950968   -1029.6757    75548.941    -17294.56    1344.6955   -18639.256    14.751483    250.76012 
    3900    97.602596   -1538.8977    75532.889   -17293.821    1326.3718   -18620.193    14.972812     247.3431 
    3950    100.73685   -1225.1074    75578.794   -17255.623    1368.9648   -18624.588    15.160555    255.28588 
    4000      99.8643    -1040.409    75647.905   -17257.609    1357.1072   -18614.716    15.369775    253.07468 
    4050    100.10427   -1502.4112    75675.857   -17229.965    1360.3683   -18590.333    15.611264     253.6828 
    4100     99.49935   -1298.4181    75685.456   -17232.737    1352.1477   -18584.884    15.893084    252.14983 
    4150    100.86508   -1155.7996    75672.341   -17241.112    1370.7073   -18611.819    15.934167    255.61083 
    4200    103.42485   -1117.3148    75721.064   -17221.083    1405.4934   -18626.576    16.086372    262.09778 
    4250    98.790708   -1261.2392    75691.752    -17272.45    1342.5176   -18614.968    16.233046      250.354 
    4300    98.547929   -1304.0377    75674.885    -17261.69    1339.2184   -18600.908     16.35103    249.73875 
    4350    98.107459   -1028.0202    75749.832   -17263.376    1333.2326   -18596.608    16.465072    248.62252 
    4400    100.95953    -1082.923    75787.768    -17253.43    1371.9908    -18625.42    16.576261    255.85019 
    4450    97.993946   -1557.1702    75804.856   -17294.057      1331.69   -18625.747    16.714298    248.33485 
    4500    98.391487   -1411.7578    75790.601   -17301.556    1337.0924   -18638.649     16.87813     249.3423 
    4550    96.909194    -1285.572    75743.398   -17288.775    1316.9488   -18605.724    17.096191    245.58589 
    4600    98.881543   -1175.6026    75741.056   -17307.482     1343.752   -18651.234    17.483025    250.58419 
    4650    96.711646   -1303.6656    75685.393   -17303.382    1314.2642   -18617.646    17.743478    245.08527 
    4700    96.701103   -955.26917    75756.423   -17298.958    1314.1209   -18613.079    18.031305    245.05855 
    4750    99.488047   -1514.2975    75781.968   -17271.749    1351.9941   -18623.743    18.107433    252.12118 
    4800    100.07877   -987.77553    75817.926   -17262.101    1360.0217   -18622.122     18.22701    253.61818 
    4850    97.304371   -1256.5709    75865.091   -17253.883     1322.319   -18576.202    18.404332    246.58734 
    4900    96.532357   -1386.7604    75855.521   -17270.965    1311.8277   -18582.793    18.441812    244.63091 
    4950    100.31172   -1051.0639    75885.281   -17244.881    1363.1875   -18608.068    18.557736    254.20853 
    5000    99.192067   -1320.5663    75894.063   -17240.842    1347.9719   -18588.814    18.639221    251.37111 
    5050    97.486934   -1290.6014    75881.315   -17263.401       1324.8   -18588.201    18.659665    247.04999 
    5100    96.954124   -1250.0285    75908.535   -17218.977    1317.5593   -18536.536    19.091178    245.69975 
    5150    97.864136   -1133.4693     75908.97    -17205.24    1329.9259   -18535.166    19.207966    248.00589 
    5200    99.059448   -933.90396    75918.259   -17232.067    1346.1697   -18578.237    19.324996    251.03503 
    5250     95.89979   -1106.7073    75970.443   -17266.786    1303.2314   -18570.018    19.462655    243.02787 
    5300    98.608721   -1260.3944     75958.78   -17202.802    1340.0445   -18542.846    19.669216    249.89281 
    5350    98.765248     -1353.63    75981.555   -17246.559    1342.1716   -18588.731    19.920521    250.28948 
    5400    97.195296   -1151.9997    75919.721     -17199.4    1320.8367   -18520.237    20.178698    246.31093 
    5450    100.56328   -1542.1034    75941.753   -17213.053     1366.606   -18579.659    20.311901    254.84602 
    5500    95.342812   -1574.0231    75801.173   -17228.148    1295.6624    -18523.81    20.588172    241.61639 
    5550    99.552499   -1219.4926    75728.547     -17223.7      1352.87    -18576.57    20.897562    252.28452 
    5600    95.719706   -1330.0901    75714.463   -17227.718    1300.7842   -18528.502    21.421816    242.57151 
    5650    100.50691   -1334.6062    75726.329   -17224.337      1365.84   -18590.177    21.631909    254.70318 
    5700    97.345396   -1474.9308    75762.466   -17276.619    1322.8765   -18599.496    21.721194    246.69131 
    5750    98.219758   -1572.7919    75729.119   -17295.405    1334.7587   -18630.163    21.706431     248.9071 
    5800    98.651043   -1267.9004     75738.88   -17267.809    1340.6196   -18608.429    21.881918    250.00006 
    5850    100.32135    -1445.765     75718.19   -17238.408    1363.3182   -18601.727    22.011493    254.23292 
    5900    99.650533   -1503.6786    75755.718   -17254.546    1354.2022   -18608.748    21.950011    252.53295 
    5950    98.360805   -1379.9003    75703.083   -17267.329    1336.6754   -18604.005    21.996803    249.26454 
    6000     97.53786   -1386.1771    75714.673   -17227.337     1325.492   -18552.829    22.162559    247.17905 
    6050    96.663915   -1187.4628    75790.089   -17235.109    1313.6155   -18548.724    22.281332    244.96431 
    6100    97.042597   -1241.1296     75858.94    -17247.89    1318.7616   -18566.651    22.576931    245.92396 
    6150    99.663772   -1298.4772    75930.016   -17232.383    1354.3821   -18586.765     22.65626     252.5665 
    6200    98.465136   -1528.3661    75915.845   -17211.624    1338.0932   -18549.717    22.650849    249.52893 
    6250    98.780203   -1432.2862    75862.761    -17220.43    1342.3749   -18562.805    22.793995    250.32737 
    6300    100.23145   -1276.9299    75828.919   -17189.055    1362.0966   -18551.151    22.905828     254.0051 
    6350     100.2004   -1315.0677    75838.851   -17156.788    1361.6747   -18518.463    23.106217    253.92642 
    6400    101.70357   -995.04173    75842.731   -17157.208    1382.1021    -18539.31    23.371638    257.73574 
    6450    100.88361   -1093.5543    75902.857   -17154.202    1370.9591   -18525.161    23.623995     255.6578 
    6500    99.812848   -1409.1625    75925.344   -17184.472     1356.408    -18540.88    23.905856    252.94429 
    6550    100.24065   -1151.6219    76038.734   -17221.392    1362.2217   -18583.614    24.137946    254.02843 
    6600    100.77944   -1423.4027    76030.852   -17188.495    1369.5435   -18558.039    24.219599    255.39382 
    6650    102.45194   -1178.4863      75997.4   -17196.211     1392.272   -18588.483    24.379291    259.63224 
    6700    104.40388   -827.64363     76011.49   -17219.916    1418.7979   -18638.714    24.471003    264.57882 
    6750    99.662926   -1391.8246    75908.488   -17265.255    1354.3706   -18619.626    24.672788    252.56436 
    6800    98.411444   -1423.4589    75847.677   -17230.945    1337.3636   -18568.308    24.985173    249.39287 
    6850    100.52306   -1157.9072    75810.866    -17229.05    1366.0594    -18595.11    25.079187    254.74409 
    6900     100.7628   -1292.6175    75811.243    -17235.57    1369.3174   -18604.888    25.402488    255.35164 
    6950     99.08473    -1485.825    75765.499   -17232.848    1346.5132   -18579.361    25.682326     251.0991 
    7000    99.307918   -1476.8354     75700.77   -17256.669    1349.5463   -18606.216     25.82703     251.6647 
    7050    96.035415   -1254.3772    75608.386   -17290.107    1305.0745   -18595.181    26.171991    243.37157 
    7100    100.85215   -1475.8376    75613.193   -17270.352    1370.5317   -18640.884    26.303471    255.57808 
    7150    101.32522   -1480.2976     75588.33   -17267.947    1376.9604   -18644.908    26.365212    256.77691 
    7200    99.528162   -976.27978    75612.499    -17292.38    1352.5393   -18644.919    26.607956    252.22284 
    7250    96.039788   -1174.9369    75645.284   -17300.822    1305.1339   -18605.956    26.641011    243.38265 
    7300    95.691054   -972.32665    75673.726   -17292.605    1300.3948       -18593    26.679755     242.4989 
    7350    94.168378   -1466.1972    75712.353   -17309.437    1279.7024   -18589.139    26.821113    238.64015 
    7400    99.511446   -1794.2191    75675.908   -17274.454    1352.3121   -18626.766    26.945909    252.18048 
    7450    98.287196   -1393.0266    75654.089   -17281.677    1335.6751   -18617.352    26.966354      249.078 
    7500    97.941573   -1351.1696    75633.724   -17299.281    1330.9783   -18630.259    27.088729    248.20213 
    7550     95.52763   -1515.4971    75591.335   -17293.241     1298.174   -18591.415    27.247658    242.08475 
    7600    100.35875   -1501.1743    75614.927   -17300.344    1363.8265    -18664.17    27.525957    254.32769 
    7650    99.324856    -1443.794    75605.839    -17252.15    1349.7764   -18601.927    27.543507    251.70763 
    7700    100.98672    -1604.761    75587.607   -17223.565    1372.3603   -18595.926    27.603003    255.91909 
    7750    101.37998   -1474.7578    75600.682   -17213.729    1377.7046   -18591.434    27.846662    256.91569 
    7800    102.82745   -1236.3857    75637.847   -17216.425     1397.375     -18613.8    27.943801    260.58386 
    7850    99.156771   -1326.3116    75670.843   -17217.658    1347.4922    -18565.15    28.080901    251.28167 
    7900    97.720337   -1113.1998    75744.258    -17213.09    1327.9718   -18541.061    28.307812    247.64148 
    7950    98.839394   -1024.9046    75853.736   -17228.555    1343.1792   -18571.734    28.478749    250.47738 
    8000    98.599055   -1415.0707    75917.562   -17257.322    1339.9131   -18597.236     28.72997    249.86831 
    8050     97.95965    -1605.528    75920.796   -17258.128    1331.2239   -18589.352    28.867397    248.24794 
    8100    97.945642   -1341.6682    75962.287   -17282.629    1331.0336   -18613.663    28.837206    248.21244 
    8150    95.466881   -1736.3536    75935.594   -17279.961    1297.3484    -18577.31    29.043127     241.9308 
    8200     97.68646   -1404.4342    75883.666   -17263.344    1327.5114   -18590.855    29.380467    247.55563 
    8250    96.160445    -1411.161    75817.952   -17227.787    1306.7736    -18534.56     29.58969    243.68842 
    8300    101.31877   -1208.0779    75769.833   -17220.147    1376.8727    -18597.02    29.792111    256.76057 
    8350    101.11137   -1226.4176    75763.164   -17200.692    1374.0543   -18574.746    29.704151    256.23499 
    8400    98.075817   -1288.2779    75752.501   -17245.269    1332.8026   -18578.072    29.824771    248.54233 
    8450    99.361545   -1502.0174    75794.884    -17246.77     1350.275   -18597.045    30.090027     251.8006 
    8500    98.678587   -1315.1144    75784.439   -17258.692    1340.9939   -18599.686    30.278868    250.06986 
    8550    98.100048   -1556.6161    75765.111    -17241.99    1333.1319   -18575.121    30.574623    248.60374 
    8600    99.989082   -1275.7037    75788.471    -17218.55    1358.8029   -18577.353    30.509285     253.3909 
    8650    98.226632   -1560.1551      75710.9   -17218.905    1334.8521   -18553.757     30.63154    248.92452 
    8700    97.785901    -1435.375    75699.812   -17218.699    1328.8628   -18547.562    30.876113    247.80763 
    8750    95.822325   -1464.8916     75711.35   -17236.641    1302.1787   -18538.819    31.192054    242.83156 
    8800    99.431952   -1038.6114    75685.563   -17233.022    1351.2318   -18584.254    31.363684    251.97903 
    8850     101.6046   -1739.1035     75694.09   -17242.511    1380.7571   -18623.268    31.727678    257.48492 
    8900    96.955893   -1333.6638     75725.07    -17251.74    1317.5834   -18569.324    32.094624    245.70423 
    8950    96.831671   -1286.7787    75824.764   -17255.189    1315.8953   -18571.084     32.20785    245.38943 
    9000    100.71521   -1345.1412    75880.317   -17255.054    1368.6706   -18623.725    32.191129    255.23103 
    9050    97.349381   -1123.1042    75827.459   -17235.022    1322.9307   -18557.952    32.168185     246.7014 
    9100    98.971837   -1188.4309    75851.391    -17267.56    1344.9791   -18612.539    32.464931    250.81301 
    9150    98.439879   -1210.4268    75843.812   -17273.968      1337.75   -18611.718    32.791077    249.46493 
    9200    100.78621   -1104.2241    75815.531   -17275.677    1369.6355   -18645.313    33.115653    255.41096 
    9250    98.620494   -1244.1161    75804.772   -17260.017    1340.2045   -18600.221    33.354004    249.92264 
    9300     99.69196     -1272.32    75805.295   -17228.323    1354.7652   -18583.089    33.540615    252.63794 
    9350    98.444068   -1336.1595    75711.611   -17211.541    1337.8069   -18549.348    33.660224    249.47555 
    9400    99.936107   -1451.8778    75662.892   -17229.367     1358.083    -18587.45    33.882154    253.25665 
    9450    100.23229   -1204.8181     75704.93   -17190.158     1362.108   -18552.266    34.077983    254.00723 
    9500    102.12799   -1371.9357     75707.42   -17217.573    1387.8696   -18605.442     34.36784    258.81128 
    9550      98.0532   -1358.4614    75649.771   -17216.516    1332.4952   -18549.011    34.342952    248.48501 
    9600     100.2551   -1135.4653    75631.841   -17230.713     1362.418   -18593.132    34.470607    254.06505 
    9650    97.982658   -1329.4218    75605.353   -17227.639    1331.5366   -18559.176    34.619686    248.30625 
    9700    98.560544    -1172.969    75622.115    -17266.09    1339.3898    -18605.48     34.56085    249.77072 
    9750     98.77462   -1481.0165     75624.63   -17288.133     1342.299   -18630.432    34.771799    250.31323 
    9800    94.878026    -1023.949    75598.176   -17316.968    1289.3462   -18606.314    34.812692    240.43853 
    9850     98.05569   -1255.8282    75559.356   -17265.781    1332.5291    -18598.31    34.680698    248.49132 
    9900    98.010709   -1308.4569    75523.154   -17267.792    1331.9178    -18599.71    34.730476    248.37733 
    9950    99.907798   -1135.9658    75533.444   -17203.138    1357.6983   -18560.837    34.924419    253.18491 
   10000    99.934276   -1365.7049    75535.335   -17204.512    1358.0581    -18562.57    34.942948    253.25201 
   10050    101.99178   -1007.6645    75516.717   -17239.022    1386.0186   -18625.041    34.867366     258.4661 
   10100    98.344015   -1079.4119    75581.701   -17232.235    1336.4473   -18568.682    34.891287    249.22199 
   10150    96.977008   -1451.5555     75608.28    -17251.19    1317.8703    -18569.06    35.220777    245.75774 
   10200    100.51075   -1289.5669      75591.2   -17229.157    1365.8921   -18595.049    35.355569     254.7129 
   10250     95.81102   -1699.4452    75594.039   -17258.905    1302.0251    -18560.93    35.673498    242.80291 
   10300    99.633902   -1605.6159    75631.481   -17251.317    1353.9762   -18605.294    35.854718     252.4908 
   10350    98.989634   -1652.1854     75603.94    -17232.09    1345.2209   -18577.311    36.059403    250.85811 
   10400     99.49993   -1624.9688    75559.199   -17238.207    1352.1556   -18590.362    36.275345    252.15129 
   10450    101.55074   -1353.2344    75533.422   -17254.809    1380.0252   -18634.834    36.348275    257.34844 
   10500    98.092663   -1488.1485    75497.043   -17289.597    1333.0315   -18622.629    36.535028    248.58502 
   10550    97.781544     -1205.53    75467.797   -17294.282    1328.8036   -18623.085    36.969891    247.79659 
   10600    101.10452   -1538.8002    75484.751   -17286.604    1373.9612   -18660.565    36.937974    256.21763 
   10650    99.420705   -1293.5365    75524.972   -17297.412     1351.079   -18648.491    36.738473    251.95053 
   10700      98.1971   -1153.3702    75529.133   -17298.805    1334.4508   -18633.256    37.043088    248.84968 
   10750    99.291318   -1079.4593    75564.537   -17257.419    1349.3207    -18606.74    37.344682    251.62263 
   10800     102.3504   -978.07843    75628.556   -17281.853    1390.8921   -18672.746    37.608428    259.37492 
   10850    97.330332   -706.89335    75667.446   -17293.461    1322.6718   -18616.133    37.886872    246.65313 
   10900    98.095039    -1153.246    75678.971   -17286.613    1333.0638   -18619.676    37.965515    248.59104 
   10950    99.233387   -957.40696    75761.225    -17259.24    1348.5334   -18607.774    38.060895    251.47583 
   11000    98.977923   -1044.8891    75870.566    -17224.57    1345.0618   -18569.631    38.130123    250.82843 
   11050    101.03672   -1497.9515    75922.498   -17192.256    1373.0398   -18565.296    38.367047    256.04579 
   11100    100.34749   -1344.7842    75926.212   -17183.138    1363.6736   -18546.811    38.609158    254.29918 
   11150     99.92498   -1649.7806    75964.309    -17232.79    1357.9318   -18590.721     38.98887    253.22845 
   11200    100.84346   -1388.4784    76023.463   -17228.892    1370.4135   -18599.305    38.945841    255.55606 
   11250    95.759682   -1340.1998    76028.516   -17271.209    1301.3274   -18572.536    39.041816    242.67281 
   11300    98.057058   -1439.0844    76051.608   -17281.278    1332.5477   -18613.826    39.512035    248.49479 
   11350    99.293845   -1372.7099    76100.442   -17229.719     1349.355   -18579.074    39.376191    251.62904 
   11400    99.719934   -1243.9631    76071.497   -17202.179    1355.1453   -18557.325    39.552773    252.70883 
   11450    102.18723   -1342.7598    76056.238   -17173.135    1388.6746    -18561.81    39.817021     258.9614 
   11500    99.747487   -1421.6435    76025.164   -17178.045    1355.5198   -18533.565    39.774613    252.77865 
   11550    100.48329   -1519.2896     75916.65   -17149.215     1365.519   -18514.734    39.959624    254.64333 
   11600    101.01263    -1326.718    75887.996    -17181.17    1372.7125   -18553.882    40.053753    255.98476 
   11650    101.69634    -1203.933     75978.66   -17195.006    1382.0037   -18577.009    40.315633    257.71741 
   11700    97.428562   -1212.4254     75980.54   -17241.718    1324.0067   -18565.724    40.530838    246.90206 
   11750     102.1459   -1302.5598    76048.366   -17200.159     1388.113   -18588.272    40.712496    258.85667 
   11800    100.04961   -1361.9544    76076.482   -17180.039    1359.6254   -18539.665    40.802326    253.54428 
   11850    96.386411   -1601.9987    76057.109    -17215.59    1309.8444   -18525.435    40.925488    244.26106 
   11900    101.31236   -1347.6466    76032.338   -17218.026    1376.7857   -18594.811    41.274852    256.74434 
   11950    99.661957    -1242.558    76061.644   -17219.441    1354.3575   -18573.799    41.565337     252.5619 
   12000    96.431502   -1472.4117    76034.226   -17223.742    1310.4572     -18534.2    41.661853    244.37533 
   12050    99.769196   -1563.8566    75983.893   -17243.137    1355.8148   -18598.952    41.866448    252.83366 
   12100    99.545265    -1602.412    75975.609   -17218.395    1352.7717   -18571.167    41.959732    252.26618 
   12150    98.542275   -1346.2602    75992.162   -17250.345    1339.1415   -18589.487    42.300111    249.72442 
   12200    99.440588   -1212.1581    76038.258   -17233.296    1351.3492   -18584.645    42.369735    252.00091 
   12250    99.400981   -1181.7883    76085.411   -17254.135    1350.8109   -18604.946    42.400021    251.90054 
   12300    100.47345   -1175.8152    76107.834   -17262.329    1365.3852   -18627.714    42.474098    254.61836 
   12350    98.480838   -1564.9187    76119.164   -17306.151    1338.3066   -18644.458    42.708156    249.56873 
   12400    98.008108   -1598.8538    76078.122   -17292.375    1331.8825   -18624.257    42.761371    248.37074 
   12450    97.189949   -1686.2323    76071.499     -17272.2    1320.7641   -18592.964    43.078942    246.29738 
   12500    96.581515   -1188.9311    76080.463   -17281.163    1312.4958   -18593.658    43.339941    244.75549 
   12550    100.56828   -1215.0834    76107.868    -17257.17    1366.6739   -18623.843    43.694472    254.85869 
   12600    100.22121   -1209.8816    76123.338   -17259.379    1361.9575   -18621.337    43.612228    253.97917 
   12650    100.17255   -766.82108    76180.288    -17283.65    1361.2961   -18644.947    43.970426    253.85583 
   12700    100.01985   -1107.2475    76231.607   -17272.021    1359.2211   -18631.242    44.117246    253.46887 
   12750    98.631251   -1154.1803    76333.981   -17256.442    1340.3507   -18596.793    44.259091     249.9499 
   12800    103.83578   -1281.1577    76327.846   -17237.325    1411.0776   -18648.402    44.552509    263.13913 
   12850     96.83766   -1229.7462    76305.206   -17282.187    1315.9766   -18598.163    44.800776    245.40461 
   12900    98.065312   -1310.9735    76324.585   -17297.329    1332.6598   -18629.988    44.988636    248.51571 
   12950    96.530345   -1450.5187    76365.206   -17310.362    1311.8004   -18622.162    45.089384    244.62582 
   13000    96.303024   -1447.6375    76317.595   -17313.737    1308.7112   -18622.448     45.30051    244.04974 
   13050    93.527177   -1405.9365    76322.789   -17341.891    1270.9888    -18612.88    45.497661    237.01523 
   13100    96.752702   -1524.8931    76394.663   -17348.881    1314.8221   -18663.703     45.65631    245.18931 
   13150     99.13517   -1456.2627    76392.239   -17348.669    1347.1987   -18695.867    45.834975    251.22693 
   13200    98.495554   -1091.4077     76351.74   -17334.266    1338.5066   -18672.773    45.485535    249.60602 
   13250    98.906416   -1586.3102     76310.76   -17331.856      1344.09   -18675.946     45.64477    250.64722 
   13300    97.687669   -1621.1708      76271.3   -17351.491    1327.5278   -18679.018    45.766706    247.55869 
   13350     94.94707   -1619.8284    76239.069   -17344.892    1290.2844   -18635.177    45.887992     240.6135 
   13400    95.872711   -1332.7887    76171.694   -17326.995    1302.8634   -18629.859    46.053691    242.95925 
   13450    95.008228   -1642.9014    76136.422   -17320.845    1291.1156   -18611.961      46.0751    240.76849 
   13500     97.76349    -1533.933    76155.622   -17287.132    1328.5582    -18615.69    45.884099    247.75083 
   13550    99.960489   -1347.4977    76087.187   -17235.022    1358.4144   -18593.436    46.044038    253.31844 
   13600    99.159782   -1351.7965    76105.236   -17258.592    1347.5332   -18606.125     46.13017     251.2893 
   13650    102.11692   -1203.0675    76177.779   -17264.583    1387.7192   -18652.303     46.60987    258.78322 
   13700    99.337797   -1344.0941    76165.893   -17269.918    1349.9523    -18619.87    46.785615    251.74042 
   13750    95.137877   -1460.3324    76121.065   -17281.327    1292.8774   -18574.205    46.944801    241.09704 
   13800    94.052646   -1458.0379    76117.576   -17299.935    1278.1297   -18578.065    46.988787    238.34687 
   13850    96.561974   -1680.6431    76082.047    -17317.44    1312.2302    -18629.67    47.169504    244.70597 
   13900    98.717594   -1578.2497    76025.292   -17347.572     1341.524   -18689.096    47.552337    250.16871 
   13950    97.384464   -1308.6488    76051.248    -17347.94    1323.4074   -18671.348    47.692885    246.79031 
   14000    94.186455   -1519.0407    76080.249   -17325.263    1279.9481   -18605.211    48.020509    238.68596 
   14050    97.844604   -1453.5213    76049.906   -17328.166    1329.6605   -18657.827     48.48243    247.95639 
   14100    98.730633   -1512.9283     76033.16   -17267.397    1341.7012   -18609.098    48.556443    250.20175 
   14150    101.74327   -1540.4976    76023.383   -17266.087    1382.6414   -18648.729    48.473954    257.83633 
   14200    96.825474     -1213.34      75992.4    -17272.91     1315.811   -18588.721    48.813839    245.37373 
   14250    96.439654   -1141.1291    76068.574    -17287.49    1310.5679   -18598.058    49.185783    244.39599 
   14300      97.3734     -1389.41    76051.841   -17310.305    1323.2571   -18633.562    49.194175    246.76227 
   14350    95.740206   -811.76641    76135.671   -17345.542    1301.0628   -18646.605    49.158295    242.62346 
   14400    97.402037   -1579.5204    76122.525   -17317.194    1323.6462    -18640.84    49.259806    246.83484 
   14450    98.174552   -1246.7695     76133.75   -17299.656    1334.1444   -18633.801    49.032911    248.79254 
   14500    99.079699   -1190.4568    76111.505   -17267.254    1346.4449   -18613.699    48.934688    251.08635 
   14550    100.60015   -1413.6016    76064.556   -17261.035     1367.107   -18628.142    49.169398    254.93945 
   14600    97.967128   -1416.7708    76048.081   -17258.169    1331.3256   -18589.495    49.545616    248.26689 
   14650    99.021144    -1275.464    76014.731   -17294.276    1345.6491   -18639.925    49.666027    250.93796 
   14700    96.939151      -1405.6    75969.006   -17307.364    1317.3559    -18624.72    49.907486    245.66181 
   14750    99.402298   -1325.1167    75961.432   -17302.011    1350.8288    -18652.84    50.050709    251.90388 
   14800    99.470761   -1372.3981    75965.862    -17304.41    1351.7592   -18656.169    50.383257    252.07737 
   14850    99.453858   -1345.8607    75947.627   -17289.693    1351.5295   -18641.223    50.383905    252.03454 
   14900    99.833698   -1147.0314    75957.098   -17306.407    1356.6913   -18663.099    50.563714    252.99713 
   14950     99.75896   -975.41146    75994.803   -17296.684    1355.6757   -18652.359    50.928838    252.80772 
   15000    99.552885    -1285.509    75979.624   -17312.913    1352.8752   -18665.789    50.940635    252.28549 
   15050    100.16875   -1332.0682    75941.208   -17288.405    1361.2446    -18649.65    50.791837    253.84622 
   15100    100.21599   -1149.9033    75920.326   -17305.627    1361.8865   -18667.513    50.705596    253.96593 
   15150    101.77642   -1203.9648    75919.205   -17338.718     1383.092    -18721.81    50.376898    257.92035 
   15200    95.443213   -1300.3802    75951.956    -17346.33    1297.0268   -18643.357    50.385311    241.87082 
   15250    96.940535   -1146.3557    75893.301   -17351.711    1317.3747   -18669.085    50.494671    245.66531 
   15300    97.709974   -1267.2031    75864.638   -17319.927     1327.831   -18647.758    50.547434    247.61521 
   15350    100.12864   -727.71068    75918.765   -17296.985    1360.6994   -18657.685    50.731654    253.74456 
   15400    98.059213    -1404.073    75908.951   -17320.683     1332.577    -18653.26    51.100518    248.50025 
   15450    98.147973   -1284.8583    75854.353   -17294.084    1333.7832   -18627.867    51.238721    248.72519 
   15500    102.11635   -1373.1355    75847.305   -17260.249    1387.7114    -18647.96    51.279019    258.78178 
   15550    99.061166    -1307.217    75844.127   -17271.228     1346.193   -18617.421    51.661731    251.03938 
   15600    98.312252    -943.1145    75856.653   -17277.005    1336.0156    -18613.02    52.191826     249.1415 
   15650    97.564352   -1407.5653    75850.632   -17327.376     1325.852   -18653.228    52.406883    247.24618 
   15700    101.17715   -1285.4064    75786.135   -17344.425    1374.9482   -18719.373    52.574022    256.40169 
   15750    97.733358   -1049.2771    75767.215   -17353.212    1328.1487    -18681.36    52.581811    247.67447 
   15800    98.269756   -1271.0815    75797.749   -17336.564    1335.4381   -18672.002    52.866363    249.03381 
   15850    96.266284   -1154.6304    75832.657   -17327.461    1308.2119   -18635.673    53.068762    243.95664 
   15900    100.75419   -1240.2779     75811.62   -17328.224    1369.2004   -18697.424    53.464226    255.32982 
   15950    101.41607   -1278.3273    75781.608   -17294.568     1378.195   -18672.763    53.686959    257.00715 
   16000    98.653532   -1136.6875    75819.797   -17310.003    1340.6535   -18650.656    54.024551    250.00636 
   16050    99.892291   -1513.3179    75837.136   -17324.744    1357.4876   -18682.231    54.185516    253.14561 
   16100    100.77397   -1232.7275    75835.931   -17315.161    1369.4692    -18684.63    53.926194    255.37995 
   16150    97.053619   -1203.2222    75809.113   -17362.192    1318.9114   -18681.104     54.02633    245.95189 
   16200    96.781261   -1239.7599     75804.92   -17359.086    1315.2102   -18674.296    54.035606    245.26168 
   16250    96.813909   -1366.3883    75746.325   -17394.053    1315.6539   -18709.707    54.096339    245.34442 
   16300    96.261568   -1502.7314    75685.051   -17390.162    1308.1478    -18698.31    54.062722    243.94468 
   16350    96.995698   -1172.1556    75629.142   -17377.422    1318.1243   -18695.546    53.764204    245.80511 
   16400    97.317135   -1652.9204     75515.47   -17356.713    1322.4925   -18679.206    54.028869    246.61969 
   16450    96.828971   -1475.9483    75467.741   -17375.533    1315.8586   -18691.391    53.987529    245.38259 
   16500    96.465412   -1478.3173    75451.914   -17383.777     1310.918   -18694.695    54.358855    244.46126 
   16550    99.489124    -1320.726    75439.565   -17323.262    1352.0087   -18675.271    54.586592    252.12391 
   16600    95.877435   -1599.5823    75498.663   -17346.074    1302.9277   -18649.001     54.65553    242.97122 
   16650    96.390259   -1170.8625    75520.972   -17320.508    1309.8967   -18630.404     54.91524    244.27081 
   16700     96.82507   -1464.2552    75481.223   -17327.361    1315.8055   -18643.166    55.138734     245.3727 
   16750    97.797729    -1271.908    75467.877   -17330.575    1329.0235   -18659.598    55.037282     247.8376 
   16800    97.800057   -1380.4056    75475.962   -17346.093    1329.0552   -18675.148    55.300388     247.8435 
   16850    95.914918    -1349.651    75448.395   -17382.583     1303.437    -18686.02    55.287704    243.06621 
   16900     95.70302   -1404.5639    75454.079   -17366.313    1300.5574   -18666.871    55.582691    242.52922 
   16950    95.507339   -1457.0128    75452.386   -17359.585    1297.8982   -18657.484    55.889553    242.03333 
   17000    99.444346   -1110.3888    75477.072    -17317.21    1351.4002    -18668.61     56.17342    252.01044 
   17050    99.541248   -1414.6175    75519.874   -17310.377    1352.7171   -18663.094     56.37258      252.256 
   17100    98.036622   -1336.1518    75565.766   -17286.066    1332.2699   -18618.336    56.380958      248.443 
   17150    102.05384   -1263.4448    75622.237   -17260.366     1386.862   -18647.228    56.733874    258.62339 
   17200    98.587543   -1716.6698    75645.301   -17294.016    1339.7567   -18633.773    56.991699    249.83914 
   17250    96.720428   -1289.4378    75667.031   -17303.233    1314.3835   -18617.616    57.140088    245.10752 
   17300    101.49562   -1419.4155    75710.881   -17273.311     1379.276   -18652.587    57.470062    257.20874 
   17350    101.38423   -1237.3217    75822.467   -17260.323    1377.7623   -18638.085    57.401934    256.92646 
   17400    98.536027   -1428.3751    75820.121   -17289.422    1339.0566   -18628.478    57.328084    249.70859 
   17450    97.059736   -1126.7385    75830.773    -17300.33    1318.9945   -18619.324    57.209477    245.96739 
   17500    100.87662   -1135.8904    75909.635   -17272.924    1370.8641   -18643.788    57.329397    255.64007 
   17550    98.555286   -1295.4595    75923.378    -17261.37    1339.3183   -18600.688    57.758782    249.75739 
   17600    100.27521   -1410.8369    75911.586   -17251.041    1362.6913   -18613.732    57.836685      254.116 
   17650    103.11918   -1658.0429    75955.295    -17296.19    1401.3394    -18697.53    58.220511    261.32314 
   17700    96.099905    -1202.919    75925.836   -17325.326    1305.9509   -18631.277    58.660648      243.535 
   17750    98.570093   -1122.7779    75941.073   -17322.998    1339.5196   -18662.517    58.764332    249.79492 
   17800    98.581883   -1486.1406    75898.675   -17294.276    1339.6798   -18633.956    58.899473    249.82479 
   17850    100.18426   -1240.4109    75898.313   -17300.008    1361.4553   -18661.464    59.006087    253.88552 
   17900    100.13938   -1460.1012    75884.312   -17309.938    1360.8454   -18670.784    58.874587    253.77178 
   17950    98.775865   -873.53994    75943.014   -17281.585    1342.3159   -18623.901    59.247334    250.31638 
   18000    102.51669   -1295.6287    75960.282   -17255.216    1393.1518   -18648.368    59.414173    259.79632 
   18050    99.113225   -1307.3453     75999.32   -17246.036    1346.9005   -18592.936    59.776178    251.17131 
   18100    100.47921   -1261.9256    76068.677   -17252.125    1365.4635   -18617.588    59.958597    254.63296 
   18150     97.75961   -1091.0429    76060.804    -17254.16    1328.5055   -18582.666    60.421105      247.741 
   18200    99.923089   -1231.5341    76067.453   -17266.618    1357.9061   -18624.525    60.962991    253.22366 
   18250     97.83123   -1591.4094    76041.821    -17284.91    1329.4788   -18614.389    61.118366     247.9225 
   18300    101.03492   -1458.5016    76035.647   -17289.085    1373.0154     -18662.1    61.058986    256.04125 
   18350    96.425866   -1650.1491    76020.554   -17262.893    1310.3806   -18573.273    61.228927    244.36105 
   18400    98.920063   -1355.5234    75974.432   -17251.123    1344.2755   -18595.398    61.605011    250.68181 
   18450     100.4066    -1299.757    76032.904   -17235.479    1364.4768   -18599.955     61.66706    254.44897 
   18500    98.981858   -1154.8618    75997.142   -17259.863    1345.1152   -18604.978    61.746556     250.8384 
   18550    100.37775   -1538.6234    75957.515    -17229.51    1364.0848   -18593.595    61.658418    254.37586 
   18600    96.731296    -1341.123    75931.991   -17245.872    1314.5312   -18560.403    61.633723    245.13506 
   18650    99.203632   -1170.4821    75982.041     -17215.3    1348.1291   -18563.429     61.68066    251.40042 
   18700    97.186901   -1023.5053    75989.798   -17256.747    1320.7226   -18577.469    61.973866    246.28965 
   18750    96.837338    -1066.355    76039.438   -17287.063    1315.9723   -18603.036    62.194808    245.40379 
   18800    101.29053   -1284.0505    75995.211   -17303.529     1376.489   -18680.018    62.552041    256.68901 
   18850    101.97255   -1122.4265    75993.757   -17292.473    1385.7573    -18678.23     63.07997    258.41738 
   18900    99.420817   -1218.8156    76072.134   -17263.083    1351.0805   -18614.163    63.368372    251.95081 
   18950    99.040742   -1329.3841    76039.115   -17250.513    1345.9154   -18596.428    63.586437    250.98763 
   19000    100.62555   -1204.2744    76080.034    -17261.86    1367.4522   -18629.312    63.616542    255.00382 
   19050    100.95267   -1282.0993    76109.039   -17294.217    1371.8976   -18666.115    63.726752     255.8328 
   19100     96.16215   -1616.3729    76102.064   -17295.028    1306.7968   -18601.824    63.818721    243.69274 
   19150    98.728455    -1460.069     76010.32    -17294.91    1341.6716   -18636.581    63.690589    250.19623 
   19200    98.947313   -1231.3776     75986.92   -17325.342    1344.6458   -18669.988     63.81623    250.75086 
   19250    99.590931   -1253.1716    75975.761   -17318.562    1353.3923   -18671.954    63.707555    252.38191 
   19300    99.226765   -1287.4946    75950.276   -17346.243    1348.4434   -18694.687    64.016251    251.45904 
   19350    99.782139   -1488.5623    75955.545   -17333.293    1355.9907   -18689.284    64.361307    252.86647 
   19400    96.836035    -1648.041    75947.971   -17329.782    1315.9546   -18645.736    64.135826    245.40049 
   19450     95.35422   -1538.5538    75897.903   -17348.893    1295.8174   -18644.711    64.470193     241.6453 
   19500    95.888478   -1677.1898    75940.264   -17338.889    1303.0777   -18641.967    64.784032    242.99921 
   19550    98.855238   -1317.4185    75875.828   -17296.147    1343.3945   -18639.541    64.785975    250.51753 
   19600    99.278724    -1496.047    75896.036   -17260.977    1349.1495   -18610.126    65.001579    251.59072 
   19650    100.89887    -1482.062    75849.406   -17243.804    1371.1666    -18614.97    65.400907    255.69648 
   19700     99.32698   -1230.9841    75873.091   -17261.486    1349.8053   -18611.291    65.537821    251.71301 
   19750    97.543549   -1294.5685    75866.823   -17286.502    1325.5693   -18612.071    65.873386    247.19346 
   19800    100.53801   -1416.0106    75872.949   -17321.476    1366.2626   -18687.739    66.252136    254.78198 
   19850    97.743072   -1256.2305    75869.908   -17313.169    1328.2807    -18641.45     66.19707    247.69909 
   19900    99.486205   -1468.4848    75823.063   -17286.589    1351.9691   -18638.558    66.631538    252.11651 
   19950    99.790393   -1120.3557    75863.774    -17285.08    1356.1028   -18641.183    66.811859    252.88738 
   20000    99.206474   -1300.9076    75918.129    -17300.74    1348.1677   -18648.908    67.061657    251.40762 
   20050     99.73822   -960.06585    75922.081   -17265.416    1355.3938    -18620.81    67.287019    252.75517 
   20100    100.78293   -1558.6276    75930.815   -17275.581    1369.5909   -18645.172     67.42897    255.40265 
   20150    95.614057   -1698.9981    75932.149   -17319.612    1299.3485   -18618.961    67.604963    242.30377 
   20200    98.260757   -1611.3787    75862.233   -17285.954    1335.3158    -18621.27    67.921257      249.011 
   20250    98.152012   -1313.5149    75879.351   -17268.158     1333.838   -18601.996    68.225811    248.73542 
   20300    100.13286    -1279.771    75924.114   -17254.632    1360.7569   -18615.388    68.485957    253.75527 
   20350    97.887821   -1418.2375    75982.518   -17230.044    1330.2478   -18560.292    68.787403    248.06591 
   20400    99.822951   -1496.2845    75954.113   -17230.105    1356.5453    -18586.65    69.314716    252.96989 
   20450    98.882055   -1376.8394    75874.114   -17214.434     1343.759   -18558.193    69.442183    250.58548 
   20500    100.09912   -1337.4291    75796.372   -17239.002    1360.2983   -18599.301    69.857046    253.66975 
   20550    100.01286   -1508.6581    75774.969   -17219.261    1359.1261   -18578.387     70.30122    253.45115 
   20600    99.025522   -1408.1738    75786.421   -17236.112    1345.7086   -18581.821    70.319899    250.94906 
   20650    99.683272   -1531.5608     75785.97   -17235.901    1354.6471   -18590.548    70.847448    252.61592 
   20700    97.850676    -1196.628    75844.153   -17220.047     1329.743    -18549.79    70.710649    247.97178 
   20750    100.93892    -1406.971    75918.724   -17181.029    1371.7108   -18552.739    70.688085    255.79797 
   20800    101.49796   -1212.6385    75896.436    -17170.48    1379.3079   -18549.788    70.783256    257.21468 
   20850    100.92098   -1516.9602    75941.095   -17199.514     1371.467   -18570.981    70.669688     255.7525 
   20900    101.00726   -1162.4253    75939.264   -17212.475    1372.6395   -18585.114    70.722123    255.97116 
   20950    101.67668   -1329.7136     75949.94     -17209.5    1381.7366   -18591.236    70.742904    257.66758 
   21000     100.3753   -1134.9244    76011.747   -17271.475    1364.0515   -18635.527     70.74368    254.36965 
   21050    100.72863   -1592.9474    75952.766   -17254.668     1368.853   -18623.521    70.896711    255.26505 
   21100    99.607894   -1087.8461    75887.552    -17234.14    1353.6228   -18587.763    71.271355     252.4249 
   21150    101.71106   -1073.7312    75891.111   -17245.162    1382.2038   -18627.366    71.676685    257.75471 
   21200    102.15634   -1221.1378    75932.132   -17238.463    1388.2548   -18626.718    72.124977    258.88312 
   21250    98.963267   -956.26569      75989.6   -17240.994    1344.8626   -18585.857    72.030495    250.79129 
   21300    100.91823   -1365.2213    76065.789   -17270.083    1371.4296   -18641.512    72.144606    255.74553 
   21350    102.04632   -1442.8667    76018.339   -17269.045    1386.7598   -18655.805    72.518795    258.60432 
   21400    99.178432   -1210.1371    75975.226   -17258.801    1347.7866   -18606.588    73.017122    251.33656 
   21450    100.25453   -1402.0158    75983.143   -17218.448    1362.4102   -18580.858     73.20941    254.06359 
   21500    100.35413   -1433.8766    75941.229   -17192.431    1363.7638   -18556.195    73.536277      254.316 
   21550     98.20111   -1506.6371    75942.709    -17188.21    1334.5053   -18522.715    73.437869    248.85985 
   21600    96.781061   -1341.7138    75900.578   -17211.862    1315.2075    -18527.07    73.657801    245.26118 
   21650    102.10486   -1121.6529    75898.571   -17210.329    1387.5553   -18597.884    73.744738    258.75266 
   21700    97.291476   -1301.9176    75923.316   -17222.736    1322.1438   -18544.879    73.942843    246.55466 
   21750    98.086864   -1900.1695    75901.135   -17208.437    1332.9527    -18541.39    74.020743    248.57032 
   21800    97.668727   -1320.0418    75872.285   -17229.862    1327.2704   -18557.132    73.985022    247.51069 
   21850    99.186621   -1628.0887    75782.231   -17239.084    1347.8979   -18586.982     74.03294    251.35731 
   21900    98.561779   -1532.1656    75722.817   -17259.199    1339.4066   -18598.605    74.326568    249.77385 
   21950    99.019257   -1589.2136    75668.526   -17226.217    1345.6235    -18571.84    74.398434    250.93318 
   22000    97.314581   -1652.8594    75654.585   -17208.585    1322.4578   -18531.043     74.35725    246.61321 
   22050    97.994057   -1446.6013    75637.067   -17234.449    1331.6915    -18566.14    74.079223    248.33513 
   22100    97.461408   -1463.4158     75585.27   -17230.291    1324.4531   -18554.744    74.584765     246.9853 
   22150    100.70921   -1109.3025    75635.044   -17173.263    1368.5892   -18541.852    75.208638    255.21585 
   22200    100.55273   -848.22923    75675.501   -17174.732    1366.4626   -18541.194    75.576947    254.81929 
   22250    100.45006   -1258.2663    75746.629   -17149.062    1365.0673    -18514.13    76.001436    254.55909 
   22300    101.86644   -1516.9217    75762.621   -17146.196    1384.3152   -18530.511    76.109519    258.14846 
   22350    99.148937   -1490.9783    75759.324   -17186.433    1347.3858   -18533.819    75.997492    251.26181 
   22400    95.900418   -1714.9788     75690.57    -17228.92      1303.24    -18532.16     76.29285    243.02946 
   22450    97.829022   -1383.5812     75551.58   -17239.243    1329.4488   -18568.692     76.16866    247.91691 
   22500    100.02755   -1125.4932    75408.392   -17279.504    1359.3257    -18638.83    76.423991    253.48839 
   22550    100.09601   -1263.3559    75311.917   -17284.407     1360.256   -18644.663    76.782229    253.66187 
   22600     100.5684   -1314.0146    75342.153   -17275.048    1366.6755   -18641.723    76.937149    254.85899 
   22650    101.61332   -1113.0445    75350.231   -17247.749    1380.8755   -18628.624    77.059279    257.50701 
   22700    100.84977   -1117.8698    75379.141   -17249.553    1370.4992   -18620.053    77.445739    255.57204 
   22750    96.114367   -1015.2837    75392.681    -17289.88    1306.1474   -18596.027    77.856072    243.57165 
   22800    99.840567   -1053.5774    75447.593   -17286.935    1356.7847   -18643.719    77.967726    253.01453 
   22850    98.531044   -1088.5699    75468.139   -17282.943    1338.9889   -18621.932    78.054784    249.69596 
   22900    97.284453   -946.19701    75510.349   -17294.557    1322.0483   -18616.606    77.931986    246.53686 
   22950    99.697037   -1225.8969    75515.682   -17260.061    1354.8342   -18614.895    78.154199     252.6508 
   23000    98.742169   -1513.9722    75526.258   -17267.492     1341.858    -18609.35    78.285504    250.23099 
   23050    101.00814   -1319.3955    75526.247   -17259.616    1372.6514   -18632.268    78.208623    255.97337 
   23100    98.297753   -1441.0893    75529.411    -17240.52    1335.8186   -18576.339    78.594394    249.10475 
   23150    95.508615   -929.89888    75606.436   -17263.738    1297.9156   -18561.654    78.658051    242.03656 
   23200    95.380515   -1448.1005    75730.463   -17291.255    1296.1748    -18587.43    78.819948    241.71193 
   23250    96.611541   -1279.9085    75786.321   -17315.662    1312.9038   -18628.565    78.550833    244.83158 
   23300    100.55898   -1628.2822    75870.213    -17288.13    1366.5475   -18654.678    78.603965    254.83512 
   23350     101.1126   -1275.4874    75865.109   -17251.689    1374.0709   -18625.759    78.834693    256.23809 
   23400    99.082973   -1285.3919    75939.011   -17296.787    1346.4893   -18643.276    79.114925    251.09465 
   23450    97.525982    -1564.277    75943.912   -17295.874    1325.3306   -18621.205    79.376441    247.14895 
   23500    99.750103   -1337.4839    75854.362   -17278.528    1355.5553   -18634.084     79.30475    252.78528 
   23550     98.64738   -1569.9297    75821.002   -17297.932    1340.5699   -18638.502    78.924147    249.99078 
   23600     97.96477   -1114.5996    75777.649   -17279.438    1331.2935   -18610.731    79.127448    248.26092 
   23650    99.092087     -1549.73    75788.857   -17276.014    1346.6132   -18622.627    79.319432    251.11775 
   23700     97.65485   -1635.4376    75770.478   -17326.845    1327.0819   -18653.927    79.300247    247.47552 
   23750    97.842537   -1463.3322    75779.198   -17341.131    1329.6324   -18670.763    79.710232    247.95115 
   23800    97.638068    -1458.364    75788.732   -17327.455    1326.8538   -18654.309    80.356284    247.43299 
   23850    99.126016   -1468.8701     75800.59   -17312.621    1347.0743   -18659.695    80.876629    251.20373 
   23900    96.936433   -1435.8401    75802.133   -17286.686    1317.3189   -18604.005    81.030739    245.65492 
   23950    97.808039   -1370.0792    75819.184   -17277.663    1329.1636   -18606.827    80.879719    247.86373 
   24000     96.08434   -1362.9239    75827.015   -17313.468    1305.7394   -18619.208    81.135971    243.49556 
   24050    95.372806   -1617.2357    75838.343   -17291.908      1296.07   -18587.978    80.945363     241.6924 
   24100    97.749632   -1910.4138    75722.261   -17294.513    1328.3699   -18622.883     80.91086    247.71571 
   24150    97.642552   -1152.2578    75671.413   -17278.643    1326.9147   -18605.558    81.333351    247.44436 
   24200     98.47306    -1204.411    75713.658    -17261.15    1338.2009   -18599.351     81.44633    249.54902 
   24250    98.663722   -1254.0194    75772.584   -17265.681    1340.7919   -18606.473    81.643314    250.03219 
   24300    101.05936   -1532.1981    75770.072   -17245.412    1373.3475    -18618.76    81.889479    256.10319 
   24350    99.181836   -1210.5018     75790.05   -17260.903    1347.8329   -18608.735    81.960962    251.34519 
   24400    98.027357   -1136.9631    75839.766   -17254.716     1332.144    -18586.86    81.709677    248.41952 
   24450    99.275502   -1050.6626     75898.79   -17266.827    1349.1057   -18615.932    81.669571    251.58255 
   24500    96.619713   -1470.9976    75839.904    -17288.71    1313.0148   -18601.725    81.718513    244.85229 
   24550    96.418537   -1403.9782    75761.043   -17325.007     1310.281   -18635.288    81.997166    244.34247 
   24600    97.989305   -1587.4619    75680.872   -17301.692    1331.6269   -18633.319    82.259874    248.32309 
   24650    99.051656   -1526.4013    75653.618    -17280.47    1346.0638   -18626.534    82.622771    251.01529 
   24700    100.16565   -1545.1567    75608.837   -17264.581    1361.2025   -18625.784    82.749143    253.83837 
   24750    101.92359    -1296.286    75620.915    -17248.39    1385.0919   -18633.482    83.069655    258.29329 
   24800     99.76765   -1186.5628    75620.384   -17246.249    1355.7938   -18602.043     83.21112    252.82975 
   24850    98.276894   -1215.3598    75658.157   -17286.146    1335.5351   -18621.681    83.606652    249.05189 
   24900    99.334836   -1438.0826    75592.938   -17288.291     1349.912   -18638.203    83.820417    251.73292 
   24950    100.44222    -1556.471    75573.374   -17279.782    1364.9609   -18644.743    84.087726    254.53924 
   25000    98.961628   -1642.3231    75536.778    -17298.92    1344.8403    -18643.76    84.389378    250.78714 
   25050    98.755705   -1385.3484    75544.677   -17280.636    1342.0419   -18622.678    84.244352    250.26529 
   25100    100.11497   -1124.0652    75566.599   -17214.179    1360.5136   -18574.693    84.426472    253.70991 
   25150    98.584478   -1058.4741    75609.424   -17194.969     1339.715   -18534.684    84.552278    249.83137 
   25200    97.554986   -1167.8588    75703.785   -17232.705    1325.7247   -18558.429    84.362188    247.22245 
   25250    99.533225   -1327.8042    75756.215   -17238.837    1352.6081   -18591.445    84.509381    252.23567 
   25300    98.562156   -1156.9739    75750.169   -17252.099    1339.4117    -18591.51    84.544847     249.7748 
   25350    98.610031        -1586    75701.849   -17232.348    1340.0623    -18572.41    84.683767    249.89613 
   25400     99.89354   -1320.0601    75612.269   -17253.413    1357.5046   -18610.917    84.917231    253.14878 
   25450    101.31588   -1355.6123    75619.135   -17236.825    1376.8335   -18613.658    85.559208    256.75325 
   25500    99.870296   -1306.2915    75621.932   -17228.511    1357.1887     -18585.7    86.240031    253.08987 
   25550    98.733527   -1324.7934    75569.383   -17254.547    1341.7406   -18596.287    86.573621    250.20909 
   25600    99.081913   -1315.6843    75486.672   -17265.955    1346.4749    -18612.43    87.109722    251.09196 
   25650    101.19951   -1328.9871    75499.115   -17251.529    1375.2521   -18626.782    87.482404    256.45836 
   25700     98.48473   -1463.8627     75494.33   -17239.743    1338.3595   -18578.102    87.586679    249.57859 
   25750    100.08119   -1189.9877    75553.534   -17240.168    1360.0547   -18600.222    87.541035    253.62432 
   25800    102.10056   -1108.1838    75557.199   -17192.602    1387.4969   -18580.099    87.956854    258.74177 
   25850    100.69093    -1257.959    75554.908   -17233.789    1368.3406    -18602.13    88.077836     255.1695 
   25900    99.744823   -1367.2241    75562.703   -17248.766    1355.4836    -18604.25    88.039661     252.7719 
   25950    99.927902   -1388.8861    75528.328    -17260.07    1357.9715   -18618.042    88.309567    253.23585 
   26000    99.701643   -1544.8181    75524.032   -17258.749    1354.8968   -18613.646    88.451439    252.66247 
   26050    102.35775   -993.90894    75500.013   -17249.328     1390.992    -18640.32    88.174206    259.39354 
   26100    98.277046   -1227.7565    75592.089   -17274.596    1335.5372   -18610.133    88.087206    249.05228 
   26150      96.9494   -1306.0436    75548.468    -17320.65    1317.4951   -18638.146    88.051655    245.68778 
   26200    100.69842   -1322.5457    75588.812   -17334.761    1368.4425   -18703.203    87.806884    255.18849 
   26250    97.216067   -1219.7266    75555.731   -17309.245     1321.119   -18630.364    88.176013    246.36356 
   26300    96.065538   -1147.6547     75534.06   -17318.299    1305.4839   -18623.783     88.50367    243.44791 
   26350    98.408747    -1201.728     75528.26   -17303.304     1337.327   -18640.631    88.559709    249.38604 
   26400    96.387522   -1165.0106    75529.584    -17312.01    1309.8595    -18621.87    88.731533    244.26388 
   26450    97.052814   -1332.7472    75544.619   -17310.463    1318.9005   -18629.364    88.751444    245.94985 
   26500    98.750527   -1323.8809    75531.583   -17311.984    1341.9716   -18653.955    88.914923    250.25217 
   26550    99.002438   -1418.3845      75499.2   -17309.346    1345.3949    -18654.74    89.566279    250.89056 
   26600    97.902401   -1412.7977    75534.336   -17348.841     1330.446   -18679.287     89.68463    248.10286 
   26650    97.794048   -1534.7972    75573.609   -17361.621    1328.9735   -18690.595    89.911666    247.82827 
   26700    96.044035   -1277.3987    75604.693   -17350.725    1305.1917   -18655.916    90.239491    243.39342 
   26750    98.089341   -1129.8977    75663.513   -17318.981    1332.9864   -18651.967    90.346051     248.5766 
   26800    99.206482   -1037.0274    75668.027   -17311.937    1348.1678   -18660.104    90.484397    251.40764 
   26850    99.414645   -1124.0225    75682.047   -17327.816    1350.9966   -18678.812    90.227956    251.93517 
   26900     98.92568   -1137.0698    75748.443   -17326.834    1344.3518   -18671.186    90.177444    250.69604 
   26950     99.91721    -1488.712    75781.243   -17311.654    1357.8262    -18669.48    90.203747    253.20876 
   27000    98.977692   -1197.1874    75767.779   -17312.633    1345.0586   -18657.691    89.980012    250.82785 
   27050    100.50095   -1351.8309    75781.568   -17316.827    1365.7589   -18682.586    90.141995    254.68806 
   27100    100.56157   -1193.7141    75801.339   -17342.177    1366.5827   -18708.759    89.812524    254.84169 
   27150    99.887046    -967.3372    75793.388    -17347.09    1357.4163   -18704.506    90.188524    253.13232 
   27200    99.626477    -1189.883    75842.547   -17331.907    1353.8753   -18685.782    90.477272    252.47199 
   27250    101.27884   -1613.0705    75857.326   -17316.733    1376.3301   -18693.064    90.752427    256.65937 
   27300    98.845609   -1343.8629    75826.484   -17347.543    1343.2637   -18690.806    90.859207    250.49312 
   27350     95.19445   -1421.1671    75827.984   -17358.785    1293.6462   -18652.431    91.073676    241.24041 
   27400    98.736044   -1105.9476    75875.662   -17399.943    1341.7748   -18741.718    91.495395    250.21547 
   27450    95.795224   -1020.6097    75958.449   -17387.159    1301.8104   -18688.969    91.938997    242.76288 
   27500    96.264478   -1366.2821    76012.472   -17409.116    1308.1874   -18717.303    92.133699    243.95206 
   27550    98.035085   -1299.5253    76064.421   -17386.633    1332.2491   -18718.882    92.447219    248.43911 
   27600    97.035659   -1007.9966     76083.54   -17359.506    1318.6674   -18678.173    92.336625    245.90638 
   27650    100.01126   -1110.4005    76069.946   -17341.359    1359.1044   -18700.463    92.391112    253.44711 
   27700    97.369066   -1026.3073    76068.225   -17322.216    1323.1982   -18645.415    92.585977    246.75129 
   27750    99.272308   -1546.9508    76064.389     -17341.9    1349.0623   -18690.963    92.675373    251.57446 
   27800     100.9329   -1276.7516    76007.223   -17346.882    1371.6289   -18718.511    92.189076     255.7827 
   27850     99.78873   -1366.6402     76044.59   -17365.551    1356.0802   -18721.631    92.373551    252.88317 
   27900    100.42269   -1395.0174    76117.979   -17362.772    1364.6954   -18727.468    92.581754    254.48974 
   27950    98.663481   -1256.9418    76113.888   -17372.865    1340.7887   -18713.653    92.493927    250.03158 
   28000     97.66164   -1607.8485     76088.94   -17355.103    1327.1741   -18682.277    92.765892    247.49273 
   28050     100.3072   -1129.7823    76087.507   -17359.033    1363.1261   -18722.159    93.373328    254.19708 
   28100    98.540302   -1522.7352     76042.51   -17329.781    1339.1147   -18668.896    93.697366    249.71942 
   28150    100.54873   -1554.5439    76031.737   -17328.981    1366.4083   -18695.389    93.969001    254.80916 
   28200    99.261178   -1123.0892    76051.665   -17340.902    1348.9111   -18689.813    94.419762    251.54625 
   28250    97.186372   -1644.2669    76011.137   -17340.348    1320.7155   -18661.063    94.995612    246.28831 
   28300    97.673619   -1395.7841     75963.57   -17363.082    1327.3369   -18690.419    95.225363    247.52309 
   28350    98.630609   -1501.9305    75935.224   -17331.721     1340.342   -18672.063    95.484592    249.94828 
   28400    101.71606   -1296.4242    75911.308   -17298.478    1382.2718    -18680.75     95.20465    257.76739 
   28450    99.184651   -1822.8488    75884.575   -17316.156    1347.8711   -18664.027    95.405081    251.35232 
   28500    99.588195   -1304.8053    75878.863   -17340.756    1353.3551   -18694.111    95.146934    252.37498 
   28550    98.336811   -1314.6779    75855.787   -17378.369    1336.3494   -18714.718    94.905115    249.20374 
   28600    99.797117   -1352.6304    75833.382    -17396.24    1356.1942   -18752.434    95.049829    252.90442 
   28650    99.302071   -1010.6029    75853.195   -17375.545    1349.4668   -18725.012    95.280153    251.64989 
   28700    97.913808   -1283.9282    75887.318   -17351.385     1330.601   -18681.986    95.449745    248.13177 
   28750    99.301371   -1272.7444    75888.057   -17364.651    1349.4573   -18714.108    95.368473    251.64811 
   28800    102.13953   -1192.8586    75875.296   -17348.763    1388.0264   -18736.789    95.312422    258.84053 
   28850    101.07596   -1563.6276    75908.105   -17346.522    1373.5731   -18720.095    95.451939    256.14526 
   28900    99.089857   -1374.7009    75976.664   -17363.177    1346.5829    -18709.76    95.739102    251.11209 
   28950    101.03304   -1028.5308    75998.417   -17341.996    1372.9899   -18714.986    95.735945    256.03649 
   29000    99.377252   -1258.7175     76045.89   -17350.275    1350.4885   -18700.763    95.729471    251.84041 
   29050    99.867303   -1246.8629    76133.972   -17359.671     1357.148   -18716.819    95.630028    253.08229 
   29100    98.646768   -1299.3241    76219.065   -17384.889    1340.5615    -18725.45    95.700446    249.98923 
   29150    100.00893   -1247.2475    76300.944   -17382.012    1359.0726   -18741.084    95.597632    253.44119 
   29200    97.175487   -1588.3319    76305.025     -17395.7    1320.5675   -18716.268    95.515487    246.26073 
   29250    101.47822   -1653.4222    76256.837   -17384.543    1379.0396   -18763.582     95.88347    257.16465 
   29300    98.937979   -1195.5803    76260.341   -17436.215     1344.519   -18780.734    96.044847    250.72721 
   29350    98.058043    -1613.884    76276.801    -17399.98     1332.561   -18732.541    96.483336    248.49729 
   29400     97.67533   -1263.6216     76290.92   -17432.627    1327.3602   -18759.987    96.472527    247.52742 
   29450    98.008476    -1348.456    76298.333   -17445.676    1331.8875   -18777.563    96.454249    248.37167 
   29500    98.590157    -1306.078    76319.911   -17403.289    1339.7922   -18743.081     96.76829    249.84576 
   29550    95.318448   -1395.1979    76306.725   -17367.792    1295.3313   -18663.124    96.899769    241.55464 
   29600    95.967434   -1414.7573     76318.72   -17385.104    1304.1507   -18689.254    97.119889    243.19929 
   29650    100.89935   -1191.5066    76335.605   -17386.986     1371.173   -18758.159    97.431937    255.69769 
   29700     98.90017     -1460.58    76357.087   -17380.671    1344.0051   -18724.676    97.479292    250.63139 
   29750    97.867999   -1403.0342    76325.095   -17412.112    1329.9784   -18742.091    97.322705    248.01568 
   29800    97.555255   -1382.1592    76274.709   -17431.427    1325.7284   -18757.156    97.077658    247.22313 
   29850    98.109443   -1856.8219    76232.199   -17401.805    1333.2596   -18735.065    97.059301    248.62754 
   29900    98.762263    -1464.902    76171.004   -17394.348    1342.1311   -18736.479    97.367519    250.28191 
   29950    98.495561   -1294.3525    76189.147   -17373.853    1338.5067    -18712.36    97.415751    249.60604 
   30000    99.116562   -1223.0642    76236.034     -17411.4    1346.9458   -18758.346    97.953358    251.17977 
   30050    97.582571   -1554.7188     76211.47   -17387.101    1326.0996   -18713.201    98.170026    247.29235 
   30100    100.38272    -882.6668     76235.99   -17386.867    1364.1523   -18751.019    98.342466    254.38845 
   30150    94.503899   -1255.5187    76299.801   -17414.243     1284.262   -18698.505    97.970237    239.49043 
   30200    98.866601   -1215.3086    76323.127    -17434.99     1343.549   -18778.539    97.950118    250.54632 
   30250    94.704052   -1288.6044    76321.296   -17445.944    1286.9819   -18732.926    97.635699    239.99765 
   30300    95.598485   -1602.5653     76319.25   -17438.779    1299.1369   -18737.916    97.638988    242.26431 
   30350    97.657847   -1222.2561    76337.032   -17442.774    1327.1226   -18769.897    97.674813    247.48312 
   30400    97.013833   -905.43801    76406.329   -17447.509    1318.3707   -18765.879     97.97341    245.85106 
   30450    96.873967   -989.89351    76493.718   -17432.071      1316.47   -18748.541    98.487808    245.49662 
   30500    100.79887    -993.5374    76535.201   -17411.267    1369.8076   -18781.075    98.614206    255.44306 
   30550    100.84883   -1163.6422    76602.509   -17366.152    1370.4865   -18736.639    98.954891    255.56966 
   30600    98.790437   -1353.2987    76575.629   -17373.337    1342.5139   -18715.851    99.414895    250.35331 
   30650    95.329603    -1471.438     76507.48   -17395.236    1295.4829   -18690.719    99.224069    241.58291 
   30700    100.40222   -1221.8012    76520.836   -17376.352    1364.4173    -18740.77    99.193696    254.43787 
   30750      98.7113    -1308.801    76477.389   -17368.354    1341.4385   -18709.793    99.256781    250.15276 
   30800    96.784448   -853.29243    76466.351   -17361.792    1315.2535   -18677.046    98.949303    245.26976 
   30850    97.802009   -1284.2408    76423.528   -17345.837    1329.0817   -18674.919    99.424355    247.84845 
   30900    97.374865   -983.41018    76440.579   -17307.586     1323.277   -18630.863    99.424489    246.76599 
   30950    100.99111    -1102.326     76450.79   -17295.658    1372.4199   -18668.078    99.490474    255.93021 
   31000    97.909615   -1488.7763    76515.494   -17301.227     1330.544   -18631.771    99.711832    248.12114 
   31050     100.6465   -1285.0511    76528.183   -17331.217    1367.7369   -18698.954    99.691126     255.0569 
   31100    102.02279   -1158.2108    76553.081   -17326.425      1386.44   -18712.865    99.982074    258.54468 
   31150    98.928246   -855.98613    76564.106   -17362.442    1344.3867   -18706.828    100.09963    250.70254 
   31200    98.772333   -1337.7873    76607.417   -17308.694    1342.2679   -18650.962     99.93833    250.30743 
   31250    98.738637   -1301.8586    76627.257   -17273.546      1341.81   -18615.356    99.920991    250.22204 
   31300    101.13017   -1383.7059    76653.313   -17257.606    1374.3098   -18631.915     100.1778    256.28263 
   31350    101.78171   -1660.0827    76598.266   -17279.258    1383.1639   -18662.422    100.37133    257.93375 
   31400    101.84528   -1106.3011    76530.197   -17294.498    1384.0277   -18678.526    100.37106    258.09484 
   31450    100.38434   -1660.6933    76558.888   -17272.398    1364.1743   -18636.572    101.06785    254.39255 
   31500    98.060964   -1430.5667    76534.919   -17263.361    1332.6007   -18595.962    101.12798    248.50469 
   31550    101.83055   -1091.0247    76593.693   -17246.151    1383.8276   -18629.979    101.33781    258.05752 
   31600    100.76985   -1739.1072    76583.885   -17249.476    1369.4132   -18618.889    101.44615    255.36951 
   31650     101.9257    -1482.785    76540.593   -17302.164    1385.1207   -18687.285    101.19954    258.29865 
   31700    96.311677   -1214.9802    76551.108   -17356.576    1308.8288   -18665.405    101.42426    244.07167 
   31750    99.223913   -1357.1191    76546.161   -17348.694    1348.4047   -18697.099    100.96611    251.45182 
   31800    102.32403   -827.73266    76584.985   -17316.952    1390.5337   -18707.485     101.2378    259.30808 
   31850    98.214423   -1213.7459    76702.901   -17341.397    1334.6862   -18676.083    101.40852    248.89358 
   31900    93.995474   -1163.5964    76782.044   -17359.351    1277.3527   -18636.704    101.78208    238.20198 
   31950    97.521452   -1220.4399    76872.547   -17343.723     1325.269   -18668.992    102.18953    247.13746 
   32000    99.486743   -1137.3318    76918.679   -17325.997    1351.9764   -18677.973    101.89581    252.11788 
   32050    99.761691   -1664.1597    76896.974   -17337.868    1355.7128   -18693.581    101.68493    252.81465 
   32100     99.84641   -1228.3259    76904.856   -17319.986    1356.8641    -18676.85    102.01852    253.02934 
   32150    99.207165   -1433.1144    76895.245   -17321.732    1348.1771   -18669.909    102.09894    251.40937 
   32200    100.77819   -1050.9925    76914.716   -17287.678    1369.5266   -18657.205    102.21628    255.39065 
   32250    101.45601   -1361.4146    76969.594   -17274.563    1378.7377   -18653.301    102.82506    257.10836 
   32300    101.95227   -1428.8931    76962.896   -17267.804    1385.4817   -18653.285    103.11785    258.36598 
   32350    102.05082   -1306.7822    76965.826    -17254.96    1386.8209   -18641.781    103.22792    258.61572 
   32400    99.121644   -1636.3888    76918.142   -17298.166    1347.0149   -18645.181    103.48427    251.19265 
   32450    100.59283   -1279.1148    76867.902   -17301.929    1367.0076   -18668.937    103.55078    254.92092 
   32500    98.608651   -1774.4473    76823.715   -17293.926    1340.0435   -18633.969    103.76228    249.89263 
   32550    98.779782   -1603.8338    76762.423    -17295.15    1342.3691   -18637.519     104.0523    250.32631 
   32600    96.254653   -1478.2091    76721.433   -17345.436    1308.0539    -18653.49     103.9766    243.92716 
   32650    96.126118   -1054.9918    76799.443   -17338.162    1306.3071   -18644.469    104.26449    243.60143 
   32700    98.751392   -1308.0545    76831.588   -17327.892    1341.9833   -18669.875    104.39944    250.25436 
   32750    98.018049   -1442.6069    76757.395   -17322.272    1332.0175    -18654.29    104.68269    248.39593 
   32800     97.00379   -1504.4171    76719.966   -17295.402    1318.2343   -18613.636    105.00937    245.82561 
   32850     99.55063   -1339.9656    76725.665     -17294.4    1352.8446   -18647.245     104.9476    252.27978 
   32900    98.123069    -1310.934    76713.611   -17353.944    1333.4447   -18687.388    104.94077    248.66207 
   32950    95.707234    -1429.786    76672.614   -17364.341    1300.6147   -18664.955    105.08189     242.5399 
   33000    98.964407   -1269.1144    76680.247   -17353.335    1344.8781   -18698.213    105.06311    250.79418 
   33050    97.881227   -1274.0264    76632.024   -17296.621    1330.1582   -18626.779    104.89015     248.0492 
   33100    97.925809   -1050.5689    76707.695   -17298.817    1330.7641   -18629.581    104.97121    248.16218 
   33150     97.90104   -1385.9987     76746.58   -17322.061    1330.4275   -18652.488    105.07234    248.09941 
   33200    98.413446    -1391.387    76722.117   -17296.918    1337.3908   -18634.309    104.95805    249.39794 
   33250    98.816561   -1361.8472    76737.329   -17311.688    1342.8689   -18654.557    105.57071    250.41951 
   33300    97.491304   -1435.6193    76774.532   -17292.215    1324.8593   -18617.074    105.78718    247.06107 
   33350    97.573168   -1146.0351    76800.939   -17266.563    1325.9718   -18592.535     105.8337    247.26852 
   33400    97.247956   -1502.4747    76898.414   -17287.441    1321.5524   -18608.993    105.86208    246.44438 
   33450    97.260222   -1271.5281    76881.028   -17290.787     1321.719   -18612.506    106.15726    246.47546 
   33500    96.572871   -1392.8077     76885.07   -17274.604    1312.3783   -18586.982     105.6867    244.73358 
   33550    98.189048    -1339.904    76902.932   -17275.617    1334.3413   -18609.958    105.41673    248.82928 
   33600    100.07524   -1299.0624    76952.947   -17277.895    1359.9738   -18637.869    105.36321    253.60924 
   33650    96.193052   -1410.4734    76848.791   -17318.944    1307.2167   -18626.161    105.66637    243.77105 
   33700    95.916428   -1694.4648    76836.033   -17319.733    1303.4576    -18623.19    106.13113    243.07004 
   33750    95.454318    -1340.555    76786.293   -17350.322    1297.1777     -18647.5    106.43234    241.89896 
   33800    94.665237   -1260.7196    76816.284   -17358.162    1286.4545   -18644.616    106.29649    239.89929 
   33850    99.992681   -1378.9104     76832.67   -17295.725    1358.8518   -18654.576    106.63548    253.40002 
   33900    101.40208   -1256.6086    76866.639   -17240.869    1378.0049   -18618.874    106.61026     256.9717 
   33950    100.37826   -1551.2833     76885.07   -17263.867    1364.0917   -18627.959    106.77728    254.37715 
[...]
   92000    100.46856   -1579.2799    75976.706   -17221.651    1365.3188    -18586.97    280.96741    254.60598 
   92050    98.734791   -1186.6922    75982.774   -17238.483    1341.7577   -18580.241    281.15599    250.21229 
   92100    99.854052   -1275.4636    75962.864   -17226.476    1356.9679   -18583.444    281.06207    253.04871 
   92150     101.6547   -1546.1271    75962.698   -17243.434    1381.4379   -18624.871    281.12791    257.61189 
   92200    99.300145   -1589.2274    75970.445   -17258.879    1349.4406    -18608.32    281.20004      251.645 
   92250     99.20056   -1514.2387    75910.584    -17245.09    1348.0873   -18593.177    281.17885    251.39264 
   92300     94.46861   -1430.0453    75876.339   -17271.738    1283.7824    -18555.52    281.40159      239.401 
   92350    99.174877   -1200.8507    75891.149   -17257.004    1347.7383   -18604.743     281.7287    251.32755 
   92400    97.053319   -1429.6915     75928.47   -17280.982    1318.9073   -18599.889    281.39847    245.95113 
   92450    99.248713   -1498.5296    75949.878   -17282.327    1348.7417   -18631.069    281.09232    251.51466 
   92500    97.749852   -1427.1371    75935.328   -17258.718    1328.3729   -18587.091    281.40804    247.71627 
   92550    97.458656   -1341.3047    75879.746   -17292.793    1324.4157   -18617.208    281.37923    246.97833 
   92600    99.179933   -1400.6405    75861.328   -17326.482     1347.807   -18674.289    281.08107    251.34036 
   92650    96.854871   -1485.9383    75790.478   -17343.805    1316.2105   -18660.015    281.22459    245.44822 
   92700    95.920615   -1432.9537    75695.718   -17337.826    1303.5144   -18641.341    280.98143    243.08065 
   92750    94.978868   -1227.2595    75633.995   -17373.233    1290.7166    -18663.95    280.82366    240.69409 
   92800    96.289208   -1415.0591    75596.692   -17376.784    1308.5234   -18685.307    280.67726    244.01473 
   92850    97.758524   -1526.7009    75541.353   -17349.538    1328.4907   -18678.028    280.78254    247.73825 
   92900    94.900357   -1260.8815    75500.721   -17341.153    1289.6496   -18630.803    281.30204    240.49512 
   92950    95.769357   -1438.9992    75501.783   -17391.878    1301.4589   -18693.337    281.04409    242.69733 
   93000    95.513207   -1413.6725    75506.637   -17351.095     1297.978   -18649.073    281.53856     242.0482 
   93050    97.512437   -1303.8173    75558.294   -17313.044    1325.1465   -18638.191     281.6222    247.11462 
   93100    98.679751    -1121.934    75620.552   -17263.469    1341.0098   -18604.478    281.92156    250.07281 
   93150    99.747468   -1126.7344    75623.066   -17281.941    1355.5195    -18637.46    281.27448     252.7786 
   93200    98.668364   -1131.8497    75717.215   -17279.964     1340.855   -18620.819    280.82158    250.04395 
   93250    98.576256   -1377.5425    75763.134   -17296.896    1339.6033   -18636.499    280.59907    249.81053 
   93300    94.837364    -1479.144    75719.968   -17332.578    1288.7936   -18621.372    280.74896    240.33549 
   93350    96.038127    -1529.208    75725.009    -17342.94    1305.1114   -18648.051    280.81573    243.37844 
   93400    95.561966   -1439.0553    75750.435   -17340.092    1298.6406   -18638.733    280.53221    242.17176 
   93450    97.565952   -1191.8277     75789.27   -17332.568    1325.8738   -18658.441    280.69512    247.25024 
   93500    94.213822   -1287.2064     75787.83    -17327.03      1280.32    -18607.35    280.42524    238.75532 
   93550    95.324151   -1448.3992    75733.271    -17330.21    1295.4088   -18625.619    280.67236     241.5691 
   93600    99.036762   -1568.3662    75748.464   -17311.443    1345.8614   -18657.305    281.07333    250.97754 
   93650    96.538675   -1374.1301    75785.167    -17297.67    1311.9136   -18609.583    281.42738    244.64693 
   93700    96.515862   -1150.0314    75798.917   -17308.488    1311.6036   -18620.092    281.62411    244.58911 
   93750    96.105554   -1466.9248    75818.034   -17293.242    1306.0277    -18599.27    282.10359    243.54932 
   93800    100.16297   -1396.7481    75800.289   -17259.467     1361.166   -18620.633    282.47455    253.83157 
   93850    98.828813   -1279.8708    75845.357   -17249.775    1343.0354    -18592.81    282.61417    250.45056 
   93900    101.96428   -717.49618     75846.56   -17222.485    1385.6449    -18608.13    283.01657    258.39642 
   93950    98.850687   -1338.7169    75912.184   -17211.714    1343.3327   -18555.047    283.14965    250.50599 
   94000    102.79281    -1086.047    76032.019   -17173.163    1396.9042   -18570.067    283.01045    260.49606 
   94050    103.23691   -1528.6233    76044.783   -17197.376    1402.9393   -18600.315    283.02333    261.62149 
   94100    99.871213     -1290.31    76012.596   -17232.805    1357.2011   -18590.006    282.80006    253.09219 
   94150    98.044756   -1558.3113    76039.738   -17279.558    1332.3805   -18611.939    283.10197    248.46361 
   94200    98.259061   -1423.6785    76093.745   -17267.781    1335.2928   -18603.074    283.82944     249.0067 
   94250    100.18617     -1002.99    76103.232   -17250.245    1361.4813   -18611.726    284.02417    253.89036 
   94300    101.79349   -1358.1491    76063.365   -17245.283     1383.324   -18628.607    284.41753    257.96361 
   94350    98.507066   -982.73618    76113.559   -17272.866    1338.6631   -18611.529    284.76714     249.6352 
   94400     100.2311   -1446.0487    76092.527   -17279.656    1362.0918   -18641.748    284.94966    254.00422 
   94450    99.963735   -1351.0879        76124   -17247.488    1358.4585   -18605.947    285.01955    253.32666 
   94500     98.94995   -1459.7612    76183.462     -17259.2    1344.6816   -18603.881    284.88418    250.75754 
   94550    97.833527   -1523.7768    76160.915   -17294.937      1329.51   -18624.447    285.12718    247.92832 
   94600    95.607105   -1458.6908    76166.515   -17314.857     1299.254   -18614.111    285.57358    242.28616 
   94650    94.622241    -1747.237    76054.174   -17325.246    1285.8702   -18611.116    284.77502    239.79033 
   94700    97.853943   -1869.2603    76046.516   -17319.958    1329.7874   -18649.746    284.68684    247.98006 
   94750    95.451573   -1734.3663    76009.416    -17337.38    1297.1404   -18634.521    284.62827    241.89201 
   94800    95.755232   -1368.1999    76052.598   -17368.658     1301.267   -18669.925    284.74925    242.66153 
   94850    93.606434   -1300.2545     76038.95   -17345.009    1272.0659   -18617.075    284.82832    237.21608 
   94900    96.579568   -1366.2263    76039.973   -17351.705    1312.4693   -18664.174     284.8726    244.75056 
   94950    99.281025     -1190.55     76000.98   -17340.125    1349.1808   -18689.306    285.32671    251.59655 
   95000    95.322087   -1624.3184    76050.348   -17348.762    1295.3807   -18644.143    285.27307    241.56386 
   95050    94.954889   -1042.4046    75992.122   -17293.586    1290.3907   -18583.977    285.89395    240.63332 
   95100    98.034627   -1660.3034    75962.695   -17306.328    1332.2428   -18638.571    285.61223    248.43795 
   95150    95.210573   -1124.4453    75940.029   -17301.525    1293.8653    -18595.39    285.52007    241.28127 
   95200    95.979597    -1518.115    75903.595   -17275.078     1304.316   -18579.394    285.50575    243.23012 
   95250    101.59866   -1159.8512    75909.854   -17243.132    1380.6763   -18623.808    285.78844    257.46986 
   95300    97.216942   -1617.6704    75894.896   -17264.867    1321.1309   -18585.998    285.14977    246.36578 
   95350    98.318106   -1488.6628    75874.491   -17264.932    1336.0952   -18601.028    285.13246    249.15633 
   95400    101.40122   -1366.4502    75897.086   -17262.498    1377.9932   -18640.491    285.08833    256.96952 
   95450    98.599898   -1250.9819    75905.773   -17301.229    1339.9246   -18641.153    284.86719    249.87045 
   95500    96.528208   -1425.4231    75857.432   -17355.985    1311.7713   -18667.756    285.69425     244.6204 
   95550    95.989003   -1168.9387    75877.009   -17355.714    1304.4438   -18660.158    285.90955    243.25396 
   95600    97.585587   -1298.5173    75916.846   -17347.085    1326.1406   -18673.225    285.73029        247.3 
   95650    96.641189    -1717.856    75908.986   -17336.861    1313.3067   -18650.168    286.29239    244.90671 
   95700    97.192989   -1541.8989    75869.478   -17348.195    1320.8054   -18669.001    286.11612    246.30508 
   95750    95.456572   -1492.8266    75803.185   -17361.817    1297.2083   -18659.025    286.40336    241.90468 
   95800     95.00968   -1460.3796    75812.281   -17348.253    1291.1353   -18639.388    286.92439    240.77217 
   95850    96.469247   -1347.7541    75849.931   -17384.209    1310.9701   -18695.179    287.45185    244.47098 
   95900    95.265811     -1230.77    75843.096   -17406.586     1294.616   -18701.202    288.00368    241.42125 
   95950    93.120546   -1426.7905    75821.892   -17370.599    1265.4629   -18636.062    287.58869    235.98475 
   96000    96.773366   -1343.0706    75925.727   -17324.365    1315.1029   -18639.468    288.11417    245.24168 
   96050    98.985979   -1262.2181    76000.036   -17311.757    1345.1713   -18656.928    288.56923    250.84885 
   96100    98.468524   -1436.3038    76009.479   -17336.232    1338.1393   -18674.371     288.6916    249.53752 
   96150    96.501759   -1400.3867    76013.237       -17326    1311.4119   -18637.412    288.99807    244.55337 
   96200     97.58285   -1272.7133    75934.692   -17315.239    1326.1034   -18641.342     289.0639    247.29306 
   96250     96.74476   -1104.9064     75896.75   -17325.718    1314.7142   -18640.432    289.15711    245.16918 
   96300    97.736025   -1270.4167    75893.406     -17291.8     1328.185   -18619.985    289.13421    247.68123 
   96350    100.20929   -1422.5392    75912.116   -17302.861    1361.7955   -18664.657    289.85049    253.94895 
   96400    98.526823   -1324.6882    75946.387   -17281.921    1338.9315   -18620.852    289.74779    249.68526 
   96450    96.284414   -1369.3399     75983.57   -17323.191    1308.4583   -18631.649    289.72358    244.00258 
   96500    97.288456   -1364.3594    75935.801   -17320.493    1322.1027   -18642.596    289.88732    246.54701 
   96550    99.485327   -1317.7853     75999.18   -17354.101    1351.9571   -18706.058    290.18894    252.11429 
   96600    97.480505   -1400.5403    76026.066   -17330.421    1324.7126   -18655.133    290.19396     247.0337 
   96650    96.717735   -1538.8206    76007.533   -17385.543    1314.3469   -18699.889     290.3852     245.1007 
   96700    97.175463   -1495.1172    75973.374   -17380.087    1320.5672   -18700.654    291.07472    246.26067 
   96750    95.630691   -1307.3463    75955.062   -17353.846    1299.5745    -18653.42     291.6136    242.34592 
   96800    96.000206   -1255.0154    75962.096   -17364.764    1304.5961    -18669.36    292.03917    243.28235 
   96850    98.572336   -1222.3983    76023.589    -17330.08      1339.55    -18669.63    292.25921     249.8006 
   96900    95.718925    -1487.772    75999.449   -17338.675    1300.7736   -18639.448    291.33213    242.56953 
   96950    96.418125   -1777.7572    76051.903   -17327.226    1310.2754   -18637.501    291.42974    244.34143 
   97000    97.543593    -1338.222     76041.76   -17335.412    1325.5699   -18660.981    291.57215    247.19358 
   97050    99.166193   -1261.2064    76033.095   -17292.278    1347.6203   -18639.898    291.79992    251.30554 
   97100    98.512411   -1308.5825    76125.373   -17308.977    1338.7357   -18647.713    291.79824    249.64874 
   97150    97.036595   -1169.0354    76099.904   -17321.487    1318.6801   -18640.167    292.13621    245.90875 
   97200    100.62223   -1377.0961    76126.956   -17271.121    1367.4071   -18638.528    292.48112    254.99541 
   97250    97.658851   -1545.9033    76095.753   -17280.868    1327.1362   -18608.004    292.67242    247.48566 
   97300    100.04401   -1635.5999     76088.59   -17267.695    1359.5493   -18627.245    292.30864    253.53009 
   97350    96.613095   -1836.1348    76013.691    -17278.13    1312.9249   -18591.054    292.37916    244.83552 
   97400    95.218183   -1537.5241    76007.897   -17296.169    1293.9687   -18590.138    292.96578    241.30055 
   97450    95.420772   -1568.6964    76024.405   -17304.262    1296.7218   -18600.983     292.6755    241.81395 
   97500    97.921987   -1291.0645    76078.639   -17283.282    1330.7121   -18613.995    292.56654    248.15249 
   97550    97.411882   -1495.9186    76071.175   -17300.756      1323.78   -18624.536    292.59791    246.85979 
   97600    95.948155   -1130.7244     76029.72   -17300.807    1303.8887   -18604.696    293.16095    243.15044 
   97650    97.168888     -1562.18    76036.539   -17279.161    1320.4779   -18599.639    294.02522      246.244 
   97700    98.545339    -1698.941    75970.801   -17277.688    1339.1832   -18616.872    294.05152    249.73218 
   97750    100.06104   -1245.4211     75982.68   -17313.197    1359.7808   -18672.977    294.30497    253.57325 
   97800    97.432574   -1548.1361    75911.943   -17309.075    1324.0612   -18633.137    295.07391    246.91223 
   97850    98.999682   -1350.0812    75856.371   -17272.582    1345.3575   -18617.939    294.53199    250.88358 
   97900    96.408521   -1326.2271    75839.268   -17332.028    1310.1449   -18642.173    294.81829    244.31709 
   97950    98.919848   -1332.8804    75865.027   -17331.083    1344.2726   -18675.356    295.23111    250.68126 
   98000    99.446691    -1329.202    75848.907   -17311.836    1351.4321   -18663.269    294.88042    252.01638 
   98050    101.09764   -1444.1818    75805.027   -17313.092    1373.8677   -18686.959    295.11563    256.20019 
   98100    96.827686     -1576.33    75811.331   -17284.227    1315.8411   -18600.068    295.44366    245.37933 
   98150    94.074041   -1388.4012     75747.16   -17310.922    1278.4204   -18589.342    295.12614    238.40109 
   98200    98.481184    -1348.391    75670.236   -17310.368    1338.3113    -18648.68    295.48623     249.5696 
   98250    98.276185   -1608.4286    75623.753   -17310.761    1335.5255   -18646.286    296.47103     249.0501 
   98300    100.50909   -1163.6554    75638.638    -17309.41    1365.8696    -18675.28    296.09567    254.70869 
   98350    97.570599   -1312.1129    75603.191   -17307.593    1325.9369   -18633.529    296.23887    247.26201 
   98400    100.02036   -1065.3504    75574.824   -17296.161     1359.228   -18655.389    295.86536    253.47017 
   98450     99.60678   -1360.2006    75602.607   -17308.379    1353.6076   -18661.987    295.63301    252.42207 
   98500    102.40285   -1477.9763    75664.485   -17294.053    1391.6049   -18685.658    296.32559    259.50784 
   98550    96.786879   -1641.8351    75646.733   -17331.532    1315.2866   -18646.818    295.72864    245.27592 
   98600    97.888449   -1510.7117    75608.494   -17307.619    1330.2563   -18637.876    295.54976     248.0675 
   98650    96.813948   -1537.9112    75579.771   -17325.275    1315.6544   -18640.929    294.99401    245.34452 
   98700    97.159462   -1196.6522    75589.963   -17366.804    1320.3498   -18687.154    295.27958    246.22012 
   98750    93.858602   -1560.3853    75618.731   -17418.856    1275.4927   -18694.348     295.5553    237.85512 
   98800    95.734481   -1122.5708    75666.103    -17371.39     1300.985   -18672.375    295.28376    242.60895 
   98850    99.805921   -1428.2203    75668.702   -17304.408    1356.3139   -18660.722    295.53602    252.92673 
   98900    97.611035   -1294.5532    75653.556    -17327.65    1326.4864   -18654.137    295.54257    247.36448 
   98950    98.934592   -1646.6254    75722.058   -17323.036    1344.4729   -18667.509    295.86922    250.71862 
   99000    98.421579   -1467.8237    75755.759    -17291.43    1337.5013   -18628.932    295.91278    249.41855 
   99050    100.61459   -1259.7288    75757.334   -17275.733    1367.3033   -18643.036    295.64709    254.97606 
   99100    100.09699    -1103.732    75828.104   -17301.483    1360.2694   -18661.753    295.21519    253.66437 
   99150    98.160351   -1241.7581    75851.006     -17299.4    1333.9514   -18633.351    295.62027    248.75655 
   99200    99.396523   -1155.8322    75875.727   -17289.525    1350.7503   -18640.275    295.97196    251.88924 
   99250    99.296197   -1373.0358    75874.084   -17244.044     1349.387   -18593.431    295.96494      251.635 
   99300    102.44078   -1329.1924    75850.313   -17201.715    1392.1203   -18593.835    296.38152    259.60395 
   99350    97.943954    -1303.308    75910.233   -17225.552    1331.0106   -18556.562    296.18286    248.20816 
   99400    99.677248   -1327.7509     75906.44   -17261.789    1354.5653   -18616.354    296.65918    252.60065 
   99450    98.960357   -1657.6204    75911.581   -17248.383    1344.8231   -18593.206    297.34037    250.78392 
   99500    100.10707   -1543.0903    75882.958   -17198.592    1360.4063   -18558.998    297.39653    253.68989 
   99550    98.746035   -1594.1176    75767.573   -17261.241    1341.9105   -18603.152    297.80116    250.24078 
   99600    97.607538    -1456.867    75734.836   -17298.631    1326.4389    -18625.07    297.81645    247.35562 
   99650    99.298117   -1132.7799    75729.787   -17269.865     1349.413   -18619.278    297.22222    251.63986 
   99700    99.465433   -1071.8571    75734.754   -17260.216    1351.6868   -18611.902    297.59873    252.06387 
   99750    100.76998   -1418.8814    75746.053   -17276.796     1369.415   -18646.211    297.71221    255.36985 
   99800    97.703612   -1359.7131    75746.304   -17245.089    1327.7445   -18572.833    298.18337    247.59909 
   99850    101.01648   -1532.3597    75729.477   -17268.797    1372.7647   -18641.562    298.33557    255.99451 
   99900     102.7833   -1085.7317    75690.876   -17262.582     1396.775   -18659.357    298.18704    260.47197 
   99950    96.299713   -1108.5374    75750.693   -17289.121    1308.6662   -18597.788    298.76608    244.04135 
  100000    98.643327    -1433.836    75759.002    -17298.87    1340.5148   -18639.385    298.12405     249.9805 
Loop time of 73.2012 on 64 procs for 100000 steps with 4560 atoms

Performance: 590.154 ns/day, 0.041 hours/ns, 1366.098 timesteps/s
100.0% CPU use with 64 MPI tasks x no OpenMP threads

MPI task timing breakdown:
Section |  min time  |  avg time  |  max time  |%varavg| %total
---------------------------------------------------------------
Pair    | 8.7595     | 29.244     | 51.566     | 320.6 | 39.95
Neigh   | 0.50319    | 1.4974     | 2.9441     |  71.3 |  2.05
Comm    | 13.2       | 33.64      | 57.312     | 337.0 | 45.96
Output  | 0.11584    | 0.1179     | 0.13054    |   0.5 |  0.16
Modify  | 4.6212     | 7.9758     | 15.899     | 158.4 | 10.90
Other   |            | 0.7266     |            |       |  0.99

Nlocal:    71.25 ave 122 max 35 min
Histogram: 27 5 0 0 0 3 12 1 7 9
Nghost:    759.812 ave 959 max 375 min
Histogram: 16 0 0 0 0 0 5 11 0 32
Neighs:    0 ave 0 max 0 min
Histogram: 64 0 0 0 0 0 0 0 0 0
FullNghs:  7204.47 ave 16500 max 1272 min
Histogram: 32 0 0 0 2 14 0 0 2 14

Total # of neighbors = 461086
Ave neighs/atom = 101.115
Neighbor list builds = 5836
Dangerous builds = 0

write_data		${DIR}/data.eq-${NAME}-${TEMP}
write_data		run_3/data.eq-${NAME}-${TEMP}
write_data		run_3/data.eq-het_freeze_3-${TEMP}
write_data		run_3/data.eq-het_freeze_3-250
undump          1

reset_timestep  0

unfix           2
unfix           3
unfix           4


################################################
#######         Run Simulation         #########
################################################

log				${DIR}/log.run_${NAME}
log				run_3/log.run_${NAME}
log				run_3/log.run_het_freeze_3
