LAMMPS data file via write_data, version 16 Mar 2018, timestep = 6000000

6768 atoms
2 atom types

0.0000000000000000e+00 4.9219999999999999e+01 xlo xhi
0.0000000000000000e+00 4.9019635930410494e+01 ylo yhi
-1.3944718840045205e+00 6.1456471884008138e+01 zlo zhi

Masses

1 18.015
2 12.01

Atoms # atomic

511 1 9.2723054566849217e-01 2.2076753873299424e+00 9.6082794637679125e-01 -3 -3 1
3253 1 3.3416347720506230e+00 2.6116855068903035e+00 2.2460132356329394e+00 1 -1 1
3234 1 5.1936593795546191e+00 6.6616179959752064e-01 1.8522961312759305e+00 -1 -2 1
3943 1 5.9064745187649450e+00 1.2208210634663144e+01 5.9527747283230568e+00 -1 1 0
2247 1 9.5418800729143225e+00 1.2671612071637317e+00 1.6988157348281230e+00 1 0 1
1660 1 9.3886810586480323e+00 2.2924868009968882e+00 -9.0638241960939103e-01 1 2 1
2162 1 9.5258850129512869e+00 9.0297690413272171e+00 1.3209955869799300e+01 -1 0 1
3141 1 4.1165220203280821e+00 5.1673537177456446e+00 1.4601933985091495e+00 1 1 1
3395 1 2.1815736984589589e+00 7.1764858626712398e+00 2.1923768547626419e+00 1 0 1
5625 1 1.1618185013894294e+01 8.3557119386004537e+00 -9.3666442147703877e-01 1 1 1
3153 1 8.6565108457283788e+00 5.5783145243045720e+00 2.0788784152026456e+00 -1 1 1
5511 1 2.6411975776241980e-01 8.6407904473780963e+00 9.9174851532663819e+00 0 2 0
5446 1 2.2654731829946835e+00 9.8577373857903066e+00 1.4343401586248179e+00 1 -1 0
1821 1 7.3657200974548189e+00 9.0401064415699359e+00 -9.8619010398711304e-01 -1 -1 0
5245 1 5.3274421722732379e-01 1.1296678077152853e+01 2.3202054290382930e+00 -1 1 0
5012 1 7.2016856995329697e+00 9.9438598017585935e+00 1.5580673114520240e+00 2 0 1
1617 1 7.6416708075415105e+00 1.4658331764304953e+00 1.3647986196493116e+01 0 0 1
506 1 8.3400807803385180e-01 1.0845965163802884e+01 1.3491708086286629e+01 0 1 0
4753 1 1.2044592875581696e+01 8.2933349133676462e+00 1.7849223439865924e+00 0 1 1
3543 1 6.1340262451971084e+00 5.8768632319949861e+00 1.3416412924058404e+01 -1 1 1
1996 1 3.2355658002136183e+00 2.5417612129566045e+00 5.1388590238795899e+00 2 1 0
5199 1 6.6195672921073556e-01 1.9791030038017925e+00 5.9632817418283128e+00 0 -1 0
1980 1 7.3037651746380723e+00 1.8650809070979808e+00 3.1779140069562386e+00 1 0 0
6359 1 7.3623940068985583e+00 1.2518920299378438e+00 5.9038147660853824e+00 0 -1 1
3213 1 1.0398504707049373e+01 4.5457403721139400e+00 1.3562264219167607e+01 -2 -1 0
3272 1 7.7788559537369117e+00 1.0701188013203888e+01 1.2119039818442984e+01 -1 -2 1
3625 1 1.9674161053366825e+00 6.6507333512047309e+00 4.7680612509498719e+00 0 2 1
3821 1 3.6272540185839772e+00 5.1260365367939862e+00 6.3483888876350800e+00 1 0 0
4911 1 6.4683520158485104e+00 4.4752943671561329e+00 3.0326606278703077e+00 2 -2 0
174 1 6.0204451525497547e+00 5.2296695180802759e+00 5.6407538359710268e+00 2 -1 0
2171 1 9.2640006644646231e+00 8.1663756309006050e+00 2.4669655093517653e+00 0 1 0
5151 1 1.0420519433326245e+01 3.8834121030570237e+00 3.0344036502031155e+00 1 2 0
5601 1 1.0633945484366102e+01 4.3206906006775903e+00 5.5424374107876648e+00 -1 -1 0
3970 1 8.8909590018451057e-01 1.1288467514272055e+01 5.0288151953220090e+00 1 0 1
105 1 2.4313178005075327e+00 9.1972600961100426e+00 5.7304521022471517e+00 1 2 1
5094 1 6.9715231562191438e+00 7.7312347078265873e+00 6.2572913099313991e+00 0 -1 0
2161 1 4.7853576533489779e+00 1.0513092353878074e+01 2.7512254659330626e+00 1 0 0
1863 1 4.8754667482018217e+00 9.7049881331504420e+00 5.4397431818790816e+00 -1 1 0
2047 1 1.2122422930323239e+01 2.3003070880744136e+00 6.2001466411332933e+00 0 -1 0
4991 1 2.5266491796196862e+00 1.5562752846127642e-01 1.2389768232084501e+01 0 0 1
102 1 9.4020906484636981e+00 8.2721234266678572e+00 5.3995844825163566e+00 2 1 1
5510 1 1.0080965956580066e+01 1.0691241068833733e+01 6.1907093224847944e+00 1 1 1
5517 1 4.2276622628693232e+00 5.4237209258762098e+00 -1.2977528632096453e+00 0 1 0
1412 1 1.0262854062100022e+00 2.2361232347088631e+00 8.5402377927691262e+00 1 -1 1
3163 1 1.2049640377315718e+01 8.6047396209407911e-01 1.3934913978234578e+01 0 -3 1
4795 1 5.5600991249961140e+00 3.2855662197307374e+00 1.0304452115791404e+01 1 1 1
2180 1 5.1137857861874867e+00 7.1679778891919066e-01 9.1921407509927828e+00 3 0 1
5308 1 8.1101974905401768e+00 3.7707487320016888e+00 6.8397162394628914e+00 1 -1 0
1803 1 8.1510312630710562e+00 3.6691812374471615e+00 9.3482834839947948e+00 0 2 1
6354 1 9.8119356801723860e+00 2.0990528953748062e+00 1.0365454785381568e+01 0 0 1
1388 1 1.2912358169090417e+00 4.7015305425801523e+00 9.8304287766367491e+00 -2 -1 1
3596 1 3.8796576565265006e+00 5.2358199831126928e+00 9.1083844395196767e+00 1 1 0
3598 1 4.4025860708800515e+00 7.6390314020091941e+00 9.5131771602234547e+00 1 0 0
1386 1 6.9296009541992492e+00 8.1072947762406216e+00 8.8840088813609732e+00 1 1 1
4874 1 1.1203254728400122e+01 6.8535108317277391e+00 6.4377557236775740e+00 1 1 1
3186 1 1.1268288706484807e+01 6.8265741565951039e+00 8.9272116493077451e+00 0 0 1
6598 1 8.6658756826168641e+00 6.1387115642686823e+00 9.8468413132474542e+00 0 1 1
3159 1 3.2392976647319931e+00 1.1525851835254404e+01 9.5729014149504774e+00 -1 0 1
3021 1 2.5261402610001475e+00 9.1341889331993151e+00 8.4389287313013650e+00 2 -1 1
2182 1 3.2082995981268496e+00 1.1417736633299695e+01 1.2424859290542106e+01 1 -3 0
192 1 7.6293805094924876e+00 1.0670138737307788e+01 9.5160587662798815e+00 1 0 0
1705 1 8.5759854301890570e+00 4.9927933626913292e+00 -5.8453571129498161e-01 0 1 1
571 1 1.1993152768292376e+01 9.4768106337982765e+00 1.2368171276389166e+01 1 0 1
1835 1 1.0104403929207249e+01 1.1257219018877583e+01 8.7348552574876699e+00 0 -1 1
5635 1 5.3247927856231527e+00 9.8334282304439427e+00 1.3172655960288669e+01 -1 2 1
5169 1 2.8725845279718394e+00 2.6995255413884025e+00 1.3400262590688859e+01 0 2 0
134 1 4.8202759902675556e+00 7.5142444373477058e-01 6.4388084891626693e+00 1 1 0
2179 1 5.4176052038072191e+00 3.2292414315814582e+00 1.2799437536248663e+01 2 1 0
5149 1 8.7987109236682901e+00 6.4255706831732180e+00 1.2558181840302090e+01 1 1 0
1909 1 9.9617277253609107e+00 2.1661744914818275e+00 1.2994787384367797e+01 1 1 1
1481 1 1.2017976344454171e+00 4.5929597179508539e+00 1.2599045942699339e+01 2 -1 0
4881 1 1.9186522012705081e+00 6.9584168141348437e+00 1.3753650467509337e+01 0 2 1
1671 1 4.2450979479702777e+00 7.4758439962125980e+00 1.2155039544866995e+01 1 0 1
3658 1 4.5538274639956988e+00 9.8380557377378963e-01 -1.0925783849470405e+00 1 0 0
189 1 1.2058861031148190e+01 2.4551397291360817e+00 8.9308842864837050e+00 1 -1 0
2254 1 1.2104247716009660e+01 9.1767578113032577e+00 9.6332274467623034e+00 -1 -1 1
5636 1 2.6317400323843865e+00 1.1047716419112318e-01 9.7745376919562883e+00 0 0 1
5697 1 3.0368385251491454e+00 2.2895091420428733e+00 1.5909818270731073e+01 -3 -1 1
3527 1 8.6135770344220253e-01 1.7991968895925086e+00 1.7441862163014971e+01 0 0 1
4856 1 5.1282245634669907e+00 1.1166943342798765e+00 1.7136098052582010e+01 1 -1 1
320 1 7.6294336727001753e+00 1.7387862335776536e+00 1.6248899837957168e+01 0 0 1
1363 1 8.2680128417749117e+00 4.1273712718424465e+00 1.7262354692312599e+01 1 2 1
1681 1 2.8141338112022263e+00 2.7263136933726489e-01 2.3317866140263458e+01 3 0 1
3535 1 2.7758402098915123e+00 5.6246361321096128e-01 2.0804101597141450e+01 2 -2 0
5419 1 1.9368341403339779e+00 6.7249551416321047e+00 1.6228454375739322e+01 1 -1 0
3375 1 3.6958666375669513e+00 4.8093913620796780e+00 1.6753532064917561e+01 0 1 1
292 1 6.3806399039073645e+00 5.7224980443766338e+00 1.6391814572772237e+01 -1 -1 0
1751 1 1.0630840790457702e+01 4.5583408262639296e+00 1.6262017668499702e+01 0 1 0
2041 1 1.1053965087741844e+01 6.9721648071050994e+00 1.7667837875614413e+01 1 1 0
563 1 2.6033204583839229e+00 9.0989815998396413e+00 1.7377542608876738e+01 1 0 1
801 2 9.8440000000000012e+00 8.5251540748539956e+00 2.6673870311832363e+01 0 0 0
4838 1 6.8218068523943245e+00 8.4761907731398871e+00 1.7104983624272165e+01 2 1 1
355 1 4.8882359695319941e+00 9.9809615279895372e+00 1.6063078416047087e+01 -1 0 0
1476 1 9.4269127354766784e+00 8.6680428083911405e+00 1.6032515898246267e+01 2 2 1
5008 1 9.9579804329366191e+00 1.1147166977474317e+01 1.6995355578723743e+01 0 -1 1
798 2 8.6134999999999984e+00 1.0656442593567498e+01 3.0031000000001516e+01 0 0 0
1641 1 7.7111081822014549e-01 2.2582654140621150e+00 2.0116616571035490e+01 -1 0 1
844 2 1.1074500000000002e+01 1.0656442593567498e+01 2.6673870311832363e+01 0 0 0
4767 1 5.2334960819954386e+00 1.2394655904609790e+00 1.9771118161612254e+01 -1 1 1
6455 1 5.9264748128514082e+00 3.8989897412243320e+00 2.0291346431725014e+01 -1 -2 1
359 1 1.0707508402485344e+01 2.2998308158214655e+00 2.0584050347170052e+01 0 1 0
2114 1 1.0813776268599911e+00 1.0869849520206440e+01 1.6144930216440549e+01 2 0 1
1619 1 1.4362729415079445e+00 4.7456746536493331e+00 2.0474726081207365e+01 2 0 1
4712 1 3.8022143266887762e+00 5.6512180283366868e+00 1.9346245912672693e+01 1 2 1
3192 1 4.5689087238676187e+00 7.9131913828992406e+00 2.1076524503756762e+01 1 1 1
5123 1 8.7890956886027549e+00 4.3289975580134321e+00 2.0532801314153129e+01 0 -1 1
5365 1 1.0061497044857212e+01 6.9080160968860591e+00 2.0154925375110793e+01 1 1 0
4976 1 2.5465756795302683e+00 9.4077685666801472e+00 2.0152457394421866e+01 0 2 1
1711 1 3.3475648974262477e+00 1.2035314744851808e+01 2.0686225250798365e+01 0 2 1
7 1 7.3612836364678875e+00 8.1925961298632348e+00 2.0065947177191191e+01 0 3 1
335 1 7.4725899368200901e+00 1.0851325880587993e+01 2.0624482879662796e+01 1 -2 0
1777 1 9.9847568463968397e+00 1.1089926589595446e+01 1.9875696931674877e+01 0 1 0
4835 1 1.1409397300856881e+01 9.4326549091344507e+00 2.1134066200258079e+01 0 2 1
846 2 1.2304999999999998e+01 1.1366872099805333e+01 2.6673870311832363e+01 0 0 0
5155 1 7.9940490013904053e-01 2.1544064858023639e+00 2.3635938235073180e+01 0 2 0
3428 1 5.4318131469903408e+00 1.0346021333948017e+00 2.3629890426888998e+01 2 3 1
2026 1 6.0202977208024935e+00 3.6186446488545494e+00 2.3029357316482329e+01 1 0 0
3573 1 1.0924786578173450e+01 1.8950514338939599e+00 2.3414759569294336e+01 0 -2 0
258 1 1.7907279757488388e+00 4.5587328947176733e+00 2.3199955340585948e+01 1 1 0
2133 1 4.1210140965436963e+00 5.0595279894070293e+00 2.4226374755555380e+01 0 -2 0
1568 1 4.7591750350664874e+00 7.5974701738462418e+00 2.3855390517621498e+01 3 1 0
1725 1 8.9617838576489284e+00 3.9463205198212643e+00 2.3564660673337482e+01 0 1 0
6616 1 7.5370039609902815e+00 7.9720559447366490e+00 2.3299766622617692e+01 -1 0 1
1490 1 1.1636952592699632e+01 8.4918400755176062e+00 2.3806252458665689e+01 0 0 1
3804 1 9.9133578281942576e+00 6.7833534082398632e+00 2.3530217779285596e+01 2 2 0
5013 1 2.9270586859151471e+00 9.4718086849823617e+00 2.3639515130301142e+01 2 0 1
5001 1 9.7696727048316276e+00 1.6052255698055348e-01 1.7011016293252155e+01 -1 2 1
6394 1 7.6303762342628607e+00 1.0722902525690053e+01 2.3279992138234963e+01 0 1 0
5452 1 1.0327707465936369e+01 1.1338218242480595e+01 2.3945341964085692e+01 2 0 1
623 2 0.0000000000000000e+00 2.8417180249513345e+00 2.6673870311832363e+01 0 0 0
625 2 0.0000000000000000e+00 0.0000000000000000e+00 2.6673870311832363e+01 0 0 0
627 2 1.2305000000000001e+00 7.1042950623783474e-01 2.6673870311832363e+01 0 0 0
634 2 1.2305000000000001e+00 2.1312885187134998e+00 2.6673870311832363e+01 0 0 0
636 2 2.4610000000000003e+00 2.8417180249513345e+00 2.6673870311832363e+01 0 0 0
638 2 2.4610000000000003e+00 0.0000000000000000e+00 2.6673870311832363e+01 0 0 0
640 2 3.6915000000000004e+00 7.1042950623783474e-01 2.6673870311832363e+01 0 0 0
655 2 3.6914999999999996e+00 2.1312885187134998e+00 2.6673870311832363e+01 0 0 0
624 2 0.0000000000000000e+00 1.4208590124756650e+00 3.0031000000001516e+01 0 0 0
626 2 0.0000000000000000e+00 0.0000000000000000e+00 3.0031000000001516e+01 0 0 0
633 2 1.2305000000000001e+00 3.5521475311891644e+00 3.0031000000001516e+01 0 0 0
635 2 1.2305000000000001e+00 2.1312885187134998e+00 3.0031000000001516e+01 0 0 0
637 2 2.4610000000000003e+00 1.4208590124756650e+00 3.0031000000001516e+01 0 0 0
639 2 2.4610000000000003e+00 0.0000000000000000e+00 3.0031000000001516e+01 0 0 0
654 2 3.6914999999999996e+00 3.5521475311891644e+00 3.0031000000001516e+01 0 0 0
656 2 3.6914999999999996e+00 2.1312885187134998e+00 3.0031000000001516e+01 0 0 0
657 2 4.9220000000000006e+00 2.8417180249513332e+00 2.6673870311832363e+01 0 0 0
659 2 4.9220000000000006e+00 0.0000000000000000e+00 2.6673870311832363e+01 0 0 0
661 2 6.1524999999999999e+00 7.1042950623783407e-01 2.6673870311832363e+01 0 0 0
684 2 6.1524999999999999e+00 2.1312885187134989e+00 2.6673870311832363e+01 0 0 0
686 2 7.3829999999999991e+00 2.8417180249513345e+00 2.6673870311832363e+01 0 0 0
688 2 7.3829999999999991e+00 0.0000000000000000e+00 2.6673870311832363e+01 0 0 0
658 2 4.9220000000000006e+00 1.4208590124756650e+00 3.0031000000001516e+01 0 0 0
660 2 4.9220000000000006e+00 0.0000000000000000e+00 3.0031000000001516e+01 0 0 0
683 2 6.1524999999999999e+00 3.5521475311891644e+00 3.0031000000001516e+01 0 0 0
685 2 6.1524999999999999e+00 2.1312885187134989e+00 3.0031000000001516e+01 0 0 0
687 2 7.3829999999999991e+00 1.4208590124756659e+00 3.0031000000001516e+01 0 0 0
689 2 7.3829999999999991e+00 0.0000000000000000e+00 3.0031000000001516e+01 0 0 0
690 2 8.6134999999999984e+00 7.1042950623783407e-01 2.6673870311832363e+01 0 0 0
721 2 8.6134999999999984e+00 2.1312885187135002e+00 2.6673870311832363e+01 0 0 0
723 2 9.8440000000000012e+00 2.8417180249513332e+00 2.6673870311832363e+01 0 0 0
725 2 9.8440000000000012e+00 0.0000000000000000e+00 2.6673870311832363e+01 0 0 0
727 2 1.1074500000000002e+01 7.1042950623783330e-01 2.6673870311832363e+01 0 0 0
766 2 1.1074500000000002e+01 2.1312885187135002e+00 2.6673870311832363e+01 0 0 0
720 2 8.6134999999999984e+00 3.5521475311891657e+00 3.0031000000001516e+01 0 0 0
722 2 8.6134999999999984e+00 2.1312885187135002e+00 3.0031000000001516e+01 0 0 0
724 2 9.8440000000000012e+00 1.4208590124756659e+00 3.0031000000001516e+01 0 0 0
726 2 9.8440000000000012e+00 0.0000000000000000e+00 3.0031000000001516e+01 0 0 0
765 2 1.1074500000000002e+01 3.5521475311891644e+00 3.0031000000001516e+01 0 0 0
767 2 1.1074500000000002e+01 2.1312885187135002e+00 3.0031000000001516e+01 0 0 0
628 2 0.0000000000000000e+00 7.1042950623783341e+00 2.6673870311832363e+01 0 0 0
630 2 0.0000000000000000e+00 4.2625770374269996e+00 2.6673870311832363e+01 0 0 0
632 2 1.2305000000000001e+00 4.9730065436648339e+00 2.6673870311832363e+01 0 0 0
647 2 1.2305000000000001e+00 6.3938655561404980e+00 2.6673870311832363e+01 0 0 0
649 2 2.4610000000000003e+00 7.1042950623783341e+00 2.6673870311832363e+01 0 0 0
651 2 2.4610000000000003e+00 4.2625770374269996e+00 2.6673870311832363e+01 0 0 0
653 2 3.6914999999999996e+00 4.9730065436648339e+00 2.6673870311832363e+01 0 0 0
676 2 3.6914999999999996e+00 6.3938655561404980e+00 2.6673870311832363e+01 0 0 0
629 2 0.0000000000000000e+00 5.6834360499026637e+00 3.0031000000001516e+01 0 0 0
631 2 0.0000000000000000e+00 4.2625770374269996e+00 3.0031000000001516e+01 0 0 0
646 2 1.2305000000000001e+00 7.8147245686161639e+00 3.0031000000001516e+01 0 0 0
648 2 1.2305000000000001e+00 6.3938655561404980e+00 3.0031000000001516e+01 0 0 0
650 2 2.4610000000000003e+00 5.6834360499026637e+00 3.0031000000001516e+01 0 0 0
652 2 2.4610000000000003e+00 4.2625770374269996e+00 3.0031000000001516e+01 0 0 0
675 2 3.6914999999999996e+00 7.8147245686161639e+00 3.0031000000001516e+01 0 0 0
677 2 3.6914999999999996e+00 6.3938655561404980e+00 3.0031000000001516e+01 0 0 0
678 2 4.9220000000000006e+00 7.1042950623783341e+00 2.6673870311832363e+01 0 0 0
680 2 4.9220000000000006e+00 4.2625770374269978e+00 2.6673870311832363e+01 0 0 0
682 2 6.1524999999999999e+00 4.9730065436648339e+00 2.6673870311832363e+01 0 0 0
713 2 6.1524999999999999e+00 6.3938655561404980e+00 2.6673870311832363e+01 0 0 0
715 2 7.3830000000000009e+00 7.1042950623783341e+00 2.6673870311832363e+01 0 0 0
717 2 7.3829999999999991e+00 4.2625770374269996e+00 2.6673870311832363e+01 0 0 0
679 2 4.9220000000000006e+00 5.6834360499026637e+00 3.0031000000001516e+01 0 0 0
681 2 4.9220000000000006e+00 4.2625770374269978e+00 3.0031000000001516e+01 0 0 0
712 2 6.1524999999999999e+00 7.8147245686161639e+00 3.0031000000001516e+01 0 0 0
714 2 6.1524999999999999e+00 6.3938655561404980e+00 3.0031000000001516e+01 0 0 0
716 2 7.3829999999999991e+00 5.6834360499026637e+00 3.0031000000001516e+01 0 0 0
718 2 7.3829999999999991e+00 4.2625770374269996e+00 3.0031000000001516e+01 0 0 0
719 2 8.6135000000000002e+00 4.9730065436648339e+00 2.6673870311832363e+01 0 0 0
758 2 8.6135000000000002e+00 6.3938655561404980e+00 2.6673870311832363e+01 0 0 0
760 2 9.8440000000000012e+00 7.1042950623783341e+00 2.6673870311832363e+01 0 0 0
762 2 9.8440000000000012e+00 4.2625770374270004e+00 2.6673870311832363e+01 0 0 0
764 2 1.1074500000000002e+01 4.9730065436648339e+00 2.6673870311832363e+01 0 0 0
805 2 1.1074500000000002e+01 6.3938655561404980e+00 2.6673870311832363e+01 0 0 0
757 2 8.6135000000000002e+00 7.8147245686161639e+00 3.0031000000001516e+01 0 0 0
759 2 8.6135000000000002e+00 6.3938655561404980e+00 3.0031000000001516e+01 0 0 0
761 2 9.8440000000000012e+00 5.6834360499026637e+00 3.0031000000001516e+01 0 0 0
763 2 9.8440000000000012e+00 4.2625770374270004e+00 3.0031000000001516e+01 0 0 0
804 2 1.1074500000000002e+01 7.8147245686161639e+00 3.0031000000001516e+01 0 0 0
806 2 1.1074500000000002e+01 6.3938655561404980e+00 3.0031000000001516e+01 0 0 0
641 2 0.0000000000000000e+00 1.1366872099805333e+01 2.6673870311832363e+01 0 0 0
643 2 0.0000000000000000e+00 8.5251540748539991e+00 2.6673870311832363e+01 0 0 0
645 2 1.2305000000000001e+00 9.2355835810918343e+00 2.6673870311832363e+01 0 0 0
668 2 1.2305000000000001e+00 1.0656442593567498e+01 2.6673870311832363e+01 0 0 0
670 2 2.4610000000000003e+00 1.1366872099805333e+01 2.6673870311832363e+01 0 0 0
672 2 2.4610000000000003e+00 8.5251540748539991e+00 2.6673870311832363e+01 0 0 0
674 2 3.6915000000000004e+00 9.2355835810918343e+00 2.6673870311832363e+01 0 0 0
705 2 3.6914999999999996e+00 1.0656442593567499e+01 2.6673870311832363e+01 0 0 0
642 2 0.0000000000000000e+00 9.9460130873296642e+00 3.0031000000001516e+01 0 0 0
644 2 0.0000000000000000e+00 8.5251540748539991e+00 3.0031000000001516e+01 0 0 0
667 2 1.2305000000000001e+00 1.2077301606043163e+01 3.0031000000001516e+01 0 0 0
669 2 1.2305000000000001e+00 1.0656442593567498e+01 3.0031000000001516e+01 0 0 0
671 2 2.4610000000000003e+00 9.9460130873296642e+00 3.0031000000001516e+01 0 0 0
673 2 2.4610000000000003e+00 8.5251540748539991e+00 3.0031000000001516e+01 0 0 0
704 2 3.6914999999999996e+00 1.2077301606043163e+01 3.0031000000001516e+01 0 0 0
706 2 3.6914999999999996e+00 1.0656442593567499e+01 3.0031000000001516e+01 0 0 0
751 2 6.1524999999999999e+00 1.0656442593567499e+01 3.0031000000001516e+01 0 0 0
754 2 7.3830000000000009e+00 8.5251540748539991e+00 2.6673870311832363e+01 0 0 0
710 2 4.9220000000000006e+00 8.5251540748539991e+00 3.0031000000001516e+01 0 0 0
708 2 4.9220000000000006e+00 9.9460130873296642e+00 3.0031000000001516e+01 0 0 0
749 2 6.1524999999999999e+00 1.2077301606043163e+01 3.0031000000001516e+01 0 0 0
753 2 7.3830000000000009e+00 9.9460130873296642e+00 3.0031000000001516e+01 0 0 0
755 2 7.3830000000000009e+00 8.5251540748539991e+00 3.0031000000001516e+01 0 0 0
707 2 4.9220000000000006e+00 1.1366872099805333e+01 2.6673870311832363e+01 0 0 0
709 2 4.9220000000000006e+00 8.5251540748539991e+00 2.6673870311832363e+01 0 0 0
711 2 6.1524999999999999e+00 9.2355835810918343e+00 2.6673870311832363e+01 0 0 0
750 2 6.1524999999999999e+00 1.0656442593567499e+01 2.6673870311832363e+01 0 0 0
752 2 7.3829999999999991e+00 1.1366872099805333e+01 2.6673870311832363e+01 0 0 0
797 2 8.6134999999999984e+00 1.0656442593567498e+01 2.6673870311832363e+01 0 0 0
845 2 1.1074500000000002e+01 1.0656442593567498e+01 3.0031000000001516e+01 0 0 0
756 2 8.6134999999999984e+00 9.2355835810918343e+00 2.6673870311832363e+01 0 0 0
803 2 1.1074500000000002e+01 9.2355835810918343e+00 2.6673870311832363e+01 0 0 0
843 2 1.1074500000000002e+01 1.2077301606043163e+01 3.0031000000001516e+01 0 0 0
796 2 8.6135000000000002e+00 1.2077301606043163e+01 3.0031000000001516e+01 0 0 0
799 2 9.8440000000000012e+00 1.1366872099805333e+01 2.6673870311832363e+01 0 0 0
802 2 9.8440000000000012e+00 8.5251540748539956e+00 3.0031000000001516e+01 0 0 0
800 2 9.8440000000000012e+00 9.9460130873296642e+00 3.0031000000001516e+01 0 0 0
230 1 3.3647052831732582e-01 8.7741099818852604e+00 2.3386082194779661e+01 -2 -1 0
3184 1 9.4009129340128936e+00 1.2670262580768110e-01 1.9566237672977920e+01 0 -1 1
952 2 0.0000000000000000e+00 2.8417180249513345e+00 3.3388129688183554e+01 0 0 0
953 2 0.0000000000000000e+00 0.0000000000000000e+00 3.3388129688183554e+01 0 0 0
954 2 1.2305000000000001e+00 7.1042950623783474e-01 3.3388129688183554e+01 0 0 0
958 2 1.2305000000000001e+00 2.1312885187134998e+00 3.3388129688183554e+01 0 0 0
959 2 2.4610000000000003e+00 2.8417180249513345e+00 3.3388129688183554e+01 0 0 0
960 2 2.4610000000000003e+00 0.0000000000000000e+00 3.3388129688183554e+01 0 0 0
961 2 3.6915000000000004e+00 7.1042950623783474e-01 3.3388129688183554e+01 0 0 0
969 2 3.6914999999999996e+00 2.1312885187134998e+00 3.3388129688183554e+01 0 0 0
970 2 4.9220000000000006e+00 2.8417180249513332e+00 3.3388129688183554e+01 0 0 0
971 2 4.9220000000000006e+00 0.0000000000000000e+00 3.3388129688183554e+01 0 0 0
972 2 6.1524999999999999e+00 7.1042950623783407e-01 3.3388129688183554e+01 0 0 0
984 2 6.1524999999999999e+00 2.1312885187134989e+00 3.3388129688183554e+01 0 0 0
985 2 7.3829999999999991e+00 2.8417180249513345e+00 3.3388129688183554e+01 0 0 0
986 2 7.3829999999999991e+00 0.0000000000000000e+00 3.3388129688183554e+01 0 0 0
987 2 8.6134999999999984e+00 7.1042950623783407e-01 3.3388129688183554e+01 0 0 0
1003 2 8.6134999999999984e+00 2.1312885187135002e+00 3.3388129688183554e+01 0 0 0
1004 2 9.8440000000000012e+00 2.8417180249513332e+00 3.3388129688183554e+01 0 0 0
1005 2 9.8440000000000012e+00 0.0000000000000000e+00 3.3388129688183554e+01 0 0 0
1006 2 1.1074500000000002e+01 7.1042950623783330e-01 3.3388129688183554e+01 0 0 0
1026 2 1.1074500000000002e+01 2.1312885187135002e+00 3.3388129688183554e+01 0 0 0
955 2 0.0000000000000000e+00 7.1042950623783341e+00 3.3388129688183554e+01 0 0 0
956 2 0.0000000000000000e+00 4.2625770374269996e+00 3.3388129688183554e+01 0 0 0
957 2 1.2305000000000001e+00 4.9730065436648339e+00 3.3388129688183554e+01 0 0 0
965 2 1.2305000000000001e+00 6.3938655561404980e+00 3.3388129688183554e+01 0 0 0
966 2 2.4610000000000003e+00 7.1042950623783341e+00 3.3388129688183554e+01 0 0 0
967 2 2.4610000000000003e+00 4.2625770374269996e+00 3.3388129688183554e+01 0 0 0
968 2 3.6914999999999996e+00 4.9730065436648339e+00 3.3388129688183554e+01 0 0 0
980 2 3.6914999999999996e+00 6.3938655561404980e+00 3.3388129688183554e+01 0 0 0
981 2 4.9220000000000006e+00 7.1042950623783341e+00 3.3388129688183554e+01 0 0 0
982 2 4.9220000000000006e+00 4.2625770374269978e+00 3.3388129688183554e+01 0 0 0
983 2 6.1524999999999999e+00 4.9730065436648339e+00 3.3388129688183554e+01 0 0 0
999 2 6.1524999999999999e+00 6.3938655561404980e+00 3.3388129688183554e+01 0 0 0
1000 2 7.3830000000000009e+00 7.1042950623783341e+00 3.3388129688183554e+01 0 0 0
1001 2 7.3829999999999991e+00 4.2625770374269996e+00 3.3388129688183554e+01 0 0 0
1002 2 8.6135000000000002e+00 4.9730065436648339e+00 3.3388129688183554e+01 0 0 0
1022 2 8.6135000000000002e+00 6.3938655561404980e+00 3.3388129688183554e+01 0 0 0
1023 2 9.8440000000000012e+00 7.1042950623783341e+00 3.3388129688183554e+01 0 0 0
1024 2 9.8440000000000012e+00 4.2625770374270004e+00 3.3388129688183554e+01 0 0 0
1025 2 1.1074500000000002e+01 4.9730065436648339e+00 3.3388129688183554e+01 0 0 0
1046 2 1.1074500000000002e+01 6.3938655561404980e+00 3.3388129688183554e+01 0 0 0
962 2 0.0000000000000000e+00 1.1366872099805333e+01 3.3388129688183554e+01 0 0 0
963 2 0.0000000000000000e+00 8.5251540748539991e+00 3.3388129688183554e+01 0 0 0
964 2 1.2305000000000001e+00 9.2355835810918343e+00 3.3388129688183554e+01 0 0 0
976 2 1.2305000000000001e+00 1.0656442593567498e+01 3.3388129688183554e+01 0 0 0
977 2 2.4610000000000003e+00 1.1366872099805333e+01 3.3388129688183554e+01 0 0 0
978 2 2.4610000000000003e+00 8.5251540748539991e+00 3.3388129688183554e+01 0 0 0
979 2 3.6915000000000004e+00 9.2355835810918343e+00 3.3388129688183554e+01 0 0 0
995 2 3.6914999999999996e+00 1.0656442593567499e+01 3.3388129688183554e+01 0 0 0
996 2 4.9220000000000006e+00 1.1366872099805333e+01 3.3388129688183554e+01 0 0 0
997 2 4.9220000000000006e+00 8.5251540748539991e+00 3.3388129688183554e+01 0 0 0
998 2 6.1524999999999999e+00 9.2355835810918343e+00 3.3388129688183554e+01 0 0 0
1018 2 6.1524999999999999e+00 1.0656442593567499e+01 3.3388129688183554e+01 0 0 0
1019 2 7.3829999999999991e+00 1.1366872099805333e+01 3.3388129688183554e+01 0 0 0
1020 2 7.3830000000000009e+00 8.5251540748539991e+00 3.3388129688183554e+01 0 0 0
1021 2 8.6134999999999984e+00 9.2355835810918343e+00 3.3388129688183554e+01 0 0 0
1042 2 8.6134999999999984e+00 1.0656442593567498e+01 3.3388129688183554e+01 0 0 0
1043 2 9.8440000000000012e+00 1.1366872099805333e+01 3.3388129688183554e+01 0 0 0
1044 2 9.8440000000000012e+00 8.5251540748539956e+00 3.3388129688183554e+01 0 0 0
1045 2 1.1074500000000002e+01 9.2355835810918343e+00 3.3388129688183554e+01 0 0 0
1066 2 1.1074500000000002e+01 1.0656442593567498e+01 3.3388129688183554e+01 0 0 0
1067 2 1.2304999999999998e+01 1.1366872099805333e+01 3.3388129688183554e+01 0 0 0
1616 1 1.1841520935931241e+01 1.0398430143393979e+01 4.0198625791550029e+01 2 -1 -1
3346 1 8.9770289538482526e+00 6.2137404823097049e-02 3.9761419951845696e+01 0 0 0
5355 1 4.3635395069790954e+00 1.2206267371251542e+00 3.7257533400381732e+01 1 1 0
1645 1 5.0178746075326019e+00 3.7217561815383617e+00 3.6878843198915220e+01 0 2 -1
3331 1 1.5538332587927661e-01 2.1792665011003747e+00 4.3871253670735854e+01 1 1 -1
6463 1 9.8151472672989932e+00 2.2850903392988062e+00 3.6104384415507482e+01 1 2 0
3269 1 7.1386196761030773e-01 4.5068530681796295e+00 3.6035998399510930e+01 -1 0 -1
6612 1 3.2166881945367782e+00 5.5591506373860566e+00 3.6699785848427354e+01 1 0 0
4796 1 7.8259984329278174e+00 4.2198614253162736e+00 3.6470753583224948e+01 3 1 0
3404 1 3.9946747655357600e+00 8.0161151428949076e+00 3.5618721340804854e+01 1 -1 0
5574 1 8.4012593045234691e+00 6.8543535374908044e+00 3.6136737483626106e+01 3 0 -1
1990 1 1.0967210934963118e+01 7.7205636321425875e+00 3.6572798857586676e+01 0 -1 -1
5410 1 2.3556016849562087e+00 9.7527763357883615e+00 3.6924281609254621e+01 0 2 0
5581 1 6.8072928275013513e+00 8.2900061821560822e+00 4.3483939794256599e+01 0 1 -1
3819 1 6.7456490636075648e+00 8.4199988181609644e+00 3.6979262745128779e+01 1 -2 0
1807 1 7.1249543912951436e+00 1.1056258025280812e+01 3.6625525423521609e+01 0 2 -1
5670 1 1.2176916529607192e+01 2.6644319846356903e+00 4.3925546690093597e+01 1 0 0
1337 1 8.9742432056608745e+00 3.9706546748301742e-02 3.7167410254452435e+01 -2 2 0
3545 1 9.8380490525716944e+00 1.2123283166520297e+01 3.9310107744612438e+01 0 0 0
3929 1 8.7769097075035880e+00 6.5167573488058723e+00 4.3136009552498308e+01 0 2 0
264 1 4.6444339478239947e+00 1.3553374073996889e+00 4.0040341825190637e+01 0 1 -1
5071 1 5.3565045350234897e+00 3.9468923670994398e+00 4.0207915505520120e+01 -1 1 0
1312 1 1.1866693392108587e+01 1.0348437540728524e+01 3.5813310620476045e+01 -1 -1 0
5693 1 9.5104158247114654e+00 2.6356748837866393e+00 4.0237354866456272e+01 -1 2 0
6707 1 8.2461535773281225e-01 4.5886336017446308e+00 4.0270541530302523e+01 0 1 0
6717 1 3.1177287720756346e+00 5.6349484941248660e+00 3.9380032241076790e+01 3 3 0
3 1 7.9624705410434951e+00 4.5243826456992595e+00 3.9278208062579751e+01 2 0 -1
128 1 3.9778041281868619e+00 8.0490840237500176e+00 4.0108448213929890e+01 -1 0 -1
5396 1 8.9493280885163333e+00 6.6616012478538718e+00 4.0421775491277245e+01 -1 0 -1
2006 1 1.1111698217810449e+01 7.7527198081779254e+00 3.9546371295728392e+01 -1 -1 -1
3525 1 2.2410815421135926e+00 9.8372266620200435e+00 3.9490681730592485e+01 1 0 -1
3492 1 1.1943928288480761e+01 1.0126619108276705e+01 4.2963924625368307e+01 0 1 0
6543 1 6.8572102100892494e+00 8.0350335862466586e+00 3.9626006472329891e+01 0 2 0
6736 1 7.0994309703501841e+00 1.0724928067215915e+01 3.9582003294652935e+01 2 0 0
1431 1 1.2034257586000205e+01 3.1773190866793568e+00 3.9385831868176609e+01 0 2 0
45 1 2.0255089272868796e+00 1.4863727741318206e-01 3.6305712844662494e+01 -1 2 -1
5407 1 3.0009201223396120e+00 1.1980549361992622e+01 4.3128483626578458e+01 0 2 -1
3119 1 2.5688407817581429e+00 9.5350101345122020e+00 4.4106021493974893e+01 0 1 0
1952 1 4.5944180813443607e+00 1.0363692036327350e+00 4.3599352330962517e+01 1 0 -1
5251 1 5.1414465791034178e+00 3.8711514159894089e+00 4.2853469496390943e+01 1 2 -1
2227 1 1.0896627051694175e+01 7.4254489051245276e+00 4.4268348295988815e+01 1 0 0
1471 1 9.6504928488260653e+00 2.6060906453976114e+00 4.2902885138186562e+01 0 0 0
3832 1 7.4951877183537157e+00 1.0862965733085982e+01 4.2714345779959899e+01 -1 0 -1
5707 1 1.0073967185666435e+00 4.4978399387102090e+00 4.3018387788290525e+01 2 3 -1
3651 1 3.6649701379857298e+00 5.6000092817264955e+00 4.3933336583443690e+01 1 0 -1
332 1 4.2411206981302376e+00 7.8715438332990928e+00 4.2894244361026637e+01 -2 -1 -1
2221 1 7.7010318308847650e+00 4.2301544761282495e+00 4.3820247552321945e+01 0 1 0
4831 1 1.9785389704077065e+00 5.9504541463205041e-01 4.3016606053446779e+01 1 3 -1
5064 1 1.9565944923718637e+00 5.1559143035878519e-01 4.0202212804596300e+01 2 1 -1
4833 1 8.7815181470356691e+00 6.9330001398988358e-02 4.3730064287191567e+01 2 -2 0
246 1 9.9850337410991603e+00 1.1859674948073961e+01 4.3548958294611552e+01 0 -1 -1
3668 1 9.9148571558593179e+00 1.1935089150589121e+01 3.6591994630416323e+01 0 1 -1
5580 1 3.5341999349233336e-02 1.9565450212581759e+00 3.6947557265335206e+01 -1 1 0
5023 1 2.9710032362989809e+00 1.2168392405114174e+01 4.0425676152153883e+01 -2 0 -1