
# Create simulation box and atoms

read_data data.graphite_substrate_1000
  orthogonal box = (0 0 -1.03859) to (49.22 49.0196 61.1006)
  4 by 4 by 4 MPI processor grid
  reading atoms ...
  6768 atoms
  reading velocities ...
  6768 velocities
group water type 1
4008 atoms in group water
group graphite type 2
2760 atoms in group graphite

# Define potential

pair_style sw
pair_coeff * * mWC.sw mW C
Reading potential file mWC.sw with DATE: 2019-02-27


# Fix graphite atoms in place

fix 5 graphite setforce 0.0 0.0 0.0
velocity graphite set 0.0 0.0 0.0


# Equilibration of molecular water

# Add velocity/set timestep

velocity	    water create ${TEMP} ${SEED} rot yes dist gaussian
velocity	    water create 225 ${SEED} rot yes dist gaussian
velocity	    water create 225 20960 rot yes dist gaussian
timestep	    5.0

# Define output

compute			1 water msd
compute			3 water temp
thermo	    	50
thermo_style	custom step temp press vol etotal ke pe c_1[4] c_3

# Neighbor lists

neigh_modify    delay 0 every 1 check yes

# Set fixes

fix             1 water momentum 10 linear 1 1 1 rescale
fix             2 water nve
fix             3 water temp/csvr ${TEMP} ${TEMP} 500.0 ${SEED}
fix             3 water temp/csvr 225 ${TEMP} 500.0 ${SEED}
fix             3 water temp/csvr 225 225 500.0 ${SEED}
fix             3 water temp/csvr 225 225 500.0 20960
fix             4 water press/berendsen z ${PRES} ${PRES} 1000.0 modulus 20000
fix             4 water press/berendsen z -1000 ${PRES} 1000.0 modulus 20000
fix             4 water press/berendsen z -1000 -1000 1000.0 modulus 20000

# Run 0.5 ns equilibration

dump		    1 all atom 2000 ${DIR}/eq.${NAME}-${TEMP}.dump
dump		    1 all atom 2000 run_15/eq.${NAME}-${TEMP}.dump
dump		    1 all atom 2000 run_15/eq.het_freeze_15-${TEMP}.dump
dump		    1 all atom 2000 run_15/eq.het_freeze_15-225.dump

reset_timestep  0

run	            100000
Neighbor list info ...
  update every 1 steps, delay 0 steps, check yes
  max neighbors/atom: 2000, page size: 100000
  master list distance cutoff = 7.76
  ghost atom cutoff = 7.76
  binsize = 3.88, bins = 13 13 17
  1 neighbor lists, perpetual/occasional/extra = 1 0 0
  (1) pair sw, perpetual
      attributes: full, newton on
      pair build: full/bin/atomonly
      stencil: full/bin/3d
      bin: standard
Per MPI rank memory allocation (min/avg/max) = 4.083 | 4.202 | 4.508 Mbytes
Step Temp Press Volume TotEng KinEng PotEng c_1[4] c_3 
       0    133.23112   -1309.3276    149926.08   -35971.017    2687.4238   -38658.441            0          225 
      50    176.47449   -1725.6006    149529.61   -36399.497     3559.692   -39959.189    0.8805249    298.02917 
     100    168.03357   -1795.4214    149169.77   -36748.645    3389.4289   -40138.074    1.9314456    283.77419 
     150    163.92435   -1658.1485    148807.01   -37094.848    3306.5412   -40401.389    2.7615072    276.83455 
     200     155.3042   -1831.1072       148492   -37460.171    3132.6631   -40592.835    3.4959428     262.2769 
     250    152.90479   -1735.9429    148164.01   -37728.688    3084.2643   -40812.952    4.1881702    258.22479 
     300    150.19308   -1678.0628    147914.75   -37900.902    3029.5658   -40930.468    4.7532129    253.64526 
     350    151.67506    -1796.847    147659.44   -38077.332    3059.4591   -41136.791    5.3544554    256.14802 
     400    148.31467   -1599.2575    147394.77   -38217.264    2991.6763    -41208.94    6.0039546    250.47302 
     450    148.28278   -1422.7516    147139.89   -38323.719    2991.0329   -41314.752    6.4886611    250.41915 
     500    145.17244   -1328.2646    147038.96   -38451.973    2928.2939   -41380.267    6.8843964    245.16644 
     550    146.81907    -1363.498    146909.16   -38576.177    2961.5082   -41537.685    7.2900176    247.94725 
     600    144.80318   -1314.6396    146760.25   -38709.014    2920.8454   -41629.859    7.7429493    244.54282 
     650     141.0762   -1579.0079     146719.7   -38760.793     2845.668   -41606.461    8.2291757    238.24873 
     700    141.91149    -1350.731     146521.8   -38824.873    2862.5168    -41687.39     8.665827    239.65936 
     750    140.56214   -1154.1358    146401.19   -38898.967    2835.2988   -41734.265    9.0570355    237.38058 
     800    138.97532   -1280.2255    146319.79    -38920.25    2803.2909   -41723.541    9.4853282    234.70077 
     850    137.31931   -1206.6493    146118.58   -39023.847    2769.8872   -41793.735    9.8535207    231.90411 
     900    138.01199   -1347.0786    145934.07   -39090.432    2783.8593   -41874.291     10.15722     233.0739 
     950    135.15522   -1077.6074    145782.19   -39115.773     2726.235   -41842.008    10.385951     228.2494 
    1000    136.44545   -1209.6702    145625.02   -39159.022    2752.2604   -41911.282    10.691341    230.42833 
    1050    134.74818   -1007.6995    145597.92   -39194.221    2718.0247   -41912.245    11.045063    227.56201 
    1100    137.90725   -1201.7464    145561.02   -39188.082    2781.7466   -41969.829     11.30011    232.89702 
    1150    136.79082   -1078.0184    145551.71   -39274.181    2759.2271   -42033.408    11.526455    231.01161 
    1200    135.79712   -1233.1263    145539.94   -39327.955    2739.1828   -42067.138    11.723772    229.33344 
    1250    134.61238    -1210.317    145477.03    -39327.63    2715.2853   -42042.915    11.996391    227.33266 
    1300    135.66286   -1138.2271    145475.32   -39351.315    2736.4747    -42087.79    12.202814     229.1067 
    1350    134.85011   -1160.3807    145408.35   -39308.043    2720.0807   -42028.124      12.4556    227.73414 
    1400    137.43635   -1159.7645    145385.77   -39299.701     2772.248   -42071.949    12.684967    232.10176 
    1450    135.34934   -1202.8052    145320.26   -39379.403    2730.1506   -42109.553    12.909864    228.57723 
    1500    135.03021   -976.36822    145281.16   -39383.955    2723.7134   -42107.668    13.133703    228.03829 
    1550    136.33122   -1020.6151    145326.46    -39425.93    2749.9563   -42175.886    13.371525    230.23543 
    1600    135.40653   -1305.8328    145347.43   -39451.838    2731.3044   -42183.143     13.47937    228.67383 
    1650    131.48149   -979.93838    145437.05   -39453.594    2652.1317   -42105.725    13.662841    222.04523 
    1700    133.62618   -1182.8984    145412.14   -39451.206    2695.3926   -42146.598    13.897903    225.66717 
    1750    134.13351   -1271.8569    145314.42   -39527.014     2705.626    -42232.64    14.262608    226.52395 
    1800    130.45458   -1230.7253    145117.52   -39532.598    2631.4179   -42164.016    14.447161      220.311 
    1850    132.62138   -1288.6654    145062.95   -39550.626    2675.1247   -42225.751    14.583592    223.97028 
    1900    133.82562   -1114.4622    145042.71   -39570.882    2699.4155   -42270.297     14.78672    226.00398 
    1950    131.90554   -1173.0101    145095.02   -39555.924    2660.6854   -42216.609    15.075571    222.76137 
    2000    134.46306   -1124.5977    145078.27   -39561.639    2712.2735   -42273.913    15.283891     227.0805 
    2050    132.23328     -1239.92    145059.72   -39581.235    2667.2962   -42248.531    15.493819    223.31485 
    2100    133.43316   -1306.7807    144937.97   -39595.914    2691.4991   -42287.414    15.736515     225.3412 
    2150    133.73719   -1189.1155    144861.99    -39560.98    2697.6317   -42258.612    15.939346    225.85464 
    2200    132.72077   -1204.0349    144942.15   -39593.696    2677.1294   -42270.826    16.062331    224.13811 
    2250    136.12906   -1283.8443    145016.66   -39516.022    2745.8786     -42261.9    16.297801    229.89403 
    2300    135.53743   -1232.0016    144987.53    -39559.07    2733.9448   -42293.015    16.424469    228.89489 
    2350    134.14465   -1171.9169    144965.95   -39602.583    2705.8507   -42308.434    16.753494    226.54276 
    2400    134.76955   -1097.8361    144981.69   -39607.604    2718.4557   -42326.059    17.032831    227.59809 
    2450     133.9513   -1242.2292    144996.82    -39608.03    2701.9507   -42309.981    17.264781    226.21623 
    2500    132.99724   -1188.5883    144993.25   -39651.631    2682.7062   -42334.337    17.589767    224.60502 
    2550    134.18756     -1051.39    144998.61   -39587.782    2706.7163   -42294.498    17.837078    226.61523 
    2600    131.69733   -1147.3582    145013.09   -39600.402    2656.4856   -42256.888    18.055488    222.40975 
    2650    131.95414   -1126.2496     145036.8   -39589.494    2661.6656   -42251.159    18.330753    222.84344 
    2700    133.23228   -1299.8283    145039.63    -39597.55    2687.4471   -42284.997    18.540431    225.00195 
    2750    135.17217   -1016.9207    145086.98   -39588.498     2726.577   -42315.075    18.751468    228.27804 
    2800    133.36882   -1042.4191    145222.39   -39548.303    2690.2013   -42238.505    18.965544    225.23254 
    2850    132.68542   -1072.2994    145218.61   -39605.507    2676.4163   -42281.923     19.23457    224.07842 
    2900    131.18344   -1207.4528    145204.72   -39571.893    2646.1197   -42218.013    19.355417    221.54188 
    2950    134.47358   -978.68217    145231.24   -39562.889    2712.4857   -42275.374    19.518711    227.09826 
    3000    133.84318   -1130.1065    145325.56    -39607.09    2699.7698    -42306.86    19.640916    226.03364 
    3050    134.54917   -1057.0962    145409.35   -39542.696    2714.0104   -42256.706    19.776905    227.22591 
    3100    131.61988   -1199.4223    145427.08    -39539.88    2654.9233   -42194.803    19.989123    222.27895 
    3150     132.7915   -1036.6955    145381.24   -39585.929    2678.5561   -42264.485    20.143285    224.25757 
    3200    133.34542   -1284.3303    145347.29   -39595.548    2689.7293   -42285.278    20.374752    225.19302 
    3250     134.2947    -1069.216    145302.29   -39575.124    2708.8775   -42284.001    20.495368    226.79617 
    3300     134.5828   -1239.0118    145246.21   -39595.751    2714.6887   -42310.439      20.6272     227.2827 
    3350    131.07172   -1134.1837    145175.58   -39646.851    2643.8661   -42290.717    20.963185    221.35321 
    3400    132.86681   -1170.9308    145174.06   -39677.042    2680.0752   -42357.117    21.113646    224.38475 
    3450    131.46872   -1109.4216     145182.2   -39639.636    2651.8742    -42291.51    21.202519    222.02366 
    3500    133.86921     -1174.32    145190.97   -39577.772    2700.2948   -42278.067    21.410167     226.0776 
    3550    134.94879    -1177.934    145268.45   -39565.576    2722.0711   -42287.647    21.560676    227.90079 
    3600    134.06796    -1122.183     145380.6   -39559.183    2704.3038   -42263.487    21.664643    226.41325 
    3650    134.90279   -1286.9412    145342.97   -39571.628    2721.1433   -42292.771    21.842812    227.82311 
    3700    133.92594   -1094.2494    145431.59   -39583.216    2701.4392   -42284.656    21.952028    226.17341 
    3750    133.91745   -1205.3497    145389.45   -39583.497    2701.2678   -42284.765    22.066924    226.15907 
    3800    131.97428   -1214.9645     145338.2   -39618.078    2662.0719    -42280.15    22.342666    222.87745 
    3850     134.7276   -1121.1538    145341.22   -39656.467    2717.6096   -42374.077    22.529503    227.52725 
    3900    134.16164   -1186.0086    145284.14   -39649.483    2706.1935   -42355.677    22.744742    226.57146 
    3950    133.41787   -1131.0175    145329.82   -39651.412    2691.1907   -42342.602    22.995314    225.31537 
    4000    134.82433   -1018.5072    145365.22   -39618.601    2719.5606   -42338.162    23.159473     227.6906 
    4050    136.93406   -1191.6447    145382.11   -39604.955    2762.1164   -42367.071    23.373201    231.25351 
    4100     132.8524   -1142.6975    145349.79   -39614.428    2679.7846   -42294.213    23.463972    224.36042 
    4150    134.97832   -1187.0819    145368.93   -39600.143    2722.6667   -42322.809    23.634382    227.95065 
    4200    135.68124   -1239.4281    145350.73   -39636.102    2736.8456   -42372.947    23.904053    229.13775 
    4250    131.09854   -1344.3205    145183.88   -39715.251    2644.4072   -42359.658    24.272051    221.39851 
    4300    133.93714   -1045.4344    145125.98    -39753.25    2701.6649   -42454.915    24.563456    226.19231 
    4350    130.09324   -1164.1528    145120.24   -39725.918    2624.1291   -42350.047    24.833449    219.70076 
    4400    132.79062    -975.4777    145111.92   -39681.224    2678.5384   -42359.763     25.16023    224.25608 
    4450    136.74569   -1136.9379    145082.83   -39676.032    2758.3166   -42434.349     25.34837    230.93538 
    4500     134.2701   -1164.6888     145103.3     -39709.8    2708.3811   -42418.181    25.669147    226.75462 
    4550    131.69858   -1013.4597     145084.6   -39712.431    2656.5107   -42368.941    25.884402    222.41185 
    4600    135.04226   -1235.5734    145083.32   -39673.952    2723.9566   -42397.908    26.064094    228.05865 
    4650    134.69457   -1264.3505     145081.5   -39667.462    2716.9432   -42384.406    26.297551    227.47146 
    4700    136.31394   -1138.1626     145088.9   -39646.843    2749.6078   -42396.451    26.343758    230.20625 
    4750    136.37793   -1205.4237     145128.6   -39631.891    2750.8985   -42382.789    26.607232    230.31431 
    4800    134.76364   -1157.3128     145123.5   -39644.996    2718.3365   -42363.333    26.904255    227.58812 
    4850     134.0304   -1257.3133    145200.18   -39601.395    2703.5462   -42304.941    26.987673    226.34982 
    4900    134.64295    -1184.284    145244.81   -39643.994     2715.902   -42359.896    27.130371    227.38429 
    4950    132.10414   -1108.0545    145299.46   -39681.142    2664.6913   -42345.833    27.374875    223.09676 
    5000    133.05918   -962.50178    145301.32   -39674.005    2683.9556   -42357.961    27.622989    224.70963 
    5050    134.71203   -988.20563    145316.64   -39632.445    2717.2954    -42349.74    27.782793    227.50095 
    5100     133.6848    -1129.999    145282.32   -39664.113     2696.575   -42360.688    27.947425    225.76616 
    5150    132.94433   -1327.5421     145254.1    -39698.75    2681.6389   -42380.389    28.023303    224.51567 
    5200    133.09825   -1254.2754     145253.1   -39676.581    2684.7437   -42361.325    28.164902    224.77561 
    5250    133.33489   -1323.7818     145235.9   -39667.121     2689.517   -42356.638    28.399249    225.17525 
    5300    133.72947   -1298.6372    145183.49   -39676.343    2697.4761   -42373.819    28.419972    225.84161 
    5350    134.27805   -1269.9304    145115.92   -39680.965    2708.5417   -42389.506    28.684152    226.76805 
    5400    133.50666   -964.77954    145157.32   -39724.959    2692.9817   -42417.941    28.875788    225.46532 
    5450    133.26647   -1091.2992    145190.73   -39742.783    2688.1369    -42430.92    29.025236     225.0597 
    5500    133.31671   -1077.8452    145179.28   -39687.014    2689.1502   -42376.164    29.196015    225.14453 
    5550    132.82047   -1126.7052    145202.23   -39689.561    2679.1405   -42368.702    29.312764    224.30649 
    5600    136.37017   -1210.6901    145136.79   -39640.784    2750.7421   -42391.527    29.474846    230.30121 
    5650    132.83868   -1185.4107    145116.88   -39643.209    2679.5078   -42322.717    29.730679    224.33725 
    5700    136.05475   -1180.0338    145155.97   -39636.851    2744.3797   -42381.231    29.818736    229.76853 
    5750    134.76008   -958.86489    145167.34   -39651.901    2718.2646   -42370.165    30.065215    227.58209 
    5800    134.21575   -1100.5427    145214.15    -39685.17     2707.285   -42392.455    30.445914    226.66284 
    5850    133.73426   -1230.0917    145195.37   -39690.445    2697.5728   -42388.018    30.743825    225.84971 
    5900    132.66491   -1283.8468    145191.42   -39746.081    2676.0028   -42422.084    31.020394    224.04379 
    5950    133.32035   -1108.7416    145177.36    -39764.11    2689.2237   -42453.333     31.12186    225.15069 
    6000     131.6979   -1108.0377    145153.69   -39755.856     2656.497   -42412.353    31.247968    222.41071 
    6050    131.56344   -1140.3587    145148.04   -39761.267    2653.7849   -42415.052    31.399757    222.18363 
    6100    133.73104   -1150.0315     145128.8   -39807.091    2697.5077   -42504.599    31.443896    225.84426 
    6150    131.01474   -1339.7378    145014.21   -39812.775    2642.7169   -42455.492    31.529932    221.25699 
    6200    129.38402   -1088.8396     144961.8   -39863.373    2609.8233   -42473.196    31.530324    218.50303 
    6250    132.11507   -1045.6135     145035.7   -39832.104    2664.9119   -42497.016    31.611751    223.11523 
    6300    132.71199   -1223.7515    145066.44   -39856.738    2676.9524   -42533.691    31.766606     224.1233 
    6350    136.68271   -1224.0094    145057.69   -39817.854    2757.0463     -42574.9    32.016988    230.82903 
    6400    137.08054   -1215.8194    145042.83   -39789.029     2765.071   -42554.101    32.162296    231.50088 
    6450    134.66772   -963.65003    145130.13   -39789.477    2716.4016   -42505.878    32.315402    227.42611 
    6500    132.58918   -1124.7828    145206.83    -39826.66    2674.4751   -42501.135    32.440031    223.91589 
    6550    134.27582   -1045.1642    145276.36   -39848.602    2708.4966   -42557.099    32.645918    226.76429 
    6600    133.05956   -1036.6529    145363.55   -39847.653    2683.9632   -42531.616    32.806826    224.71026 
    6650    133.14143   -1223.0551    145307.71   -39819.101    2685.6147   -42504.716    32.993234    224.84854 
    6700     134.0228   -1131.2434    145271.63   -39758.612    2703.3929   -42462.005    33.092132    226.33698 
    6750    132.38863   -1076.1599    145386.91   -39853.099    2670.4298   -42523.529    33.222916    223.57721 
    6800    129.98198   -1017.6791    145463.34   -39845.839     2621.885   -42467.724    33.340559    219.51287 
    6850    136.62645   -1057.7161    145463.34   -39834.979    2755.9115    -42590.89    33.451655    230.73401 
    6900    132.91906    -980.7656    145530.66   -39829.383    2681.1293   -42510.513    33.777514      224.473 
    6950    133.97714   -1038.8943    145501.04   -39830.835    2702.4719   -42533.307    33.949365    226.25987 
    7000    132.54747   -1216.0329    145474.84   -39835.903    2673.6338   -42509.537    34.115479    223.84546 
    7050    131.98455   -1095.2325    145392.87   -39822.902     2662.279   -42485.181    34.508015    222.89479 
    7100    134.18583   -950.04357    145350.34   -39781.732    2706.6813   -42488.413    34.706205     226.6123 
    7150    131.63754   -964.54023    145362.18   -39861.244    2655.2794   -42516.523    34.817218    222.30876 
    7200    131.96953   -957.07105    145444.79   -39804.717    2661.9761   -42466.693    34.959438    222.86943 
    7250     136.0907   -1056.8838    145515.13   -39785.457    2745.1047   -42530.561    35.089276    229.82924 
    7300    131.23974   -939.06044    145492.65   -39801.999    2647.2554   -42449.254      35.2231    221.63697 
    7350    133.53219   -1131.2725    145505.73   -39740.541    2693.4968   -42434.038    35.329848    225.50845 
    7400    133.31867   -1098.4776    145510.14   -39818.554    2689.1898   -42507.744    35.482874    225.14785 
    7450    134.10502   -1111.2525     145589.4   -39812.595    2705.0514   -42517.646    35.631667    226.47584 
    7500    133.59031   -1088.8991    145605.07   -39785.235    2694.6691   -42479.904    35.722689     225.6066 
    7550    133.52517   -1019.8891    145698.46   -39743.411     2693.355   -42436.766    35.959772    225.49658 
    7600    132.96678   -1115.2825    145784.72   -39772.928    2682.0918    -42455.02    36.070598    224.55358 
    7650    134.87331   -1190.6836    145801.32   -39747.588    2720.5487   -42468.137    36.070929    227.77332 
    7700    132.39234   -1083.0167    145755.47   -39771.644    2670.5047   -42442.149    36.116332    223.58348 
    7750    135.01302   -1202.2875    145816.73   -39736.416    2723.3667   -42459.783    36.134633    228.00925 
    7800    133.17524   -1087.9248    145819.78   -39749.524    2686.2966   -42435.821    36.337815    224.90563 
    7850    136.79624   -1194.9025    145825.37    -39736.06    2759.3363   -42495.397    36.427493    231.02075 
    7900    132.22296   -1228.6762    145842.51   -39779.277     2667.088   -42446.365    36.512944    223.29742 
    7950    132.57115   -1141.1469    145807.84   -39736.679    2674.1114   -42410.791    36.646215    223.88544 
    8000    134.12431   -1118.1894    145834.17   -39745.598    2705.4405   -42451.038     37.01162    226.50841 
    8050    131.33347   -1415.3548     145788.5   -39804.561    2649.1461   -42453.707    37.234517    221.79526 
    8100    130.89707   -1340.7866    145733.92   -39797.108    2640.3433   -42437.452    37.468292    221.05826 
    8150    135.83349    -1220.233    145731.38   -39733.645    2739.9166   -42473.562    37.709978    229.39487 
    8200    132.11674    -1183.428    145624.93   -39791.974    2664.9454   -42456.919    37.952731    223.11803 
    8250    132.18556   -1405.9021    145514.02   -39776.427    2666.3337    -42442.76    38.142231    223.23426 
    8300    134.65965   -1257.5374    145389.51   -39732.819    2716.2389   -42449.058    38.391395     227.4125 
    8350    133.04625   -1182.6356    145279.89   -39748.776    2683.6947   -42432.471    38.646187    224.68779 
    8400    130.61727    -1135.997    145261.04   -39775.288    2634.6995   -42409.988    38.761298    220.58574 
    8450    131.53456   -894.11367    145299.35   -39797.379    2653.2022   -42450.581    38.933255    222.13485 
    8500    133.28614   -1021.2127    145356.34    -39776.06    2688.5336   -42464.593    39.003304    225.09291 
    8550    131.33142   -1190.4157    145314.83   -39802.423    2649.1048   -42451.528      39.3285     221.7918 
    8600    131.13656   -1230.0791    145251.08   -39810.587    2645.1741   -42455.762    39.522744    221.46272 
    8650    130.00148   -1225.0935    145184.91   -39848.127    2622.2782   -42470.406    39.575853    219.54579 
    8700     131.8591    -1168.296    145192.93    -39867.32    2659.7485   -42527.069    39.750444    222.68293 
    8750    128.56076   -1042.0412    145149.04   -39863.475    2593.2172   -42456.692    40.033864    217.11271 
    8800       133.68   -1095.3531    145116.15   -39839.699    2696.4782   -42536.177    40.031092    225.75806 
    8850    133.97713   -1166.5996    145117.09   -39807.516    2702.4716   -42509.987    40.167181    226.25985 
    8900    132.36686   -1199.0243    145112.63   -39787.291    2669.9906   -42457.281    40.292622    223.54043 
    8950    135.09083   -1103.6901    145059.52   -39723.048    2724.9362   -42447.984    40.496242    228.14066 
    9000    135.88235    -1295.167    145026.98   -39738.866    2740.9021   -42479.768    40.567641    229.47738 
    9050    132.03941   -1172.7853     145005.7   -39837.884    2663.3856    -42501.27    40.593144    222.98744 
    9100    131.69591   -1181.4548    145035.84   -39887.881    2656.4568   -42544.338    40.679541    222.40734 
    9150    133.84046   -1152.3007     145020.8   -39881.216    2699.7149   -42580.931    40.835137    226.02905 
    9200    134.34036   -921.86218    145044.52   -39810.523    2709.7985   -42520.322    40.965745    226.87328 
    9250    130.84325   -1122.0361       145177   -39872.548    2639.2578   -42511.806    41.020012    220.96738 
    9300     129.4392   -1155.8378    145158.25   -39833.151    2610.9364   -42444.087    41.184554    218.59622 
    9350    128.37492    -1178.846     145180.9   -39891.923    2589.4688   -42481.392      41.3464    216.79888 
    9400    129.83093   -1289.3046    145158.17   -39930.729    2618.8381   -42549.567    41.371782    219.25778 
    9450    133.01428   -1147.1517    145185.23   -39891.534    2683.0498   -42574.584    41.510465    224.63379 
    9500    129.21593   -1188.2917    145227.26   -39915.748    2606.4328    -42522.18     41.73969    218.21916 
    9550    129.49147   -1124.1164    145282.28   -39938.149    2611.9908    -42550.14    41.797356     218.6845 
    9600    129.99802   -1193.9468    145361.68   -39936.805    2622.2084   -42559.014    41.941529    219.53995 
    9650    129.98142   -1259.9544    145385.13   -39893.719    2621.8735   -42515.592    42.376225    219.51191 
    9700    128.71291   -1211.7335    145328.65   -39937.567    2596.2862   -42533.854    42.574291    217.36966 
    9750    131.98072   -968.95203    145363.45    -39960.66    2662.2019   -42622.862    42.716248    222.88833 
    9800    132.72287   -1343.1566    145319.91   -39998.744    2677.1718   -42675.916    42.755337    224.14166 
    9850    130.42732   -1214.2199    145332.75   -39963.494    2630.8679   -42594.362    42.978852    220.26495 
    9900    131.59767    -1248.979    145407.61   -39988.986    2654.4752   -42643.461    43.147827    222.24143 
    9950     129.9854   -1039.3825    145497.28   -39932.872    2621.9538   -42554.826     43.44511    219.51863 
   10000    132.28172   -1076.1742    145544.11   -39880.102    2668.2732   -42548.375    43.780132    223.39665 
   10050    131.67238   -1090.9581    145575.29   -39875.871    2655.9823   -42531.853    43.944765    222.36761 
   10100    132.27262   -1192.2048    145626.88   -39880.149    2668.0897   -42548.238    43.914428    223.38128 
   10150    128.95281   -1223.0597    145588.84   -39879.201    2601.1254   -42480.326     44.13982    217.77481 
   10200    135.76227   -1250.6673    145615.45   -39863.767      2738.48   -42602.247    44.244226    229.27459 
   10250    132.44241   -1221.5259    145548.94   -39909.793    2671.5145   -42581.307    44.469271    223.66802 
   10300    134.60457   -1124.6022    145583.65   -39864.691    2715.1279   -42579.819    44.694366    227.31948 
   10350    131.31789   -1221.5491    145594.54   -39890.285    2648.8318   -42539.117    44.958038    221.76895 
   10400    133.94208   -1115.9197     145580.1   -39866.073    2701.7647   -42567.838    44.952031    226.20067 
   10450    134.37092   -1165.3159    145521.47   -39844.461    2710.4149   -42554.876    45.098006    226.92489 
   10500    132.01198   -1276.8369     145525.2   -39903.107    2662.8323   -42565.939    45.288302    222.94112 
   10550    132.93467   -1155.1311    145505.04   -39845.653    2681.4441   -42527.097    45.403229    224.49936 
   10600    133.08863   -1087.7359     145519.7   -39887.302    2684.5496   -42571.852    45.528378    224.75936 
   10650    134.32458    -1216.559    145453.47    -39882.31      2709.48    -42591.79    45.577768    226.84662 
   10700    135.69166    -1125.578    145449.27   -39874.158    2737.0558   -42611.214     45.50351    229.15535 
   10750    133.79284   -1035.4218    145496.99    -39902.57    2698.7543   -42601.324    45.671085    225.94862 
   10800    133.33181   -1116.6122    145626.21    -39861.65    2689.4548   -42551.104    45.760723    225.17004 
   10850    130.34521   -1013.3601    145720.24   -39877.491    2629.2116   -42506.703    45.925225    220.12628 
   10900    132.76938   -1129.2185    145718.65   -39865.629    2678.1099   -42543.739    46.116883    224.22021 
   10950    132.29667   -1130.7023    145724.25   -39876.252    2668.5748   -42544.827    46.373393     223.4219 
   11000    134.26623   -1184.6519    145746.14   -39843.609    2708.3031   -42551.912    46.514301    226.74808 
   11050    135.75805   -1245.2954    145766.91   -39847.615    2738.3949   -42586.009    46.638581    229.26747 
   11100    131.41807   -1292.3771     145750.3   -39874.862    2650.8524   -42525.714    46.658618    221.93812 
   11150    136.28347   -1064.8141    145806.58   -39814.143    2748.9931   -42563.136    47.017662    230.15478 
   11200    134.68202   -1098.0239    145817.24   -39789.017    2716.6902   -42505.708    47.153775    227.45028 
   11250    136.06942   -1180.6921    145825.15   -39732.911    2744.6756   -42477.586    47.315893    229.79331 
   11300     136.5866   -1109.0179    145857.08   -39687.435    2755.1077   -42442.543     47.46713    230.66671 
   11350    134.05418   -1042.5075    145913.81    -39699.41    2704.0259   -42403.435    47.394643    226.38998 
   11400    135.99767   -1133.2627    145855.96    -39786.98    2743.2282   -42530.209    47.509136    229.67213 
   11450    133.42721   -1018.1275     145940.8   -39796.982    2691.3792   -42488.361    47.477114    225.33115 
   11500    133.90597   -1312.8193    145980.63    -39806.99    2701.0362   -42508.026    47.685886    226.13967 
   11550    134.03514   -1303.0485    145975.35   -39813.142    2703.6418   -42516.783    47.919608    226.35783 
   11600    133.70196   -1370.3298    145946.31   -39844.349    2696.9212    -42541.27     48.12324    225.79515 
   11650     133.6139   -1225.4169    145924.85   -39839.435    2695.1449    -42534.58     48.28789    225.64643 
   11700    132.25028   -1365.8809    145876.45   -39833.608    2667.6391   -42501.247    48.600846    223.34356 
   11750    132.57655   -1460.4978    145759.93    -39870.48    2674.2204     -42544.7    48.696283    223.89457 
   11800    132.16093   -1240.7447    145726.89   -39891.224    2665.8368   -42557.061    48.888374    223.19266 
   11850    132.02772   -1307.4432    145746.92   -39885.202    2663.1497   -42548.352    49.049333    222.96769 
   11900     130.1068   -1147.0497    145730.67   -39899.787    2624.4027    -42524.19     49.31748    219.72367 
   11950    133.21561   -1047.2394    145741.27   -39869.598    2687.1109   -42556.709    49.542043     224.9738 
   12000    133.74028   -1293.6167    145698.92   -39854.493    2697.6941   -42552.187    49.821623    225.85986 
   12050     134.6957   -1148.6286    145708.29   -39795.242    2716.9661   -42512.208    49.978369    227.47338 
   12100    133.63572   -1070.1784    145719.47   -39794.638     2695.585   -42490.223    50.413161    225.68328 
   12150    134.49763   -1185.4087     145732.7   -39758.213    2712.9707   -42471.184    50.541393    227.13887 
   12200    133.95683   -1064.6135    145755.94   -39760.816    2702.0622   -42462.878    50.647205    226.22557 
   12250    134.16237   -1142.5943    145813.61   -39791.524    2706.2081   -42497.732    50.879851    226.57268 
   12300    133.81785   -1231.2765    145776.67   -39808.087    2699.2587   -42507.346    51.066152    225.99086 
   12350    130.98807   -1189.4174    145793.18    -39836.41    2642.1788   -42478.589    51.206302    221.21194 
   12400    130.71207   -1283.7202    145701.64   -39826.491    2636.6116   -42463.103    51.320334    220.74583 
   12450    133.81218   -1349.7067    145684.86   -39802.457    2699.1445   -42501.602    51.683291    225.98129 
   12500    132.38368   -1333.9737    145579.94   -39797.903    2670.3299   -42468.233    52.003948    223.56884 
   12550    134.61387    -1103.222    145476.13   -39744.995    2715.3154    -42460.31    52.288714    227.33518 
   12600     134.5143   -1305.0963    145493.48    -39766.52     2713.307   -42479.827    52.250296    227.16703 
   12650    135.39411   -1087.8141    145424.61   -39747.312    2731.0539   -42478.366    52.330006    228.65285 
   12700    135.77991   -1039.2889    145497.96   -39777.448    2738.8358   -42516.284     52.48071    229.30438 
   12750      136.339   -886.54847    145609.33   -39781.576    2750.1132   -42531.689    52.395054    230.24856 
   12800    134.36164   -961.43011    145672.58    -39819.55    2710.2277   -42529.778    52.613499    226.90922 
   12850    133.90923   -970.77887    145746.89   -39826.785    2701.1021   -42527.887    52.966381    226.14519 
   12900    133.84824   -1241.5466    145795.28   -39820.365    2699.8718   -42520.237    52.998923    226.04219 
   12950    132.63233   -1006.6617    145787.36   -39820.575    2675.3454    -42495.92    53.109211    223.98876 
   13000    134.54904    -1115.169    145817.35   -39817.553    2714.0076   -42531.561     53.02022    227.22569 
   13050    135.25865   -1126.2331     145855.2   -39812.557    2728.3213   -42540.879    53.081264    228.42408 
   13100    134.86388   -1080.0637    145814.13   -39795.857    2720.3585   -42516.216    53.128101     227.7574 
   13150    137.07852    -1082.809    145793.43   -39745.461    2765.0303   -42510.491    53.046058    231.49747 
   13200    134.25909   -1028.3131    145810.97   -39794.579    2708.1592   -42502.739    53.256088    226.73603 
   13250    133.09031   -1114.1961    145805.11   -39844.435    2684.5835   -42529.019    53.394746     224.7622 
   13300     134.3904   -1087.4423    145813.73   -39841.018    2710.8078   -42551.826    53.715832    226.95779 
   13350    135.12036   -1102.0267    145820.19   -39816.648    2725.5319    -42542.18    53.908796    228.19054 
   13400    131.73358   -1192.2653    145866.18   -39850.276    2657.2166   -42507.492    53.994395    222.47095 
   13450     131.0169   -1114.1476    145828.65   -39860.023    2642.7604   -42502.783      54.1267    221.26063 
   13500    133.69992   -1039.0924    145937.97   -39828.249    2696.8801   -42525.129    54.199479    225.79171 
   13550    130.10787   -1123.2351     145962.7   -39871.598    2624.4244   -42496.023    54.269757    219.72548 
   13600    133.64982   -1071.5993    146016.64    -39879.91    2695.8695    -42575.78    54.121831     225.7071 
   13650     131.6722   -1034.4317    146026.25   -39897.132    2655.9786    -42553.11    54.230369     222.3673 
   13700    133.83644   -1136.2128    145965.04   -39887.163    2699.6337   -42586.796    54.729164    226.02225 
   13750    132.73108    -1355.201    145980.52   -39837.262    2677.3375     -42514.6    55.129467    224.15554 
   13800    133.67708   -1169.4355    145948.02   -39847.644    2696.4194   -42544.063    55.236487    225.75314 
   13850    134.55062   -1022.4726    145952.51    -39795.92    2714.0396   -42509.959     55.35816    227.22836 
   13900    132.65055    -1087.268    146008.42   -39815.978     2675.713   -42491.691    55.596769    224.01953 
   13950    132.89526   -1078.3564    146027.33   -39841.991     2680.649    -42522.64    55.739291    224.43279 
   14000    132.78063   -943.03514    146081.78   -39849.159    2678.3369   -42527.496     55.80783    224.23921 
   14050    134.30037   -814.21009    146144.87   -39831.915    2708.9918   -42540.907    55.932077    226.80574 
   14100    132.26338   -1158.5745    146194.97   -39843.722    2667.9033   -42511.625    56.110071    223.36568 
   14150    132.80421   -1158.8437    146133.08   -39848.386    2678.8126   -42527.199    56.140258    224.27904 
   14200     133.7031   -1149.9904    146119.57   -39853.085    2696.9441   -42550.029    56.014553    225.79707 
   14250    132.82514   -1172.8797    146095.54   -39861.665    2679.2346     -42540.9    55.957552    224.31437 
   14300    135.74481   -1088.4637    146149.46   -39823.124    2738.1278   -42561.252    56.230643     229.2451 
   14350    134.64428    -1118.152    146152.17   -39767.778    2715.9288   -42483.707    56.343313    227.38653 
   14400    134.08056   -1272.3164     146169.9   -39821.611    2704.5579   -42526.169    56.534331    226.43452 
   14450    132.42835   -1096.0629    146186.42   -39853.307    2671.2311   -42524.538    56.543206    223.64429 
   14500    132.45312   -1195.7741    146173.02   -39847.702    2671.7307   -42519.432     56.61779    223.68612 
   14550    132.39402   -1158.2165    146099.21   -39838.747    2670.5384   -42509.285    56.966215     223.5863 
   14600    132.88504   -1202.4991    146116.93   -39863.127     2680.443    -42543.57    57.156562    224.41554 
   14650    131.01208   -1228.8885    146061.38   -39879.484    2642.6632   -42522.147    57.442983    221.25249 
   14700    130.84362   -1080.8595    146052.66   -39885.184    2639.2651   -42524.449    57.677374      220.968 
   14750    131.23335   -836.60028    146136.63   -39918.861    2647.1264   -42565.987     57.90899    221.62617 
   14800    133.67979   -1069.4194    146240.93   -39893.119     2696.474   -42589.593    57.892469    225.75771 
   14850    133.26256   -1150.6384    146259.61    -39871.87     2688.058   -42559.928    57.803805     225.0531 
   14900    133.64419   -1199.4587    146180.93   -39855.474    2695.7559    -42551.23    57.939525    225.69759 
   14950    132.63757   -1072.1861    146170.75   -39879.981    2675.4513   -42555.432      58.0535    223.99762 
   15000    133.41773   -1275.7589    146205.12   -39922.811     2691.188   -42613.999    58.091423    225.31515 
   15050    133.85448   -1079.6546    146197.06   -39939.765    2699.9977   -42639.763    58.189843    226.05273 
   15100    132.42444   -1274.4026    146250.36   -39936.974    2671.1521   -42608.126    58.354668    223.63767 
   15150    130.84409    -1234.692    146261.58    -39947.76    2639.2746   -42587.035     58.42601    220.96879 
   15200    135.39176   -1441.6316    146225.33   -39857.216    2731.0063   -42588.222    58.636567    228.64887 
   15250    135.43858    -1124.213    146275.83   -39831.504    2731.9507   -42563.455    58.807282    228.72794 
   15300    131.75378   -1260.2618     146362.6   -39871.941    2657.6241   -42529.565    58.773857    222.50507 
   15350    133.57333     -1264.28    146361.22   -39844.699    2694.3265   -42539.025     58.89287    225.57791 
   15400    135.92231   -1075.6473    146400.44   -39833.638    2741.7081   -42575.346    58.920795    229.54486 
   15450    135.06618   -1313.9247    146446.88   -39883.944     2724.439   -42608.383    59.304721    228.09903 
   15500    133.10862   -1317.0962    146389.28   -39910.273    2684.9528   -42595.226     59.40678    224.79312 
   15550    135.56894   -1435.4783    146339.72   -39906.237    2734.5804   -42640.817    59.631861     228.9481 
   15600    132.38838   -1263.6846    146315.94   -39946.763    2670.4247   -42617.187    59.636121    223.57678 
   15650    130.83589   -1109.8788    146273.42   -39963.495    2639.1092   -42602.604     59.58095    220.95494 
   15700    133.79618   -1280.2944    146201.89   -39961.432    2698.8216   -42660.253    59.782068    225.95426 
   15750    132.80017   -1248.1104    146204.45    -39980.38    2678.7311   -42659.111    60.044516    224.27222 
   15800    134.43341   -1192.9521    146222.76   -39954.262    2711.6753   -42665.937    60.140844    227.03042 
   15850    134.67959   -1212.5288    146260.14   -39943.983    2716.6411   -42660.625    60.184537    227.44617 
   15900    136.19392   -1060.4701    146396.04   -39924.476    2747.1868   -42671.663    60.097014    230.00356 
   15950    132.61879   -1283.8945    146477.21   -39925.317    2675.0724    -42600.39     60.30932    223.96589 
   16000    133.71861    -1236.696    146474.62   -39922.536    2697.2569   -42619.793    60.500104    225.82326 
   16050    132.27949   -1235.2868    146451.93   -39919.889    2668.2283   -42588.118    60.518915    223.39289 
   16100    134.19199    -1198.226    146390.82   -39886.741    2706.8057   -42593.546    60.469933    226.62272 
   16150    135.76576    -1187.461    146358.71   -39856.028    2738.5503   -42594.579    60.387517    229.28048 
   16200     132.2804    -1115.533    146383.67   -39870.817    2668.2467   -42539.064    60.482889    223.39443 
   16250    134.01251   -1118.8844    146386.82   -39881.357    2703.1854   -42584.542    60.485315    226.31961 
   16300    134.04155    -1215.432    146375.92   -39854.544    2703.7712   -42558.315    60.677619    226.36866 
   16350    133.42171   -1206.8572     146298.2   -39884.701    2691.2682   -42575.969    60.822979    225.32187 
   16400    132.25884   -1338.9902    146366.51   -39897.827    2667.8119   -42565.638     60.87239    223.35802 
   16450    133.34516   -1149.3849     146372.8   -39950.937    2689.7241   -42640.661    60.699199    225.19259 
   16500     133.2828    -1083.683    146414.57    -39978.88    2688.4662   -42667.347    60.855975    225.08727 
   16550     132.5877   -1277.8559    146395.72   -40017.154    2674.4452   -42691.599    60.935796    223.91339 
   16600    129.85467   -1207.4365    146313.31   -40081.871     2619.317   -42701.188    61.062021    219.29787 
   16650    128.62859   -1354.2077    146241.27   -40053.633    2594.5856   -42648.218    61.308394    217.22728 
   16700    130.93801   -1227.5614    146150.03   -40052.885    2641.1691   -42694.055    61.239936     221.1274 
   16750    134.61377   -1309.6604    146135.97   -39976.427    2715.3133    -42691.74    61.374229      227.335 
   16800    132.65022   -1239.8653    146108.44   -39987.892    2675.7063   -42663.598     61.53479    224.01897 
   16850    129.46538   -1285.2073     146125.7   -40000.868    2611.4645   -42612.333     61.68821    218.64044 
   16900    131.44435   -1257.9823    146100.99   -40007.439    2651.3826   -42658.822    61.803654    221.98251 
   16950    130.70357   -1057.2541    146103.25   -39995.021    2636.4403   -42631.462    61.864244    220.73149 
   17000     132.0295   -1186.6404    146091.04   -40020.979    2663.1857   -42684.165    61.957043    222.97071 
   17050    133.33748   -1078.8714    146080.19   -39986.812    2689.5693   -42676.381    62.153161    225.17962 
   17100    134.70535   -1225.7971    146040.26   -39998.287    2717.1608   -42715.448    62.326212    227.48968 
   17150    132.10299   -1302.6427    146039.94   -40019.721    2664.6681   -42684.389    62.288789    223.09481 
   17200    132.18348   -1263.0752    146000.58   -39980.404    2666.2916   -42646.696    62.234797    223.23074 
   17250    131.69311   -1299.0336    145966.49   -40016.749    2656.4004    -42673.15    62.342095    222.40262 
   17300    131.42438   -940.61113    146044.74   -40004.552    2650.9798   -42655.531    62.456495    221.94879 
   17350    132.49309    -1185.433    146089.36   -40038.001    2672.5368   -42710.537    62.438803    223.75361 
   17400    135.21061   -1139.2038    146024.62   -40066.383    2727.3524   -42793.735    62.609362    228.34296 
   17450    129.76508   -1024.0649    146056.26   -40055.455    2617.5098   -42672.964    62.619015    219.14656 
   17500    131.35919   -1171.4199    146101.31   -39994.779    2649.6648   -42644.444    62.673619    221.83869 
   17550    132.39121   -1330.3397    146055.32   -39960.843    2670.4819   -42631.325     62.76219    223.58156 
   17600    132.78367   -1068.9505    146047.29    -39984.62    2678.3983   -42663.019    63.074489    224.24435 
   17650    132.86544   -1159.1887    146064.65   -40004.599    2680.0475   -42684.646    63.122121    224.38243 
   17700    134.16773   -1308.8406    146089.87   -39921.083    2706.3163   -42627.399    63.415365    226.58174 
   17750    134.39548   -1311.7322    146137.25   -39923.506    2710.9103   -42634.417    63.700197    226.96636 
   17800    134.13425   -964.72885    146188.59   -39910.861    2705.6409   -42616.502    63.653287    226.52519 
   17850    134.44087   -1283.6007    146167.22   -39911.547    2711.8258   -42623.372    63.804398    227.04302 
   17900    133.79007   -1113.4408    146154.02   -39886.295    2698.6985   -42584.993     64.10825    225.94396 
   17950    134.06214    -1173.844    146169.26   -39905.338    2704.1864   -42609.525    64.229069    226.40342 
   18000     133.6263   -1315.5293    146147.48   -39885.992    2695.3951   -42581.387    64.522888    225.66738 
   18050    134.05938   -1231.6293    146086.79    -39849.31    2704.1308   -42553.441    64.594677    226.39877 
   18100    136.92376   -1326.9637    146035.69    -39804.76    2761.9085   -42566.668    64.645111     231.2361 
   18150    133.32261   -1063.0238    146028.83   -39844.853    2689.2692   -42534.123     64.85199     225.1545 
   18200    134.82094   -1145.8954    146020.38   -39816.034    2719.4924   -42535.526    65.071699    227.68488 
   18250    136.89701    -1213.007    145949.82   -39858.401     2761.369    -42619.77       65.326    231.19093 
   18300    134.66853   -1132.4775    145814.28    -39824.74     2716.418   -42541.158    65.413866    227.42749 
   18350    136.73404   -1096.1872    145826.45   -39788.337    2758.0817   -42546.418    65.403363    230.91571 
   18400    133.50622   -1172.9359    145813.33   -39839.053    2692.9728   -42532.026    65.736856    225.46458 
   18450    134.23367   -1295.9021    145686.93   -39829.257    2707.6463   -42536.903     65.79265    226.69309 
   18500     131.7841   -1053.1612    145721.85   -39838.256    2658.2358   -42496.492    65.794039    222.55628 
   18550      134.168   -1180.6368    145738.08   -39839.852    2706.3218   -42546.174    66.050237     226.5822 
   18600    132.38293   -1205.2043    145689.37   -39873.782    2670.3149   -42544.097    66.346758    223.56759 
   18650    132.73472   -1181.6907    145720.28    -39904.88    2677.4108   -42582.291    66.330954    224.16168 
   18700    135.80438   -1034.1995    145782.53   -39874.661    2739.3294    -42613.99    66.426583    229.34571 
   18750    134.78733   -1173.8769    145861.84   -39891.454    2718.8143   -42610.268    66.474204    227.62811 
   18800    133.64341   -1145.4069    145902.15   -39924.539    2695.7401   -42620.279     66.76556    225.69626 
   18850    134.26432   -1248.7051    145859.54   -39895.859    2708.2645   -42604.124    67.007741    226.74485 
   18900    132.26783   -1136.7727    145848.75   -39884.046    2667.9931   -42552.039    66.875368    223.37319 
   18950    134.83301   -1311.3412    145867.18   -39830.164    2719.7358   -42549.899    66.947096    227.70526 
   19000    136.76773   -1108.4862     145876.4   -39817.605    2758.7613   -42576.366    66.970704    230.97261 
   19050    133.77549   -1166.7168    145947.23   -39782.829    2698.4043   -42481.234    66.984999    225.91933 
   19100    134.51951   -1229.2773     145991.1    -39854.75    2713.4122   -42568.162    67.225579    227.17583 
   19150    136.31118   -1026.0306    146002.33   -39819.391    2749.5521   -42568.943    67.439531    230.20158 
   19200    136.86861   -1231.3387    146066.83   -39803.435    2760.7961   -42564.231    67.528111    231.14297 
   19250    135.61262   -1349.8616    146085.86    -39786.35    2735.4613   -42521.811    67.593173    229.02185 
   19300     137.7483   -1310.4202    146020.34   -39785.915    2778.5404   -42564.455    67.888152    232.62858 
   19350    134.42756   -1270.7887    146006.56   -39848.026    2711.5573   -42559.584    68.213455    227.02054 
   19400    134.28521    -1280.749     146046.5   -39858.868     2708.686   -42567.554    68.164944    226.78014 
   19450    131.60534   -1158.3688    146024.28     -39898.2    2654.6299   -42552.829    68.248827    222.25438 
   19500    135.65732   -1262.8585    146014.72   -39895.791     2736.363   -42632.153    68.569549    229.09735 
   19550      132.296   -1289.8623    145990.57   -39913.159    2668.5613   -42581.721    68.822543    223.42077 
   19600    136.51797     -1229.85     145920.7   -39915.324    2753.7232   -42669.047    68.899668    230.55081 
   19650    135.75522   -1230.1899    145878.94   -39875.453    2738.3377   -42613.791    69.032262    229.26268 
   19700    134.46962   -1309.0941    145906.13   -39838.273    2712.4058   -42550.678     69.25439    227.09158 
   19750    135.62096   -1002.4015    145901.77   -39851.239    2735.6296   -42586.869    69.478393    229.03595 
   19800    135.04523   -1049.6026    145945.09   -39837.313    2724.0164   -42561.329    69.856404    228.06365 
   19850    132.90011   -1061.1478    145979.81   -39866.396    2680.7469   -42547.143     70.22529    224.44099 
   19900    134.01748   -1223.7222    146023.57   -39866.862    2703.2856   -42570.148    70.113118      226.328 
   19950    135.71668   -1346.9019    146035.23   -39825.551    2737.5603   -42563.111    70.189866    229.19759 
   20000    134.89352   -1153.3251     145986.9   -39861.632    2720.9563   -42582.588    70.354902    227.80745 
   20050     139.4886   -1099.0619    145988.87   -39857.905    2813.6444   -42671.549    70.424847     235.5676 
   20100    134.10752   -1061.3548    146009.41   -39852.249    2705.1017   -42557.351    70.698023    226.48005 
   20150    135.78738   -1080.6675    145972.46   -39889.733    2738.9865    -42628.72    70.978947      229.317 
   20200    135.35003   -1235.0549    145993.66   -39903.147    2730.1646   -42633.312    71.149213     228.5784 
   20250    132.62617   -1254.4649    145911.48   -39910.964    2675.2212   -42586.185    71.150958    223.97836 
   20300    133.41183   -1251.7447    145843.98   -39923.384    2691.0689   -42614.453    71.619489    225.30518 
   20350    134.23121   -1251.3936    145822.63   -39902.316    2707.5967   -42609.913    71.842695    226.68894 
   20400    134.46785   -1146.4052     145756.5   -39944.653    2712.3701   -42657.023    71.857402    227.08859 
   20450    129.77964   -951.86676    145790.88   -39948.677    2617.8035   -42566.481    71.853391    219.17116 
   20500    133.23156   -1150.7541    145815.15   -39966.748    2687.4326   -42654.181    71.728877    225.00074 
   20550    134.27876   -1234.9573    145741.97   -39949.436    2708.5558   -42657.992    72.002778    226.76924 
   20600    135.04543   -1177.8007    145688.55   -39938.604    2724.0204   -42662.625    72.093055    228.06399 
   20650    133.72003   -1230.5415    145674.96   -39983.714    2697.2857       -42681    72.341292    225.82567 
   20700     132.5528   -1094.5898    145672.12   -39941.881    2673.7413   -42615.622    72.650209    223.85445 
   20750    131.08008   -1114.4572    145702.45   -39903.838    2644.0348   -42547.873    72.813847    221.36733 
   20800    136.32865   -1020.6253    145722.51   -39817.314    2749.9044   -42567.219    72.943633    230.23108 
   20850    134.95372   -1133.9498    145768.31    -39827.18    2722.1706   -42549.351    73.116491    227.90911 
   20900    134.26258   -1021.7754    145763.84   -39817.165    2708.2295   -42525.395    73.382234    226.74192 
   20950    135.87262   -1068.3249    145803.97    -39811.66    2740.7059   -42552.366     73.43572    229.46095 
   21000    133.19965   -1110.4079    145796.32   -39847.631    2686.7891    -42534.42    73.405947    224.94686 
   21050    136.31834   -1190.0759    145755.37   -39830.736    2749.6965   -42580.432     73.45929    230.21367 
   21100    133.85271   -889.52062    145726.46   -39776.005    2699.9619   -42475.967    73.533829    226.04973 
   21150    135.44003   -942.24405     145769.3    -39749.43    2731.9801    -42481.41    73.637793     228.7304 
   21200    136.74718    -988.1274    145800.46   -39794.465    2758.3467   -42552.811     73.66849     230.9379 
   21250    134.54349   -874.42193    145828.01   -39785.471    2713.8959   -42499.367    73.759565    227.21633 
   21300    135.10135   -1120.4794    145900.92   -39804.531    2725.1485   -42529.679    74.084001    228.15844 
   21350    136.76983   -1127.9824    145892.18   -39780.304    2758.8037   -42539.107    74.259707    230.97616 
   21400    134.52735   -1176.8422    145887.99   -39830.959    2713.5702   -42544.529    74.318502    227.18906 
   21450    130.75738   -1106.6451    145884.08   -39827.351    2637.5257   -42464.876     74.57281    220.82236 
   21500    135.62391   -1092.4417    145948.01   -39761.026    2735.6891   -42496.715    74.664272    229.04093 
   21550    134.63646   -1100.2428    145959.74    -39734.99    2715.7711   -42450.761    74.624516    227.37333 
   21600     136.1345   -1173.5654    146010.03   -39716.472    2745.9884    -42462.46    74.720948    229.90322 
   21650    134.32061    -1253.484    146003.47   -39756.446       2709.4   -42465.846    74.821964    226.83992 
   21700    136.61106   -1271.2479    145897.61   -39816.145     2755.601   -42571.746    74.948209    230.70802 
   21750    134.34603   -1106.6911    145879.62   -39826.722    2709.9128   -42536.634     74.95429    226.88285 
   21800    134.35929   -1172.4607    145890.58   -39885.075    2710.1803   -42595.255    75.059025    226.90525 
   21850     132.0417   -1309.7742    145860.68   -39851.695    2663.4319   -42515.127    75.232203    222.99132 
   21900    132.85766    -1314.962     145828.4     -39851.8    2679.8907   -42531.691     75.44515     224.3693 
   21950    134.84368   -1246.2003    145777.71   -39843.122     2719.951   -42563.073    75.530503    227.72328 
   22000    133.61913   -1102.1935    145760.77    -39816.98    2695.2504    -42512.23    75.657647    225.65527 
   22050    133.44181   -1179.0303    145713.88   -39781.499    2691.6737   -42473.172    75.868571    225.35582 
   22100     136.4857   -1129.4478     145795.1   -39773.632    2753.0724   -42526.705    76.015378    230.49632 
   22150    133.75602   -1105.5222    145885.72   -39789.529    2698.0115    -42487.54    76.169708    225.88644 
   22200     134.3784   -1144.1961    145854.33   -39851.041    2710.5658   -42561.607    76.199031    226.93752 
   22250     133.0282   -1031.9959    145923.85    -39902.45    2683.3306   -42585.781    76.437957     224.6573 
   22300      132.536   -1076.2854    145988.89   -39944.505    2673.4025   -42617.908    77.033457    223.82609 
   22350    131.59128    -1143.139    145988.97   -39955.063    2654.3463    -42609.41    77.175221    222.23064 
   22400    133.74933   -1125.2715    146034.11   -39933.689    2697.8766   -42631.566    77.231258    225.87514 
   22450    132.36676   -1373.7508       146033   -39900.117    2669.9886   -42570.105    77.267245    223.54027 
   22500    133.48942   -1366.9391    145976.49    -39892.48    2692.6341   -42585.114    77.427912    225.43622 
   22550    131.87103   -1341.7166    145944.49   -39918.982    2659.9893   -42578.971    77.510149    222.70309 
   22600    130.24867   -1309.5573    145927.87    -39929.02    2627.2644   -42556.284    77.350573    219.96326 
   22650    131.66769   -1185.2937    145953.88   -39923.576    2655.8876   -42579.463    77.451907    222.35969 
   22700    133.80132   -1149.1908    145922.48   -39876.896    2698.9254   -42575.821    77.575838    225.96295 
   22750    135.16859   -1116.4215    145848.21   -39879.294    2726.5049   -42605.799    77.851982    228.27199 
   22800     134.3249    -1105.391    145814.22   -39881.219    2709.4865   -42590.705    77.961083    226.84716 
   22850    132.90502   -1102.8224    145763.44   -39869.517    2680.8459   -42550.363    78.062225    224.44928 
   22900    132.83912   -1155.8621    145811.28   -39878.026    2679.5166   -42557.543     78.08095    224.33798 
   22950    131.63346    -1333.092     145775.2    -39878.29    2655.1972   -42533.487    78.266174    222.30188 
   23000    131.57441   -1211.8587    145787.97   -39916.798    2654.0061   -42570.804    78.232045    222.20215 
   23050    134.50382   -1092.3241    145796.27   -39923.344    2713.0956   -42636.439    78.420021    227.14933 
   23100    131.58594   -1119.5902     145826.8    -39948.85    2654.2387   -42603.088    78.277827    222.22163 
   23150    133.94114   -1289.2137    145758.22   -39917.691    2701.7456   -42619.437    78.554233    226.19907 
   23200     135.6262   -1291.3709     145698.5   -39958.585    2735.7353    -42694.32    78.528009    229.04479 
   23250    133.60954    -1160.081    145656.14   -39920.376    2695.0569   -42615.433    78.674663    225.63907 
   23300    133.68924   -1287.1397    145660.04   -39876.902    2696.6646   -42573.566    78.861913    225.77367 
   23350    133.10546   -1076.8793    145693.06   -39917.134     2684.889   -42602.024    79.142443    224.78778 
   23400    134.21825   -1003.8614    145727.43   -39926.321    2707.3352   -42633.656    79.352846    226.66705 
   23450    133.31957   -1285.8838     145728.4   -39916.122    2689.2079    -42605.33     79.58415    225.14937 
   23500    131.92054   -1293.5083    145645.77   -39909.401    2660.9879   -42570.389    79.744863     222.7867 
   23550    130.66545   -956.63147    145642.55   -39947.078    2635.6712    -42582.75    79.824863     220.6671 
   23600    133.61392   -1174.2288    145663.83   -39902.346    2695.1453   -42597.492    80.035603    225.64647 
   23650    133.10191   -1214.0992    145659.22   -39835.876    2684.8175   -42520.693    80.236294    224.78179 
   23700    133.02942     -1183.17    145663.87   -39788.178    2683.3552   -42471.533    80.280958    224.65936 
   23750    134.49846   -999.51483    145666.98   -39798.702    2712.9875    -42511.69    80.201722    227.14027 
   23800    138.01611   -1155.7139    145768.02   -39817.448    2783.9426    -42601.39    80.459651    233.08087 
   23850    135.38297   -1205.6399    145735.49    -39873.63    2730.8291   -42604.459    80.682336    228.63403 
   23900    133.49634   -996.77253    145824.36   -39846.879    2692.7735   -42539.652    80.877912     225.4479 
   23950    134.60468   -948.33421    145886.96   -39832.778      2715.13   -42547.908    80.953793    227.31965 
   24000    133.34731   -1263.0936    145883.69   -39869.792    2689.7674   -42559.559     81.15674    225.19622 
   24050    134.00002    -961.9617    145830.52   -39857.027    2702.9335    -42559.96    81.512783    226.29852 
   24100    133.10425   -1248.9944    145779.68   -39906.144    2684.8646   -42591.008    81.769282    224.78574 
   24150    134.74474   -1131.0432    145753.54   -39910.272    2717.9553   -42628.227    81.839851    227.55619 
   24200    129.39263   -1201.0139    145740.82   -39983.024     2609.997   -42593.021    82.268976    218.51757 
   24250    130.99563   -1146.8945    145770.03   -39939.474    2642.3314   -42581.806    82.537419    221.22472 
   24300    131.12032   -1144.9116    145779.14   -39914.105    2644.8465   -42558.951    82.487254    221.43529 
   24350      133.017    -1176.427    145864.75    -39945.17    2683.1047   -42628.275    82.347381    224.63839 
   24400    130.84517   -1130.8566    145825.95   -39952.577    2639.2964   -42591.874    82.360564    220.97061 
   24450    129.84763   -1069.4391    145813.18   -39931.904    2619.1749   -42551.079    82.599969    219.28597 
   24500    134.19877   -1148.2387    145793.35   -39937.391    2706.9424   -42644.334    82.622914    226.63416 
   24550    130.48608   -1142.5515    145772.81   -39944.563    2632.0533   -42576.616    82.724012    220.36419 
   24600     132.9614   -1182.4441    145741.63   -39944.937    2681.9831    -42626.92    82.990551    224.54449 
   24650    134.52021   -1132.9237    145787.09   -39905.167    2713.4261   -42618.593    83.077684      227.177 
   24700    133.57708   -1045.9758    145819.41   -39857.169    2694.4022   -42551.572    83.246386    225.58425 
   24750    135.80485   -953.22129    145874.18   -39852.846    2739.3389   -42592.185    83.470264     229.3465 
   24800    132.31005   -1198.3367    145950.09   -39869.678    2668.8447   -42538.523    83.675244    223.44449 
   24850     135.1742   -1226.3637    145863.25   -39885.364    2726.6179   -42611.982    84.094093    228.28146 
   24900    135.11991   -1239.6369    145795.27   -39885.305    2725.5229   -42610.827    84.277709    228.18978 
   24950    132.35134   -1282.4069     145788.6   -39907.388    2669.6775   -42577.065    84.493576    223.51422 
   25000    135.39992   -1353.9331     145752.5   -39873.815     2731.171   -42604.986     84.70341    228.66266 
   25050    133.26728   -1040.7836    145778.05   -39947.978    2688.1531   -42636.131    84.851625    225.06106 
   25100    132.12859   -1263.7693    145846.76   -39961.348    2665.1846   -42626.532    84.805801    223.13806 
   25150    134.63298   -1119.5824    145819.71   -39933.129    2715.7009    -42648.83    84.869364    227.36745 
   25200    133.87853   -1215.2805    145843.45   -39946.935    2700.4828   -42647.417    84.850131    226.09334 
   25250    131.89726   -1050.0707    145847.45    -39983.99    2660.5183   -42644.508    85.139999    222.74738 
   25300    134.47685    -1257.378    145826.99   -39998.501    2712.5515   -42711.052    85.239163    227.10377 
   25350    135.08619   -1123.1833    145887.99   -39981.614    2724.8426   -42706.456    85.184032    228.13282 
   25400    132.22571    -1174.841    145980.11   -39973.702    2667.1434   -42640.845    85.344048    223.30206 
   25450    134.03436   -1177.2826    145980.42   -39975.035    2703.6261   -42678.661    85.521657    226.35651 
   25500    133.99819   -955.12272    146033.52   -39958.115    2702.8964   -42661.012    85.666043    226.29542 
   25550    135.90242   -1102.3588    146089.53   -39912.181    2741.3069   -42653.488    85.921513    229.51127 
   25600    134.62201   -1241.2557    146046.78   -39907.082    2715.4797   -42622.561    86.038187    227.34893 
   25650    133.72185   -1080.2842    146083.98   -39890.915    2697.3223   -42588.237    86.181533    225.82873 
   25700    133.08498   -1163.7383    146117.11   -39904.685     2684.476   -42589.161    86.050329     224.7532 
   25750    132.83589   -1195.8143    146077.78   -39900.185    2679.4516   -42579.637    86.007472    224.33254 
   25800    132.40343   -1343.6803    146078.03   -39943.495    2670.7283   -42614.223    86.241357     223.6022 
   25850    133.73367   -1207.2893    146059.44   -39873.035    2697.5608   -42570.596     86.23197     225.8487 
   25900    129.87334   -1149.1449    145999.08   -39947.042    2619.6934   -42566.735    86.284266    219.32939 
   25950    130.97126   -1257.1833     145987.6   -39983.355    2641.8398   -42625.195    86.307136    221.18355 
   26000    132.06278   -958.65491    146091.25   -39991.176    2663.8571   -42655.033    86.426733    223.02691 
   26050    130.39017   -1094.2839    146206.21   -39983.048    2630.1186   -42613.167    86.410505    220.20221 
   26100    134.16071   -1223.0735    146263.43   -39958.858    2706.1747   -42665.032    86.802825    226.56989 
   26150    134.38929   -1333.2134    146223.28   -39975.265    2710.7854   -42686.051    86.916819    226.95591 
   26200    134.18244   -1232.0208    146190.98   -39955.573    2706.6129   -42662.186    86.964558    226.60657 
   26250    132.49136   -1197.7328    146153.06   -39997.104    2672.5019   -42669.606    87.073297    223.75069 
   26300    132.97021   -1091.5503    146112.75   -39995.424    2682.1609   -42677.584    87.101253    224.55937 
   26350    133.15795    -1085.109    146029.97   -39981.944    2685.9479   -42667.891    87.320918    224.87643 
   26400    132.36433   -1095.5575    146003.34   -39967.477    2669.9397   -42637.416    87.535041    223.53617 
   26450    135.22324   -984.09168    145916.63   -39912.836    2727.6072   -42640.443    87.473454    228.36428 
   26500    130.36539   -1053.5781    145911.12   -39917.097    2629.6188   -42546.715    87.203189    220.16037 
   26550    136.27472   -1243.1038    145888.64   -39901.344    2748.8168   -42650.161    87.511672    230.14002 
   26600    135.03138   -1216.3783    145874.74   -39904.373    2723.7371   -42628.111     87.72925    228.04027 
   26650    135.22607   -964.91483     145882.1   -39929.146    2727.6642    -42656.81    87.838194    228.36905 
   26700    133.15559   -1144.8344     145943.3   -40000.143    2685.9003   -42686.043    87.918624    224.87245 
   26750    132.46865   -1172.0262    145905.83   -39955.693    2672.0438   -42627.736    88.288038    223.71234 
   26800    132.87291   -1097.9558    145873.86   -39923.732    2680.1983    -42603.93    88.361799    224.39506 
   26850    131.57375   -1074.1846    145909.03   -39946.272    2653.9927   -42600.264    88.376134    222.20104 
   26900    132.44821   -1255.5453    145885.15   -39896.482    2671.6315   -42568.114     88.85314    223.67782 
   26950    133.30537   -1224.6084    145812.97   -39926.964    2688.9215   -42615.886    89.078389    225.12539 
   27000    134.35729   -1255.1071    145795.61   -39919.242      2710.14   -42629.382    89.176976    226.90187 
   27050      131.861   -1198.7822    145747.15   -39941.417    2659.7868   -42601.204     89.31617    222.68614 
   27100    133.43019   -1190.7974    145755.61   -39964.846    2691.4392   -42656.286    89.128545    225.33618 
   27150    131.70202   -1241.7043    145777.44   -39940.764    2656.5801   -42597.344    89.364501    222.41766 
   27200    134.16145   -1170.2461    145797.71   -39939.501    2706.1897   -42645.691    89.426041    226.57114 
   27250    132.11272   -1307.4668    145747.74   -39942.445    2664.8643   -42607.309    89.446327    223.11125 
   27300    131.68124    -1163.051    145788.58    -39967.76    2656.1609   -42623.921    89.455025    222.38257 
   27350    131.93861   -1159.3401    145871.69   -39978.931    2661.3524   -42640.283    89.801347    222.81721 
   27400    130.80444   -1100.9893    145833.34   -39912.759     2638.475   -42551.234    89.718161    220.90184 
   27450    134.46562   -1141.1741    145751.28   -39879.749     2712.325   -42592.074    89.757854    227.08481 
   27500    134.45674   -1247.2763    145758.94   -39949.839    2712.1459   -42661.985     89.90536    227.06981 
   27550    130.83674   -1043.6856    145772.51   -39970.767    2639.1264   -42609.893    89.940732    220.95638 
   27600    134.05209   -1240.2657    145835.85   -40010.955    2703.9837   -42714.939     90.10936    226.38645 
   27650    133.08476   -1274.4193    145820.28   -40003.689    2684.4716   -42688.161    90.263059    224.75283 
   27700     130.6312   -1014.6809    145783.28   -40003.345    2634.9805   -42638.325    90.295892    220.60927 
   27750    130.48244   -868.07242    145860.43   -39988.682    2631.9797   -42620.662    90.319274    220.35803 
   27800    134.18366   -1137.7538    145905.12   -39961.213    2706.6376   -42667.851    90.314266    226.60864 
   27850    133.09753    -1181.376    145879.72   -39935.298    2684.7291   -42620.027    90.548923    224.77439 
   27900    133.66277   -1171.0632    145852.69   -39934.319    2696.1307    -42630.45    90.600422    225.72897 
   27950    132.60302   -1166.7987    145860.65   -39982.945    2674.7542   -42657.699    90.944053    223.93926 
   28000    134.02791   -1274.4377    145911.89   -39963.867     2703.496   -42667.363    91.152714    226.34562 
   28050    133.20179   -1218.2058    145847.96   -39991.463    2686.8322   -42678.295    91.483537    224.95046 
   28100    133.66725   -1206.8915    145841.09   -39999.742     2696.221   -42695.963    91.615799    225.73653 
   28150    131.24143   -1148.7114    145842.45   -40015.285    2647.2896   -42662.574    91.784763    221.63983 
   28200    130.54854   -1175.3659    145837.09   -39975.877    2633.3131    -42609.19    92.073892    220.46967 
   28250    132.53577   -1175.8159    145821.21   -39910.556    2673.3977   -42583.954    92.362914    223.82569 
   28300    136.09929   -1281.3801    145847.24   -39897.911     2745.278   -42643.189    92.607797    229.84374 
   28350    133.42398   -1027.9337    145869.41   -39942.665     2691.314   -42633.979    92.695156     225.3257 
   28400    130.99167   -1105.2466     145892.4   -39940.011    2642.2516   -42582.263     93.12717    221.21803 
   28450    131.38065   -1335.7389    145882.15   -39967.214    2650.0977   -42617.312    93.100426    221.87493 
   28500    133.14901   -961.58426    145975.14   -39933.215    2685.7675   -42618.982    93.310919    224.86133 
   28550    130.89779   -1331.0137    145969.58   -39963.342    2640.3578     -42603.7    93.678441    221.05948 
   28600    131.97557   -1202.4043    145940.11   -39966.225    2662.0979   -42628.323    93.621859    222.87963 
   28650    129.70257   -1185.0041     145912.8   -39978.068    2616.2488   -42594.317     93.75163    219.04099 
   28700    130.25585   -941.07507     145982.8   -40008.903    2627.4093   -42636.313    93.662155    219.97539 
   28750    130.39348   -1276.8304     145999.3   -40036.511    2630.1853   -42666.696    93.714611     220.2078 
   28800    131.72755     -1278.27    145961.86   -40027.702    2657.0951   -42684.797    94.208655    222.46078 
   28850    130.53725   -1215.7842    146018.78   -40015.456    2633.0854   -42648.541    94.372976    220.45061 
   28900    132.57254   -1352.9066    145999.83   -40035.331    2674.1395   -42709.471    94.680424    223.88779 
   28950    130.01961   -1279.7332    146011.88   -40015.496     2622.644    -42638.14    94.746126    219.57642 
   29000    132.67752   -1227.8918    146016.76   -40017.319    2676.2571   -42693.576    94.916329    224.06509 
   29050    135.39789    -1104.783    146015.22   -39927.064      2731.13   -42658.194    95.174233    228.65922 
   29100    136.55414   -1045.4702    146075.21   -39935.445    2754.4529   -42689.898     95.22327     230.6119 
   29150     131.5719    -1157.424    146079.39   -39963.827    2653.9553   -42617.782     95.39526    222.19791 
   29200    131.73783    -1090.734    146088.03   -39979.231    2657.3025   -42636.534    95.601967    222.47814 
   29250    131.88833   -1067.3748     146061.2   -39951.189    2660.3381   -42611.527    95.882073     222.7323 
   29300    133.16032   -1131.0514    146037.76   -39970.622    2685.9957   -42656.617    96.141507    224.88044 
   29350    133.67989    -997.2362    146078.59   -39940.454    2696.4759    -42636.93    96.296018    225.75787 
   29400     131.9616   -1150.3181    146121.94   -39932.249    2661.8161   -42594.065    96.406396    222.85604 
   29450    134.15637   -1162.6042    146141.75   -39882.167    2706.0872   -42588.254    96.690578    226.56256 
   29500    133.27847   -1113.2947    146099.06   -39902.495    2688.3789   -42590.874    96.765709    225.07996 
   29550    131.46539   -1157.3264    146086.18   -39903.328     2651.807   -42555.135    96.795142    222.01804 
   29600    133.43491   -1243.3004    146013.35   -39952.631    2691.5345   -42644.165    96.920492    225.34416 
   29650    133.77076   -1143.8147    146054.29   -39966.247    2698.3089   -42664.556    97.157947    225.91133 
   29700    131.84511   -1087.4955    146010.37   -40034.857    2659.4665   -42694.324    97.233956    222.65932 
   29750    134.13741   -1101.0056    146078.68   -40036.474    2705.7047   -42742.179    97.439969    226.53053 
   29800    132.67614    -1099.567    146149.18   -40019.719    2676.2292   -42695.948    97.838634    224.06275 
   29850    131.63802   -1145.7003    146202.47   -40067.493    2655.2892   -42722.782    98.001797    222.30958 
   29900    131.00432   -1205.8851    146187.28   -40088.353    2642.5068    -42730.86    97.879313    221.23939 
   29950    132.36784   -1278.6756     146223.5   -40072.357    2670.0104   -42742.367      98.1417    223.54209 
   30000    131.90101   -1197.5376    146204.92    -39976.42     2660.594   -42637.014    98.223013    222.75372 
   30050    133.69418   -1013.3816    146296.16   -39940.756    2696.7642    -42637.52    98.015538    225.78201 
   30100    133.89447    -1009.239    146325.03    -39939.82    2700.8043   -42640.624     98.21322    226.12026 
   30150    132.05963   -1228.5194    146314.66   -39969.274    2663.7934   -42633.067    98.264033    223.02158 
   30200    132.17012   -1274.5212    146239.79   -40007.131    2666.0223   -42673.154    98.205591    223.20819 
   30250    132.03287    -1178.961    146222.15     -39989.9    2663.2537   -42653.154    98.537457     222.9764 
   30300    132.06843   -1295.3442    146171.65   -39984.659    2663.9709   -42648.629     98.77512    223.03645 
   30350    132.47268   -1195.4614     146088.2   -40026.677    2672.1252   -42698.802    98.924975    223.71915 
   30400    131.38961   -1052.1172    146179.91   -40020.024    2650.2785   -42670.302    99.110882    221.89007 
   30450     132.8381   -1415.0986    146171.78   -39959.627    2679.4961   -42639.123    99.492987    224.33626 
   30500    133.83081   -1198.5846    146135.35    -39936.31    2699.5202    -42635.83    99.770391    226.01275 
   30550    132.70959   -1184.4338    146141.62   -39971.262     2676.904   -42648.166     99.97956    224.11925 
   30600     129.7986   -1160.5388    146156.56   -40036.387     2618.186   -42654.573    99.993829    219.20318 
   30650    130.94817   -1408.0157    146086.34   -40029.282    2641.3741   -42670.656    100.10293    221.14457 
   30700    132.12098   -1367.2275     146090.5   -40039.122    2665.0309   -42704.153    100.28204    223.12519 
   30750    133.59142   -1125.7108    146101.67   -39985.612    2694.6914   -42680.304    100.39955    225.60846 
   30800    133.02527   -1006.0321    146112.41   -39951.174    2683.2716   -42634.445    100.34354    224.65236 
   30850    132.81224   -1217.7994    146137.24   -39969.683    2678.9746   -42648.658    100.59531     224.2926 
   30900    131.89425   -1126.6342    146094.28   -39975.199    2660.4577   -42635.657    100.73985     222.7423 
   30950    133.12855   -1211.4147    146058.05   -39959.963    2685.3549   -42645.318     100.7538    224.82678 
   31000    134.65707   -1087.0099    146063.41    -39967.08    2716.1868   -42683.267    101.16041    227.40813 
   31050    134.69324   -1089.6389    146098.27   -39964.764    2716.9165   -42681.681    101.36463    227.46923 
   31100    133.16352   -997.97205    146157.89   -39981.431    2686.0601   -42667.491     101.5654    224.88583 
   31150    133.73732   -1201.7111     146204.1   -39973.204    2697.6345   -42670.839    101.90849    225.85487 
   31200    133.72936   -1260.3955    146194.68   -39950.221    2697.4739   -42647.695    102.02143    225.84142 
   31250    134.11633   -1304.2184    146155.44   -39967.153    2705.2796   -42672.433    102.15312    226.49494 
   31300    133.81243   -1157.6655    146155.88   -39948.441    2699.1494    -42647.59    102.03821     225.9817 
   31350    134.19618   -1243.0601    146153.36   -39966.577    2706.8901   -42673.467    102.04271    226.62979 
   31400    133.00474   -1100.3727    146209.04    -39977.98    2682.8574   -42660.837    101.96023    224.61769 
   31450    133.55768   -1116.0067    146242.15   -40021.412    2694.0109   -42715.423    102.17831    225.55149 
   31500    131.62676   -1042.8038    146205.28   -39993.912     2655.062   -42648.974    102.31485    222.29057 
   31550    132.04308   -1294.7178    146161.67   -40078.865    2663.4596   -42742.324    102.60642    222.99364 
   31600    133.40557   -1204.2454    146074.44   -40057.952    2690.9426   -42748.894    102.83395    225.29461 
   31650    132.34914   -985.14006    146097.75   -40021.016    2669.6333   -42690.649    103.04479    223.51052 
   31700    132.10901   -1213.7319    146141.25   -40039.238    2664.7896   -42704.027    103.14317    223.10499 
   31750    130.04588   -1171.8062    146106.83   -40072.772    2623.1738   -42695.946    103.42212    219.62077 
   31800    133.08507   -1096.4474    146164.05   -40059.978    2684.4778   -42744.456    103.57187    224.75335 
   31850    132.18135   -988.11143    146186.91   -40085.177    2666.2488   -42751.426    103.73916    223.22716 
   31900    132.64263   -1086.8474    146201.07   -40059.006    2675.5533   -42734.559     103.7545    224.00616 
   31950    133.12091   -1118.2565    146228.98   -40067.988    2685.2007   -42753.189      103.889    224.81388 
   32000    132.19321   -1078.2306    146163.49   -40094.397     2666.488   -42760.885    104.04083    223.24719 
   32050    131.25972   -1223.4291    146142.28   -40147.094    2647.6585   -42794.753    104.04846    221.67071 
   32100    132.30701   -1186.3315    146108.77   -40134.234    2668.7834   -42803.018    104.34618    223.43936 
   32150    133.88946    -1163.336    146035.98   -40121.505    2700.7033   -42822.208    104.38778     226.1118 
   32200    130.08959   -1050.1655    146047.71   -40155.964    2624.0555    -42780.02    104.41047    219.69459 
   32250    134.36183   -1169.8862    146083.42   -40115.889    2710.2315   -42826.121    104.25462    226.90953 
   32300    135.22577   -1207.8622    146067.28   -40076.291    2727.6581   -42803.949    104.29716    228.36855 
   32350    133.93989    -1017.872    146078.25   -40048.192    2701.7204   -42749.912    104.30036    226.19696 
   32400    135.62383   -1122.2428    146139.95   -40070.098    2735.6875   -42805.786    104.36291    229.04079 
   32450    134.01474   -992.30472    146245.47    -40093.88    2703.2302    -42797.11    104.46404    226.32337 
   32500    131.80282   -1154.7538     146271.2   -40086.648    2658.6133   -42745.261    104.60428    222.58788 
   32550     132.5055   -1081.5093    146266.09   -40059.398    2672.7873   -42732.185    104.64908    223.77458 
   32600    136.47716   -979.95547     146288.1   -40028.892    2752.9001   -42781.792    104.99755    230.48189 
   32650    130.49068   -963.98039    146265.56   -40125.134     2632.146    -42757.28    105.15097    220.37196 
   32700    130.16177   -991.61406    146295.26   -40083.321    2625.5115   -42708.832    105.20863     219.8165 
   32750    132.30755   -1118.4886    146392.53   -40048.577    2668.7944   -42717.371    105.11872    223.44028 
   32800    133.84308   -1121.8422    146330.63   -40007.873    2699.7677    -42707.64    105.22916    226.03347 
   32850    134.67854   -1229.9435    146357.11   -39981.046    2716.6199   -42697.666    105.32669     227.4444 
   32900    135.09375   -1177.5776    146349.19   -40059.518    2724.9952   -42784.513    105.46459     228.1456 
   32950    134.62874   -1217.2477    146274.33   -40025.405    2715.6154   -42741.021    105.52628    227.36029 
   33000    134.31666   -915.50357    146255.01   -40052.708    2709.3205   -42762.028    106.00774    226.83326 
   33050    131.30162   -1120.2163    146276.26   -40069.323    2648.5036   -42717.827    106.06787    221.74147 
   33100    134.06379   -997.53116    146241.99   -40040.895    2704.2197   -42745.115    105.80225    226.40621 
   33150    132.15219   -1296.6263     146208.6   -40069.698    2665.6605   -42735.359    105.55973     223.1779 
   33200    131.88284   -1248.7316    146148.15   -40109.118    2660.2274   -42769.345    105.74927    222.72302 
   33250    133.95404   -1224.5976    146098.38    -40087.76    2702.0059   -42789.766    105.75958    226.22086 
   33300     132.8119   -1111.6707    146113.25   -40112.932    2678.9676     -42791.9    105.79904    224.29201 
   33350     130.3819   -1057.0562    146135.65   -40058.405    2629.9518   -42688.356    105.82501    220.18825 
   33400    133.09036   -833.14493    146217.05   -40031.866    2684.5845   -42716.451    105.96989    224.76228 
   33450    133.09306   -1295.8075    146275.93    -40023.74    2684.6389   -42708.379    106.24032    224.76684 
   33500    133.12737   -1133.6028    146306.99    -40018.35     2685.331   -42703.681    106.43151    224.82478 
   33550    129.75786   -1181.7719    146274.65   -40091.182    2617.3641   -42708.546    106.25132    219.13437 
   33600    131.08512   -1250.7912    146282.18   -40087.496    2644.1365   -42731.632    106.29694    221.37584 
   33650    132.42151   -1057.7129    146279.85   -40062.917    2671.0931    -42734.01    106.40496    223.63274 
   33700    132.84441   -1142.9807    146235.78   -40043.456    2679.6234   -42723.079    106.37506    224.34692 
   33750     132.8957   -1075.2459    146202.14   -40039.041     2680.658   -42719.699    106.52129    224.43354 
   33800    133.64066   -1209.2454    146160.55    -40047.36    2695.6847   -42743.045    106.39355    225.69163 
   33850    132.94043   -1214.7672    146123.77   -40037.855    2681.5603   -42719.415    106.50042    224.50909 
   33900    133.69612    -1150.822    146105.22   -40038.072    2696.8035   -42734.876    106.76538    225.78529 
   33950      133.434   -1016.7929    146143.49   -40021.755    2691.5161   -42713.271    107.02473    225.34262 
[...]
   92000    136.35648   -1181.7736     146405.5   -39829.776    2750.4659   -42580.242    247.85898    230.27809 
   92050    136.33831   -1361.7629    146273.87   -39875.649    2750.0993   -42625.748    247.91034     230.2474 
   92100    134.86421   -1112.3498    146207.19   -39910.202    2720.3651   -42630.567    248.38056    227.75795 
   92150    134.62137   -1089.4102    146249.42   -39889.687    2715.4667   -42605.154    248.76917    227.34785 
   92200    135.40828   -1199.2629    146243.64   -39911.332    2731.3396   -42642.672    249.00624    228.67678 
   92250    134.46604   -1221.8816    146269.28   -39896.203    2712.3335   -42608.536    249.32894    227.08552 
   92300     131.2492   -1044.2809    146212.22   -39908.177    2647.4461   -42555.623     249.3033    221.65294 
   92350     133.0431   -955.00523    146144.01   -39935.405    2683.6312   -42619.036      249.703    224.68247 
   92400    134.82979   -1164.8287     146090.8   -39973.164    2719.6707   -42692.835    249.94545    227.69982 
   92450    136.58791   -1277.4677    146124.05   -39950.399    2755.1342   -42705.533     250.5398    230.66893 
   92500    132.19075   -1115.5352    146139.08   -39985.774    2666.4383   -42652.212    250.53752    223.24303 
   92550    134.21977      -1129.2    146196.83   -39952.687    2707.3659   -42660.053    250.75979    226.66962 
   92600     133.7705   -1344.8436    146152.24   -39936.411    2698.3036   -42634.715     250.8492    225.91089 
   92650    131.94798   -1274.3521    146081.81   -39999.209    2661.5413    -42660.75    251.12771    222.83303 
   92700     130.5349   -1055.0416    146095.35   -40042.342    2633.0379   -42675.379    250.96754    220.44663 
   92750    132.72928   -1081.0295    146104.95   -40009.191    2677.3011   -42686.492     250.9968    224.15249 
   92800    133.29343   -1081.7625    146082.54   -39997.828    2688.6806   -42686.509    251.09741    225.10522 
   92850    133.21417   -1214.3057    146080.29   -39982.322    2687.0818   -42669.403    251.60509    224.97137 
   92900    132.58489   -1160.8289    146094.77   -39960.508    2674.3885   -42634.897    251.54785    223.90864 
   92950    134.50622   -1039.5066     146081.8   -39944.759    2713.1439   -42657.903    251.58971    227.15337 
   93000    134.91662   -1183.4233    146081.48    -39939.15    2721.4222   -42660.572    251.62567    227.84646 
   93050    132.93963   -1180.6738    146115.35   -39948.211     2681.544   -42629.755    251.63914    224.50772 
   93100    134.47687   -1128.6584    146116.35   -39922.387    2712.5521   -42634.939    251.84648    227.10382 
   93150    129.75658   -1038.8874    146132.96   -39963.322    2617.3383    -42580.66    252.02256    219.13221 
   93200    133.13385   -1110.1308    146178.78   -39962.249    2685.4617    -42647.71    251.96498    224.83573 
   93250    131.17645   -1127.9502    146091.04   -39950.177    2645.9788   -42596.156    251.83937    221.53008 
   93300    130.94703   -1217.4809    146001.44   -39970.935     2641.351   -42612.286     252.0631    221.14263 
   93350    130.74811   -1235.5327    145907.23   -39976.636    2637.3387   -42613.975    252.36193     220.8067 
   93400    130.86762   -1250.6556    145901.11   -39954.789    2639.7493   -42594.538    252.59713    221.00853 
   93450    131.61143   -939.42687    145921.73   -39962.204    2654.7528   -42616.957    252.32037    222.26467 
   93500    130.61905   -1088.9874    145982.24   -39979.467    2634.7354   -42614.203    252.48727    220.58875 
   93550    135.68685   -1137.0654    146002.89   -39931.829    2736.9587   -42668.788     252.7361    229.14722 
   93600     134.1367   -1223.1084    146040.06   -39881.595    2705.6903   -42587.285    252.80912    226.52933 
   93650    132.73732   -1130.2933    146051.91   -39914.287    2677.4633   -42591.751    252.58099    224.16607 
   93700    131.62867   -1302.4172    146050.05   -39976.311    2655.1005   -42631.412    252.85959    222.29379 
   93750    129.74025   -1313.4636    145961.59   -40000.636    2617.0091   -42617.645    253.06746    219.10464 
   93800    131.30091   -1130.1812    145928.64    -39979.19    2648.4893    -42627.68    253.08953    221.74027 
   93850    130.43858   -1157.1287    145920.47   -40017.484    2631.0951   -42648.579    253.15444    220.28397 
   93900    128.95399   -1367.2152    145883.75    -40027.28    2601.1491   -42628.429    253.19007     217.7768 
   93950    130.87507    -1257.139    145801.05   -40005.831    2639.8996   -42645.731     253.3627    221.02112 
   94000    131.59488   -1432.9287    145720.28   -39988.039    2654.4189   -42642.458    253.83743    222.23672 
   94050    131.42813   -1274.6624    145730.26   -40017.051    2651.0555   -42668.106    253.92157    221.95513 
   94100    130.07333   -1210.2508    145772.33   -40002.425    2623.7276   -42626.153    254.22546    219.66714 
   94150    131.27244   -1119.8784    145813.24   -39989.621     2647.915   -42637.536     254.3303    221.69219 
   94200    133.88851    -1324.053     145883.6   -39913.657    2700.6842   -42614.341    254.55506     226.1102 
   94250    134.47262   -1047.1879    145876.37   -39863.052    2712.4663   -42575.519    254.80912    227.09664 
   94300    132.15681   -1261.3911     145924.2   -39914.096    2665.7538   -42579.849    255.16872    223.18571 
   94350    131.00397   -1227.6216    145971.46   -39963.014    2642.4996   -42605.514     255.1553     221.2388 
   94400    130.25201   -1176.1121    145953.71   -39953.342    2627.3318   -42580.674    255.49792     219.9689 
   94450    132.03735   -1050.6291    145991.03   -39934.441    2663.3441   -42597.785    255.67055    222.98396 
   94500     135.1004   -1263.8465    146091.22   -39875.388    2725.1294   -42600.518    255.72489    228.15684 
   94550    133.73619   -1168.9227    146149.46   -39882.718    2697.6116    -42580.33    255.67258    225.85296 
   94600    134.15667   -1098.4446    146194.53   -39889.607    2706.0932     -42595.7    255.47095    226.56306 
   94650     134.3826   -1103.1688    146235.89   -39923.537    2710.6504   -42634.187    255.48356    226.94461 
   94700    132.60352   -1199.1555    146191.62   -39955.405    2674.7645    -42630.17    255.65368    223.94012 
   94750     133.2224   -1192.6036    146077.56   -39943.263    2687.2479   -42630.511    255.43445    224.98527 
   94800    134.08987    -1071.421    146117.89   -39926.362    2704.7458   -42631.108    255.68686    226.45026 
   94850    136.56715   -1207.8225    146137.31   -39901.947    2754.7153   -42656.662    255.63901    230.63387 
   94900    134.99464   -1193.7688    146074.71   -39872.149    2722.9959   -42595.144    255.47285    227.97821 
   94950     135.2923   -1250.7685    146012.82   -39864.067    2729.0002   -42593.068    255.60997    228.48091 
   95000    132.65807   -987.90354    145999.28   -39819.031    2675.8647   -42494.896    255.64415    224.03224 
   95050    132.88356   -1289.7568    145926.23   -39877.139    2680.4131   -42557.552    255.48848    224.41304 
   95100    130.64418   -1300.4383    145891.61   -39944.453    2635.2422   -42579.695    255.90136    220.63118 
   95150    131.85783   -1247.2142    145874.25   -39867.362     2659.723   -42527.085    256.13547     222.6808 
   95200    133.65047   -1119.0628    145832.72   -39914.373    2695.8825   -42610.255    256.43891    225.70819 
   95250    132.20113   -1087.6141    145893.47   -39958.117    2666.6476   -42624.765    256.57261    223.26055 
   95300    132.32016   -1216.7215    145877.07   -39932.154    2669.0487   -42601.202    256.81543    223.46157 
   95350    133.63536    -1168.505     145888.7   -39875.196    2695.5777   -42570.774    256.77109    225.68267 
   95400    131.47431   -1169.4705    145874.31   -39936.114    2651.9868   -42588.101    256.76388     222.0331 
   95450    131.87565   -1492.1071    145862.35   -39949.074    2660.0825   -42609.156    256.96451    222.71089 
   95500    133.01977   -1224.7175    145795.96   -39929.079    2683.1607    -42612.24    257.13286    224.64308 
   95550     131.5753   -1107.0229    145817.92   -39968.096     2654.024    -42622.12    257.09698    222.20366 
   95600    129.48147   -1114.9965    145855.72   -39991.233     2611.789   -42603.022    256.94257    218.66761 
   95650    135.73175   -1206.2319    145814.92   -39910.588    2737.8643   -42648.452    256.97492    229.22304 
   95700    130.42909   -1464.5832    145755.01   -39891.232    2630.9037   -42522.135    257.05725    220.26795 
   95750    132.81827    -1262.766    145682.03   -39894.797    2679.0962   -42573.893    256.89147    224.30278 
   95800    132.31489   -1284.8873    145654.28   -39889.216    2668.9424   -42558.159    257.16224    223.45267 
   95850    131.40774   -1246.5754    145595.33   -39872.193    2650.6442   -42522.837    257.21612    221.92068 
   95900    130.21189   -1237.5415    145635.48   -39882.462    2626.5224   -42508.984    257.26064    219.90114 
   95950    130.87024   -1294.9653    145577.17   -39878.182    2639.8022   -42517.984    257.48871    221.01296 
   96000    133.71502   -1318.2541    145511.09   -39887.832    2697.1846   -42585.016    257.43128     225.8172 
   96050    134.64725   -1190.4709    145525.18   -39915.028    2715.9888   -42631.017     257.6729    227.39155 
   96100    133.53746   -1200.6801    145589.37   -39929.788     2693.603   -42623.391    257.79363    225.51734 
   96150    133.27727   -1054.7666     145651.2   -39899.788    2688.3547   -42588.143    258.01327    225.07794 
   96200     130.4324   -1084.9063    145676.63   -39892.526    2630.9704   -42523.497    258.21774    220.27353 
   96250    129.63496   -1163.5799    145629.24   -39923.895    2614.8852    -42538.78    258.15332    218.92683 
   96300    130.29118   -927.47042     145610.2   -39953.245    2628.1219   -42581.367    258.30637    220.03504 
   96350    129.66704   -1404.9661    145618.92   -39946.978    2615.5322    -42562.51    258.20526    218.98099 
   96400    133.65808   -1124.2463    145539.65   -39909.218    2696.0361   -42605.254    258.58365    225.72105 
   96450    133.18938   -1179.3042    145527.56   -39928.862    2686.5818   -42615.444     258.7827    224.92951 
   96500    132.98284   -1121.9693    145474.56   -39914.248    2682.4157   -42596.664    259.09932     224.5807 
   96550    134.27841   -1131.6577    145362.53   -39885.655    2708.5487   -42594.203    258.72807    226.76865 
   96600    135.73078   -1100.0727    145435.81   -39833.831    2737.8449   -42571.676    258.51063    229.22142 
   96650    133.78063   -987.41887    145497.17   -39879.685     2698.508   -42578.193    258.29023      225.928 
   96700    131.87792   -1134.2735    145529.69   -39887.933    2660.1283   -42548.061     258.4899    222.71473 
   96750    135.94807   -1131.2998    145544.03    -39831.35    2742.2279   -42573.577    258.93282    229.58837 
   96800     135.6135   -1138.6299    145549.22   -39783.827    2735.4791   -42519.306    258.81099    229.02334 
   96850    133.77636   -1024.8218    145607.89   -39838.101    2698.4219   -42536.523    258.90551    225.92079 
   96900    132.82733   -1044.7143    145609.86   -39799.949    2679.2789   -42479.228    259.22055    224.31808 
   96950    135.82468   -1010.3937    145718.23   -39821.771    2739.7388    -42561.51    259.16095    229.37999 
   97000    135.32876   -1170.0776    145797.41   -39862.896    2729.7357   -42592.631    259.43371    228.54249 
   97050    134.39249   -1081.8794    145802.58   -39837.384    2710.8499   -42548.234    259.87007    226.96131 
   97100    133.22372   -1113.3731     145805.4   -39895.317    2687.2746   -42582.592    259.85294     224.9875 
   97150    135.00043   -1126.0177    145796.83   -39847.984    2723.1129   -42571.097    259.89219      227.988 
   97200    134.61916   -1216.6999    145822.83   -39840.188     2715.422    -42555.61    259.91657     227.3441 
   97250    131.60388   -1281.9742    145816.41   -39874.244    2654.6004   -42528.845    260.42222    222.25192 
   97300    136.13486   -1205.2231    145789.82    -39882.62    2745.9956   -42628.616    260.61247    229.90382 
   97350    131.49706    -1200.362    145676.73   -39946.013    2652.4458   -42598.459    260.73957    222.07152 
   97400    133.97113   -1092.4631       145684   -39929.067    2702.3506   -42631.417    260.66091    226.24972 
   97450    131.84821   -1091.7522    145636.96    -39936.14    2659.5288   -42595.669    260.60377    222.66454 
   97500      132.155   -1039.7575    145668.42   -39921.321    2665.7172   -42587.039    260.88768    223.18265 
   97550     135.0254   -1111.2287    145660.05   -39878.974    2723.6165    -42602.59    260.75772    228.03017 
   97600    135.54638   -1204.0105    145642.87   -39896.309    2734.1251   -42630.434    260.87263    228.90999 
   97650    132.03203   -1108.5508    145601.15   -39902.653    2663.2367    -42565.89    260.96382    222.97497 
   97700    134.35287   -1026.9693    145590.16    -39945.33    2710.0507   -42655.381    261.08648     226.8944 
   97750    131.71877   -1028.5029    145635.65   -39949.756    2656.9179   -42606.674    260.85091    222.44594 
   97800     132.4746   -1165.6138    145609.46   -39942.118    2672.1639   -42614.282    261.09733    223.72239 
   97850    132.88299   -1051.2913    145606.23   -39911.882    2680.4017   -42592.283    261.21031    224.41208 
   97900    132.43201   -1143.6001    145498.31   -39932.807    2671.3048   -42604.112     260.9914    223.65046 
   97950    133.52842   -1137.3289    145422.35   -39917.145    2693.4206   -42610.565    260.84788    225.50207 
   98000    131.89968   -1291.5952    145358.46   -39929.518    2660.5672   -42590.085    260.73083    222.75148 
   98050    134.39416   -1083.0244     145380.4    -39882.46    2710.8835   -42593.343    261.13359    226.96413 
   98100    132.86498   -955.10627    145461.82   -39901.496    2680.0382   -42581.534    261.41116    224.38165 
   98150    133.61812   -999.42797     145523.7   -39896.207      2695.23   -42591.437    261.75455    225.65356 
   98200     133.2641   -1135.9505     145555.4   -39898.574     2688.089   -42586.663    261.94714    225.05569 
   98250    132.84901   -949.07154    145625.52   -39905.273    2679.7163   -42584.989    262.23251     224.3547 
   98300    133.63263    -981.7608    145698.05   -39882.261    2695.5226   -42577.784    262.46706    225.67806 
   98350    135.33184   -1086.0457    145731.38   -39814.748    2729.7978   -42544.546    262.91991    228.54769 
   98400    136.53982   -944.32262    145850.05   -39799.785    2754.1641   -42553.949    262.90559    230.58771 
   98450    133.70207   -1149.4297    145829.94    -39862.48    2696.9235   -42559.404    263.36533    225.79534 
   98500    135.49677   -1071.1883    145815.43    -39859.45    2733.1246   -42592.574    263.68242    228.82622 
   98550    132.64227   -1253.4899    145712.26   -39899.598     2675.546   -42575.144    263.44158    224.00555 
   98600    132.28014    -1168.893    145624.39   -39928.806    2668.2414   -42597.047    263.50365    223.39398 
   98650      133.514   -1212.1479    145582.78   -39962.331    2693.1298   -42655.461    263.75683    225.47773 
   98700    134.56872   -991.81417    145572.83   -39923.028    2714.4046   -42637.433    264.13481    227.25892 
   98750    132.80876    -986.4232     145609.2   -39956.401    2678.9044   -42635.305    264.44638    224.28672 
   98800    133.27311   -888.01796     145625.4   -39894.089    2688.2707    -42582.36    264.95663     225.0709 
   98850    133.79309   -1387.7513    145645.57   -39932.303    2698.7594   -42631.063    265.04615    225.94905 
   98900    135.90393   -1020.8451    145689.33     -39917.5    2741.3374   -42658.838    265.46659    229.51382 
   98950    133.80543   -1301.3721    145713.47   -39946.808    2699.0083   -42645.817    265.34468    225.96989 
   99000    134.92659   -1085.3312    145737.05   -39917.061    2721.6233   -42638.684    265.64851     227.8633 
   99050    136.34497   -1146.4705    145838.81   -39900.519    2750.2336   -42650.752     265.7817    230.25864 
   99100    134.69733   -1126.8991    145880.37   -39917.904    2716.9989   -42634.903    265.73026    227.47612 
   99150    135.38061   -1055.4399    145910.32   -39862.788    2730.7814   -42593.569    266.18547    228.63004 
   99200    134.63112   -1132.9836    145892.34   -39864.584    2715.6634   -42580.247    266.71203    227.36431 
   99250    135.97507   -1218.6664    145880.58   -39855.906    2742.7723   -42598.678    266.65838    229.63396 
   99300    133.20395   -1050.3587    145838.47   -39904.685    2686.8757    -42591.56     266.5823    224.95411 
   99350    131.92774   -1301.2432    145861.03   -39920.553    2661.1332   -42581.687    266.50318    222.79886 
   99400    131.68948   -1190.1035    145800.87   -39961.085    2656.3271   -42617.413    266.57756    222.39648 
   99450    129.80786   -951.49704    145808.83   -39940.358    2618.3728    -42558.73    266.64973    219.21882 
   99500     132.7953   -1066.6437    145860.91   -39949.224    2678.6327   -42627.857    266.63326    224.26398 
   99550    135.02359   -986.79058    145981.85   -39904.027      2723.58   -42627.607    266.67043    228.02712 
   99600    130.90462   -1203.4811    146017.37   -39933.583    2640.4956   -42574.079    266.97961    221.07102 
   99650    133.10675    -1236.363    145932.16   -39916.399    2684.9152   -42601.314    267.19602    224.78997 
   99700    134.60899   -1188.8949    145945.81    -39872.65     2715.217   -42587.867    267.25233    227.32694 
   99750    133.14558   -1106.8688     145946.3   -39905.387    2685.6983   -42591.085     267.4219    224.85553 
   99800    133.16888   -1162.8516    145981.67   -39873.139    2686.1683   -42559.307     267.4781    224.89488 
   99850    133.07607   -1119.4803    146067.81   -39902.503    2684.2962     -42586.8    267.38451    224.73814 
   99900    132.80985   -1230.3678    146099.25    -39883.65    2678.9262   -42562.576    267.69742    224.28855 
   99950     132.6781   -1343.5582     145981.5   -39905.332    2676.2688   -42581.601    267.66053    224.06606 
  100000    134.52392    -1271.051    145912.57   -39910.679    2713.5011    -42624.18    267.77736    227.18328 
Loop time of 182.453 on 64 procs for 100000 steps with 6768 atoms

Performance: 236.773 ns/day, 0.101 hours/ns, 548.086 timesteps/s
100.0% CPU use with 64 MPI tasks x no OpenMP threads

MPI task timing breakdown:
Section |  min time  |  avg time  |  max time  |%varavg| %total
---------------------------------------------------------------
Pair    | 32.448     | 84.699     | 141.37     | 557.3 | 46.42
Neigh   | 1.2748     | 2.6671     | 6.0101     |  91.8 |  1.46
Comm    | 27.894     | 82.859     | 137.07     | 542.5 | 45.41
Output  | 0.12859    | 0.12983    | 0.14331    |   0.5 |  0.07
Modify  | 7.2465     | 11.334     | 19.922     | 134.7 |  6.21
Other   |            | 0.7648     |            |       |  0.42

Nlocal:    105.75 ave 174 max 66 min
Histogram: 25 7 0 9 7 0 0 0 6 10
Nghost:    993.844 ave 1342 max 674 min
Histogram: 32 0 0 0 0 0 0 0 12 20
Neighs:    0 ave 0 max 0 min
Histogram: 64 0 0 0 0 0 0 0 0 0
FullNghs:  12461.6 ave 27468 max 4027 min
Histogram: 32 0 0 0 16 0 0 0 2 14

Total # of neighbors = 797544
Ave neighs/atom = 117.84
Neighbor list builds = 6133
Dangerous builds = 0

write_data		${DIR}/data.eq-${NAME}-${TEMP}
write_data		run_15/data.eq-${NAME}-${TEMP}
write_data		run_15/data.eq-het_freeze_15-${TEMP}
write_data		run_15/data.eq-het_freeze_15-225
undump          1

reset_timestep  0

unfix           2
unfix           3
unfix           4


################################################
#######         Run Simulation         #########
################################################

log				${DIR}/log.run_${NAME}
log				run_15/log.run_${NAME}
log				run_15/log.run_het_freeze_15
