LAMMPS data file via write_data, version 16 Mar 2018, timestep = 100000

4063 atoms
2 atom types

0.0000000000000000e+00 4.9219999999999999e+01 xlo xhi
0.0000000000000000e+00 4.9019635930410494e+01 ylo yhi
1.8091278757943794e+00 2.6130872124204984e+01 zlo zhi

Masses

1 18.015
2 12.01

Atoms # atomic

53 2 0.0000000000000000e+00 2.8417180249513345e+00 3.3261466306020111e+00 0 0 0
55 2 0.0000000000000000e+00 0.0000000000000000e+00 3.3261466306020111e+00 0 0 0
57 2 1.2305000000000001e+00 7.1042950623783474e-01 3.3261466306020111e+00 0 0 0
64 2 1.2305000000000001e+00 2.1312885187134998e+00 3.3261466306020111e+00 0 0 0
66 2 2.4610000000000003e+00 2.8417180249513345e+00 3.3261466306020111e+00 0 0 0
68 2 2.4610000000000003e+00 0.0000000000000000e+00 3.3261466306020111e+00 0 0 0
70 2 3.6915000000000004e+00 7.1042950623783474e-01 3.3261466306020111e+00 0 0 0
85 2 3.6914999999999996e+00 2.1312885187134998e+00 3.3261466306020111e+00 0 0 0
87 2 4.9220000000000006e+00 2.8417180249513332e+00 3.3261466306020111e+00 0 0 0
89 2 4.9220000000000006e+00 0.0000000000000000e+00 3.3261466306020111e+00 0 0 0
60 2 0.0000000000000000e+00 4.2625770374269996e+00 3.3261466306020111e+00 0 0 0
81 2 2.4610000000000003e+00 4.2625770374269996e+00 3.3261466306020111e+00 0 0 0
110 2 4.9220000000000006e+00 4.2625770374269978e+00 3.3261466306020111e+00 0 0 0
62 2 1.2305000000000001e+00 4.9730065436648339e+00 3.3261466306020111e+00 0 0 0
77 2 1.2305000000000001e+00 6.3938655561404980e+00 3.3261466306020111e+00 0 0 0
83 2 3.6914999999999996e+00 4.9730065436648339e+00 3.3261466306020111e+00 0 0 0
106 2 3.6914999999999996e+00 6.3938655561404980e+00 3.3261466306020111e+00 0 0 0
58 2 0.0000000000000000e+00 7.1042950623783341e+00 3.3261466306020111e+00 0 0 0
73 2 0.0000000000000000e+00 8.5251540748539991e+00 3.3261466306020111e+00 0 0 0
75 2 1.2305000000000001e+00 9.2355835810918343e+00 3.3261466306020111e+00 0 0 0
79 2 2.4610000000000003e+00 7.1042950623783341e+00 3.3261466306020111e+00 0 0 0
102 2 2.4610000000000003e+00 8.5251540748539991e+00 3.3261466306020111e+00 0 0 0
104 2 3.6915000000000004e+00 9.2355835810918343e+00 3.3261466306020111e+00 0 0 0
108 2 4.9220000000000006e+00 7.1042950623783341e+00 3.3261466306020111e+00 0 0 0
139 2 4.9220000000000006e+00 8.5251540748539991e+00 3.3261466306020111e+00 0 0 0
54 2 0.0000000000000000e+00 1.4208590124756650e+00 6.2301964313797118e+00 0 0 0
56 2 0.0000000000000000e+00 0.0000000000000000e+00 6.2301964313797118e+00 0 0 0
65 2 1.2305000000000001e+00 2.1312885187134998e+00 6.2301964313797118e+00 0 0 0
67 2 2.4610000000000003e+00 1.4208590124756650e+00 6.2301964313797118e+00 0 0 0
69 2 2.4610000000000003e+00 0.0000000000000000e+00 6.2301964313797118e+00 0 0 0
86 2 3.6914999999999996e+00 2.1312885187134998e+00 6.2301964313797118e+00 0 0 0
382 2 0.0000000000000000e+00 2.8417180249513345e+00 9.1342462321569400e+00 0 0 0
383 2 0.0000000000000000e+00 0.0000000000000000e+00 9.1342462321569400e+00 0 0 0
384 2 1.2305000000000001e+00 7.1042950623783474e-01 9.1342462321569400e+00 0 0 0
388 2 1.2305000000000001e+00 2.1312885187134998e+00 9.1342462321569400e+00 0 0 0
389 2 2.4610000000000003e+00 2.8417180249513345e+00 9.1342462321569400e+00 0 0 0
390 2 2.4610000000000003e+00 0.0000000000000000e+00 9.1342462321569400e+00 0 0 0
391 2 3.6915000000000004e+00 7.1042950623783474e-01 9.1342462321569400e+00 0 0 0
399 2 3.6914999999999996e+00 2.1312885187134998e+00 9.1342462321569400e+00 0 0 0
88 2 4.9220000000000006e+00 1.4208590124756650e+00 6.2301964313797118e+00 0 0 0
90 2 4.9220000000000006e+00 0.0000000000000000e+00 6.2301964313797118e+00 0 0 0
400 2 4.9220000000000006e+00 2.8417180249513332e+00 9.1342462321569400e+00 0 0 0
401 2 4.9220000000000006e+00 0.0000000000000000e+00 9.1342462321569400e+00 0 0 0
61 2 0.0000000000000000e+00 4.2625770374269996e+00 6.2301964313797118e+00 0 0 0
63 2 1.2305000000000001e+00 3.5521475311891644e+00 6.2301964313797118e+00 0 0 0
82 2 2.4610000000000003e+00 4.2625770374269996e+00 6.2301964313797118e+00 0 0 0
84 2 3.6914999999999996e+00 3.5521475311891644e+00 6.2301964313797118e+00 0 0 0
386 2 0.0000000000000000e+00 4.2625770374269996e+00 9.1342462321569400e+00 0 0 0
397 2 2.4610000000000003e+00 4.2625770374269996e+00 9.1342462321569400e+00 0 0 0
111 2 4.9220000000000006e+00 4.2625770374269978e+00 6.2301964313797118e+00 0 0 0
412 2 4.9220000000000006e+00 4.2625770374269978e+00 9.1342462321569400e+00 0 0 0
59 2 0.0000000000000000e+00 5.6834360499026637e+00 6.2301964313797118e+00 0 0 0
78 2 1.2305000000000001e+00 6.3938655561404980e+00 6.2301964313797118e+00 0 0 0
80 2 2.4610000000000003e+00 5.6834360499026637e+00 6.2301964313797118e+00 0 0 0
107 2 3.6914999999999996e+00 6.3938655561404980e+00 6.2301964313797118e+00 0 0 0
387 2 1.2305000000000001e+00 4.9730065436648339e+00 9.1342462321569400e+00 0 0 0
395 2 1.2305000000000001e+00 6.3938655561404980e+00 9.1342462321569400e+00 0 0 0
398 2 3.6914999999999996e+00 4.9730065436648339e+00 9.1342462321569400e+00 0 0 0
410 2 3.6914999999999996e+00 6.3938655561404980e+00 9.1342462321569400e+00 0 0 0
109 2 4.9220000000000006e+00 5.6834360499026637e+00 6.2301964313797118e+00 0 0 0
74 2 0.0000000000000000e+00 8.5251540748539991e+00 6.2301964313797118e+00 0 0 0
76 2 1.2305000000000001e+00 7.8147245686161639e+00 6.2301964313797118e+00 0 0 0
103 2 2.4610000000000003e+00 8.5251540748539991e+00 6.2301964313797118e+00 0 0 0
105 2 3.6914999999999996e+00 7.8147245686161639e+00 6.2301964313797118e+00 0 0 0
385 2 0.0000000000000000e+00 7.1042950623783341e+00 9.1342462321569400e+00 0 0 0
393 2 0.0000000000000000e+00 8.5251540748539991e+00 9.1342462321569400e+00 0 0 0
394 2 1.2305000000000001e+00 9.2355835810918343e+00 9.1342462321569400e+00 0 0 0
396 2 2.4610000000000003e+00 7.1042950623783341e+00 9.1342462321569400e+00 0 0 0
408 2 2.4610000000000003e+00 8.5251540748539991e+00 9.1342462321569400e+00 0 0 0
409 2 3.6915000000000004e+00 9.2355835810918343e+00 9.1342462321569400e+00 0 0 0
140 2 4.9220000000000006e+00 8.5251540748539991e+00 6.2301964313797118e+00 0 0 0
411 2 4.9220000000000006e+00 7.1042950623783341e+00 9.1342462321569400e+00 0 0 0
427 2 4.9220000000000006e+00 8.5251540748539991e+00 9.1342462321569400e+00 0 0 0
2094 1 2.2288066329607563e+00 2.5348992013265428e+00 1.2016588060803334e+01 -1 0 1
4000 1 1.8917774309923996e+00 9.7458643647001697e+00 1.2028445453567507e+01 1 0 -1
1354 1 8.7917576208569803e-01 6.6004026598313992e+00 1.1793809141608362e+01 0 0 0
553 1 3.8088011183868744e+00 7.1184001577357661e+00 1.1653916249714984e+01 1 0 0
1241 1 4.5893673120465124e+00 7.9072604815071890e-01 1.2007306043640941e+01 0 1 0
2564 1 2.6530349650883522e-01 4.9085640938372910e-01 1.1694696154496492e+01 2 0 -1
4037 1 5.6910798202462960e+00 2.8646063825270773e+00 1.8332583597299639e+01 1 0 0
2658 1 4.1634425483009236e+00 3.4760480934189957e+00 1.6079419445053301e+01 1 0 -2
747 1 3.2700755065067764e+00 8.9498037327539830e+00 1.4627924295982968e+01 1 0 -1
3258 1 4.0543808294947992e+00 8.3949860151131173e-01 1.5335563673358818e+01 1 0 0
4035 1 2.8165225724686299e-01 1.1595245247908655e-01 1.4577078599671790e+01 0 0 0
3969 1 1.4297188891798027e+00 8.9834035849541340e+00 1.6933554675516859e+01 1 0 -1
2093 1 3.6704950304126456e+00 6.1740244679631768e+00 1.4281950185310659e+01 1 0 0
1905 1 2.4773775135689631e+00 6.9120441465905094e+00 1.8771352865834039e+01 1 1 0
2102 1 3.4726840675330486e+00 8.9063074957597266e+00 2.5000328520429946e+01 0 1 1
1993 1 2.5023426992128943e+00 2.6977841915709528e+00 2.2489235512527920e+01 0 1 0
1405 1 4.9704465667151556e+00 1.9659739308355104e+00 2.0732223655768799e+01 1 1 1
4015 1 4.9555936217302010e+00 6.6335571508162730e+00 1.7004571221546549e+01 1 1 0
4039 1 1.3368767966062875e-01 6.2748619905655856e+00 2.5152923227690799e+01 1 2 0
2674 1 1.4901309128546811e+00 2.8015335744993766e+00 1.4976708456910833e+01 0 1 0
3926 1 2.1406628198124906e+00 5.2578181772711812e+00 2.1074686986278167e+01 1 0 -1
1424 1 2.5213495526937124e+00 1.5753415287040492e-02 2.0348349050873452e+01 0 2 0
1997 1 3.6306864159746679e+00 7.1441703723072472e+00 2.2540136325221461e+01 0 0 1
2697 1 3.0653493719072546e+00 5.7289263253206908e+00 2.5106099384189918e+01 0 0 0
551 1 1.0998876760755454e+00 5.4340226361055564e+00 1.4738814773231978e+01 2 1 0
2781 1 1.9899712791137245e+00 2.7732215056411942e+00 2.5179213344886470e+01 1 0 0
730 1 5.3024788325363899e+00 3.3347179506448668e+00 2.4785879287620361e+01 0 0 1
3321 1 3.3722235421676210e+00 9.4875773596489630e+00 2.0265547709811706e+01 0 0 0
1358 1 1.3624591015549450e+00 9.6263439665457646e+00 2.2373995408737173e+01 0 0 0
3324 1 5.0740324719097494e+00 4.6346632047623739e+00 2.2443537155348430e+01 1 1 1
1297 1 2.9742603020998759e-01 6.8433903604599964e+00 2.2513279524182806e+01 0 -2 0
2025 1 4.8416423000530555e+00 9.5015384991506355e+00 1.7247669743543231e+01 0 0 -1
3297 1 1.9886529119004082e+00 5.2995705496513779e-02 2.5173862178008953e+01 1 2 -1
71 2 0.0000000000000000e+00 1.1366872099805333e+01 3.3261466306020111e+00 0 0 0
94 2 0.0000000000000000e+00 1.2787731112280996e+01 3.3261466306020111e+00 0 0 0
96 2 1.2305000000000001e+00 1.3498160618518829e+01 3.3261466306020111e+00 0 0 0
98 2 1.2305000000000001e+00 1.0656442593567498e+01 3.3261466306020111e+00 0 0 0
100 2 2.4610000000000003e+00 1.1366872099805333e+01 3.3261466306020111e+00 0 0 0
131 2 2.4610000000000003e+00 1.2787731112280996e+01 3.3261466306020111e+00 0 0 0
133 2 3.6915000000000004e+00 1.3498160618518829e+01 3.3261466306020111e+00 0 0 0
135 2 3.6914999999999996e+00 1.0656442593567499e+01 3.3261466306020111e+00 0 0 0
137 2 4.9220000000000006e+00 1.1366872099805333e+01 3.3261466306020111e+00 0 0 0
176 2 4.9220000000000006e+00 1.2787731112280996e+01 3.3261466306020111e+00 0 0 0
178 2 6.1524999999999990e+00 1.3498160618518829e+01 3.3261466306020111e+00 0 0 0
92 2 0.0000000000000000e+00 1.5629449137232333e+01 3.3261466306020111e+00 0 0 0
123 2 0.0000000000000000e+00 1.7050308149707998e+01 3.3261466306020111e+00 0 0 0
127 2 1.2305000000000001e+00 1.4919019630994494e+01 3.3261466306020111e+00 0 0 0
129 2 2.4610000000000003e+00 1.5629449137232328e+01 3.3261466306020111e+00 0 0 0
168 2 2.4610000000000003e+00 1.7050308149707998e+01 3.3261466306020111e+00 0 0 0
172 2 3.6915000000000004e+00 1.4919019630994494e+01 3.3261466306020111e+00 0 0 0
174 2 4.9220000000000006e+00 1.5629449137232333e+01 3.3261466306020111e+00 0 0 0
215 2 4.9220000000000006e+00 1.7050308149707998e+01 3.3261466306020111e+00 0 0 0
219 2 6.1524999999999990e+00 1.4919019630994494e+01 3.3261466306020111e+00 0 0 0
125 2 1.2305000000000001e+00 1.7760737655945832e+01 3.3261466306020111e+00 0 0 0
164 2 1.2305000000000001e+00 1.9181596668421495e+01 3.3261466306020111e+00 0 0 0
170 2 3.6914999999999996e+00 1.7760737655945832e+01 3.3261466306020111e+00 0 0 0
211 2 3.6914999999999996e+00 1.9181596668421495e+01 3.3261466306020111e+00 0 0 0
72 2 0.0000000000000000e+00 9.9460130873296642e+00 6.2301964313797118e+00 0 0 0
101 2 2.4610000000000003e+00 9.9460130873296642e+00 6.2301964313797118e+00 0 0 0
138 2 4.9220000000000006e+00 9.9460130873296642e+00 6.2301964313797118e+00 0 0 0
95 2 0.0000000000000000e+00 1.2787731112280996e+01 6.2301964313797118e+00 0 0 0
97 2 1.2305000000000001e+00 1.2077301606043163e+01 6.2301964313797118e+00 0 0 0
99 2 1.2305000000000001e+00 1.0656442593567498e+01 6.2301964313797118e+00 0 0 0
132 2 2.4610000000000003e+00 1.2787731112280996e+01 6.2301964313797118e+00 0 0 0
134 2 3.6914999999999996e+00 1.2077301606043163e+01 6.2301964313797118e+00 0 0 0
136 2 3.6914999999999996e+00 1.0656442593567499e+01 6.2301964313797118e+00 0 0 0
392 2 0.0000000000000000e+00 1.1366872099805333e+01 9.1342462321569400e+00 0 0 0
404 2 0.0000000000000000e+00 1.2787731112280996e+01 9.1342462321569400e+00 0 0 0
405 2 1.2305000000000001e+00 1.3498160618518829e+01 9.1342462321569400e+00 0 0 0
406 2 1.2305000000000001e+00 1.0656442593567498e+01 9.1342462321569400e+00 0 0 0
407 2 2.4610000000000003e+00 1.1366872099805333e+01 9.1342462321569400e+00 0 0 0
423 2 2.4610000000000003e+00 1.2787731112280996e+01 9.1342462321569400e+00 0 0 0
424 2 3.6915000000000004e+00 1.3498160618518829e+01 9.1342462321569400e+00 0 0 0
425 2 3.6914999999999996e+00 1.0656442593567499e+01 9.1342462321569400e+00 0 0 0
177 2 4.9220000000000006e+00 1.2787731112280996e+01 6.2301964313797118e+00 0 0 0
426 2 4.9220000000000006e+00 1.1366872099805333e+01 9.1342462321569400e+00 0 0 0
446 2 4.9220000000000006e+00 1.2787731112280996e+01 9.1342462321569400e+00 0 0 0
447 2 6.1524999999999990e+00 1.3498160618518829e+01 9.1342462321569400e+00 0 0 0
93 2 0.0000000000000000e+00 1.4208590124756663e+01 6.2301964313797118e+00 0 0 0
130 2 2.4610000000000003e+00 1.4208590124756663e+01 6.2301964313797118e+00 0 0 0
175 2 4.9220000000000006e+00 1.4208590124756663e+01 6.2301964313797118e+00 0 0 0
124 2 0.0000000000000000e+00 1.7050308149707998e+01 6.2301964313797118e+00 0 0 0
126 2 1.2305000000000001e+00 1.6339878643470165e+01 6.2301964313797118e+00 0 0 0
128 2 1.2305000000000001e+00 1.4919019630994494e+01 6.2301964313797118e+00 0 0 0
169 2 2.4610000000000003e+00 1.7050308149707998e+01 6.2301964313797118e+00 0 0 0
171 2 3.6915000000000004e+00 1.6339878643470165e+01 6.2301964313797118e+00 0 0 0
173 2 3.6915000000000004e+00 1.4919019630994494e+01 6.2301964313797118e+00 0 0 0
403 2 0.0000000000000000e+00 1.5629449137232333e+01 9.1342462321569400e+00 0 0 0
419 2 0.0000000000000000e+00 1.7050308149707998e+01 9.1342462321569400e+00 0 0 0
421 2 1.2305000000000001e+00 1.4919019630994494e+01 9.1342462321569400e+00 0 0 0
422 2 2.4610000000000003e+00 1.5629449137232328e+01 9.1342462321569400e+00 0 0 0
442 2 2.4610000000000003e+00 1.7050308149707998e+01 9.1342462321569400e+00 0 0 0
444 2 3.6915000000000004e+00 1.4919019630994494e+01 9.1342462321569400e+00 0 0 0
216 2 4.9220000000000006e+00 1.7050308149707998e+01 6.2301964313797118e+00 0 0 0
220 2 6.1524999999999990e+00 1.4919019630994494e+01 6.2301964313797118e+00 0 0 0
445 2 4.9220000000000006e+00 1.5629449137232333e+01 9.1342462321569400e+00 0 0 0
466 2 4.9220000000000006e+00 1.7050308149707998e+01 9.1342462321569400e+00 0 0 0
468 2 6.1524999999999990e+00 1.4919019630994494e+01 9.1342462321569400e+00 0 0 0
122 2 0.0000000000000000e+00 1.8471167162183658e+01 6.2301964313797118e+00 0 0 0
165 2 1.2305000000000001e+00 1.9181596668421495e+01 6.2301964313797118e+00 0 0 0
167 2 2.4610000000000003e+00 1.8471167162183658e+01 6.2301964313797118e+00 0 0 0
212 2 3.6914999999999996e+00 1.9181596668421495e+01 6.2301964313797118e+00 0 0 0
420 2 1.2305000000000001e+00 1.7760737655945832e+01 9.1342462321569400e+00 0 0 0
440 2 1.2305000000000001e+00 1.9181596668421495e+01 9.1342462321569400e+00 0 0 0
443 2 3.6914999999999996e+00 1.7760737655945832e+01 9.1342462321569400e+00 0 0 0
464 2 3.6914999999999996e+00 1.9181596668421495e+01 9.1342462321569400e+00 0 0 0
214 2 4.9220000000000006e+00 1.8471167162183658e+01 6.2301964313797118e+00 0 0 0
3411 1 3.5252877040861601e+00 1.7375246795032247e+01 1.1688986081735644e+01 1 1 0
691 1 1.5169845236160706e+00 1.2539992453776035e+01 1.2619968450142490e+01 1 -1 1
732 1 4.0598139904751100e+00 1.2822778733904311e+01 1.1983676051124753e+01 1 1 1
772 1 4.6793683462658606e+00 9.8293122512691919e+00 1.1551864248934590e+01 0 0 0
1248 1 5.1813570404982567e-01 1.6848407600482282e+01 1.2002614402129129e+01 2 1 0
12 1 3.5033364359949188e+00 1.1998249577797926e+01 1.5666583883021323e+01 0 1 -1
2720 1 3.3489876650500089e-01 1.7845230112532271e+01 1.6051088258945008e+01 1 0 -1
665 1 4.3239884238174877e+00 1.6369060209810744e+01 1.4286605965840824e+01 1 0 0
3264 1 1.2863247630785777e+00 1.0502761383445415e+01 2.5024765767054056e+01 0 0 0
1950 1 5.5246118120173469e+00 1.3711211868384746e+01 1.4587843250867047e+01 1 1 0
4032 1 5.1183593672108669e+00 1.4520010939884267e+01 2.5158020652983204e+01 1 0 0
3339 1 5.8280393813407647e+00 1.0312453510062747e+01 2.4159601631715560e+01 0 0 0
1948 1 8.2651451766953243e-01 1.7816662719190717e+01 2.5331678187240882e+01 1 0 -1
3393 1 1.2302784096926231e+00 1.3436443218372190e+01 1.5043713341048846e+01 -1 1 0
3283 1 5.5878399225097732e+00 1.7890572700261618e+01 1.6233908393160974e+01 1 0 0
3377 1 2.1546776747197622e+00 1.1516184261790523e+01 1.8337409997621400e+01 0 0 0
1284 1 4.2023672949580266e+00 1.2717398218959159e+01 2.0063075255452389e+01 1 0 0
652 1 2.4826899812922987e+00 1.4815522879866863e+01 2.0830481787927717e+01 1 0 0
3398 1 3.0414223073146396e-01 1.7799125265965760e+01 2.2767060891951509e+01 2 1 0
577 1 6.4776372330406951e-01 1.8004355532612955e+01 1.9052030307785728e+01 1 1 0
663 1 3.1925169238215720e+00 1.7661779124921082e+01 2.0215023567033207e+01 0 1 0
735 1 4.5566069513885257e+00 1.5985333317910857e+01 2.2838858639233699e+01 1 0 1
581 1 3.9892903663912285e+00 1.1472365631439851e+01 2.2645293757604392e+01 1 0 0
2079 1 5.6612269370939439e+00 1.8567626789146672e+01 1.9175533771035575e+01 0 0 -1
2777 1 2.8386982211482406e+00 1.2770346658420262e+01 2.4796916813665064e+01 1 0 0
3379 1 1.7424089231920483e+00 1.4984628611749415e+01 2.3794188298511841e+01 0 1 0
3965 1 1.6564154231851584e+00 1.5946595392105413e+01 1.4472130218546290e+01 1 -1 0
582 1 2.9198629218834329e+00 1.9449169385424991e+01 1.7002885024068423e+01 0 0 0
3918 1 3.7219081837752301e+00 1.7784081952281682e+01 2.4764010507992964e+01 0 1 -1
2721 1 3.3919524006348674e+00 1.9381440419812876e+01 2.2427739736709789e+01 1 0 0
121 2 0.0000000000000000e+00 1.9892026174659328e+01 3.3261466306020111e+00 0 0 0
166 2 2.4610000000000003e+00 1.9892026174659328e+01 3.3261466306020111e+00 0 0 0
213 2 4.9220000000000006e+00 1.9892026174659328e+01 3.3261466306020111e+00 0 0 0
158 2 0.0000000000000000e+00 2.4154603212086325e+01 3.3261466306020111e+00 0 0 0
160 2 0.0000000000000000e+00 2.1312885187134999e+01 3.3261466306020111e+00 0 0 0
162 2 1.2304999999999993e+00 2.2023314693372832e+01 3.3261466306020111e+00 0 0 0
203 2 1.2304999999999993e+00 2.3444173705848499e+01 3.3261466306020111e+00 0 0 0
205 2 2.4610000000000003e+00 2.4154603212086325e+01 3.3261466306020111e+00 0 0 0
207 2 2.4610000000000003e+00 2.1312885187134995e+01 3.3261466306020111e+00 0 0 0
209 2 3.6914999999999996e+00 2.2023314693372832e+01 3.3261466306020111e+00 0 0 0
250 2 3.6915000000000004e+00 2.3444173705848499e+01 3.3261466306020111e+00 0 0 0
252 2 4.9220000000000006e+00 2.4154603212086325e+01 3.3261466306020111e+00 0 0 0
254 2 4.9220000000000006e+00 2.1312885187134995e+01 3.3261466306020111e+00 0 0 0
256 2 6.1524999999999990e+00 2.2023314693372832e+01 3.3261466306020111e+00 0 0 0
777 2 0.0000000000000000e+00 2.5575462224561992e+01 3.3261466306020111e+00 0 0 0
779 2 1.2305000000000001e+00 2.6285891730799833e+01 3.3261466306020111e+00 0 0 0
787 2 1.2305000000000010e+00 2.7706750743275496e+01 3.3261466306020111e+00 0 0 0
791 2 2.4610000000000003e+00 2.5575462224561992e+01 3.3261466306020111e+00 0 0 0
793 2 3.6914999999999991e+00 2.6285891730799833e+01 3.3261466306020111e+00 0 0 0
809 2 3.6914999999999996e+00 2.7706750743275496e+01 3.3261466306020111e+00 0 0 0
813 2 4.9220000000000006e+00 2.5575462224561992e+01 3.3261466306020111e+00 0 0 0
839 2 6.1524999999999990e+00 2.7706750743275496e+01 3.3261466306020111e+00 0 0 0
775 2 0.0000000000000000e+00 2.8417180249513333e+01 3.3261466306020111e+00 0 0 0
789 2 2.4610000000000003e+00 2.8417180249513326e+01 3.3261466306020111e+00 0 0 0
811 2 4.9220000000000006e+00 2.8417180249513336e+01 3.3261466306020111e+00 0 0 0
163 2 1.2305000000000001e+00 2.0602455680897162e+01 6.2301964313797118e+00 0 0 0
210 2 3.6915000000000004e+00 2.0602455680897162e+01 6.2301964313797118e+00 0 0 0
418 2 0.0000000000000000e+00 1.9892026174659328e+01 9.1342462321569400e+00 0 0 0
441 2 2.4610000000000003e+00 1.9892026174659328e+01 9.1342462321569400e+00 0 0 0
465 2 4.9220000000000006e+00 1.9892026174659328e+01 9.1342462321569400e+00 0 0 0
159 2 0.0000000000000000e+00 2.2733744199610655e+01 6.2301964313797118e+00 0 0 0
161 2 0.0000000000000000e+00 2.1312885187134999e+01 6.2301964313797118e+00 0 0 0
204 2 1.2304999999999993e+00 2.3444173705848499e+01 6.2301964313797118e+00 0 0 0
206 2 2.4610000000000003e+00 2.2733744199610655e+01 6.2301964313797118e+00 0 0 0
208 2 2.4610000000000003e+00 2.1312885187134995e+01 6.2301964313797118e+00 0 0 0
251 2 3.6915000000000004e+00 2.3444173705848499e+01 6.2301964313797118e+00 0 0 0
437 2 0.0000000000000000e+00 2.4154603212086325e+01 9.1342462321569400e+00 0 0 0
438 2 0.0000000000000000e+00 2.1312885187134999e+01 9.1342462321569400e+00 0 0 0
439 2 1.2304999999999993e+00 2.2023314693372832e+01 9.1342462321569400e+00 0 0 0
460 2 1.2304999999999993e+00 2.3444173705848499e+01 9.1342462321569400e+00 0 0 0
461 2 2.4610000000000003e+00 2.4154603212086325e+01 9.1342462321569400e+00 0 0 0
462 2 2.4610000000000003e+00 2.1312885187134995e+01 9.1342462321569400e+00 0 0 0
463 2 3.6914999999999996e+00 2.2023314693372832e+01 9.1342462321569400e+00 0 0 0
484 2 3.6915000000000004e+00 2.3444173705848499e+01 9.1342462321569400e+00 0 0 0
253 2 4.9220000000000006e+00 2.2733744199610655e+01 6.2301964313797118e+00 0 0 0
255 2 4.9220000000000006e+00 2.1312885187134995e+01 6.2301964313797118e+00 0 0 0
485 2 4.9220000000000006e+00 2.4154603212086325e+01 9.1342462321569400e+00 0 0 0
486 2 4.9220000000000006e+00 2.1312885187134995e+01 9.1342462321569400e+00 0 0 0
487 2 6.1524999999999990e+00 2.2023314693372832e+01 9.1342462321569400e+00 0 0 0
776 2 0.0000000000000000e+00 2.6996321237037659e+01 6.2301964313797118e+00 0 0 0
778 2 0.0000000000000000e+00 2.5575462224561992e+01 6.2301964313797118e+00 0 0 0
780 2 1.2305000000000001e+00 2.4865032718324155e+01 6.2301964313797118e+00 0 0 0
788 2 1.2305000000000010e+00 2.7706750743275496e+01 6.2301964313797118e+00 0 0 0
790 2 2.4610000000000003e+00 2.6996321237037659e+01 6.2301964313797118e+00 0 0 0
792 2 2.4610000000000003e+00 2.5575462224561992e+01 6.2301964313797118e+00 0 0 0
794 2 3.6914999999999996e+00 2.4865032718324166e+01 6.2301964313797118e+00 0 0 0
810 2 3.6914999999999996e+00 2.7706750743275496e+01 6.2301964313797118e+00 0 0 0
1091 2 0.0000000000000000e+00 2.5575462224561992e+01 9.1342462321569400e+00 0 0 0
1092 2 1.2305000000000001e+00 2.6285891730799833e+01 9.1342462321569400e+00 0 0 0
1096 2 1.2305000000000010e+00 2.7706750743275496e+01 9.1342462321569400e+00 0 0 0
1098 2 2.4610000000000003e+00 2.5575462224561992e+01 9.1342462321569400e+00 0 0 0
1099 2 3.6914999999999991e+00 2.6285891730799833e+01 9.1342462321569400e+00 0 0 0
1107 2 3.6914999999999996e+00 2.7706750743275496e+01 9.1342462321569400e+00 0 0 0
812 2 4.9220000000000006e+00 2.6996321237037659e+01 6.2301964313797118e+00 0 0 0
814 2 4.9220000000000006e+00 2.5575462224561992e+01 6.2301964313797118e+00 0 0 0
816 2 6.1524999999999990e+00 2.4865032718324155e+01 6.2301964313797118e+00 0 0 0
840 2 6.1524999999999990e+00 2.7706750743275496e+01 6.2301964313797118e+00 0 0 0
1109 2 4.9220000000000006e+00 2.5575462224561992e+01 9.1342462321569400e+00 0 0 0
1122 2 6.1524999999999990e+00 2.7706750743275496e+01 9.1342462321569400e+00 0 0 0
786 2 1.2304999999999993e+00 2.9127609755751163e+01 6.2301964313797118e+00 0 0 0
808 2 3.6914999999999991e+00 2.9127609755751152e+01 6.2301964313797118e+00 0 0 0
1090 2 0.0000000000000000e+00 2.8417180249513333e+01 9.1342462321569400e+00 0 0 0
1097 2 2.4610000000000003e+00 2.8417180249513326e+01 9.1342462321569400e+00 0 0 0
838 2 6.1524999999999981e+00 2.9127609755751152e+01 6.2301964313797118e+00 0 0 0
1108 2 4.9220000000000006e+00 2.8417180249513336e+01 9.1342462321569400e+00 0 0 0
3374 1 5.4358307072823981e+00 2.3844815057015513e+01 1.2462315560782976e+01 0 0 0
3977 1 4.9951460058445729e+00 2.6514026446501223e+01 1.1632025545332557e+01 1 0 0
3312 1 1.3304622306905214e+00 2.1539868616886359e+01 1.1416466966155173e+01 2 1 1
2575 1 3.6008255545575723e+00 2.0246632704840174e+01 1.1702019363949381e+01 0 1 0
1340 1 3.9686332237941924e-01 2.4357829052798049e+01 1.2181703442134372e+01 0 0 0
3978 1 2.1945787894121516e+00 2.6685582440936642e+01 1.2087802679434319e+01 1 0 0
1996 1 1.6064446817737816e+00 2.3814521009043276e+01 1.4695237972021399e+01 1 0 -1
3896 1 4.3395629385897365e+00 2.3262137922835976e+01 1.4852841501972947e+01 1 0 0
4005 1 3.0510717677639740e+00 2.0729386810462984e+01 1.4508165582967317e+01 0 1 0
2015 1 2.9467273594237913e+00 2.5999534968179987e+01 1.7578614980603245e+01 0 1 0
1258 1 4.2939657355456822e+00 2.6227052396927146e+01 1.4729431144592034e+01 2 0 0
1369 1 1.7510610941284015e+00 2.2499746837777419e+01 1.9909603433856141e+01 0 0 1
3329 1 4.5543413299257871e+00 2.8690271742009294e+01 1.8538013059064973e+01 1 0 1
591 1 1.0725970108225575e+00 2.6580070963536890e+01 1.5180563737759419e+01 1 0 -1
1434 1 3.2157578837856930e+00 2.5123891972262147e+01 2.0523094544349405e+01 1 0 0
2649 1 4.3340752995576208e+00 2.1408455762555658e+01 1.8624479008552967e+01 1 0 0
628 1 2.9484508725123653e+00 2.2277963684121410e+01 2.4650028564539866e+01 0 0 0
3309 1 5.0133645475653488e+00 2.4786498171511969e+01 2.5112520832750157e+01 0 1 -1
4018 1 1.0425598142515204e+00 2.3607704197782454e+01 2.2889546707084143e+01 1 0 -1
4031 1 4.8288340767120586e+00 2.3806166605612098e+01 1.7436374588308858e+01 1 0 -1
767 1 6.4549483019867782e-01 2.8579419816380209e+01 2.1894489860379366e+01 2 0 0
3991 1 3.1075447398640965e-01 2.5957736489548893e+01 2.0709486508518786e+01 0 0 -1
654 1 1.0160718944198357e+00 2.0791767511051415e+01 2.2143244072079035e+01 1 0 0
1980 1 5.1851668107055193e+00 2.1126826353022594e+01 2.1421349065678449e+01 0 0 -1
3903 1 3.0512464563884556e-01 2.0722584189008064e+01 2.5170954533165812e+01 1 0 1
2067 1 4.2528632491542480e+00 2.7688303003391628e+01 2.4990397104187913e+01 1 0 1
3421 1 5.0322499448531390e+00 2.0221383064578941e+01 2.5146891617108281e+01 1 0 1
3354 1 4.5512943784890094e+00 2.3571591439018697e+01 2.2443266300001291e+01 1 0 0
2650 1 3.1010932968478588e+00 2.7565181555330291e+01 2.2174779388854716e+01 1 -1 0
1290 1 1.5704895619659196e+00 2.8629390574323278e+01 2.5110689320522823e+01 1 0 -1
590 1 3.0731649172452269e-01 2.0130928096668566e+01 1.4399586715470122e+01 0 0 -1
707 1 5.7467477970084435e-01 2.9372613143394211e+01 1.9210132515601714e+01 -1 -1 -1
1911 1 4.8712445331715175e+00 2.9272056105453657e+01 2.1219006955142966e+01 0 1 -1
783 2 0.0000000000000000e+00 2.9838039261988989e+01 3.3261466306020111e+00 0 0 0
785 2 1.2304999999999993e+00 3.0548468768226829e+01 3.3261466306020111e+00 0 0 0
805 2 2.4610000000000003e+00 2.9838039261988989e+01 3.3261466306020111e+00 0 0 0
807 2 3.6915000000000004e+00 3.0548468768226829e+01 3.3261466306020111e+00 0 0 0
835 2 4.9220000000000006e+00 2.9838039261988989e+01 3.3261466306020111e+00 0 0 0
781 2 0.0000000000000000e+00 3.2679757286940330e+01 3.3261466306020111e+00 0 0 0
797 2 0.0000000000000000e+00 3.4100616299415996e+01 3.3261466306020111e+00 0 0 0
801 2 1.2304999999999993e+00 3.1969327780702493e+01 3.3261466306020111e+00 0 0 0
803 2 2.4610000000000003e+00 3.2679757286940337e+01 3.3261466306020111e+00 0 0 0
827 2 2.4609999999999985e+00 3.4100616299415996e+01 3.3261466306020111e+00 0 0 0
831 2 3.6914999999999996e+00 3.1969327780702493e+01 3.3261466306020111e+00 0 0 0
833 2 4.9220000000000015e+00 3.2679757286940337e+01 3.3261466306020111e+00 0 0 0
865 2 4.9220000000000006e+00 3.4100616299415996e+01 3.3261466306020111e+00 0 0 0
799 2 1.2305000000000010e+00 3.4811045805653833e+01 3.3261466306020111e+00 0 0 0
829 2 3.6915000000000018e+00 3.4811045805653833e+01 3.3261466306020111e+00 0 0 0
795 2 0.0000000000000000e+00 3.6942334324367337e+01 3.3261466306020111e+00 0 0 0
819 2 0.0000000000000000e+00 3.8363193336842990e+01 3.3261466306020111e+00 0 0 0
823 2 1.2304999999999993e+00 3.6231904818129486e+01 3.3261466306020111e+00 0 0 0
825 2 2.4610000000000021e+00 3.6942334324367337e+01 3.3261466306020111e+00 0 0 0
857 2 2.4610000000000003e+00 3.8363193336842990e+01 3.3261466306020111e+00 0 0 0
861 2 3.6914999999999996e+00 3.6231904818129486e+01 3.3261466306020111e+00 0 0 0
863 2 4.9220000000000006e+00 3.6942334324367316e+01 3.3261466306020111e+00 0 0 0
902 2 4.9220000000000006e+00 3.8363193336842990e+01 3.3261466306020111e+00 0 0 0
821 2 1.2305000000000010e+00 3.9073622843080841e+01 3.3261466306020111e+00 0 0 0
859 2 3.6915000000000018e+00 3.9073622843080820e+01 3.3261466306020111e+00 0 0 0
782 2 0.0000000000000000e+00 3.1258898274464656e+01 6.2301964313797118e+00 0 0 0
784 2 0.0000000000000000e+00 2.9838039261988989e+01 6.2301964313797118e+00 0 0 0
804 2 2.4609999999999985e+00 3.1258898274464656e+01 6.2301964313797118e+00 0 0 0
806 2 2.4610000000000003e+00 2.9838039261988989e+01 6.2301964313797118e+00 0 0 0
1094 2 0.0000000000000000e+00 2.9838039261988989e+01 9.1342462321569400e+00 0 0 0
1095 2 1.2304999999999993e+00 3.0548468768226829e+01 9.1342462321569400e+00 0 0 0
1105 2 2.4610000000000003e+00 2.9838039261988989e+01 9.1342462321569400e+00 0 0 0
1106 2 3.6915000000000004e+00 3.0548468768226829e+01 9.1342462321569400e+00 0 0 0
834 2 4.9219999999999979e+00 3.1258898274464656e+01 6.2301964313797118e+00 0 0 0
836 2 4.9220000000000006e+00 2.9838039261988989e+01 6.2301964313797118e+00 0 0 0
1120 2 4.9220000000000006e+00 2.9838039261988989e+01 9.1342462321569400e+00 0 0 0
798 2 0.0000000000000000e+00 3.4100616299415996e+01 6.2301964313797118e+00 0 0 0
800 2 1.2304999999999993e+00 3.3390186793178160e+01 6.2301964313797118e+00 0 0 0
802 2 1.2304999999999993e+00 3.1969327780702493e+01 6.2301964313797118e+00 0 0 0
828 2 2.4609999999999985e+00 3.4100616299415996e+01 6.2301964313797118e+00 0 0 0
830 2 3.6914999999999978e+00 3.3390186793178160e+01 6.2301964313797118e+00 0 0 0
832 2 3.6914999999999996e+00 3.1969327780702493e+01 6.2301964313797118e+00 0 0 0
1093 2 0.0000000000000000e+00 3.2679757286940330e+01 9.1342462321569400e+00 0 0 0
1101 2 0.0000000000000000e+00 3.4100616299415996e+01 9.1342462321569400e+00 0 0 0
1103 2 1.2304999999999993e+00 3.1969327780702493e+01 9.1342462321569400e+00 0 0 0
1104 2 2.4610000000000003e+00 3.2679757286940337e+01 9.1342462321569400e+00 0 0 0
1116 2 2.4609999999999985e+00 3.4100616299415996e+01 9.1342462321569400e+00 0 0 0