LAMMPS data file via write_data, version 16 Mar 2018, timestep = 8000000

4063 atoms
2 atom types

0.0000000000000000e+00 4.9219999999999999e+01 xlo xhi
0.0000000000000000e+00 4.9019635930410494e+01 ylo yhi
1.0766532588832050e+00 2.6863346741117315e+01 zlo zhi

Masses

1 18.015
2 12.01

Atoms # atomic

53 2 0.0000000000000000e+00 2.8417180249513345e+00 2.6850452079754055e+00 0 0 0
55 2 0.0000000000000000e+00 0.0000000000000000e+00 2.6850452079754055e+00 0 0 0
57 2 1.2305000000000001e+00 7.1042950623783474e-01 2.6850452079754055e+00 0 0 0
64 2 1.2305000000000001e+00 2.1312885187134998e+00 2.6850452079754055e+00 0 0 0
66 2 2.4610000000000003e+00 2.8417180249513345e+00 2.6850452079754055e+00 0 0 0
68 2 2.4610000000000003e+00 0.0000000000000000e+00 2.6850452079754055e+00 0 0 0
70 2 3.6915000000000004e+00 7.1042950623783474e-01 2.6850452079754055e+00 0 0 0
85 2 3.6914999999999996e+00 2.1312885187134998e+00 2.6850452079754055e+00 0 0 0
87 2 4.9220000000000006e+00 2.8417180249513332e+00 2.6850452079754055e+00 0 0 0
89 2 4.9220000000000006e+00 0.0000000000000000e+00 2.6850452079754055e+00 0 0 0
60 2 0.0000000000000000e+00 4.2625770374269996e+00 2.6850452079754055e+00 0 0 0
81 2 2.4610000000000003e+00 4.2625770374269996e+00 2.6850452079754055e+00 0 0 0
110 2 4.9220000000000006e+00 4.2625770374269978e+00 2.6850452079754055e+00 0 0 0
62 2 1.2305000000000001e+00 4.9730065436648339e+00 2.6850452079754055e+00 0 0 0
77 2 1.2305000000000001e+00 6.3938655561404980e+00 2.6850452079754055e+00 0 0 0
83 2 3.6914999999999996e+00 4.9730065436648339e+00 2.6850452079754055e+00 0 0 0
106 2 3.6914999999999996e+00 6.3938655561404980e+00 2.6850452079754055e+00 0 0 0
58 2 0.0000000000000000e+00 7.1042950623783341e+00 2.6850452079754055e+00 0 0 0
73 2 0.0000000000000000e+00 8.5251540748539991e+00 2.6850452079754055e+00 0 0 0
75 2 1.2305000000000001e+00 9.2355835810918343e+00 2.6850452079754055e+00 0 0 0
79 2 2.4610000000000003e+00 7.1042950623783341e+00 2.6850452079754055e+00 0 0 0
102 2 2.4610000000000003e+00 8.5251540748539991e+00 2.6850452079754055e+00 0 0 0
104 2 3.6915000000000004e+00 9.2355835810918343e+00 2.6850452079754055e+00 0 0 0
108 2 4.9220000000000006e+00 7.1042950623783341e+00 2.6850452079754055e+00 0 0 0
139 2 4.9220000000000006e+00 8.5251540748539991e+00 2.6850452079754055e+00 0 0 0
54 2 0.0000000000000000e+00 1.4208590124756650e+00 5.7640119673043086e+00 0 0 0
56 2 0.0000000000000000e+00 0.0000000000000000e+00 5.7640119673043086e+00 0 0 0
65 2 1.2305000000000001e+00 2.1312885187134998e+00 5.7640119673043086e+00 0 0 0
67 2 2.4610000000000003e+00 1.4208590124756650e+00 5.7640119673043086e+00 0 0 0
69 2 2.4610000000000003e+00 0.0000000000000000e+00 5.7640119673043086e+00 0 0 0
86 2 3.6914999999999996e+00 2.1312885187134998e+00 5.7640119673043086e+00 0 0 0
382 2 0.0000000000000000e+00 2.8417180249513345e+00 8.8429787266380089e+00 0 0 0
383 2 0.0000000000000000e+00 0.0000000000000000e+00 8.8429787266380089e+00 0 0 0
384 2 1.2305000000000001e+00 7.1042950623783474e-01 8.8429787266380089e+00 0 0 0
388 2 1.2305000000000001e+00 2.1312885187134998e+00 8.8429787266380089e+00 0 0 0
389 2 2.4610000000000003e+00 2.8417180249513345e+00 8.8429787266380089e+00 0 0 0
390 2 2.4610000000000003e+00 0.0000000000000000e+00 8.8429787266380089e+00 0 0 0
391 2 3.6915000000000004e+00 7.1042950623783474e-01 8.8429787266380089e+00 0 0 0
399 2 3.6914999999999996e+00 2.1312885187134998e+00 8.8429787266380089e+00 0 0 0
88 2 4.9220000000000006e+00 1.4208590124756650e+00 5.7640119673043086e+00 0 0 0
90 2 4.9220000000000006e+00 0.0000000000000000e+00 5.7640119673043086e+00 0 0 0
400 2 4.9220000000000006e+00 2.8417180249513332e+00 8.8429787266380089e+00 0 0 0
401 2 4.9220000000000006e+00 0.0000000000000000e+00 8.8429787266380089e+00 0 0 0
61 2 0.0000000000000000e+00 4.2625770374269996e+00 5.7640119673043086e+00 0 0 0
63 2 1.2305000000000001e+00 3.5521475311891644e+00 5.7640119673043086e+00 0 0 0
82 2 2.4610000000000003e+00 4.2625770374269996e+00 5.7640119673043086e+00 0 0 0
84 2 3.6914999999999996e+00 3.5521475311891644e+00 5.7640119673043086e+00 0 0 0
386 2 0.0000000000000000e+00 4.2625770374269996e+00 8.8429787266380089e+00 0 0 0
397 2 2.4610000000000003e+00 4.2625770374269996e+00 8.8429787266380089e+00 0 0 0
111 2 4.9220000000000006e+00 4.2625770374269978e+00 5.7640119673043086e+00 0 0 0
412 2 4.9220000000000006e+00 4.2625770374269978e+00 8.8429787266380089e+00 0 0 0
59 2 0.0000000000000000e+00 5.6834360499026637e+00 5.7640119673043086e+00 0 0 0
78 2 1.2305000000000001e+00 6.3938655561404980e+00 5.7640119673043086e+00 0 0 0
80 2 2.4610000000000003e+00 5.6834360499026637e+00 5.7640119673043086e+00 0 0 0
107 2 3.6914999999999996e+00 6.3938655561404980e+00 5.7640119673043086e+00 0 0 0
387 2 1.2305000000000001e+00 4.9730065436648339e+00 8.8429787266380089e+00 0 0 0
395 2 1.2305000000000001e+00 6.3938655561404980e+00 8.8429787266380089e+00 0 0 0
398 2 3.6914999999999996e+00 4.9730065436648339e+00 8.8429787266380089e+00 0 0 0
410 2 3.6914999999999996e+00 6.3938655561404980e+00 8.8429787266380089e+00 0 0 0
109 2 4.9220000000000006e+00 5.6834360499026637e+00 5.7640119673043086e+00 0 0 0
74 2 0.0000000000000000e+00 8.5251540748539991e+00 5.7640119673043086e+00 0 0 0
76 2 1.2305000000000001e+00 7.8147245686161639e+00 5.7640119673043086e+00 0 0 0
103 2 2.4610000000000003e+00 8.5251540748539991e+00 5.7640119673043086e+00 0 0 0
105 2 3.6914999999999996e+00 7.8147245686161639e+00 5.7640119673043086e+00 0 0 0
385 2 0.0000000000000000e+00 7.1042950623783341e+00 8.8429787266380089e+00 0 0 0
393 2 0.0000000000000000e+00 8.5251540748539991e+00 8.8429787266380089e+00 0 0 0
394 2 1.2305000000000001e+00 9.2355835810918343e+00 8.8429787266380089e+00 0 0 0
396 2 2.4610000000000003e+00 7.1042950623783341e+00 8.8429787266380089e+00 0 0 0
408 2 2.4610000000000003e+00 8.5251540748539991e+00 8.8429787266380089e+00 0 0 0
409 2 3.6915000000000004e+00 9.2355835810918343e+00 8.8429787266380089e+00 0 0 0
140 2 4.9220000000000006e+00 8.5251540748539991e+00 5.7640119673043086e+00 0 0 0
411 2 4.9220000000000006e+00 7.1042950623783341e+00 8.8429787266380089e+00 0 0 0
427 2 4.9220000000000006e+00 8.5251540748539991e+00 8.8429787266380089e+00 0 0 0
4011 1 1.2865300169703944e+00 3.6107912681163010e+00 1.2145148408150876e+01 2 -1 -1
598 1 1.7784389507734588e+00 1.2193525717533977e+00 1.0967732660878911e+01 3 3 0
665 1 3.5380848156610321e+00 4.9492817457801719e+00 1.0962163602675592e+01 0 0 0
2731 1 3.4941192669356873e+00 7.7346525072336165e+00 1.1975650966601201e+01 -2 0 1
2567 1 5.5899283389986767e+00 3.3862899680786125e+00 1.1955532936103374e+01 -1 -1 1
1257 1 1.3393960127907167e+00 9.0902677693819509e+00 1.1253196271961853e+01 3 3 -1
2064 1 5.8753546659584499e+00 8.6270280652178055e+00 1.1029085491365120e+01 1 0 -2
2016 1 5.8144678909001319e+00 8.2880409455635951e-01 1.1329559145510535e+01 3 3 -1
31 1 1.3551540902737882e+00 3.7300533592937608e+00 1.4851535082555131e+01 -1 2 0
2636 1 1.2986365928443491e+00 9.7339955407836576e-01 1.5497527712741542e+01 0 3 1
687 1 3.7206901498014280e+00 5.1014086818779907e+00 1.5075666126087160e+01 3 3 0
3915 1 5.8872203671051153e+00 3.1713255219930709e+00 1.4690486388348036e+01 -1 1 0
615 1 5.9395985551937125e+00 8.6754536380291842e+00 1.5591781388029922e+01 1 -2 -1
3928 1 5.2661077453562832e+00 3.3104734706380503e+00 2.5250180577676922e+01 3 1 -1
3939 1 5.4517432755947475e+00 6.0498004114489481e+00 2.5757351584693819e+01 -1 -1 0
573 1 1.2662224323117632e+00 9.1880267067099162e+00 1.5382738966281188e+01 -1 0 0
708 1 3.5640315588383769e+00 7.7031969845964658e+00 1.4617672870404702e+01 1 -3 0
4053 1 9.9854581961705613e-01 6.0385596160329857e+00 2.6048142458506927e+01 3 1 -1
1911 1 1.1767606749994528e+00 8.8132544913800608e+00 1.8290519612818468e+01 -1 3 -1
2738 1 1.2232174047803386e+00 6.9706101742038518e-01 1.8224530543295032e+01 2 1 0
1417 1 3.7163192614197595e+00 4.5735325020107451e+00 1.7992999707658733e+01 1 1 0
3441 1 3.7680339882431957e+00 1.9452070822284484e+00 1.8808954994749836e+01 -4 -1 0
3384 1 3.2398547847880939e+00 1.7113167238556608e+00 2.1714479317287356e+01 0 2 0
44 1 1.5126153762057390e+00 5.9117178729705024e+00 1.9374741237465344e+01 0 1 0
1899 1 9.5252845004288356e-01 5.8670984261876047e+00 2.1992757141696210e+01 1 0 -1
1394 1 5.6311042696815239e+00 3.3497344004409708e+00 2.2504153202143065e+01 -1 0 -1
2698 1 5.8175923369838438e+00 5.5628550134169374e-01 1.8095695686254867e+01 1 1 1
2778 1 5.7447547633025708e+00 4.9845889763998558e-01 1.5544628194491224e+01 -1 1 0
2748 1 1.3267884213625369e+00 3.0339462887943962e+00 2.2811303309847951e+01 1 0 0
2589 1 3.3805814581755227e+00 1.6455445782425280e+00 2.6124083394930452e+01 -2 -1 -1
1273 1 1.2541174777401656e+00 3.1895608385287679e+00 2.5531663351451986e+01 2 2 1
1434 1 3.1245502821595879e+00 7.5459254421969684e+00 2.2654844132230270e+01 2 -1 0
3331 1 3.2155499262999947e+00 7.3441159048666309e+00 2.5313098718400152e+01 -1 1 0
663 1 5.8808667783256956e+00 9.0411057790472942e+00 1.8190975239396291e+01 0 0 0
3447 1 5.6578711338397953e+00 6.0290889064966287e+00 1.8861190501626954e+01 1 0 0
2679 1 5.2049707178631355e+00 6.0416196134256479e+00 2.1834166398798736e+01 2 0 -2
71 2 0.0000000000000000e+00 1.1366872099805333e+01 2.6850452079754055e+00 0 0 0
94 2 0.0000000000000000e+00 1.2787731112280996e+01 2.6850452079754055e+00 0 0 0
96 2 1.2305000000000001e+00 1.3498160618518829e+01 2.6850452079754055e+00 0 0 0
98 2 1.2305000000000001e+00 1.0656442593567498e+01 2.6850452079754055e+00 0 0 0
100 2 2.4610000000000003e+00 1.1366872099805333e+01 2.6850452079754055e+00 0 0 0
131 2 2.4610000000000003e+00 1.2787731112280996e+01 2.6850452079754055e+00 0 0 0
133 2 3.6915000000000004e+00 1.3498160618518829e+01 2.6850452079754055e+00 0 0 0
135 2 3.6914999999999996e+00 1.0656442593567499e+01 2.6850452079754055e+00 0 0 0
137 2 4.9220000000000006e+00 1.1366872099805333e+01 2.6850452079754055e+00 0 0 0
176 2 4.9220000000000006e+00 1.2787731112280996e+01 2.6850452079754055e+00 0 0 0
178 2 6.1524999999999990e+00 1.3498160618518829e+01 2.6850452079754055e+00 0 0 0
92 2 0.0000000000000000e+00 1.5629449137232333e+01 2.6850452079754055e+00 0 0 0
123 2 0.0000000000000000e+00 1.7050308149707998e+01 2.6850452079754055e+00 0 0 0
127 2 1.2305000000000001e+00 1.4919019630994494e+01 2.6850452079754055e+00 0 0 0
129 2 2.4610000000000003e+00 1.5629449137232328e+01 2.6850452079754055e+00 0 0 0
168 2 2.4610000000000003e+00 1.7050308149707998e+01 2.6850452079754055e+00 0 0 0
172 2 3.6915000000000004e+00 1.4919019630994494e+01 2.6850452079754055e+00 0 0 0
174 2 4.9220000000000006e+00 1.5629449137232333e+01 2.6850452079754055e+00 0 0 0
215 2 4.9220000000000006e+00 1.7050308149707998e+01 2.6850452079754055e+00 0 0 0
219 2 6.1524999999999990e+00 1.4919019630994494e+01 2.6850452079754055e+00 0 0 0
125 2 1.2305000000000001e+00 1.7760737655945832e+01 2.6850452079754055e+00 0 0 0
164 2 1.2305000000000001e+00 1.9181596668421495e+01 2.6850452079754055e+00 0 0 0
170 2 3.6914999999999996e+00 1.7760737655945832e+01 2.6850452079754055e+00 0 0 0
211 2 3.6914999999999996e+00 1.9181596668421495e+01 2.6850452079754055e+00 0 0 0
72 2 0.0000000000000000e+00 9.9460130873296642e+00 5.7640119673043086e+00 0 0 0
101 2 2.4610000000000003e+00 9.9460130873296642e+00 5.7640119673043086e+00 0 0 0
138 2 4.9220000000000006e+00 9.9460130873296642e+00 5.7640119673043086e+00 0 0 0
95 2 0.0000000000000000e+00 1.2787731112280996e+01 5.7640119673043086e+00 0 0 0
97 2 1.2305000000000001e+00 1.2077301606043163e+01 5.7640119673043086e+00 0 0 0
99 2 1.2305000000000001e+00 1.0656442593567498e+01 5.7640119673043086e+00 0 0 0
132 2 2.4610000000000003e+00 1.2787731112280996e+01 5.7640119673043086e+00 0 0 0
134 2 3.6914999999999996e+00 1.2077301606043163e+01 5.7640119673043086e+00 0 0 0
136 2 3.6914999999999996e+00 1.0656442593567499e+01 5.7640119673043086e+00 0 0 0
392 2 0.0000000000000000e+00 1.1366872099805333e+01 8.8429787266380089e+00 0 0 0
404 2 0.0000000000000000e+00 1.2787731112280996e+01 8.8429787266380089e+00 0 0 0
405 2 1.2305000000000001e+00 1.3498160618518829e+01 8.8429787266380089e+00 0 0 0
406 2 1.2305000000000001e+00 1.0656442593567498e+01 8.8429787266380089e+00 0 0 0
407 2 2.4610000000000003e+00 1.1366872099805333e+01 8.8429787266380089e+00 0 0 0
423 2 2.4610000000000003e+00 1.2787731112280996e+01 8.8429787266380089e+00 0 0 0
424 2 3.6915000000000004e+00 1.3498160618518829e+01 8.8429787266380089e+00 0 0 0
425 2 3.6914999999999996e+00 1.0656442593567499e+01 8.8429787266380089e+00 0 0 0
177 2 4.9220000000000006e+00 1.2787731112280996e+01 5.7640119673043086e+00 0 0 0
426 2 4.9220000000000006e+00 1.1366872099805333e+01 8.8429787266380089e+00 0 0 0
446 2 4.9220000000000006e+00 1.2787731112280996e+01 8.8429787266380089e+00 0 0 0
447 2 6.1524999999999990e+00 1.3498160618518829e+01 8.8429787266380089e+00 0 0 0
93 2 0.0000000000000000e+00 1.4208590124756663e+01 5.7640119673043086e+00 0 0 0
130 2 2.4610000000000003e+00 1.4208590124756663e+01 5.7640119673043086e+00 0 0 0
175 2 4.9220000000000006e+00 1.4208590124756663e+01 5.7640119673043086e+00 0 0 0
124 2 0.0000000000000000e+00 1.7050308149707998e+01 5.7640119673043086e+00 0 0 0
126 2 1.2305000000000001e+00 1.6339878643470165e+01 5.7640119673043086e+00 0 0 0
128 2 1.2305000000000001e+00 1.4919019630994494e+01 5.7640119673043086e+00 0 0 0
169 2 2.4610000000000003e+00 1.7050308149707998e+01 5.7640119673043086e+00 0 0 0
171 2 3.6915000000000004e+00 1.6339878643470165e+01 5.7640119673043086e+00 0 0 0
173 2 3.6915000000000004e+00 1.4919019630994494e+01 5.7640119673043086e+00 0 0 0
403 2 0.0000000000000000e+00 1.5629449137232333e+01 8.8429787266380089e+00 0 0 0
419 2 0.0000000000000000e+00 1.7050308149707998e+01 8.8429787266380089e+00 0 0 0
421 2 1.2305000000000001e+00 1.4919019630994494e+01 8.8429787266380089e+00 0 0 0
422 2 2.4610000000000003e+00 1.5629449137232328e+01 8.8429787266380089e+00 0 0 0
442 2 2.4610000000000003e+00 1.7050308149707998e+01 8.8429787266380089e+00 0 0 0
444 2 3.6915000000000004e+00 1.4919019630994494e+01 8.8429787266380089e+00 0 0 0
216 2 4.9220000000000006e+00 1.7050308149707998e+01 5.7640119673043086e+00 0 0 0
220 2 6.1524999999999990e+00 1.4919019630994494e+01 5.7640119673043086e+00 0 0 0
445 2 4.9220000000000006e+00 1.5629449137232333e+01 8.8429787266380089e+00 0 0 0
466 2 4.9220000000000006e+00 1.7050308149707998e+01 8.8429787266380089e+00 0 0 0
468 2 6.1524999999999990e+00 1.4919019630994494e+01 8.8429787266380089e+00 0 0 0
122 2 0.0000000000000000e+00 1.8471167162183658e+01 5.7640119673043086e+00 0 0 0
165 2 1.2305000000000001e+00 1.9181596668421495e+01 5.7640119673043086e+00 0 0 0
167 2 2.4610000000000003e+00 1.8471167162183658e+01 5.7640119673043086e+00 0 0 0
212 2 3.6914999999999996e+00 1.9181596668421495e+01 5.7640119673043086e+00 0 0 0
420 2 1.2305000000000001e+00 1.7760737655945832e+01 8.8429787266380089e+00 0 0 0
440 2 1.2305000000000001e+00 1.9181596668421495e+01 8.8429787266380089e+00 0 0 0
443 2 3.6914999999999996e+00 1.7760737655945832e+01 8.8429787266380089e+00 0 0 0
464 2 3.6914999999999996e+00 1.9181596668421495e+01 8.8429787266380089e+00 0 0 0
214 2 4.9220000000000006e+00 1.8471167162183658e+01 5.7640119673043086e+00 0 0 0
2642 1 4.1741926591172458e+00 1.2571657920656017e+01 1.1427925065706948e+01 1 -3 -1
735 1 1.6300100775009030e+00 1.1636080599427459e+01 1.1829621987476585e+01 -1 -1 1
4058 1 6.0452787446816627e+00 1.6843273252314017e+01 1.1491948684595258e+01 -1 1 -1
3950 1 1.6357203535060618e+00 1.6539732220136404e+01 1.1062343956539380e+01 3 -1 0
4036 1 3.9236165871515349e+00 1.5450490372799571e+01 1.2008471196099482e+01 0 -1 0
2110 1 1.2316096051956054e+00 1.9515521106912409e+01 1.1553669469346950e+01 2 -1 1
1324 1 3.3711721940822303e+00 1.2906596363756096e+01 1.5525002310439932e+01 2 0 0
2663 1 1.2034401117028266e+00 1.1743928191856179e+01 1.4624600939948413e+01 1 -1 0
1385 1 3.1504990475740886e+00 1.0416676179746808e+01 2.1989212944014810e+01 0 2 0
3912 1 1.2121751658905531e+00 1.6889367252802039e+01 1.5404525445823802e+01 -2 -2 -1
2685 1 3.5638815794309195e+00 1.5587976195297438e+01 1.4527712902265561e+01 2 1 0
3896 1 1.2473128694818802e+00 1.6874254722451138e+01 1.8187872118778962e+01 1 -2 0
3398 1 3.5867191018485820e+00 1.0380422714989885e+01 1.9105953797882179e+01 1 1 0
3996 1 3.1974582703553192e+00 1.2881102100388610e+01 1.8321507614132504e+01 -1 2 0
1364 1 5.6034893488667201e+00 1.4308771743345346e+01 2.5798852890631657e+01 -3 -1 -1
3247 1 5.6342467120110600e+00 1.4157733023943280e+01 1.9353447743923319e+01 2 -5 0
3999 1 1.1876850755590316e+00 1.4529866991601939e+01 2.2023541152287173e+01 -4 3 -1
2701 1 3.3816837313538426e+00 1.5953431032809483e+01 2.2726500273973066e+01 0 -2 0
3423 1 5.9417065620637031e+00 1.6837642297705848e+01 1.5310509922843046e+01 2 -1 0
29 1 9.9344355518406480e-01 1.4342651237381475e+01 1.9238146224605799e+01 1 0 0
1446 1 1.0636078655632195e+00 1.1708032223376627e+01 2.3012667340421054e+01 -1 1 1
27 1 5.7656156807065644e+00 1.6834431762873809e+01 1.8201276349081660e+01 -2 -3 -1
2087 1 3.5045899049823825e+00 1.8534155082189592e+01 1.8818217681745466e+01 1 3 0
684 1 3.6954689987651475e+00 1.8552345326505847e+01 2.1673842543089112e+01 2 -1 -1
2655 1 5.5071944378467350e+00 1.1761079656072255e+01 2.5478980808379507e+01 1 1 0
1412 1 5.5521566741800754e+00 1.4448825706714262e+01 2.2189481016920247e+01 2 -2 -1
2733 1 6.2476389924579323e-01 1.4411075332899367e+01 2.6100041081315617e+01 2 3 0
2116 1 9.4161069614738357e-01 1.1620482607495340e+01 2.5500463673293773e+01 2 -3 1
2561 1 3.2437251208165043e+00 1.5745585637052557e+01 2.5371759823346029e+01 3 0 0
1954 1 5.6133528579903782e+00 1.1846101028728432e+01 2.2551376045885597e+01 0 1 0
555 1 3.4978831411812745e+00 1.8318437381168856e+01 2.6200192765111886e+01 -3 0 -1
1265 1 3.2166560744649750e+00 1.0063830992747622e+01 2.6021361482896804e+01 1 2 -2
3938 1 5.6347295108208089e+00 1.1749253334058357e+01 1.4951496720624418e+01 -2 0 -1
3930 1 1.4691278607273885e+00 1.9463095148020688e+01 1.4270677489469433e+01 1 0 0
3963 1 1.3772801562358110e+00 1.9577101739439790e+01 2.2553676799673671e+01 -2 -3 0
121 2 0.0000000000000000e+00 1.9892026174659328e+01 2.6850452079754055e+00 0 0 0
166 2 2.4610000000000003e+00 1.9892026174659328e+01 2.6850452079754055e+00 0 0 0
213 2 4.9220000000000006e+00 1.9892026174659328e+01 2.6850452079754055e+00 0 0 0
158 2 0.0000000000000000e+00 2.4154603212086325e+01 2.6850452079754055e+00 0 0 0
160 2 0.0000000000000000e+00 2.1312885187134999e+01 2.6850452079754055e+00 0 0 0
162 2 1.2304999999999993e+00 2.2023314693372832e+01 2.6850452079754055e+00 0 0 0
203 2 1.2304999999999993e+00 2.3444173705848499e+01 2.6850452079754055e+00 0 0 0
205 2 2.4610000000000003e+00 2.4154603212086325e+01 2.6850452079754055e+00 0 0 0
207 2 2.4610000000000003e+00 2.1312885187134995e+01 2.6850452079754055e+00 0 0 0
209 2 3.6914999999999996e+00 2.2023314693372832e+01 2.6850452079754055e+00 0 0 0
250 2 3.6915000000000004e+00 2.3444173705848499e+01 2.6850452079754055e+00 0 0 0
252 2 4.9220000000000006e+00 2.4154603212086325e+01 2.6850452079754055e+00 0 0 0
254 2 4.9220000000000006e+00 2.1312885187134995e+01 2.6850452079754055e+00 0 0 0
256 2 6.1524999999999990e+00 2.2023314693372832e+01 2.6850452079754055e+00 0 0 0
777 2 0.0000000000000000e+00 2.5575462224561992e+01 2.6850452079754055e+00 0 0 0
779 2 1.2305000000000001e+00 2.6285891730799833e+01 2.6850452079754055e+00 0 0 0
787 2 1.2305000000000010e+00 2.7706750743275496e+01 2.6850452079754055e+00 0 0 0
791 2 2.4610000000000003e+00 2.5575462224561992e+01 2.6850452079754055e+00 0 0 0
793 2 3.6914999999999991e+00 2.6285891730799833e+01 2.6850452079754055e+00 0 0 0
809 2 3.6914999999999996e+00 2.7706750743275496e+01 2.6850452079754055e+00 0 0 0
813 2 4.9220000000000006e+00 2.5575462224561992e+01 2.6850452079754055e+00 0 0 0
839 2 6.1524999999999990e+00 2.7706750743275496e+01 2.6850452079754055e+00 0 0 0
775 2 0.0000000000000000e+00 2.8417180249513333e+01 2.6850452079754055e+00 0 0 0
789 2 2.4610000000000003e+00 2.8417180249513326e+01 2.6850452079754055e+00 0 0 0
811 2 4.9220000000000006e+00 2.8417180249513336e+01 2.6850452079754055e+00 0 0 0
163 2 1.2305000000000001e+00 2.0602455680897162e+01 5.7640119673043086e+00 0 0 0
210 2 3.6915000000000004e+00 2.0602455680897162e+01 5.7640119673043086e+00 0 0 0
418 2 0.0000000000000000e+00 1.9892026174659328e+01 8.8429787266380089e+00 0 0 0
441 2 2.4610000000000003e+00 1.9892026174659328e+01 8.8429787266380089e+00 0 0 0
465 2 4.9220000000000006e+00 1.9892026174659328e+01 8.8429787266380089e+00 0 0 0
159 2 0.0000000000000000e+00 2.2733744199610655e+01 5.7640119673043086e+00 0 0 0
161 2 0.0000000000000000e+00 2.1312885187134999e+01 5.7640119673043086e+00 0 0 0
204 2 1.2304999999999993e+00 2.3444173705848499e+01 5.7640119673043086e+00 0 0 0
206 2 2.4610000000000003e+00 2.2733744199610655e+01 5.7640119673043086e+00 0 0 0
208 2 2.4610000000000003e+00 2.1312885187134995e+01 5.7640119673043086e+00 0 0 0
251 2 3.6915000000000004e+00 2.3444173705848499e+01 5.7640119673043086e+00 0 0 0
437 2 0.0000000000000000e+00 2.4154603212086325e+01 8.8429787266380089e+00 0 0 0
438 2 0.0000000000000000e+00 2.1312885187134999e+01 8.8429787266380089e+00 0 0 0
439 2 1.2304999999999993e+00 2.2023314693372832e+01 8.8429787266380089e+00 0 0 0
460 2 1.2304999999999993e+00 2.3444173705848499e+01 8.8429787266380089e+00 0 0 0
461 2 2.4610000000000003e+00 2.4154603212086325e+01 8.8429787266380089e+00 0 0 0
462 2 2.4610000000000003e+00 2.1312885187134995e+01 8.8429787266380089e+00 0 0 0
463 2 3.6914999999999996e+00 2.2023314693372832e+01 8.8429787266380089e+00 0 0 0
484 2 3.6915000000000004e+00 2.3444173705848499e+01 8.8429787266380089e+00 0 0 0
253 2 4.9220000000000006e+00 2.2733744199610655e+01 5.7640119673043086e+00 0 0 0
255 2 4.9220000000000006e+00 2.1312885187134995e+01 5.7640119673043086e+00 0 0 0
485 2 4.9220000000000006e+00 2.4154603212086325e+01 8.8429787266380089e+00 0 0 0
486 2 4.9220000000000006e+00 2.1312885187134995e+01 8.8429787266380089e+00 0 0 0
487 2 6.1524999999999990e+00 2.2023314693372832e+01 8.8429787266380089e+00 0 0 0
776 2 0.0000000000000000e+00 2.6996321237037659e+01 5.7640119673043086e+00 0 0 0
778 2 0.0000000000000000e+00 2.5575462224561992e+01 5.7640119673043086e+00 0 0 0
780 2 1.2305000000000001e+00 2.4865032718324155e+01 5.7640119673043086e+00 0 0 0
788 2 1.2305000000000010e+00 2.7706750743275496e+01 5.7640119673043086e+00 0 0 0
790 2 2.4610000000000003e+00 2.6996321237037659e+01 5.7640119673043086e+00 0 0 0
792 2 2.4610000000000003e+00 2.5575462224561992e+01 5.7640119673043086e+00 0 0 0
794 2 3.6914999999999996e+00 2.4865032718324166e+01 5.7640119673043086e+00 0 0 0
810 2 3.6914999999999996e+00 2.7706750743275496e+01 5.7640119673043086e+00 0 0 0
1091 2 0.0000000000000000e+00 2.5575462224561992e+01 8.8429787266380089e+00 0 0 0
1092 2 1.2305000000000001e+00 2.6285891730799833e+01 8.8429787266380089e+00 0 0 0
1096 2 1.2305000000000010e+00 2.7706750743275496e+01 8.8429787266380089e+00 0 0 0
1098 2 2.4610000000000003e+00 2.5575462224561992e+01 8.8429787266380089e+00 0 0 0
1099 2 3.6914999999999991e+00 2.6285891730799833e+01 8.8429787266380089e+00 0 0 0
1107 2 3.6914999999999996e+00 2.7706750743275496e+01 8.8429787266380089e+00 0 0 0
812 2 4.9220000000000006e+00 2.6996321237037659e+01 5.7640119673043086e+00 0 0 0
814 2 4.9220000000000006e+00 2.5575462224561992e+01 5.7640119673043086e+00 0 0 0
816 2 6.1524999999999990e+00 2.4865032718324155e+01 5.7640119673043086e+00 0 0 0
840 2 6.1524999999999990e+00 2.7706750743275496e+01 5.7640119673043086e+00 0 0 0
1109 2 4.9220000000000006e+00 2.5575462224561992e+01 8.8429787266380089e+00 0 0 0
1122 2 6.1524999999999990e+00 2.7706750743275496e+01 8.8429787266380089e+00 0 0 0
786 2 1.2304999999999993e+00 2.9127609755751163e+01 5.7640119673043086e+00 0 0 0
808 2 3.6914999999999991e+00 2.9127609755751152e+01 5.7640119673043086e+00 0 0 0
1090 2 0.0000000000000000e+00 2.8417180249513333e+01 8.8429787266380089e+00 0 0 0
1097 2 2.4610000000000003e+00 2.8417180249513326e+01 8.8429787266380089e+00 0 0 0
838 2 6.1524999999999981e+00 2.9127609755751152e+01 5.7640119673043086e+00 0 0 0
1108 2 4.9220000000000006e+00 2.8417180249513336e+01 8.8429787266380089e+00 0 0 0
1264 1 3.3559108967742688e+00 2.1394748816321915e+01 1.1922351470038437e+01 0 0 0
1917 1 3.5350453725783662e+00 2.4212359089769087e+01 1.1617011532435397e+01 -1 1 0
1909 1 5.5882128198218943e+00 2.9145319111098811e+01 1.1682864193685951e+01 0 -1 -1
2639 1 1.2225056619635122e+00 2.5977634271571652e+01 1.1218631381343776e+01 -1 -1 -1
3401 1 1.1164960743149159e+00 2.8556760501597982e+01 1.1874619987002621e+01 4 0 -2
3444 1 5.8551073952861827e+00 1.9738688746967672e+01 1.1558406653135968e+01 3 0 0
3244 1 5.9622843103229384e+00 2.6087973167289356e+01 1.1316928100768438e+01 0 0 -1
1384 1 3.4856703507749955e+00 2.1108186008776912e+01 1.5229058220864452e+01 0 1 0
2588 1 3.6801065717721686e+00 2.3880990222933740e+01 1.4507753587751987e+01 1 -2 0
1278 1 3.8164696200113153e+00 2.1219203483419751e+01 1.7873622999588790e+01 1 0 -1
1901 1 5.9168455517191152e+00 2.7984398378364659e+01 2.2750875207780911e+01 0 -1 -1
1984 1 1.2907127484743457e+00 1.9674523344699690e+01 2.5249788744446096e+01 0 0 -1
1900 1 1.2407936157856276e+00 2.5519902454221508e+01 1.5346820886182435e+01 2 0 2
702 1 6.0008718402865986e+00 2.5044628160064232e+01 1.5121560108175636e+01 2 1 -1
1360 1 5.7305987278736863e+00 2.7794492821823866e+01 2.5452610197482130e+01 0 0 -1
3391 1 3.5970751190575823e+00 2.6416233612340584e+01 2.6208328138533691e+01 -2 2 -1
732 1 5.6741149469149459e+00 1.9731578939161270e+01 2.5311298840659539e+01 1 3 1
3435 1 5.6888632917786808e+00 2.7804893941909580e+01 1.4299911401531533e+01 -2 2 1
3293 1 5.6920002758542765e+00 2.5256874951325422e+01 1.7903486682119549e+01 0 0 0
761 1 5.5511605831226616e+00 2.2489223866316106e+01 2.1528101047865412e+01 2 0 0
641 1 1.3397227306219097e+00 2.2435134322992624e+01 1.8612983179604580e+01 1 0 0
2108 1 1.2276409558437076e+00 2.2440028177633671e+01 2.1592388244713998e+01 -1 0 0
3921 1 3.3050483954970917e+00 2.3982120667912596e+01 2.2697608187050808e+01 3 -3 0
1366 1 5.9426453571065503e+00 2.2605555175680625e+01 1.8834968589343145e+01 -1 -2 -1
1361 1 1.3869571548019042e+00 2.5122364442826541e+01 1.8011804117971966e+01 0 -4 -1
1311 1 3.4460224356747053e+00 2.6757317583362337e+01 1.8720976633540420e+01 3 -2 0
1934 1 3.6145645637932935e+00 2.6767277477736059e+01 2.1549663011366299e+01 3 -1 0
1389 1 1.5154302583840706e+00 2.8128632894462026e+01 1.4580387397131050e+01 2 -2 -1
561 1 1.1883777838089302e+00 2.2366082227818211e+01 2.6117202684830712e+01 1 4 1
1926 1 5.8920637095875232e+00 2.2382672685272603e+01 2.6115417708494476e+01 -1 1 0
3366 1 3.5729230093373827e+00 2.3672008450831331e+01 2.5658436880619412e+01 -1 2 0
2691 1 1.3209108657179114e+00 2.7901337690079327e+01 2.5683477805748119e+01 -1 0 0
705 1 1.4132884005329702e+00 2.7967597810444950e+01 2.2863248802860330e+01 3 1 0
585 1 5.8994986565365757e+00 1.9874767660444920e+01 2.2459949097662747e+01 1 1 -1
7 1 5.8347411815599033e+00 1.9654322244391011e+01 1.4351900997814587e+01 -1 -2 0
783 2 0.0000000000000000e+00 2.9838039261988989e+01 2.6850452079754055e+00 0 0 0
785 2 1.2304999999999993e+00 3.0548468768226829e+01 2.6850452079754055e+00 0 0 0
805 2 2.4610000000000003e+00 2.9838039261988989e+01 2.6850452079754055e+00 0 0 0
807 2 3.6915000000000004e+00 3.0548468768226829e+01 2.6850452079754055e+00 0 0 0
835 2 4.9220000000000006e+00 2.9838039261988989e+01 2.6850452079754055e+00 0 0 0
781 2 0.0000000000000000e+00 3.2679757286940330e+01 2.6850452079754055e+00 0 0 0
797 2 0.0000000000000000e+00 3.4100616299415996e+01 2.6850452079754055e+00 0 0 0
801 2 1.2304999999999993e+00 3.1969327780702493e+01 2.6850452079754055e+00 0 0 0
803 2 2.4610000000000003e+00 3.2679757286940337e+01 2.6850452079754055e+00 0 0 0
827 2 2.4609999999999985e+00 3.4100616299415996e+01 2.6850452079754055e+00 0 0 0
831 2 3.6914999999999996e+00 3.1969327780702493e+01 2.6850452079754055e+00 0 0 0
833 2 4.9220000000000015e+00 3.2679757286940337e+01 2.6850452079754055e+00 0 0 0
865 2 4.9220000000000006e+00 3.4100616299415996e+01 2.6850452079754055e+00 0 0 0
799 2 1.2305000000000010e+00 3.4811045805653833e+01 2.6850452079754055e+00 0 0 0
829 2 3.6915000000000018e+00 3.4811045805653833e+01 2.6850452079754055e+00 0 0 0
795 2 0.0000000000000000e+00 3.6942334324367337e+01 2.6850452079754055e+00 0 0 0
819 2 0.0000000000000000e+00 3.8363193336842990e+01 2.6850452079754055e+00 0 0 0
823 2 1.2304999999999993e+00 3.6231904818129486e+01 2.6850452079754055e+00 0 0 0
825 2 2.4610000000000021e+00 3.6942334324367337e+01 2.6850452079754055e+00 0 0 0
857 2 2.4610000000000003e+00 3.8363193336842990e+01 2.6850452079754055e+00 0 0 0
861 2 3.6914999999999996e+00 3.6231904818129486e+01 2.6850452079754055e+00 0 0 0
863 2 4.9220000000000006e+00 3.6942334324367316e+01 2.6850452079754055e+00 0 0 0
902 2 4.9220000000000006e+00 3.8363193336842990e+01 2.6850452079754055e+00 0 0 0
821 2 1.2305000000000010e+00 3.9073622843080841e+01 2.6850452079754055e+00 0 0 0
859 2 3.6915000000000018e+00 3.9073622843080820e+01 2.6850452079754055e+00 0 0 0
782 2 0.0000000000000000e+00 3.1258898274464656e+01 5.7640119673043086e+00 0 0 0
784 2 0.0000000000000000e+00 2.9838039261988989e+01 5.7640119673043086e+00 0 0 0
804 2 2.4609999999999985e+00 3.1258898274464656e+01 5.7640119673043086e+00 0 0 0
806 2 2.4610000000000003e+00 2.9838039261988989e+01 5.7640119673043086e+00 0 0 0
1094 2 0.0000000000000000e+00 2.9838039261988989e+01 8.8429787266380089e+00 0 0 0
1095 2 1.2304999999999993e+00 3.0548468768226829e+01 8.8429787266380089e+00 0 0 0
1105 2 2.4610000000000003e+00 2.9838039261988989e+01 8.8429787266380089e+00 0 0 0
1106 2 3.6915000000000004e+00 3.0548468768226829e+01 8.8429787266380089e+00 0 0 0
834 2 4.9219999999999979e+00 3.1258898274464656e+01 5.7640119673043086e+00 0 0 0
836 2 4.9220000000000006e+00 2.9838039261988989e+01 5.7640119673043086e+00 0 0 0
1120 2 4.9220000000000006e+00 2.9838039261988989e+01 8.8429787266380089e+00 0 0 0