
# Create simulation box and atoms

read_data data.ML_graphite_m500atm_250K
  orthogonal box = (0 0 1.82651) to (49.22 49.0196 26.1135)
  8 by 5 by 2 MPI processor grid
  reading atoms ...
  4063 atoms
  reading velocities ...
  4063 velocities
group water type 1
1303 atoms in group water
group graphite type 2
2760 atoms in group graphite

# Define potential

pair_style sw
pair_coeff * * MLC_e.sw mW C


# Fix graphite atoms in place

fix 5 graphite setforce 0.0 0.0 0.0
velocity graphite set 0.0 0.0 0.0


# Equilibration of molecular water

# Add velocity/set timestep

velocity	    water create ${TEMP} ${SEED} rot yes dist gaussian
velocity	    water create 250 ${SEED} rot yes dist gaussian
velocity	    water create 250 22181 rot yes dist gaussian
timestep	    5.0

# Define output

compute			1 water msd
compute			3 water temp
thermo	    	50
thermo_style	custom step temp press vol etotal ke pe c_1[4] c_3

# Neighbor lists

neigh_modify    delay 0 every 1 check yes

# Set fixes

fix             1 water momentum 10 linear 1 1 1 rescale
fix             2 water nve
fix             3 water temp/csvr ${TEMP} ${TEMP} 500.0 ${SEED}
fix             3 water temp/csvr 250 ${TEMP} 500.0 ${SEED}
fix             3 water temp/csvr 250 250 500.0 ${SEED}
fix             3 water temp/csvr 250 250 500.0 22181
fix             4 water press/berendsen z ${PRES} ${PRES} 1000.0 modulus 20000
fix             4 water press/berendsen z -500 ${PRES} 1000.0 modulus 20000
fix             4 water press/berendsen z -500 -500 1000.0 modulus 20000

# Run 0.5 ns equilibration

dump		    1 all atom 2000 ${DIR}/eq.${NAME}-${TEMP}.dump
dump		    1 all atom 2000 run_14/eq.${NAME}-${TEMP}.dump
dump		    1 all atom 2000 run_14/eq.het_freeze_14-${TEMP}.dump
dump		    1 all atom 2000 run_14/eq.het_freeze_14-250.dump

reset_timestep  0

run	            100000
Neighbor list info ...
  update every 1 steps, delay 0 steps, check yes
  max neighbors/atom: 2000, page size: 100000
  master list distance cutoff = 6.67472
  ghost atom cutoff = 6.67472
  binsize = 3.33736, bins = 15 15 8
  1 neighbor lists, perpetual/occasional/extra = 1 0 0
  (1) pair sw, perpetual
      attributes: full, newton on
      pair build: full/bin/atomonly
      stencil: full/bin/3d
      bin: standard
Per MPI rank memory allocation (min/avg/max) = 4.096 | 4.284 | 4.472 Mbytes
Step Temp Press Volume TotEng KinEng PotEng c_1[4] c_3 
       0    80.132939   -1249.8493    58598.323   -12595.461    970.25367   -13565.715            0          250 
      50    78.784706   -1210.8173    58513.494    -12608.46    953.92919   -13562.389   0.54202712    245.79376 
     100    81.441405   -1181.9246    58495.334   -12622.281    986.09664   -13608.378   0.97195556    254.08217 
     150    81.944274   -1055.8192    58468.944   -12591.341     992.1854   -13583.526    1.3713381    255.65103 
     200    78.204151   -831.36001    58501.132   -12612.554     946.8998   -13559.454    1.6118681    243.98254 
     250    81.402521   -665.48538    58495.751   -12571.587    985.62583   -13557.213    1.8218409    253.96086 
     300    81.711026   -1030.9906    58497.462   -12556.415    989.36123   -13545.777    2.0717354    254.92334 
     350    80.541437    -1083.913    58494.769   -12539.061    975.19978   -13514.261    2.2826717    251.27444 
     400    79.197218   -914.09019    58480.274   -12548.936    958.92391    -13507.86    2.4261719    247.08072 
     450    84.594335   -1234.9825    58483.716   -12531.881    1024.2725   -13556.153    2.6754416    263.91873 
     500    82.170779   -790.12583     58462.38   -12545.509    994.92793   -13540.437    2.9032825    256.35768 
     550    81.178667   -1446.6052    58439.221   -12553.783    982.91539   -13536.699    3.2066955    253.26248 
     600    82.751153   -929.76949    58433.627   -12551.222    1001.9551   -13553.177    3.4576413    258.16834 
     650    82.262479   -1231.4921    58424.177   -12543.741    996.03824   -13539.779    3.6309695    256.64377 
     700    82.436042   -965.18126    58467.737   -12515.683    998.13975   -13513.822    3.8385718    257.18526 
     750    82.098567   -833.01727    58499.987   -12518.797    994.05359   -13512.851    4.1507781    256.13239 
     800    83.383732   -996.72257    58492.048   -12531.743    1009.6144   -13541.358    4.4073861    260.14187 
     850    83.939795   -1135.3788    58529.137   -12512.754    1016.3473   -13529.101    4.5589601    261.87669 
     900    81.635114   -811.35775     58552.22   -12508.217    988.44207   -13496.659    4.8569574    254.68651 
     950    80.020809   -1386.9345    58569.631   -12526.467    968.89599   -13495.363    5.1484635    249.65017 
    1000     80.33734   -1395.9406    58550.574   -12544.846    972.72856   -13517.574    5.3497713    250.63769 
    1050    78.556012   -1540.7121    58446.692   -12614.594    951.16015   -13565.754    5.6497547    245.08028 
    1100     80.57065   -1026.5975    58450.478   -12596.483    975.55349   -13572.037    5.9173302    251.36558 
    1150    79.318836    -1159.631     58421.42   -12605.247    960.39647   -13565.644    6.0455152    247.46015 
    1200    78.288358     -1388.11    58358.925   -12593.037    947.91939   -13540.957    6.3400954    244.24525 
    1250    80.208374   -1433.7417    58307.465   -12620.214    971.16703   -13591.381    6.6217556    250.23534 
    1300    78.593238   -861.85581    58257.624   -12627.393    951.61089   -13579.004    6.8700109    245.19641 
    1350    78.039547   -1180.2781    58261.364   -12618.907    944.90677   -13563.814    7.0368748      243.469 
    1400    82.243659   -1029.6503    58236.076   -12613.072    995.81037   -13608.882     7.204019    256.58506 
    1450    78.989171   -829.76763    58268.469   -12645.586    956.40486   -13601.991    7.4317103    246.43165 
    1500     80.10922   -987.14621    58312.104    -12611.58    969.96647   -13581.547    7.5461055      249.926 
    1550    79.552229   -963.13332    58277.562    -12607.62     963.2224   -13570.842    7.6652007    248.18829 
    1600    80.095245   -1177.8838    58285.404   -12576.772    969.79726    -13546.57    7.8033837     249.8824 
    1650    80.417043   -550.52463    58353.322   -12563.373    973.69361   -13537.067    7.9457689    250.88635 
    1700    81.133491   -916.08936    58381.998   -12590.771     982.3684    -13573.14    8.1942453    253.12154 
    1750       79.352   -1130.4682    58452.316   -12637.208    960.79802   -13598.006    8.2920235    247.56361 
    1800    81.438985   -1395.7319    58416.879   -12632.683    986.06734   -13618.751    8.4547688    254.07462 
    1850    82.477306    -1385.413    58430.543   -12605.888    998.63938   -13604.527    8.5237343    257.31399 
    1900    80.278307   -1318.2259    58438.893   -12603.833    972.01379   -13575.847    8.6111913    250.45352 
    1950    79.088922   -794.76774    58444.188   -12633.276    957.61266   -13590.889    8.8534059    246.74286 
    2000    79.307444   -1262.8822    58476.283   -12645.548    960.25853   -13605.807    9.1376832    247.42461 
    2050    76.272569   -1024.7299    58472.091   -12630.965    923.51211   -13554.477    9.3268153    237.95635 
    2100    81.664432   -855.88013     58479.37   -12606.973    988.79706    -13595.77    9.5339681    254.77797 
    2150    81.674769   -652.11566    58500.997   -12604.198    988.92222   -13593.121    9.6041081    254.81022 
    2200    78.933167   -1190.9105      58516.1   -12587.366    955.72677   -13543.093    9.8847808    246.25693 
    2250    79.743439    -989.7472    58520.039   -12597.122    965.53759    -13562.66    10.168614    248.78483 
    2300    81.584014   -984.19527    58572.612   -12611.218    987.82335   -13599.042    10.392305    254.52708 
    2350    80.751068   -806.34522    58599.251   -12631.326      977.738   -13609.064    10.564308    251.92845 
    2400    81.804854   -1030.9454    58597.578   -12623.905    990.49729   -13614.402    10.611354    255.21606 
    2450    79.072741   -1282.8603    58578.821   -12617.194    957.41674   -13574.611    10.685809    246.69238 
    2500    79.136325   -1288.0352    58541.091   -12652.005    958.18661   -13610.192    10.770481    246.89075 
    2550    81.194169   -1275.7633    58521.057   -12679.041    983.10309   -13662.144    11.030721    253.31084 
    2600    78.501281   -931.36096    58487.577   -12682.679    950.49747   -13633.176    11.373401    244.90953 
    2650    78.614425   -839.67836     58462.98   -12660.551    951.86742   -13612.419    11.581611    245.26251 
    2700    79.290243   -1147.2021    58422.178   -12646.119    960.05027    -13606.17    11.851937    247.37094 
    2750     78.33762   -1009.9105     58379.47   -12655.397    948.51586   -13603.913    12.005793    244.39894 
    2800    80.074855   -1282.7637    58365.538   -12659.999    969.55038    -13629.55    12.157811    249.81879 
    2850    80.540825   -851.81878    58365.238   -12652.001    975.19237   -13627.194    12.537283    251.27253 
    2900    78.230598   -952.12249    58424.792   -12653.569    947.22002   -13600.789    12.762568    244.06505 
    2950    81.076205    -990.5748    58464.165   -12631.448    981.67478   -13613.122    12.907606    252.94282 
    3000    81.603511   -1206.6432    58452.783   -12683.452    988.05942   -13671.512    13.078741    254.58791 
    3050    79.576327   -1118.8172    58436.223   -12670.764    963.51418   -13634.278    13.265329    248.26347 
    3100    84.403488   -555.87272    58488.617   -12585.063    1021.9617   -13607.025    13.607743    263.32333 
    3150    83.552087   -968.40599    58544.183   -12583.128    1011.6529   -13594.781    13.990177    260.66711 
    3200    82.690892   -975.10983    58554.083   -12581.608    1001.2255   -13582.834    14.306824    257.98034 
    3250    81.967663   -984.35742     58521.49   -12573.921    992.46859   -13566.389    14.333298      255.724 
    3300    82.480074   -1021.9608    58503.185   -12598.258     998.6729    -13596.93    14.587125    257.32263 
    3350    82.537836   -976.73074     58464.07   -12579.789    999.37228   -13579.161    14.831266    257.50283 
    3400    81.061586   -1035.5316    58448.801   -12585.123    981.49776   -13566.621    14.827937     252.8972 
    3450     80.63458   -667.19513    58384.612   -12612.193    976.32756    -13588.52    15.007204    251.56503 
    3500    82.481372   -975.51273    58395.236   -12635.417    998.68861   -13634.106    15.265777    257.32668 
    3550    81.242074   -581.09374    58378.036   -12616.711    983.68312   -13600.394    15.552669    253.46029 
    3600    80.987601   -1029.6228    58372.886   -12636.072    980.60196   -13616.674    15.653591    252.66639 
    3650     78.80784    -1081.211    58390.041   -12648.501     954.2093   -13602.711    15.650177    245.86593 
    3700    79.281672   -1350.7537     58331.15   -12669.129    959.94648   -13629.076    15.958165     247.3442 
    3750    78.978029   -705.76824    58333.803   -12647.063    956.26995   -13603.333    16.482622    246.39689 
    3800    77.705021   -884.93487    58386.651   -12657.567    940.85631   -13598.423    16.805243    242.42534 
    3850     79.29177   -881.83414    58353.831   -12648.612    960.06875   -13608.681    17.005304    247.37571 
    3900    81.316683   -1128.1969    58392.418   -12624.456    984.58649   -13609.043    17.427145    253.69306 
    3950    83.747091   -807.37067    58391.857   -12605.373     1014.014   -13619.387    17.765446    261.27549 
    4000    81.358493   -762.05271    58381.727   -12604.065    985.09274   -13589.158    18.127012     253.8235 
    4050    79.419263   -1047.8145     58418.97   -12624.315    961.61245   -13585.927    18.542856    247.77346 
    4100    81.597952   -919.53785    58424.049   -12635.925    987.99211   -13623.917    18.727899    254.57057 
    4150    79.816443   -1129.6698    58399.284   -12677.371    966.42152   -13643.793    18.934121    249.01259 
    4200    78.906033   -755.79649    58383.757   -12687.137    955.39823   -13642.536    19.011835    246.17228 
    4250    78.997997   -1145.5165    58363.059   -12714.288    956.51174     -13670.8    19.265515    246.45919 
    4300    77.284445   -1316.2064    58337.368   -12704.808    935.76396   -13640.572    19.449424    241.11322 
    4350    79.128116   -982.90384    58347.689   -12672.454    958.08722   -13630.541     19.70509    246.86514 
    4400     79.67642   -811.45028    58344.054   -12684.784    964.72611    -13649.51    19.893548    248.57574 
    4450    79.071243   -779.26028    58319.144   -12704.369    957.39859   -13661.768    19.961451     246.6877 
    4500    77.046406   -1049.1567     58329.17   -12718.537    932.88177   -13651.418     20.25604    240.37058 
    4550    77.776008   -965.57898    58349.015   -12676.325    941.71582   -13618.041     20.24178    242.64681 
    4600    76.788951   -889.01466    58294.614   -12683.944    929.76449   -13613.709    20.440751    239.56737 
    4650    77.841472   -744.41219    58314.978   -12692.232    942.50847   -13634.741    20.639762    242.85104 
    4700     78.76716   -640.94322    58330.033   -12675.239    953.71674   -13628.956     20.99316    245.73902 
    4750    79.054881    -962.8177    58351.821   -12674.626    957.20048   -13631.827    21.366446    246.63665 
    4800    82.226927   -1161.9404    58327.369   -12673.095    995.60778   -13668.703    21.616134    256.53286 
    4850    78.409017   -1102.6501    58340.932   -12670.146    949.38033   -13619.527    21.818861    244.62168 
    4900    78.230266   -755.26568    58373.196    -12642.03    947.21601   -13589.246    22.013187    244.06401 
    4950    80.290291   -530.75986    58449.255   -12639.277     972.1589   -13611.436    22.343494    250.49091 
    5000    83.558428   -891.92008    58494.963   -12622.587    1011.7297   -13634.317     22.36967    260.68689 
    5050    82.730058   -563.83965    58497.214   -12616.083    1001.6997   -13617.783    22.571557    258.10253 
    5100    81.148396   -730.93781    58535.853   -12646.178    982.54887   -13628.726    22.804337    253.16804 
    5150     79.69208   -727.12971    58562.868   -12635.549    964.91572   -13600.465    23.073269     248.6246 
    5200    78.939319   -694.63775    58582.073   -12666.949    955.80125    -13622.75    23.252381    246.27612 
    5250    79.872514   -575.81603    58612.801   -12690.755    967.10042   -13657.855    23.410783    249.18752 
    5300    79.190359   -726.07278    58641.105   -12702.953    958.84085   -13661.794    23.773251    247.05932 
    5350    77.306699   -916.08204     58608.07   -12680.952    936.03341   -13616.986    24.123445    241.18265 
    5400    82.679631    -566.6795     58598.57   -12645.723    1001.0891   -13646.812    24.304893    257.94521 
    5450    81.528835   -1008.8378    58695.963   -12670.002    987.15524   -13657.157    24.584168    254.35494 
    5500    84.585999   -880.06065    58678.383   -12634.956    1024.1715   -13659.127    24.818523    263.89273 
    5550    82.289024   -1196.5848    58706.116   -12652.725    996.35965   -13649.084    24.937605    256.72659 
    5600    81.056533   -1144.4388    58696.335   -12651.276    981.43659   -13632.712    25.116679    252.88144 
    5650    79.856911   -1163.9845    58643.517   -12690.932    966.91151   -13657.843     25.10405    249.13884 
    5700    79.266252   -1033.0452    58551.068   -12691.643    959.75978   -13651.402    25.367147     247.2961 
    5750    81.470334   -1158.2597    58563.791   -12646.197    986.44691   -13632.644    25.748093    254.17242 
    5800    80.065094   -878.59761     58616.11   -12667.001     969.4322   -13636.433    26.318725    249.78833 
    5850    78.964518   -1019.2586    58657.192   -12684.058    956.10637   -13640.164    26.680365    246.35474 
    5900    81.090876    -1030.518     58716.36   -12659.915    981.85241   -13641.767    26.808155    252.98858 
    5950    80.072725   -1043.0403    58724.744    -12672.57    969.52459   -13642.095    26.922217    249.81214 
    6000    77.594075   -843.20815    58688.574   -12680.864    939.51297   -13620.377    27.011573    242.07921 
    6050    80.073979   -967.20809    58737.156   -12626.591    969.53977   -13596.131     27.36671    249.81605 
    6100    82.684391   -334.28323    58846.151   -12584.111    1001.1468   -13585.258    27.438779    257.96006 
    6150    84.259333   -790.96377    58905.092   -12603.345    1020.2162   -13623.561    27.299708    262.87359 
    6200     81.65458   -1264.4396    58948.249   -12620.805    988.67777   -13609.483      27.4342    254.74724 
    6250    82.142225   -943.29975    58970.584   -12573.911     994.5822   -13568.493    27.331109     256.2686 
    6300    84.750754   -1000.1175     59023.13   -12584.352    1026.1664   -13610.518    27.524804    264.40673 
    6350    81.004979   -922.79781    59056.102   -12592.191    980.81237   -13573.004     28.07861     252.7206 
    6400     82.97551   -1419.9795    59042.674   -12577.416    1004.6717   -13582.087    27.935221     258.8683 
    6450    81.407745   -1141.7416    59003.879   -12578.886    985.68908   -13564.575     28.06415    253.97716 
    6500    78.688124   -1180.7018    59026.748   -12585.018    952.75978   -13537.777    28.158939    245.49244 
    6550    82.533007   -1271.1152    58984.837   -12615.275    999.31382   -13614.588    28.187635    257.48777 
    6600    76.810938   -1412.2636    58896.106   -12644.739    930.03071   -13574.769    28.767298    239.63597 
    6650    79.567227     -555.065     58941.01   -12632.403      963.404   -13595.807    28.880834    248.23508 
    6700    79.315989   -828.02071    59045.599   -12618.033    960.36199   -13578.395    28.998629    247.45126 
    6750    80.587284   -806.81438    59066.899   -12605.822    975.75489   -13581.577    29.110813    251.41747 
    6800    80.711479   -777.56575     59073.03   -12646.276    977.25865   -13623.535    28.919609    251.80494 
    6850    78.128968   -989.39232    59015.636   -12669.806    945.98948   -13615.796    29.177372    243.74798 
    6900    78.897402   -1021.1495    58950.939    -12652.28    955.29373   -13607.574    29.363351    246.14535 
    6950    81.122991   -1130.1473    58941.812   -12635.687    982.24127   -13617.928    29.545668    253.08878 
    7000     81.45397   -866.88628    58907.637   -12642.874    986.24877   -13629.122    29.466603    254.12137 
    7050    80.068371   -1217.2664    58887.128   -12660.744    969.47187   -13630.216    29.563891    249.79856 
    7100    79.316148   -1043.1348    58878.176   -12626.402    960.36393   -13586.766    29.507136    247.45176 
    7150    82.074963   -1137.7011    58871.662   -12624.603    993.76779    -13618.37     29.58158    256.05876 
    7200    77.130916    -1201.391    58900.254   -12625.043    933.90502   -13558.948     29.82351    240.63424 
    7250    82.072712   -1157.7597    58860.891   -12636.413    993.74054   -13630.154    30.327432    256.05173 
    7300    79.662397   -755.57815    58842.126   -12651.472    964.55632   -13616.028    30.614301    248.53199 
    7350    81.321521    -986.2341    58853.585   -12628.205    984.64508    -13612.85    30.944511    253.70816 
    7400    80.708082   -883.35806    58870.841   -12603.536    977.21753   -13580.753     31.17888    251.79434 
    7450    81.333823   -1045.9584    58809.195   -12614.915    984.79403   -13599.709    31.094319    253.74654 
    7500    78.308165   -1005.4847    58783.084   -12583.202    948.15921   -13531.361    31.170842    244.30704 
    7550    85.433986   -1124.5968    58768.908   -12591.671     1034.439    -13626.11    31.409002    266.53829 
    7600     80.84561   -1151.8502    58770.485   -12628.521    978.88272   -13607.404    31.350158     252.2234 
    7650    82.211636   -1609.5075    58709.997   -12601.762    995.42264   -13597.185    31.555729    256.48515 
    7700     80.32611   -1071.6167    58707.413   -12602.963     972.5926   -13575.555    31.666545    250.60266 
    7750     83.51833   -899.50823    58719.061   -12618.127    1011.2442   -13629.371    31.543823     260.5618 
    7800    78.591262   -1076.8391    58729.329   -12610.971    951.58696   -13562.558    31.423537    245.19025 
    7850    79.472822   -1088.9012    58742.398   -12632.803    962.26094   -13595.063    31.408827    247.94056 
    7900    80.709433   -1254.5266    58743.074    -12610.92    977.23389   -13588.154    31.551923    251.79855 
    7950     81.90534   -981.69227    58780.222   -12582.066    991.71398    -13573.78    31.617882    255.52956 
    8000    79.003374   -826.39456    58778.214   -12582.112    956.57683   -13538.689    31.893301    246.47596 
    8050    79.446466   -522.47422    58813.573   -12578.747    961.94182   -13540.689    31.982791    247.85833 
    8100    79.627449   -803.91817    58865.632   -12589.188    964.13316   -13553.321    32.013911    248.42296 
    8150    81.081278   -647.44078    58921.552   -12576.202     981.7362   -13557.938    32.099938    252.95864 
    8200    83.385155   -903.55835     58931.51   -12551.231    1009.6317   -13560.863    32.212271    260.14631 
    8250    82.524018   -950.32075    58981.997   -12570.701    999.20497   -13569.906    32.078492    257.45972 
    8300    81.328855   -1039.9999    58998.612   -12568.949    984.73387   -13553.683    32.296471    253.73104 
    8350    79.800141   -392.93346    59005.106    -12569.91    966.22413   -13536.134    32.477892    248.96173 
    8400    78.517474   -904.05047    59011.446   -12605.142    950.69354   -13555.836     32.63993    244.96005 
    8450    79.330274   -835.91381    59002.663   -12582.343    960.53496   -13542.878    33.003907    247.49583 
    8500    79.802287    -915.4717    59041.339   -12575.438    966.25011   -13541.688    33.178795    248.96842 
    8550    80.978859   -1087.4943     59108.26   -12575.824    980.49611    -13556.32    33.098185    252.63911 
    8600    81.477998   -616.79217    59177.668   -12536.361    986.53971   -13522.901    33.181381    254.19634 
    8650    82.059643   -1081.5066    59189.129   -12564.379    993.58229   -13557.961    33.530855    256.01096 
    8700    80.088898   -834.77218    59132.633   -12583.152    969.72042   -13552.872    33.587582     249.8626 
    8750    80.185729   -1129.9254    59130.196   -12604.838    970.89285   -13575.731    33.814534    250.16469 
    8800    79.697402   -842.19897    59131.839   -12625.431    964.98016   -13590.411    33.896695     248.6412 
    8850     79.48522   -1086.7341    59199.755   -12581.984    962.41105   -13544.395    34.106459    247.97923 
    8900    78.568121   -778.29955    59239.559   -12572.122    951.30678   -13523.428    34.241449    245.11806 
    8950    79.739976   -1158.7199    59219.178   -12569.285    965.49565   -13534.781    34.427112    248.77403 
    9000    81.848951   -994.90897    59203.933   -12571.513    991.03122   -13562.544    34.509187    255.35364 
    9050     79.17256   -1077.0523     59192.79    -12589.22    958.62535   -13547.845    35.111424    247.00379 
    9100    79.286341   -1322.3517    59177.743   -12581.704    960.00302   -13541.707    35.369797    247.35877 
    9150    81.652339   -1295.6698    59092.543   -12574.608    988.65063   -13563.259    35.450572    254.74025 
    9200    81.130907   -1366.4906    59011.193   -12603.685    982.33712   -13586.022    35.459919    253.11348 
    9250    81.995571   -1107.8673    58947.993   -12593.573    992.80651   -13586.379    35.670101    255.81107 
    9300     83.24702   -1098.5296      58936.6   -12596.489    1007.9591   -13604.448      36.0159    259.71536 
    9350    82.321843    -793.3616    58904.442   -12588.569    996.75703   -13585.326    36.079433    256.82898 
    9400    79.182354   -1430.9997    58910.857   -12609.416    958.74394    -13568.16    36.420019    247.03435 
    9450    79.087025   -1201.1893    58924.442   -12602.789    957.58969   -13560.378    36.771058    246.73694 
    9500    82.711388   -1211.1899     58871.89   -12592.404    1001.4737   -13593.878    36.960552    258.04428 
    9550    80.251551   -1219.5768    58915.364   -12608.239    971.68983   -13579.928     36.98371    250.37005 
    9600    80.970485   -843.45445    58893.187   -12599.388    980.39471   -13579.783    37.202447    252.61299 
    9650    80.784233   -1133.4299    58930.912   -12595.833    978.13957   -13573.973    37.356112    252.03192 
    9700    85.391547   -981.67723    58906.792   -12538.004    1033.9252   -13571.929    37.637855    266.40589 
    9750     82.06768   -997.49362     58881.58   -12542.229    993.67961   -13535.908    37.696517    256.03604 
    9800    80.494864   -1308.0496    58912.237   -12578.374    974.63587    -13553.01    38.105467    251.12914 
    9850    80.847518   -1396.7269    58898.559   -12561.026    978.90582   -13539.932    38.272916    252.22935 
    9900     83.61943   -1108.3652    58840.365     -12583.3    1012.4683   -13595.768    38.452143    260.87721 
    9950    77.380507   -798.72235    58871.755   -12623.373    936.92707     -13560.3    38.810765    241.41292 
   10000    80.366837   -1213.5777    58854.371   -12626.834    973.08572   -13599.919    39.146746    250.72972 
   10050    80.282948   -1329.7459    58854.911   -12629.858    972.06999   -13601.928    39.196081      250.468 
   10100    79.660829   -1607.6583    58757.814    -12623.49    964.53733   -13588.027    39.350203     248.5271 
   10150    80.082624   -1182.4045    58730.056   -12632.275    969.64445   -13601.919    39.962053    249.84303 
   10200     79.37052   -1046.9041    58701.595   -12606.307    961.02226   -13567.329     40.53607    247.62139 
   10250    83.025298   -1035.3777    58663.568   -12608.006    1005.2745    -13613.28    40.578956    259.02363 
   10300    81.633655   -1086.1832    58657.238   -12615.007    988.42441   -13603.431    40.657423    254.68196 
   10350    81.960305   -920.69583    58711.816   -12604.339     992.3795   -13596.718    40.813265    255.70104 
   10400    79.860948   -851.75094    58722.931   -12621.206    966.96038   -13588.166    40.774837    249.15144 
   10450    80.449673   -916.37226    58748.354   -12627.144    974.08869   -13601.232    40.823509    250.98815 
   10500    77.114213   -793.63828     58717.21   -12621.987    933.70278    -13555.69    41.120337    240.58213 
   10550    78.505986   -859.48006    58725.349   -12632.476    950.55444    -13583.03    41.637006    244.92421 
   10600    79.359195   -1054.0097    58753.809   -12611.986    960.88514   -13572.871    41.931439    247.58606 
   10650    81.211413    -761.2022    58811.304   -12626.578    983.31188    -13609.89    42.193585    253.36464 
   10700    81.413592   -984.52797    58869.766   -12635.349    985.75988   -13621.109    42.516104     253.9954 
   10750    80.429504   -774.02839    58870.863   -12652.265     973.8445   -13626.109    42.692029    250.92523 
   10800    78.699448   -1500.3362    58866.371   -12674.408    952.89689   -13627.305    42.927346    245.52777 
   10850    81.219815   -1004.5125    58871.508    -12647.93    983.41362   -13631.344    43.067959    253.39085 
   10900    79.522067   -1154.1129    58882.869   -12613.146    962.85719   -13576.003    43.366195    248.09419 
   10950    80.902816     -925.817    58894.451   -12635.666    979.57538   -13615.241    43.455987    252.40187 
   11000    80.803593   -1155.2092    58957.137   -12666.049    978.37398   -13644.423    43.483418    252.09232 
   11050    80.947848   -840.45485    58973.636   -12616.482    980.12062   -13596.602    43.729614    252.54236 
   11100    79.823337   -1167.6223    58981.577   -12624.604    966.50498   -13591.109    43.829935     249.0341 
   11150    81.423468   -1100.3848    58967.971   -12620.713    985.87945   -13606.592    44.279867    254.02621 
   11200    77.146442   -1033.2113    58964.352   -12667.119    934.09301   -13601.212    44.475319    240.68268 
   11250    76.727268    -1411.144    58951.841   -12670.018    929.01763   -13599.035     44.56658    239.37493 
   11300    77.950921   -1187.1415    58909.054   -12649.484    943.83368   -13593.317    44.970456     243.1925 
   11350     78.73917   -783.21729    58896.699    -12627.54    953.37784   -13580.918    44.918961     245.6517 
   11400    81.431094   -939.96439    58880.722   -12616.436    985.97179   -13602.408    45.030041       254.05 
   11450     79.00774   -974.37792    58918.235   -12627.723    956.62969   -13584.353    44.857514    246.48958 
   11500    79.127865   -1061.0326     58927.06   -12643.282    958.08418   -13601.366    45.055629    246.86435 
   11550    79.796359   -791.74705     58903.02   -12652.987    966.17834   -13619.166    45.506723    248.94993 
   11600    78.836972   -1119.8239    58940.526   -12671.033    954.56203   -13625.595    45.458467    245.95682 
   11650    83.129425    -618.2134    58935.032   -12645.198    1006.5353   -13651.733    45.411803    259.34848 
   11700    78.560633   -1138.2878     58934.08   -12640.738    951.21611   -13591.954    45.418168    245.09469 
   11750    81.877749   -1208.1743    58908.472   -12636.506    991.37992   -13627.886    45.304153    255.44349 
   11800    80.799366   -927.34103    58882.668   -12603.719     978.3228   -13582.041    45.858255    252.07913 
   11850    78.640617   -933.49695    58879.446   -12661.887    952.18455   -13614.071    45.995725    245.34423 
   11900    77.412501   -941.99567    58943.916     -12658.2    937.31447   -13595.515    46.138488    241.51273 
   11950    78.997828   -911.05176    58906.559    -12623.29    956.50968   -13579.799    46.451665    246.45866 
   12000    82.528544     -1566.55    58848.285   -12607.718    999.25978   -13606.978    46.790366    257.47385 
   12050    81.254702    -1501.572    58813.755   -12610.595    983.83603   -13594.431    46.754719    253.49969 
   12100    81.149883   -1239.4411    58772.247     -12634.9    982.56688   -13617.467    46.731766    253.17268 
   12150    81.697195   -1009.2895     58746.77   -12640.649    989.19375   -13629.842    46.775468    254.88019 
   12200    80.380878   -1113.5661    58724.815    -12665.99    973.25572   -13639.246    46.879627    250.77352 
   12250    81.790735   -889.24614    58747.105    -12633.64    990.32634   -13623.966    47.042803    255.17202 
   12300    82.061896    -921.1215    58731.975   -12619.323    993.60958   -13612.932     47.25406    256.01799 
   12350    81.150653   -578.39638    58750.089   -12618.191     982.5762   -13600.767     47.65025    253.17508 
   12400    78.813396   -995.37585    58714.815   -12646.264    954.27657    -13600.54    47.747313    245.88327 
   12450    79.098226   -440.84638    58759.054   -12644.916    957.72531   -13602.641     47.85644    246.77188 
   12500    80.796869   -966.68875    58809.171   -12631.916    978.29257   -13610.209    48.031814    252.07134 
   12550    80.224153    -784.1497    58837.386   -12612.304    971.35809   -13583.662    48.162835    250.28457 
   12600    80.126837   -869.56986    58852.851   -12646.693    970.17979   -13616.873    48.376848    249.98096 
   12650    80.560031   -695.39449    58882.553   -12668.525    975.42492    -13643.95     48.85523    251.33245 
   12700    81.118896    -760.2386    58903.959   -12671.855    982.19168   -13654.046    48.881613      253.076 
   12750    81.184725   -789.73192    58935.946   -12656.265    982.98875   -13639.253    48.966436    253.28138 
   12800    80.647012   -1113.9214    58910.701   -12652.611    976.47809   -13629.089    49.267973    251.60381 
   12850    79.005543   -885.72977    58855.854   -12662.626    956.60309   -13619.229    49.556066    246.48273 
   12900    78.669948    -916.1534    58879.342   -12672.768    952.53969   -13625.308    49.799181    245.43574 
   12950    80.897851    -959.9879    58877.421   -12676.199    979.51526   -13655.715    50.052186    252.38638 
   13000    78.688708   -1043.2751      58827.6   -12628.781    952.76684   -13581.548    50.239377    245.49426 
   13050     82.46404   -1115.7632    58795.549   -12623.567    998.47875   -13622.046    50.345834     257.2726 
   13100    79.601401   -800.18257    58779.743   -12623.065    963.81778   -13586.883    50.436278     248.3417 
   13150    80.618456   -724.53797    58816.163   -12625.646    976.13233   -13601.778    50.805511    251.51472 
   13200    82.463003   -919.57007    58874.748   -12606.701     998.4662   -13605.167    51.073793    257.26937 
   13250    80.233358   -1385.3394    58861.119   -12637.009    971.46954   -13608.478    51.340615    250.31329 
   13300    79.014852   -727.66981    58859.502   -12632.953    956.71581   -13589.669    51.771359    246.51177 
   13350    83.311123   -684.73799    58894.777   -12616.978    1008.7353   -13625.713    51.498531    259.91535 
   13400    80.763366   -1056.2199    58887.704   -12634.309    977.88691   -13612.196    52.039249    251.96682 
   13450    77.600213   -1394.0616    58789.891   -12643.517    939.58729   -13583.104    52.151067    242.09836 
   13500     82.64088   -1426.6138    58728.339   -12636.215    1000.6199   -13636.835    52.360172    257.82431 
   13550    82.227647   -649.91802    58750.948   -12594.204    995.61649    -13589.82    52.159845     256.5351 
   13600     80.97016   -819.27227     58766.64   -12630.272    980.39077   -13610.663    52.359824    252.61197 
   13650    79.623904    -887.3213     58830.62     -12653.8    964.09025   -13617.891    52.594191     248.4119 
   13700    79.779404   -764.75711    58826.705   -12657.598    965.97304   -13623.571    52.775403    248.89703 
   13750    79.761579   -960.38036    58809.118   -12655.904    965.75722   -13621.661    53.081666    248.84142 
   13800    78.760176   -789.93101    58805.046   -12695.791    953.63218   -13649.423    52.647592    245.71723 
   13850     77.85091   -898.43152     58809.19   -12692.545    942.62274   -13635.168    52.984568    242.88049 
   13900    79.189354   -288.12387    58822.228   -12685.136     958.8287   -13643.965    53.070406    247.05619 
   13950     78.65979   -892.95521    58847.157   -12659.331    952.41671   -13611.747    53.422458    245.40405 
   14000    79.800352   -876.37774     58824.67   -12693.025    966.22669   -13659.252    53.767002    248.96239 
   14050    82.316788   -724.58989    58833.978   -12653.522    996.69582   -13650.218    53.807914     256.8132 
   14100    80.239494   -537.64183    58831.615   -12634.101    971.54384   -13605.644    54.217907    250.33243 
   14150    77.641488   -817.06772    58832.625   -12646.749    940.08705   -13586.836    54.358595    242.22713 
   14200    79.840194   -921.11848    58821.092   -12629.384    966.70909   -13596.093     54.47531    249.08669 
   14250    77.720045   -1337.4863    58827.718   -12649.915    941.03822   -13590.953    54.612949    242.47221 
   14300    80.522066   -807.97353    58811.468   -12646.437    974.96523   -13621.403    54.932058      251.214 
   14350    78.049521   -996.03032    58789.108   -12629.687    945.02754   -13574.715    55.209164    243.50012 
   14400    78.492851   -653.25272    58746.683   -12639.984    950.39539   -13590.379    55.207792    244.88323 
   14450    76.515497   -615.28047    58825.343   -12651.952    926.45349   -13578.405    55.351496    238.71425 
   14500    81.253784   -547.38892    58864.071   -12636.788    983.82492   -13620.613    55.326942    253.49683 
   14550    79.328038   -630.65489    58923.338     -12639.3    960.50789   -13599.808    55.394264    247.48886 
   14600    80.040532   -983.43658    58958.479   -12667.455     969.1348    -13636.59    55.100123    249.71171 
   14650    82.231602        -1095    58967.224   -12641.422    995.66438   -13637.087    55.573213    256.54744 
   14700     79.29206   -961.16142    58962.094   -12628.816    960.07225   -13588.888    55.912572    247.37661 
   14750    81.293379   -855.27375    58990.527   -12592.438    984.30433   -13576.742    56.351863    253.62036 
   14800    81.920107   -1176.7451    59032.269   -12604.755    991.89279   -13596.648    56.861749    255.57563 
   14850    78.771205   -949.35932    59003.236    -12606.18    953.76572   -13559.945    56.855536    245.75164 
   14900    78.523676   -1308.2153    59004.876   -12630.329    950.76863   -13581.098    56.889393     244.9794 
   14950    81.751586    -891.3716      58991.9   -12642.641    989.85233   -13632.493    56.751079    255.04988 
   15000    82.547477    -1288.912    59043.784   -12632.621    999.48901    -13632.11     56.74595    257.53291 
   15050    79.869149   -807.49437    59075.208   -12657.992    967.05968   -13625.052    56.998118    249.17702 
   15100     79.60878   -855.56948    59065.906   -12644.746    963.90712   -13608.654    57.254097    248.36472 
   15150     78.38622   -919.52355    59109.968   -12646.232    949.10431   -13595.336    57.332516    244.55056 
   15200    81.230097   -1211.6633    59118.665   -12629.451    983.53811   -13612.989    57.126211    253.42293 
   15250    83.826455   -756.35665    59036.725   -12639.081    1014.9749   -13654.056    57.450287    261.52309 
   15300    76.906515   -1278.5945    59019.935   -12688.862    931.18796    -13620.05    58.008586    239.93415 
   15350    79.631416   -637.10031    59028.709   -12653.717     964.1812   -13617.898     58.39283    248.43534 
   15400    81.124172   -946.08803    59119.323   -12644.629    982.25557   -13626.885    58.774839    253.09246 
   15450    80.533192   -1487.3698    59113.209   -12649.886    975.09995   -13624.986    58.995591    251.24871 
   15500    78.981211   -610.01347    59104.608   -12676.374    956.30848   -13632.682    58.679028    246.40682 
   15550    76.109887   -1306.4511    59058.717   -12672.708    921.54235    -13594.25    58.947395    237.44882 
   15600     79.86909    -949.5528    59056.862   -12664.591    967.05897    -13631.65    59.137777    249.17684 
   15650     77.83471   -1276.8041     59055.57   -12658.582    942.42659   -13601.009    59.400415    242.82995 
   15700    76.917684   -1555.5909    58904.653   -12655.072     931.3232   -13586.395    59.062525      239.969 
   15750    78.864623   -1099.9176     58911.44   -12658.853    954.89683    -13613.75    59.275999    246.04309 
   15800     79.23371   -1034.8753    58902.797   -12642.716    959.36576   -13602.082    59.080148    247.19457 
   15850    78.863632   -1545.2491    58929.727   -12648.266    954.88483   -13603.151     59.08288    246.03999 
   15900    79.803821   -1161.5791    58929.908    -12629.75    966.26869   -13596.018    58.901858    248.97321 
   15950    84.114205   -1272.2875    58866.408   -12608.444     1018.459   -13626.903    58.984301    262.42082 
   16000    79.641106   -1098.5735    58879.535   -12619.387    964.29852   -13583.685    59.220084    248.46557 
   16050    77.076555   -999.66773    58879.829   -12648.903    933.24682    -13582.15    59.511747    240.46464 
   16100    79.056473   -1254.5093    58846.925   -12640.171    957.21976   -13597.391    59.755839    246.64162 
   16150    82.000415   -1003.0167    58792.904   -12640.012    992.86516   -13632.878    60.064811    255.82618 
   16200    77.935245   -880.76791     58811.99   -12656.654    943.64387   -13600.298    60.400042     243.1436 
   16250    78.157269   -1194.6823    58821.975   -12650.125    946.33216   -13596.457    60.849541    243.83627 
   16300    76.866116   -891.52063    58829.496   -12658.688    930.69881   -13589.387    60.969164    239.80811 
   16350    80.508988   -1265.7249    58822.445   -12671.831    974.80689   -13646.638    61.058129     251.1732 
   16400    80.411292   -1367.1938    58829.684    -12673.56    973.62398   -13647.184    61.089564    250.86841 
   16450    78.381833    -1373.724     58796.72   -12666.159    949.05119    -13615.21    61.068517    244.53687 
   16500    79.973629   -1103.2281    58799.412   -12651.565    968.32473   -13619.889    61.502099    249.50298 
   16550    79.000733   -1072.6891    58797.045   -12647.746    956.54486   -13604.291     61.80272    246.46772 
   16600    79.973763   -1282.1317    58791.058   -12667.547    968.32636   -13635.873    61.978575     249.5034 
   16650    78.191146   -891.38748    58786.386   -12669.544    946.74233   -13616.287    62.063956    243.94196 
   16700    77.507547   -1543.5319    58813.964   -12664.663    938.46529   -13603.128     62.45095    241.80926 
   16750    79.348493   -1035.7765     58800.14   -12652.629    960.75555   -13613.384    62.699713    247.55267 
   16800    78.809284   -1078.5452     58771.43   -12655.983    954.22679    -13610.21    62.953239    245.87044 
   16850    78.859221   -849.19541    58747.384   -12635.275    954.83143   -13590.106    62.708633    246.02623 
   16900    79.297085   -738.65926    58819.943   -12617.321     960.1331   -13577.454    62.873989    247.39229 
   16950    82.861065   -974.12061    58864.614   -12598.593     1003.286   -13601.879    63.294192    258.51125 
   17000    81.806092   -739.12825    58885.779   -12640.785    990.51228   -13631.297    63.436483    255.21993 
   17050    78.000609   -866.94945    58897.892   -12668.087    944.43531   -13612.522    63.446022    243.34752 
   17100     81.82201   -1165.4252    58893.982   -12660.245    990.70502    -13650.95    63.288659    255.26959 
   17150    80.786476   -974.00446    58851.887   -12678.051    978.16673   -13656.217    63.585758    252.03891 
   17200    76.174728   -1165.3412    58851.775     -12706.3    922.32745   -13628.627    63.687066    237.65111 
   17250    77.224753   -1073.8812    58851.366     -12692.4    935.04121   -13627.442     63.71001      240.927 
   17300    78.352198   -908.81119    58894.227   -12715.277    948.69237   -13663.969    63.774945    244.44442 
   17350    78.427918   -911.68506    58902.943   -12706.315    949.60918   -13655.924    64.038816    244.68065 
   17400    76.731161   -1177.5298    58934.979   -12708.032    929.06477   -13637.097    64.166489    239.38708 
   17450    81.097339   -1092.4574    58937.339   -12650.101    981.93067   -13632.031    64.331364    253.00875 
   17500     81.31582   -1043.6999    58927.128   -12654.763    984.57605   -13639.339    64.585098    253.69037 
   17550    78.722386   -973.57518      58899.9   -12657.596    953.17462   -13610.771    64.658967    245.59933 
   17600    79.723605   -1008.0752    58899.407   -12640.594    965.29743   -13605.891    64.307392    248.72295 
   17650    83.178978   -845.86193    58951.012   -12609.453    1007.1353   -13616.589    64.182993    259.50308 
   17700    79.167866   -1210.4723    58960.149   -12632.556    958.56852   -13591.124    64.422567    246.98915 
   17750    78.510546   -1158.1291    58948.211    -12659.08    950.60965    -13609.69    64.622925    244.93843 
   17800    77.835248   -802.36626    58887.106   -12636.441    942.43311   -13578.874       65.034    242.83163 
   17850    77.442766   -796.47764    58891.782   -12664.277    937.68092   -13601.958     65.31964    241.60716 
   17900    76.448808   -1009.6948     58927.76   -12652.584    925.64603    -13578.23    65.442826    238.50619 
   17950    79.067701   -800.94695    58910.651   -12654.058    957.35571   -13611.413    65.406036    246.67665 
   18000    80.437341   -882.23912    58947.984   -12651.538    973.93938   -13625.477    65.644094    250.94968 
   18050    79.045115   -836.95325    58953.286   -12666.335    957.08223   -13623.418     65.84022    246.60619 
   18100    79.653306   -976.22061    58952.635   -12665.984    964.44624    -13630.43    66.207093    248.50363 
   18150    78.724104   -1095.5424    58992.719   -12652.923    953.19542   -13606.118    66.234288    245.60469 
   18200    83.277649    -1009.384    59002.527   -12622.892      1008.33   -13631.222    66.582337    259.81091 
   18250    79.291778   -1211.4696    59010.207   -12596.664    960.06884   -13556.733     66.79601    247.37573 
   18300    79.084499   -977.62776    59005.083   -12613.065     957.5591   -13570.624    66.411037    246.72906 
   18350    78.602262   -998.87785    59009.874   -12623.122    951.72016   -13574.842    66.549185    245.22457 
   18400    80.525405    -627.2826    59025.428   -12610.145    975.00566   -13585.151    66.599344    251.22442 
   18450    83.099608    -995.3928    59048.657   -12614.711    1006.1742   -13620.885    66.694776    259.25546 
   18500     78.47015   -961.18843    59092.931   -12580.608    950.12053   -13530.729    67.172522     244.8124 
   18550    80.389461   -1190.5794    59082.163   -12584.599    973.35965   -13557.958      67.1055     250.8003 
   18600    80.873866   -956.29734    59067.426   -12560.923    979.22485   -13540.147    67.050732    252.31155 
   18650    84.281089   -821.48086    59102.557   -12545.859    1020.4797   -13566.338    67.122394    262.94146 
   18700    80.014687   -1183.6686    59179.826   -12554.226    968.82187   -13523.047    67.500465    249.63107 
   18750    79.737511   -1130.2641    59162.772   -12593.277    965.46581   -13558.743    67.674669    248.76634 
   18800    77.048117    -1256.447    59093.444   -12591.309    932.90248   -13524.212    67.457661    240.37592 
   18850    79.889399   -1235.5914    59081.389   -12618.529    967.30487   -13585.834    67.699435     249.2402 
   18900     78.52322   -1151.7436     59031.28   -12609.191    950.76311   -13559.954     67.83954    244.97797 
   18950    79.743877   -952.32701    58981.367   -12595.293    965.54289   -13560.836    68.292809     248.7862 
   19000    80.486236   -1510.9237    58926.062   -12586.857     974.5314   -13561.388    68.259622    251.10222 
   19050    78.625417   -1385.4686     58780.38   -12612.047    952.00052   -13564.048    68.085642    245.29681 
   19100    77.337694   -1215.6378     58685.05   -12639.788    936.40869   -13576.197    68.348915    241.27935 
   19150    79.303858   -1257.9168    58635.297   -12634.474    960.21511   -13594.689     68.48221    247.41342 
   19200    77.776267   -1286.2372    58593.076   -12629.735    941.71896   -13571.454    68.696008    242.64762 
   19250    79.824559   -1096.7412    58545.415   -12629.614    966.51979   -13596.134    69.126816    249.03791 
   19300    76.674534   -610.01245    58554.496   -12632.434    928.37912   -13560.813    69.366652    239.21041 
   19350    78.251027   -814.45546    58578.466   -12648.658    947.46738   -13596.126    69.631092    244.12878 
   19400    77.520967   -1142.6691    58624.109   -12682.438    938.62777   -13621.066     69.87358    241.85113 
   19450    79.108204   -1083.0307    58647.775   -12672.627    957.84612   -13630.473    70.291405    246.80301 
   19500    76.432244   -1232.9761    58673.469   -12667.518    925.44546   -13592.963    70.784457    238.45451 
   19550    77.737697   -1227.8894    58690.166   -12659.081    941.25195   -13600.333    71.219958    242.52728 
   19600    77.562217   -849.42695    58754.931   -12658.984    939.12723   -13598.111    71.506541    241.97982 
   19650    78.753416    -1267.364    58772.019   -12658.706    953.55033   -13612.256    71.909521    245.69614 
   19700    81.692826   -1195.5426    58750.985   -12637.928    989.14086   -13627.069    72.025275    254.86656 
   19750    79.199379   -907.13202    58732.215   -12655.043    958.95007   -13613.993    72.214938    247.08746 
   19800    78.788626   -1026.5264    58775.856   -12629.338    953.97666   -13583.315    72.905838    245.80599 
   19850     77.84041   -1176.4303    58749.777   -12631.559    942.49561   -13574.054    73.171534    242.84773 
   19900    77.858252   -1217.5821    58692.171   -12618.164    942.71164   -13560.875    73.466368    242.90339 
   19950     82.28054   -710.60591    58723.797   -12584.633    996.25693    -13580.89     73.63635    256.70012 
   20000    80.248249   -1129.6373    58837.897   -12613.558    971.64984   -13585.207    73.774096    250.35974 
   20050     80.61156    -1001.989    58875.634   -12618.731    976.04883    -13594.78    74.507527    251.49321 
   20100    81.144304   -1074.8842    58882.881    -12589.34    982.49933   -13571.839    74.875558    253.15527 
   20150    79.904704    -906.2075     58841.64   -12634.612    967.49018   -13602.102     75.41683    249.28795 
   20200    78.161142   -672.14943    58838.853   -12645.847    946.37905   -13592.226    75.686005    243.84835 
   20250    77.760995   -964.30324    58818.108   -12655.665    941.53405   -13597.199     75.62592    242.59997 
   20300    78.052025   -1011.1864    58895.272   -12640.521    945.05785   -13585.579    75.566815    243.50793 
   20350    79.262065   -1257.2901    58897.607   -12620.022    959.70909   -13579.731    75.798533    247.28303 
   20400    82.029697   -909.27376    58882.366   -12613.334     993.2197   -13606.554    75.969441    255.91753 
   20450    78.559664    -1128.224    58969.154   -12593.919    951.20437   -13545.123    76.396181    245.09167 
   20500    80.478173   -1045.5208    58995.656   -12573.633    974.43377   -13548.066    76.180469    251.07706 
   20550    81.781884   -1129.1307     58929.45    -12594.13    990.21917   -13584.349    76.164913     255.1444 
   20600    81.757364   -1601.5259    58880.517   -12609.763    989.92228   -13599.685    76.366467     255.0679 
   20650    79.508514   -1234.5958    58875.243   -12625.367     962.6931   -13588.061    76.363583    248.05191 
   20700    80.727654   -1431.8181    58890.627   -12636.764     977.4545   -13614.218    76.542345     251.8554 
   20750    80.297937   -1543.8667    58863.236   -12627.567    972.25147   -13599.818    77.145541    250.51476 
   20800    76.540517    -1368.807    58788.452   -12660.491    926.75644   -13587.247    77.215984    238.79231 
   20850    80.014358    -1145.248    58711.706   -12648.404    968.81788   -13617.222     77.50153    249.63005 
   20900    80.268979   -873.91977    58681.578   -12647.219    971.90085    -13619.12    77.429486    250.42442 
   20950    79.297234   -730.90045    58700.083   -12638.013    960.13491   -13598.148    77.107119    247.39275 
   21000    79.077149   -1018.3808     58673.73   -12656.756     957.4701   -13614.226    77.166683    246.70613 
   21050    80.692376   -1239.4329    58673.634   -12657.953    977.02735    -13634.98    77.560227    251.74534 
   21100    79.326637   -1102.6155    58705.124   -12651.614    960.49092   -13612.105     77.90398    247.48449 
   21150     77.40148   -959.59148    58713.551   -12676.805    937.18102   -13613.986    78.288101    241.47835 
   21200    81.938374   -819.80205    58725.627   -12639.472    992.11396   -13631.586    78.666075    255.63262 
   21250    79.738041   -1311.5895    58718.396   -12643.605    965.47222   -13609.077    78.792218    248.76799 
   21300     81.39713   -1562.7591    58628.396   -12635.199    985.56056   -13620.759    78.649792    253.94404 
   21350    80.851017    -1286.272    58569.465   -12642.873    978.94819   -13621.821    79.164349    252.24027 
   21400    79.951984   -1177.1206    58545.724   -12640.688    968.06265   -13608.751    79.380829    249.43545 
   21450    81.134251   -411.24025    58589.049   -12625.508     982.3776   -13607.886    79.269682    253.12391 
   21500    80.421126   -1198.4899    58590.019   -12656.313    973.74305   -13630.056    79.855045    250.89909 
   21550    78.676981   -1013.9601     58552.33   -12667.824    952.62486   -13620.449    80.320662    245.45768 
   21600    78.456983   -852.58723    58612.299   -12640.398    949.96111   -13590.359    80.662321    244.77133 
   21650    78.557925   -780.97243    58660.369   -12632.997    951.18332    -13584.18    80.745253    245.08624 
   21700    78.277643   -874.51663    58686.194   -12648.843    947.78964   -13596.632    80.791047    244.21182 
   21750    80.768361   -1146.6346    58672.924   -12608.341    977.94739   -13586.288    81.124337     251.9824 
   21800    78.239358   -1253.5879    58668.308   -12621.299    947.32609   -13568.625    81.204586    244.09237 
   21850    82.073892   -908.25532    58621.583   -12595.451    993.75482   -13589.206    81.510389    256.05541 
   21900    80.400541   -1258.7858    58600.935   -12607.468    973.49381   -13580.962    81.796385    250.83487 
   21950    82.026522   -1075.0461    58602.927   -12613.347    993.18126   -13606.528    81.664751    255.90763 
   22000    78.127307   -840.69621    58603.336   -12653.996    945.96938   -13599.965    82.215553     243.7428 
   22050    79.364252   -973.33584    58604.906   -12614.142    960.94637   -13575.088    82.271359    247.60184 
   22100    81.566968    -834.9225    58602.603   -12616.701    987.61696   -13604.318     82.47068     254.4739 
   22150    79.044055   -1158.3688    58567.069   -12616.402    957.06941   -13573.471    82.594097    246.60288 
   22200    81.321265   -968.34741    58529.398   -12600.749    984.64198   -13585.391    82.439049    253.70736 
   22250    79.660353   -911.60386    58537.065    -12606.13    964.53158   -13570.662    82.501187    248.52562 
   22300    80.450228   -1206.5996    58487.131    -12597.02    974.09541   -13571.116    83.049627    250.98988 
   22350     80.67001   -659.74796    58540.512   -12618.072    976.75655   -13594.828    83.215567    251.67556 
   22400     80.31777   -747.90298    58558.635   -12623.477    972.49161   -13595.969    82.982516    250.57664 
   22450    79.251073   -1134.3905    58585.247   -12614.625    959.57598   -13574.201    83.503143    247.24874 
   22500    76.497882   -666.86569    58620.253   -12614.124    926.24021   -13540.364    83.902916    238.65929 
   22550     82.37701   -1014.3443    58691.727   -12610.612    997.42499   -13608.037    84.164351    257.00109 
   22600    80.715885   -1383.7934    58648.867   -12612.888    977.31201     -13590.2    84.612965    251.81868 
   22650    77.481996     -1211.71    58598.092   -12645.526    938.15591   -13583.681    84.268337    241.72954 
   22700    80.330731   -747.18924     58593.95   -12636.633    972.64854   -13609.282    84.346328    250.61707 
   22750    79.058073   -1062.6931    58618.654   -12608.886    957.23913   -13566.125    84.735845    246.64661 
   22800    78.921621   -1292.4655    58634.177   -12581.481    955.58697   -13537.068    84.650091    246.22091 
   22850    79.478335   -1049.0013    58606.964   -12574.869    962.32769   -13537.196    84.438692    247.95775 
   22900    80.397124   -1236.1869    58584.057   -12557.327    973.45243   -13530.779    85.050897    250.82421 
   22950    82.566157   -1215.7894    58615.422   -12535.147    999.71519   -13534.862    85.446039    257.59119 
   23000    82.428544   -661.14569    58619.923   -12517.268    998.04896   -13515.317    85.874426    257.16186 
   23050     85.50229   -895.91999    58653.909   -12516.663     1035.266   -13551.929    86.218106    266.75138 
   23100    82.614384   -964.68073    58643.418   -12540.243    1000.2991   -13540.542    86.397254    257.74165 
   23150    85.284767   -957.94655    58715.831   -12515.299    1032.6323   -13547.931    86.984184    266.07275 
   23200    84.447869   -718.60496    58728.843   -12537.603    1022.4991   -13560.102    86.821153    263.46178 
   23250    79.845219   -866.79214    58774.311   -12585.182    966.76994   -13551.952    87.136819    249.10236 
   23300    79.934835   -1324.8516    58802.522   -12602.203    967.85502   -13570.058    87.282231    249.38195 
   23350    79.670555   -1280.6701    58758.192    -12619.99    964.65509   -13584.646    87.638816    248.55745 
   23400    79.239612    -1031.132    58665.166   -12591.033    959.43721    -13550.47    87.671704    247.21298 
   23450    83.221099   -1216.1045    58626.946   -12558.946    1007.6453   -13566.592    87.529454    259.63449 
   23500    82.032932   -1042.1682    58625.415   -12537.037    993.25888   -13530.296    87.498753    255.92763 
   23550    81.289216   -1304.3887    58641.043   -12556.764    984.25393   -13541.018    88.285933    253.60737 
   23600    82.808767   -1084.8648    58625.361   -12578.275    1002.6527   -13580.928    88.380522    258.34809 
   23650    82.314645    -1279.281    58596.163   -12562.318    996.66988   -13558.988    88.639256    256.80652 
   23700    80.835076   -1328.0045    58524.122   -12570.253    978.75518   -13549.008    89.286976    252.19054 
   23750    81.168591   -1146.0244    58448.217   -12597.195    982.79339   -13579.988    89.263351    253.23104 
   23800    79.712196   -1577.1636    58350.312   -12629.818    965.15929   -13594.977    89.302395    248.68736 
   23850    77.764269   -907.42893    58404.477   -12648.166    941.57369    -13589.74    89.104166    242.61018 
   23900    77.275873   -1375.9906     58384.61   -12648.782    935.66017   -13584.442    89.572719    241.08648 
   23950    79.135053   -1149.9695     58378.12   -12652.025    958.17122   -13610.196    89.879258    246.88678 
   24000    78.699263   -1135.2367    58409.882   -12632.434    952.89464   -13585.329    89.777533    245.52719 
   24050    77.441623    -998.3534    58379.563   -12682.582    937.66708   -13620.249    89.981118    241.60359 
   24100    76.221494   -819.57747    58367.336   -12676.773    922.89369   -13599.667    90.133213    237.79701 
   24150    81.838901   -987.21167    58337.009   -12667.779    990.90954   -13658.688    89.798752    255.32228 
   24200    78.750268   -1263.8903    58293.917   -12653.497    953.51221   -13607.009    90.080649    245.68632 
   24250    82.415594   -1224.3481    58238.253    -12631.24    997.89217   -13629.132    89.840939    257.12146 
   24300    83.011036   -754.63275    58217.372   -12637.431    1005.1018   -13642.533    90.002967    258.97913 
   24350    77.432463   -1050.6165    58238.748   -12659.393    937.55617   -13596.949    89.982644    241.57501 
   24400    75.784459   -969.92803    58229.507   -12695.553    917.60205   -13613.155    89.845387    236.43354 
   24450    76.022348   -836.31756    58200.336   -12685.533    920.48242   -13606.015    90.226683    237.17571 
   24500    74.099859   -1302.8647    58154.307   -12689.763    897.20483   -13586.968    90.336854     231.1779 
   24550    75.572124   -846.89812    58155.513   -12698.593    915.03109   -13613.624    90.546804     235.7711 
   24600    77.615289    -880.4761    58158.124   -12682.504    939.76983   -13622.274    90.852128    242.14539 
   24650    80.045675   -1193.5225    58163.362   -12668.769    969.19707   -13637.966     91.42209    249.72775 
   24700    77.412345    -573.1721    58174.207   -12657.408    937.31258   -13594.721     91.87286    241.51225 
   24750     77.64423   -898.76519    58153.347   -12664.154    940.12026   -13604.274     92.10888    242.23569 
   24800    76.195353   -1025.1844    58199.983   -12674.494    922.57718   -13597.071    91.985639    237.71546 
   24850    75.553543   -942.15268    58174.001   -12678.229     914.8061   -13593.035    92.426549    235.71313 
   24900    79.071663   -675.15449     58159.34    -12648.65    957.40368   -13606.054    92.542504    246.68901 
   24950    78.304413   -649.82517    58244.495   -12628.261    948.11378   -13576.375    93.081112    244.29533 
   25000    78.638856   -1145.8501    58306.218   -12631.608    952.16324   -13583.771    93.416268    245.33874 
   25050    80.639038   -1312.2726     58314.09   -12623.321    976.38154   -13599.702     93.78736    251.57894 
   25100    80.083894    -1346.361    58263.202   -12621.199    969.65982   -13590.859    93.765696    249.84699 
   25150    81.171419     -1279.18    58190.034   -12597.222    982.82763    -13580.05    93.837807    253.23986 
   25200    82.114524   -1221.1994    58171.335   -12577.814    994.24679   -13572.061    94.281058    256.18218 
   25250    79.876715   -1019.9429    58131.781   -12597.611    967.15129   -13564.762    93.877185    249.20063 
   25300    79.154424   -1325.8191    58106.037   -12601.301    958.40576   -13559.707    93.862358    246.94721 
   25350    80.351846   -579.29422    58139.754   -12610.647    972.90421   -13583.551    93.777254    250.68295 
   25400    79.459512   -672.89791    58222.144   -12621.246    962.09977   -13583.345    94.273704    247.89903 
   25450    79.400055     -1150.57    58292.077   -12610.776    961.37987   -13572.156     94.81839    247.71353 
   25500    79.305372   -1147.5164    58355.201   -12620.957    960.23344    -13581.19    94.535253    247.41814 
   25550    76.872841   -731.28408    58391.526   -12627.095    930.78023   -13557.876    94.619779    239.82909 
   25600    79.721301   -1190.9613    58402.006   -12612.821    965.26953   -13578.091     95.09876    248.71576 
   25650     79.25724   -1123.3036    58439.457    -12616.96    959.65065   -13576.611    95.229266    247.26798 
   25700    80.631536   -1315.2521    58431.969   -12590.954     976.2907   -13567.245    95.918829    251.55553 
   25750    79.215987   -1234.9472    58394.069   -12606.889    959.15117   -13566.041    96.343404    247.13928 
   25800    80.442986   -1388.9451     58337.33   -12587.223    974.00773   -13561.231    96.173339    250.96729 
   25850    77.625896   -1158.8692    58307.173   -12621.731    939.89827   -13561.629    96.740563    242.17849 
   25900     79.50345   -1144.1505    58315.761   -12658.724    962.63179   -13621.356    96.760713    248.03611 
   25950    80.098696   -1128.9359    58342.874   -12636.593    969.83905   -13606.432    96.363147    249.89317 
   26000    77.026435   -1168.6028    58363.254   -12643.932    932.63996   -13576.572    96.010635    240.30828 
   26050    81.834286    -834.7819    58343.266   -12608.513    990.85366   -13599.367    96.601164    255.30789 
   26100    80.324777   -697.81742    58379.177   -12626.535    972.57645   -13599.112    96.344675     250.5985 
   26150    78.998551   -882.92421    58346.838   -12621.609    956.51844   -13578.128    96.704116    246.46092 
   26200    78.318652   -677.11694    58317.086   -12623.512    948.28619   -13571.798    96.880345    244.33976 
   26250    76.462601   -853.99302    58309.367   -12648.138    925.81303   -13573.951    96.897566    238.54922 
   26300    78.788793   -1065.6782     58307.89   -12650.976    953.97868   -13604.955    96.992182    245.80651 
   26350    77.946775   -1178.6094    58320.926   -12656.769    943.78349   -13600.552    97.883583    243.17957 
   26400    80.102666   -475.22034     58329.42   -12646.792    969.88711   -13616.679    98.202346    249.90555 
   26450     78.69105   -969.60979    58315.071   -12638.578     952.7952   -13591.373    98.434564    245.50157 
   26500    75.547139    -1075.529    58330.784    -12640.76    914.72856   -13555.489     98.50351    235.69315 
   26550    77.877758   -641.29463    58328.213   -12620.757    942.94782   -13563.705    98.335933    242.96425 
   26600    81.495238   -728.89323    58373.024   -12580.166    986.74845   -13566.915    98.740793    254.25012 
   26650    79.673044   -1188.0481    58389.864   -12571.312    964.68524   -13535.997      98.8535    248.56521 
   26700    81.366517   -1386.2119    58341.636     -12580.6     985.1899    -13565.79    99.374448    253.84854 
   26750    82.042391   -480.01442    58326.609     -12558.3     993.3734   -13551.674    99.419317    255.95714 
   26800    81.126641    -942.1755    58363.337   -12566.493    982.28546   -13548.779    100.28342    253.10017 
   26850     85.89907   -954.40818    58414.625   -12571.263    1040.0703   -13611.333    100.27266    267.98926 
   26900    79.377045   -1049.7815    58399.138   -12603.391    961.10126   -13564.492    100.11483    247.64175 
   26950    79.628218   -1157.6596    58362.138   -12605.749    964.14248   -13569.891    100.15218    248.42536 
   27000    81.577168   -1081.8217     58336.86   -12584.553    987.74046   -13572.293    100.22864    254.50573 
   27050    82.013126   -1289.5677    58334.662   -12544.772    993.01907   -13537.792    99.637962    255.86584 
   27100    83.303012   -1027.8452    58331.476   -12578.076    1008.6371   -13586.713     99.10225    259.89004 
   27150    79.982072   -1115.5661    58289.848    -12591.99    968.42696   -13560.417    99.454743    249.52932 
   27200    78.982028   -1054.0561    58274.025   -12573.225    956.31838   -13529.543     99.78519    246.40937 
   27250    80.198202   -906.57746     58314.61   -12587.583    971.04387   -13558.626    99.860847    250.20361 
   27300    77.860229   -966.09008    58345.012   -12585.636    942.73558   -13528.372     100.1316    242.90956 
   27350     78.83419    -1466.307    58329.125   -12603.977    954.52835   -13558.505    99.934462    245.94814 
   27400    77.065337    -1003.531    58279.461   -12607.249    933.11099    -13540.36    100.00714    240.42965 
   27450     79.26919   -1496.2986    58255.664   -12597.623    959.79535   -13557.418    99.934325    247.30526 
   27500    82.646841   -889.79565    58264.477   -12581.352    1000.6921   -13582.044    100.16253    257.84291 
   27550    80.258897   -857.43654    58264.344   -12599.219    971.77877   -13570.998    100.06483    250.39297 
   27600    77.518618   -943.38681    58250.327   -12591.659    938.59933   -13530.258    100.28586     241.8438 
   27650    80.231191   -725.56613    58268.637   -12615.232    971.44331   -13586.676    100.46445    250.30653 
   27700    77.627379   -1357.5691    58287.386   -12640.399    939.91622   -13580.315    100.75249    242.18311 
   27750     79.77774   -992.59396    58276.094    -12604.84     965.9529   -13570.792    100.64013    248.89184 
   27800    80.614947   -1201.7125    58322.461   -12598.184    976.08985   -13574.274    101.31148    251.50378 
   27850    81.875971   -990.93307    58354.046   -12607.503    991.35838   -13598.861    101.90408    255.43794 
   27900    79.575819   -1147.2631    58328.831   -12581.463    963.50803   -13544.971    102.32904    248.26189 
   27950    80.949936   -934.63896    58370.984    -12570.62     980.1459   -13550.766    102.66353    252.54888 
   28000    80.038588   -1035.9672    58354.655   -12600.969    969.11126   -13570.081    102.67662    249.70564 
   28050    80.845758   -1143.9175    58316.863   -12596.643    978.88452   -13575.527    103.18368    252.22386 
   28100    79.143784   -982.22259    58314.882   -12614.107    958.27693   -13572.384    103.66484    246.91402 
   28150    77.463349   -1002.9213    58325.297   -12628.401    937.93014   -13566.331    103.76538    241.67137 
   28200    77.791278   -1070.9083    58331.623   -12626.607    941.90072   -13568.507    104.00354    242.69445 
   28250    81.545037   -581.93579    58336.232    -12607.68    987.35142   -13595.032    104.21729    254.40549 
   28300    79.098495    -1158.413    58366.235   -12609.119    957.72857   -13566.848    104.24692    246.77273 
   28350    77.126987   -1038.0257    58353.439   -12624.288    933.85745   -13558.146    104.18548    240.62198 
   28400    79.809381   -1147.0335    58324.434   -12612.658    966.33601   -13578.994    103.88293    248.99056 
   28450    81.216092   -1363.2492     58299.08   -12597.825    983.36853   -13581.194    103.81079    253.37923 
   28500    80.814046   -690.70496    58295.823    -12602.61    978.50054   -13581.111     104.1789    252.12493 
   28550    81.050178   -900.88873    58352.354   -12588.276    981.35964   -13569.636    104.45346    252.86161 
   28600    81.327784   -818.56312    58364.097   -12600.307     984.7209   -13585.028    105.07934    253.72769 
   28650    80.750245   -842.85048    58408.259   -12619.833    977.72804   -13597.561    105.81396    251.92588 
   28700    78.487146   -1205.7915    58407.126   -12626.168    950.32633   -13576.494     105.4447    244.86543 
   28750    80.333764   -1136.5246    58431.886   -12620.318    972.68526   -13593.003    105.59756    250.62654 
   28800    82.333799    -1123.126    58471.622   -12616.581    996.90179   -13613.483    106.12346    256.86628 
   28850    79.309931   -1421.5816    58485.272   -12658.332    960.28864   -13618.621    106.69275    247.43236 
   28900    75.885695   -888.14386    58515.709   -12693.908    918.82782   -13612.736    106.90101    236.74938 
   28950     73.91195   -1164.3045    58559.064   -12685.478    894.92962   -13580.407    107.44338    230.59166 
   29000    80.519711   -832.32311    58599.832   -12646.189    974.93672   -13621.126    108.06295    251.20666 
   29050    79.586983   -898.91907    58678.568   -12666.699    963.64321   -13630.342    108.26307    248.29672 
   29100    80.260448   -768.13715    58758.281   -12641.586    971.79755   -13613.383    108.29152     250.3978 
   29150    81.042294   -1056.3062    58799.784   -12609.825    981.26418    -13591.09    108.29224    252.83702 
   29200    82.430064   -875.59909    58797.944   -12585.873    998.06737    -13583.94    108.55348    257.16661 
   29250    79.881355   -1016.7106    58840.904   -12629.403    967.20747    -13596.61    108.78515     249.2151 
   29300    77.629371   -1079.4063     58849.39   -12603.308    939.94034   -13543.248    109.04047    242.18933 
   29350    79.726634   -812.26397    58841.094   -12565.342     965.3341   -13530.676    109.45957     248.7324 
   29400    79.067742   -977.68324    58877.011   -12581.147    957.35621   -13538.503    109.54389    246.67678 
   29450    75.485307   -1276.4184    58868.876   -12575.017     913.9799   -13488.997    110.15223    235.50024 
   29500     77.21003   -1193.2041    58856.413   -12606.304    934.86294   -13541.167    109.87572    240.88106 
   29550     76.36213   -1059.9014    58789.134   -12608.024    924.59652    -13532.62     110.1148    238.23577 
   29600    79.336071   -908.76912    58742.066   -12599.258    960.60515   -13559.863    110.41486    247.51392 
   29650    78.781328    -972.4527    58690.169   -12580.935    953.88829   -13534.823     110.4352    245.78322 
   29700    78.525164   -960.39711     58715.91   -12588.584    950.78665   -13539.371    110.89329    244.98404 
   29750    78.940251   -997.77019    58701.156   -12573.534    955.81254   -13529.346       110.52    246.27903 
   29800    82.056105   -994.14048    58689.119   -12577.565    993.53946   -13571.105    110.96848    255.99992 
   29850    84.366177   -1182.5108    58699.921   -12560.442    1021.5099   -13581.952     111.6351    263.20692 
   29900    79.524498   -976.25345    58647.758   -12578.798    962.88664   -13541.685    111.93843    248.10178 
   29950    80.024204     -1253.93    58608.816   -12606.485     968.9371   -13575.422    112.22139    249.66077 
   30000    77.058696   -1002.4267    58588.994   -12642.577    933.03058   -13575.607    112.44084    240.40893 
   30050    79.267653   -657.14062    58601.422   -12632.969    959.77675   -13592.745    112.67646    247.30047 
   30100    80.296882   -992.43343    58615.955   -12648.535     972.2387   -13620.773    112.61725    250.51147 
   30150    78.577868   -1062.8812    58691.691   -12604.475    951.42479     -13555.9    112.91586    245.14846 
   30200    79.135394   -1154.0187     58710.12   -12616.401    958.17534   -13574.576    112.92317    246.88784 
   30250    78.202235   -1019.4518    58722.909   -12608.765    946.87661   -13555.642    113.19426    243.97656 
   30300    81.522256   -1325.3676    58676.724   -12579.852    987.07559   -13566.927    113.42587    254.33441 
   30350    80.441245   -1485.5129     58614.46   -12602.169    973.98665   -13576.155    113.62962    250.96186 
   30400    82.502279   -1009.9605    58616.978   -12561.529    998.94175   -13560.471    113.64286     257.3919 
   30450    81.749331   -1415.7798     58598.17    -12516.65    989.82502   -13506.475    113.80874    255.04284 
   30500    81.679868   -850.58391    58567.677   -12542.764    988.98396   -13531.748     113.4872    254.82613 
   30550    80.554778   -1277.1615    58552.279   -12532.422    975.36131   -13507.783    114.11666    251.31606 
   30600     82.64383   -1044.7753    58554.604   -12544.257    1000.6557   -13544.913    114.72117    257.83352 
   30650    81.082661   -927.76813    58546.942   -12551.961    981.75295   -13533.714      114.949    252.96296 
   30700    79.475183   -1011.9472    58601.693   -12556.526    962.28952   -13518.816    114.57903    247.94792 
   30750    79.443158   -1300.7972    58604.019    -12584.77    961.90177   -13546.672    114.82862    247.84801 
   30800    79.095251   -1263.8791    58517.968   -12597.647    957.68929   -13555.336    114.71668     246.7626 
   30850    81.864071   -1083.1712    58473.523   -12576.248     991.2143   -13567.462    115.06843    255.40081 
   30900    80.862629   -1010.7781    58545.272   -12583.324    979.08879   -13562.413    114.50641     252.2765 
   30950     80.98727   -1114.4942    58582.603   -12580.429    980.59794   -13561.027    115.04763    252.66535 
   31000    80.153385   -1038.0264    58598.418   -12588.805    970.50123   -13559.306    115.90233    250.06379 
   31050    78.516017    -1246.132    58560.381   -12619.562    950.67589   -13570.238    116.69408     244.9555 
   31100    80.390835   -1377.2282    58512.932   -12618.158    973.37628   -13591.534    116.75679    250.80459 
   31150    77.505654   -1063.6624    58479.258   -12615.558    938.44237   -13554.001    117.18075    241.80336 
   31200    80.684256   -614.33816    58527.037   -12571.111    976.92904    -13548.04    117.49301    251.72001 
   31250    79.355672   -1229.6122    58513.843   -12557.929    960.84248   -13518.771    117.92563    247.57507 
   31300    78.365516   -858.47211    58499.315   -12571.578    948.85362   -13520.432    118.38795    244.48597 
   31350    82.565602   -1192.4761    58465.494   -12536.694    999.70847   -13536.403    118.25237    257.58946 
   31400    81.980469   -1037.8443     58511.35   -12527.021    992.62365   -13519.645    118.22822    255.76395 
   31450    81.216544   -1038.0398    58467.655   -12571.986    983.37401    -13555.36    118.17516    253.38065 
   31500    81.753148   -1105.0663    58449.083   -12542.981    989.87124   -13532.852     118.3785    255.05475 
   31550    82.894022   -998.27829    58441.747   -12552.667     1003.685   -13556.352     119.7539    258.61407 
   31600    81.405756   -572.43143    58445.535   -12583.344      985.665   -13569.009    119.57854    253.97095 
   31650    78.136255   -1181.8182    58400.301   -12605.865    946.07772   -13551.943    119.88477    243.77071 
   31700    84.117912   -1078.5707    58358.433   -12597.593    1018.5039   -13616.096    120.07652    262.43238 
   31750    77.548785   -1384.0061    58305.272    -12648.98     938.9646   -13587.945    120.89955    241.93791 
   31800    78.494988   -1056.9543    58305.122   -12634.093    950.42127   -13584.514    121.26318    244.88989 
   31850    80.329349   -914.63585    58293.282   -12617.835    972.63181   -13590.466    121.15882    250.61276 
   31900    78.301092   -812.58226    58290.969   -12631.109    948.07357   -13579.183    121.17559    244.28497 
   31950     79.85135   -992.23771    58320.892   -12649.836    966.84417    -13616.68     121.5864    249.12149 
   32000    78.838719   -898.64207     58278.28   -12624.731    954.58319   -13579.314    121.59553    245.96227 
   32050    80.246048   -842.82528    58331.561   -12605.122     971.6232   -13576.745    121.83337    250.35288 
   32100    80.052036   -662.51308    58378.822   -12615.118    969.27409   -13584.392    122.43821     249.7476 
   32150    78.966292   -923.41176    58466.785   -12636.214    956.12784   -13592.342     123.1509    246.36027 
   32200    77.149408   -957.77771    58512.732   -12666.066    934.12892   -13600.195      123.703    240.69193 
   32250    78.010625   -787.50117    58508.671   -12624.071    944.55658   -13568.628    124.25002    243.37877 
   32300    79.031241    -888.5486    58456.835   -12648.204    956.91426   -13605.118    124.63813    246.56291 
   32350    78.210785   -858.10824    58476.145   -12651.475    946.98013   -13598.455    125.03146    244.00323 
   32400    77.405706    -1016.043    58487.442   -12645.237    937.23219   -13582.469    124.74023    241.49153 
   32450    83.028813   -999.04903    58514.577   -12619.518    1005.3171   -13624.835    124.78415    259.03459 
   32500    82.286719   -897.34948    58526.544   -12604.227    996.33174   -13600.559    124.73874    256.71939 
   32550     78.72083   -1270.9685    58535.894   -12640.213    953.15578   -13593.369    124.69811    245.59448 
   32600    82.753371   -1129.2982    58467.802    -12613.04     1001.982   -13615.022    125.21662    258.17526 
   32650    77.911159   -883.75171    58512.968    -12592.25    943.35224   -13535.603    125.61509    243.06845 
   32700    83.392838   -1200.2585    58509.595   -12589.094    1009.7247   -13598.819    125.44035    260.17028 
   32750    83.157607   -1088.1085    58557.487    -12599.47    1006.8765   -13606.346    125.69868     259.4364 
   32800    80.663018   -690.37604    58569.744    -12583.27    976.67188   -13559.942    125.91835    251.65375 
   32850    83.740246   -857.49985    58546.356   -12579.072    1013.9311   -13593.003    126.40385    261.25413 
   32900    80.468125    -1138.204    58555.375    -12579.51    974.31211   -13553.822    126.63885    251.04572 
   32950    79.151019   -796.47227     58562.34   -12629.101    958.36453   -13587.466    126.57723    246.93659 
   33000    80.929315   -962.74152    58560.719   -12628.496    979.89622   -13608.392     126.4566    252.48454 
   33050    79.696967    -788.2883    58515.226   -12625.995    964.97489    -13590.97    125.99046    248.63985 
   33100    80.498322    -782.4143    58491.812   -12628.955    974.67775   -13603.633    126.23302    251.13993 
   33150    80.139946   -1060.4818    58515.975   -12629.102     970.3385    -13599.44    126.54407    250.02186 
   33200    77.970698   -986.00937    58523.266   -12645.055    944.07314   -13589.128    126.50951     243.2542 
   33250    78.012117   -1088.3256    58514.461    -12620.39    944.57465   -13564.965    127.02111    243.38343 
   33300    79.709702   -1546.0737    58481.197   -12630.583    965.12909   -13595.712    127.33158    248.67958 
   33350    80.354671   -811.29859    58501.251   -12611.063    972.93841   -13584.001    127.62341    250.69176 
   33400    77.468134   -1122.8378    58560.721   -12630.029    937.98807   -13568.017    127.61364     241.6863 
   33450    78.620234   -1191.9986    58627.806   -12654.526    951.93776   -13606.464    127.56974    245.28064 
   33500    76.423844   -996.09427    58698.514   -12653.069    925.34375   -13578.413    127.80848     238.4283 
   33550    79.357236   -1213.2834    58728.558    -12649.23    960.86141   -13610.091    127.55005    247.57995 
   33600    79.981287   -1052.7723    58771.219   -12651.447    968.41746   -13619.865    127.37258    249.52687 
   33650    81.201194   -1029.5046    58753.355   -12631.683    983.18815   -13614.871    128.36372    253.33276 
   33700    77.801698   -812.23816    58692.538   -12614.984    942.02688    -13557.01    128.36366    242.72696 
   33750    81.039627   -752.88646    58731.321   -12603.874    981.23189   -13585.105    128.36359     252.8287 
   33800    81.009226   -1405.9348    58796.255   -12625.807    980.86379   -13606.671    128.18898    252.73385 
   33850    78.155878   -1057.7541    58779.032   -12625.718    946.31531   -13572.033    127.88674    243.83193 
   33900    81.128465   -1200.5128    58747.964   -12636.419    982.30754   -13618.726     127.9561    253.10586 
   33950    77.189309   -1153.6498    58710.179   -12669.824    934.61204   -13604.436      128.325    240.81642 
[...]
   92000    79.703642   -1118.8895    58496.413   -12628.652    965.05571   -13593.708    324.76264    248.66067 
   92050    81.154187   -843.75083    58508.404   -12646.325    982.61899   -13628.943    325.72918     253.1861 
   92100    77.651573   -1078.3621    58523.653   -12652.397    940.20916   -13592.606    325.28549    242.25859 
   92150    79.926783    -697.5407    58493.685   -12646.288    967.75752   -13614.046    325.93882    249.35683 
   92200    76.958009   -417.07608    58544.668   -12658.192    931.81145   -13590.003    326.84466     240.0948 
   92250    78.669475   -849.20015     58593.63   -12654.903    952.53397   -13607.437    326.76406    245.43426 
   92300    77.035045   -1008.0176    58628.337   -12640.631    932.74421   -13573.376    326.93536    240.33514 
   92350    77.859255   -1179.1489    58609.638   -12636.719    942.72378   -13579.442    326.71138    242.90652 
   92400    78.437095   -836.50853    58645.798   -12596.537     949.7203   -13546.258    327.21839    244.70928 
   92450    81.123252   -1241.1636    58693.593   -12553.589    982.24443   -13535.833    328.06504    253.08959 
   92500    80.539019   -895.08908    58677.322    -12539.71     975.1705    -13514.88     327.9808    251.26689 
   92550    81.443352   -1168.5086    58715.278   -12562.621    986.12021   -13548.741    328.61543    254.08825 
   92600    79.322859   -1069.2515    58750.477   -12531.989    960.44517   -13492.434    329.81738     247.4727 
   92650    82.908202   -1339.2125    58713.752   -12519.567    1003.8567   -13523.423    330.31514    258.65831 
   92700    81.930215   -1156.8486    58707.733   -12512.899    992.01518   -13504.914    330.64916    255.60717 
   92750    79.284236     -1191.63    58710.439   -12574.098    959.97753   -13534.076    330.90269     247.3522 
   92800    80.182683   -1161.6244    58676.067   -12567.475    970.85597   -13538.331    331.64236    250.15519 
   92850    80.805938   -1630.3734    58658.029   -12569.044    978.40238   -13547.446     331.3909    252.09963 
   92900    78.903241   -1189.3761    58614.801   -12605.808    955.36442   -13561.172    331.21953    246.16357 
   92950    78.324799   -1419.1122    58605.294   -12600.537    948.36062   -13548.898    331.44648    244.35894 
   93000    80.679548   -1386.3311    58605.972   -12602.358    976.87203    -13579.23    331.19546    251.70532 
   93050    79.307739   -1044.2239    58548.433   -12622.693    960.26211   -13582.955     331.5354    247.42553 
   93100    79.414999   -1181.0228    58464.454   -12621.317    961.56081   -13582.878    331.64245    247.76016 
   93150    79.723013   -1033.7964    58499.773   -12618.679    965.29026   -13583.969     331.4651     248.7211 
   93200    81.742198   -1133.8518    58500.736   -12641.068    989.73865   -13630.807    332.53537    255.02059 
   93250     80.50878     -938.868    58535.868   -12608.628    974.80437   -13583.432    332.40368    251.17255 
   93300    79.159352   -770.92987    58548.884   -12602.554    958.46543    -13561.02    332.55964    246.96259 
   93350     81.74318   -887.44921    58530.123   -12622.005    989.75055   -13611.756    332.68452    255.02365 
   93400    80.728834   -1297.3446     58514.22   -12591.901    977.46879    -13569.37    332.95022    251.85908 
   93450    81.269636   -864.15534    58449.585    -12596.18    984.01685   -13580.197    333.04313    253.54628 
   93500     80.85503   -1169.4324    58500.584    -12595.49    978.99678   -13574.487    333.45402    252.25279 
   93550    78.376687   -572.38358    58574.295   -12617.722    948.98888   -13566.711    333.45999    244.52082 
   93600    78.766107   -1188.5239    58547.477   -12621.868    953.70399   -13575.572    333.06578    245.73573 
   93650    81.180418   -873.37154    58532.588   -12615.204     982.9366   -13598.141    333.36493    253.26794 
   93700    80.733804   -891.03253    58574.245   -12630.265    977.52898   -13607.794    333.19109    251.87459 
   93750     79.63406   -812.42637    58618.436   -12607.474    964.21321   -13571.687    334.15903    248.44359 
   93800    78.896887   -1042.4134    58592.761   -12610.675    955.28749   -13565.962    335.01273    246.14375 
   93850    81.312225   -1030.2348    58572.285   -12635.696    984.53252   -13620.228    335.41142    253.67915 
   93900     79.32285   -838.23853    58605.192   -12641.589    960.44507   -13602.034     335.7769    247.47267 
   93950     83.41077    -895.9376     58648.35    -12634.17    1009.9418   -13644.112    336.24912    260.22623 
   94000    81.560729   -994.87018    58637.175   -12631.125    987.54142   -13618.666    335.87287    254.45444 
   94050    81.918976   -690.76301    58666.157    -12612.74    991.87909   -13604.619    336.35364    255.57211 
   94100    78.705116   -1141.5749    58668.826   -12647.196    952.96551   -13600.162     336.7722    245.54545 
   94150    80.552898   -944.45323     58682.53   -12632.816    975.33855   -13608.154    337.28767    251.31019 
   94200    79.065832   -1142.6765      58732.9   -12633.027    957.33308    -13590.36    337.47115    246.67082 
   94250    79.661443   -978.77718    58735.971   -12629.586    964.54477   -13594.131     337.3515    248.52902 
   94300     80.24599   -1223.0092    58727.675   -12623.287    971.62249    -13594.91    337.50231     250.3527 
   94350    81.960994   -769.20062    58702.517   -12640.851    992.38785   -13633.238     337.0051    255.70319 
   94400    78.881063   -779.20452    58685.522   -12647.305    955.09589     -13602.4    337.37351    246.09438 
   94450    79.608544   -1399.6843    58670.678   -12654.821    963.90426   -13618.726    337.99722    248.36398 
   94500    81.408811   -970.16688    58669.066   -12632.645    985.70198   -13618.347    338.77112    253.98048 
   94550    81.844453   -1249.0549    58639.392   -12620.752    990.97676   -13611.728    339.60147    255.33961 
   94600    80.013893   -1403.3515    58601.695   -12609.691    968.81225   -13578.504    339.14927     249.6286 
   94650    79.928061   -1198.9864    58570.212   -12579.824    967.77299   -13547.597    339.79968    249.36082 
   94700     83.30773   -1059.5491    58580.554   -12572.632    1008.6942   -13581.326    340.10317    259.90476 
   94750    82.547921   -1008.8788    58593.157   -12574.011    999.49439   -13573.506    340.40256     257.5343 
   94800    82.419428   -1003.6287    58584.753    -12584.36    997.93858   -13582.299    340.77108    257.13342 
   94850    81.803381   -1142.9729     58502.25   -12602.032    990.47947   -13592.511     340.5305    255.21147 
   94900    77.625051    -939.8462    58481.446   -12586.149    939.88804   -13526.037    341.61385    242.17585 
   94950    79.993738   -1017.5673    58522.605   -12584.186    968.56821   -13552.754    341.79378    249.56572 
   95000    81.736718   -1099.4947    58504.938   -12574.293     989.6723   -13563.965    341.52139    255.00349 
   95050    80.283316   -986.42295    58484.638   -12600.555    972.07444   -13572.629    341.63134    250.46915 
   95100    81.157416   -1065.7702    58468.972   -12620.063    982.65809   -13602.721    341.36686    253.19618 
   95150    79.385109   -929.23665    58403.167   -12610.104     961.1989   -13571.303    341.55715    247.66691 
   95200    78.825332   -798.51794    58295.699   -12634.835    954.42109   -13589.256    341.75973    245.92051 
   95250    80.841835   -855.68183    58300.821    -12636.87    978.83702   -13615.707    341.65579    252.21162 
   95300    78.975679   -593.56716    58350.766   -12659.027    956.24151   -13615.269     341.8805    246.38956 
   95350    79.640182   -1113.5682    58372.157   -12629.656    964.28734   -13593.944    342.78942    248.46269 
   95400    81.758971   -722.53937    58385.641   -12592.934    989.94174   -13582.875    342.52041    255.07292 
   95450    80.732601   -811.49938    58394.862   -12627.613     977.5144   -13605.127     342.6445    251.87083 
   95500    79.990915   -628.99604    58409.687    -12616.73    968.53404   -13585.264    342.31057    249.55691 
   95550    77.935917   -836.58195    58391.533   -12611.055    943.65201   -13554.707    342.84639    243.14569 
   95600    83.500286   -800.72926    58495.308   -12593.402    1011.0257   -13604.427    343.42909     260.5055 
   95650    82.144687   -979.63429    58518.853   -12594.671    994.61201   -13589.283    343.03373    256.27628 
   95700    79.076321   -821.47771    58469.915   -12609.999    957.46008   -13567.459    342.55075    246.70354 
   95750    78.996849   -1052.1428    58494.292   -12610.334    956.49783   -13566.831    342.77693    246.45561 
   95800    78.414384   -924.23695    58458.124   -12607.771    949.44531   -13557.216    343.36912    244.63842 
   95850    82.069339   -908.97276    58428.826   -12603.002     993.6997   -13596.701    343.27628    256.04121 
   95900    81.712132   -1154.1209    58396.369   -12602.208    989.37461   -13591.583    342.78369    254.92679 
   95950    80.445694   -825.69839    58422.824    -12627.06    974.04052     -13601.1     343.8643    250.97574 
   96000    79.421077   -653.14257    58481.189    -12619.24    961.63441   -13580.874    345.02998    247.77912 
   96050    78.673535   -1742.1369    58535.819   -12606.546    952.58313   -13559.129    345.78205    245.44693 
   96100    79.109832   -855.70727    58595.303   -12589.294    957.86584    -13547.16    346.27619    246.80809 
   96150    81.755666   -787.93061    58634.385   -12568.628    989.90173    -13558.53    346.19857    255.06261 
   96200     83.19428   -730.27035    58622.898   -12549.503    1007.3205   -13556.823    346.88756    259.55082 
   96250    79.673573   -861.99529    58607.427   -12562.015    964.69164   -13526.707    347.38331    248.56686 
   96300    84.752788   -1191.0846    58601.232   -12542.675     1026.191   -13568.866    347.14296    264.41308 
   96350    79.425434   -926.94684    58590.794   -12552.134    961.68716   -13513.821    347.13283    247.79271 
   96400    81.697322   -645.16395    58609.065   -12574.492     989.1953   -13563.687    347.05398    254.88059 
   96450    80.490461   -611.33145    58612.766   -12549.869    974.58256   -13524.451    346.94268     251.1154 
   96500    82.736342   -893.31484    58662.467   -12554.779    1001.7758   -13556.555    346.40371    258.12214 
   96550    83.274048   -825.94231    58720.466   -12537.045    1008.2864   -13545.332    346.69233    259.79968 
   96600    83.526539   -682.17588    58695.122   -12568.353    1011.3435   -13579.697    346.68714    260.58741 
   96650    82.564965   -1015.0327    58708.896   -12565.451    999.70076   -13565.152    347.06831    257.58747 
   96700    78.704664   -1024.6903    58750.538   -12613.906    952.96004   -13566.866    346.75561    245.54404 
   96750    77.908824   -1196.6517    58734.645   -12608.395    943.32397   -13551.719    347.61047    243.06117 
   96800    76.988073   -1304.6059    58696.146   -12606.905    932.17546   -13539.081    347.75427     240.1886 
   96850    79.083468   -1321.8439     58656.01   -12611.201    957.54662   -13568.748    348.73009    246.72584 
   96900    82.611773   -1174.9652    58632.305   -12569.708    1000.2675   -13569.975    348.60517     257.7335 
   96950    78.768435   -1115.8563    58583.993    -12558.72    953.73218   -13512.452    348.63107      245.743 
   97000    84.437046   -1212.5905    58641.667   -12533.056     1022.368   -13555.424    348.40476    263.42802 
   97050    82.197199   -1408.1271    58622.942   -12553.114    995.24783   -13548.361     348.8519    256.44011 
   97100    82.902774   -1279.9328    58571.038   -12535.203     1003.791   -13538.994      349.528    258.64137 
   97150    78.560099   -1583.8258     58517.38   -12538.445    951.20964   -13489.655    349.85117    245.09303 
   97200    79.896303   -1056.0213    58445.906   -12525.999    967.38846   -13493.387    350.02335    249.26174 
   97250    78.915175    -844.6915    58472.088   -12522.688    955.50891   -13478.197    350.49727     246.2008 
   97300    83.038226   -1227.8914    58493.599   -12514.151     1005.431   -13519.582    350.91645    259.06396 
   97350    79.323407   -1236.7151    58436.833   -12570.212    960.45181   -13530.664    351.59015    247.47441 
   97400    78.904581   -944.21843    58402.783   -12582.902    955.38065   -13538.283    351.56953    246.16775 
   97450    80.671047   -1150.2803    58409.978   -12591.183     976.7691   -13567.952    352.17405     251.6788 
   97500    77.677677   -983.02807    58379.401   -12597.494    940.52523   -13538.019    352.91584    242.34003 
   97550    81.151474   -963.29396    58357.262   -12605.543    982.58614   -13588.129    353.32892    253.17764 
   97600    78.453915   -984.13246    58393.668   -12591.225    949.92396   -13541.149    353.07382    244.76175 
   97650    77.443364   -865.55408    58424.778    -12563.25    937.68815   -13500.938     353.0965    241.60902 
   97700    78.301814    -1266.568    58453.472   -12562.796    948.08232   -13510.878    353.23001    244.28723 
   97750    81.349678   -1268.2874    58446.199   -12545.646    984.98601   -13530.632    352.40226      253.796 
   97800    82.689923   -1445.6259    58453.709   -12537.481    1001.2138   -13538.695    352.69242    257.97732 
   97850    78.580069    -1229.834    58476.263   -12560.567    951.45144   -13512.018    353.74772    245.15533 
   97900    78.402022   -1187.8185    58525.865   -12553.676    949.29564   -13502.972    354.44701    244.59986 
   97950    82.034443   -1355.2298    58559.429   -12569.875    993.27717   -13563.153    353.91058    255.93234 
   98000    80.319788    -1012.861    58524.319   -12568.489    972.51605   -13541.005    354.12358    250.58293 
   98050    80.113967   -843.36169    58524.322   -12594.583    970.02395   -13564.607    353.87965    249.94081 
   98100    81.075468   -731.86845     58557.77   -12605.384    981.66586   -13587.049     354.4346    252.94052 
   98150    78.377333   -774.37753    58570.713   -12624.228     948.9967   -13573.224    354.12218    244.52283 
   98200     77.27002   -941.61473    58551.809   -12658.261    935.58929    -13593.85    354.14021    241.06822 
   98250    78.011678   -960.69273    58572.159    -12642.25    944.56933   -13586.819    354.50226    243.38205 
   98300    78.237078   -1294.7977    58533.829   -12628.237    947.29849   -13575.536     354.6788    244.08526 
   98350    82.499628   -901.84929    58534.365   -12587.659    998.90965   -13586.568    354.32822    257.38363 
   98400    82.725304   -456.34718    58538.017   -12575.866    1001.6421   -13577.508    354.21646     258.0877 
   98450    81.421786   -1065.6639    58540.344   -12570.192    985.85909   -13556.051    354.30509    254.02096 
   98500    79.516524   -1215.2571    58516.354   -12575.476    962.79008   -13538.266    355.86396     248.0769 
   98550    80.969321   -798.87408    58504.738   -12592.264    980.38062   -13572.645    355.73314    252.60936 
   98600    81.288163   -1269.6524    58545.564   -12548.022    984.24118   -13532.263    356.61132    253.60409 
   98650    83.969563   -844.83675    58456.484   -12588.381    1016.7077   -13605.089    356.85657    261.96956 
   98700    83.017064   -951.60786      58472.8   -12569.453    1005.1748   -13574.628    356.54652    258.99794 
   98750    83.292796   -664.60274    58506.167    -12556.72    1008.5134   -13565.234    356.82339    259.85817 
   98800    78.715918   -1107.3218    58559.963   -12575.104     953.0963     -13528.2    356.39015    245.57915 
   98850    82.300147   -1174.0915    58559.368   -12596.085    996.49433   -13592.579    356.67909    256.76129 
   98900    81.537884   -1233.8033    58560.199       -12585    987.26481   -13572.265     356.9249    254.38317 
   98950    80.040415   -1026.2742    58512.826   -12611.967    969.13338     -13581.1     356.9981    249.71134 
   99000    78.325055   -978.90312    58550.554   -12627.496    948.36371   -13575.859    357.07786    244.35973 
   99050    82.041563   -902.28352    58596.059    -12608.76    993.36339   -13602.123    357.54956    255.95456 
   99100     74.84024    -898.6506    58647.397   -12604.347     906.1694   -13510.516    357.21691    233.48775 
   99150    80.697284   -1491.2056    58598.894   -12604.488    977.08678   -13581.574    357.41659    251.76065 
   99200    78.803271   -1036.0265     58604.76     -12659.6    954.15398   -13613.754    358.28516    245.85168 
   99250     80.85296   -1031.3681    58597.559    -12643.28    978.97172   -13622.252    358.90254    252.24633 
   99300     81.31435   -966.60179    58602.533   -12614.835    984.55825   -13599.393     358.6323    253.68578 
   99350    80.171123   -1247.4841    58588.579   -12631.729    970.71599   -13602.445    359.09745    250.11912 
   99400    80.907434    -1004.093    58646.205   -12647.262    979.63129   -13626.894     359.4914    252.41628 
   99450    77.719766   -1042.8557    58701.836   -12667.254    941.03484   -13608.289    359.52523    242.47134 
   99500    79.383708   -982.06943    58720.951   -12677.432    961.18194   -13638.614    360.14617    247.66254 
   99550    77.023218     -1228.67    58700.236   -12692.621      932.601   -13625.222    360.71844    240.29824 
   99600     77.58514   -1198.0466    58681.759    -12707.97    939.40478   -13647.375    360.82507    242.05133 
   99650    74.476988   -836.65211      58671.6   -12708.838    901.77112    -13610.61    360.51982    232.35447 
   99700    79.024197   -1034.6488    58693.723   -12656.584    956.82897   -13613.413    360.25171    246.54093 
   99750    77.965276   -869.05981    58727.447   -12664.559     944.0075   -13608.566    360.09277    243.23729 
   99800    78.646939   -1274.9193    58719.553   -12657.021     952.2611   -13609.282    360.89126    245.36395 
   99850    80.345068   -1117.9194    58716.555   -12644.359    972.82214   -13617.181     361.9662     250.6618 
   99900    78.972752   -1159.6242    58683.231   -12634.915    956.20606   -13591.121    362.47454    246.38043 
   99950    82.215427   -850.27794    58668.327    -12624.89    995.46854   -13620.358     363.3549    256.49698 
  100000    80.711508   -1363.8949    58682.203   -12635.201    977.25901    -13612.46     363.7971    251.80503 
Loop time of 82.2126 on 80 procs for 100000 steps with 4063 atoms

Performance: 525.467 ns/day, 0.046 hours/ns, 1216.359 timesteps/s
99.5% CPU use with 80 MPI tasks x no OpenMP threads

MPI task timing breakdown:
Section |  min time  |  avg time  |  max time  |%varavg| %total
---------------------------------------------------------------
Pair    | 47.869     | 51.352     | 56.699     |  29.9 | 62.46
Neigh   | 0.46759    | 1.0859     | 1.9929     |  59.0 |  1.32
Comm    | 14.719     | 21.157     | 25.592     |  56.0 | 25.73
Output  | 0.12955    | 0.13313    | 0.26526    |   4.1 |  0.16
Modify  | 6.5172     | 7.5247     | 8.5897     |  15.5 |  9.15
Other   |            | 0.9597     |            |       |  1.17

Nlocal:    50.7875 ave 84 max 22 min
Histogram: 36 4 0 0 0 0 2 5 16 17
Nghost:    717.538 ave 750 max 679 min
Histogram: 2 12 10 6 6 6 6 11 10 11
Neighs:    0 ave 0 max 0 min
Histogram: 80 0 0 0 0 0 0 0 0 0
FullNghs:  5591 ave 10883 max 1153 min
Histogram: 40 0 0 0 0 0 0 5 18 17

Total # of neighbors = 447280
Ave neighs/atom = 110.086
Neighbor list builds = 5700
Dangerous builds = 0

write_data		${DIR}/data.eq-${NAME}-${TEMP}
write_data		run_14/data.eq-${NAME}-${TEMP}
write_data		run_14/data.eq-het_freeze_14-${TEMP}
write_data		run_14/data.eq-het_freeze_14-250
undump          1

reset_timestep  0

unfix           2
unfix           3
unfix           4


################################################
#######         Run Simulation         #########
################################################

log				${DIR}/log.run_${NAME}
log				run_14/log.run_${NAME}
log				run_14/log.run_het_freeze_14
