LAMMPS data file via write_data, version 16 Mar 2018, timestep = 8000000

6589 atoms
2 atom types

0.0000000000000000e+00 4.9219999999999999e+01 xlo xhi
0.0000000000000000e+00 4.9019635930410494e+01 ylo yhi
-1.8991326816377097e-01 6.0251913268160237e+01 zlo zhi

Masses

1 18.015
2 12.01

Atoms # atomic

343 1 7.7549017016287125e-01 2.4063255456948047e+00 2.4856688356185281e+00 2 -2 0
3285 1 3.3977695250769417e+00 2.4171242384976477e+00 1.4295803925396722e+00 -1 0 1
4687 1 9.9678697995211270e+00 2.5762070965201606e-01 6.0873749116815850e+00 -2 0 1
5325 1 8.6324033926294064e+00 2.4868012535023176e+00 2.3493194487526559e+00 1 0 0
392 1 1.1278462384472169e+01 2.5870145957262931e+00 1.7170591834416638e+00 -2 4 0
6235 1 1.1118294526685334e+01 2.0295890957462294e+01 1.2631427147840126e+01 -1 -3 1
6552 1 6.3089208641342664e-01 6.8134856000124051e+00 2.5170695512090853e+00 2 0 1
1921 1 3.1416810509463837e+00 6.9906564990410844e+00 1.4116056515441671e+00 0 0 0
5301 1 4.9299965710046383e+00 4.8472595170668749e+00 2.1496909657163590e+00 2 1 0
6266 1 7.5980019107022549e+00 4.8801082775504296e+00 1.5229178230811800e+00 -1 -1 0
59 1 8.3687098161703819e+00 7.2080762956950792e+00 2.7477999071708421e+00 1 0 1
4699 1 1.0940342149883891e+01 7.0672261438712818e+00 1.6945110044342888e+00 3 0 0
272 1 8.8163958311892598e-01 1.1206512186760193e+01 2.6031700520107477e+00 1 2 0
6369 1 3.3455676266623868e+00 1.1270897376349243e+01 1.7964888134340380e+00 -2 1 1
4670 1 4.6321596594003864e+00 9.0464993986836220e+00 2.8098551118204917e+00 0 2 0
4994 1 7.0811992175156107e+00 9.4907744269640251e+00 1.7244600818633438e+00 1 0 0
4674 1 8.7226201613001688e+00 1.1252588480585011e+01 2.8016047297974520e+00 2 -2 0
4558 1 1.1136177560631394e+01 1.1375302574374139e+01 1.8290557899136726e+00 0 1 0
1449 1 8.6082205553532398e-01 1.5570672459635995e+01 2.5269836538379247e+00 -4 1 1
253 1 3.5671141222482570e+00 1.5764200599356286e+01 1.7047761309694971e+00 1 -2 0
6254 1 4.7262075181266745e+00 1.3428091142836848e+01 2.6537939982483660e+00 -1 2 1
3738 1 7.4022287225651535e+00 1.3553329539119041e+01 1.8542368821670405e+00 -2 0 1
2142 1 8.3616396274788354e+00 1.5917498705827173e+01 2.5509893291975869e+00 0 2 1
54 1 1.1135653055775450e+01 1.6091828707692450e+01 1.8864743725710005e+00 -1 -1 1
4920 1 3.5773037454689867e+00 2.0318838061702785e+01 1.5286596615964685e+00 3 0 1
3019 1 9.9715732094662124e-01 2.0203759648362848e+01 2.3759696376544568e+00 -2 -1 1
4964 1 8.5083860176231170e+00 2.0190591531741745e+01 1.3277612200672417e+01 -2 0 0
3257 1 4.7284852189095536e+00 1.8147491226966061e+01 2.5239803440205382e+00 2 3 1
3685 1 7.2418742246453762e+00 1.8103441962880492e+01 1.7711061070428553e+00 0 2 0
3409 1 8.7646008461470455e+00 2.0353267909437513e+01 2.5669472114587393e+00 0 -1 0
3640 1 1.1352884711424627e+01 2.0394309754146583e+01 1.7106203169287135e+00 1 1 0
5452 1 7.2531041455305401e+00 2.2414095359480218e+01 1.2745264293397577e+01 1 4 0
1305 1 7.5211207663352679e+00 2.9812771372155533e-01 9.9611514913940873e+00 2 -1 1
4724 1 4.4091099209918267e+00 1.7796642200432519e+01 1.3621251245650589e+01 1 -1 0
393 1 4.8415532560188383e+00 2.2644367794427595e+01 2.6318229424249235e+00 1 0 0
3803 1 7.4154590866491725e+00 2.2495458313419661e+01 1.6803361184604935e+00 1 2 1
399 1 7.1208259395115914e-01 2.3901007693416574e+00 5.2355860048219682e+00 1 1 0
112 1 7.0830524630877170e+00 5.6641477085192848e-01 1.4373631288642230e+00 1 2 0
4965 1 6.1494201944134375e+00 2.9741677239919349e+00 5.9542460924037792e+00 0 1 0
15 1 5.9572692985615197e+00 2.3621397954594645e+00 8.9133787831633740e+00 -1 3 0
405 1 3.2430137510789097e+00 2.0053787188880957e+01 9.9938293648364098e+00 1 1 0
4655 1 1.2143841256114907e+01 1.3571435836446893e+01 5.3188240209983357e+00 1 0 1
3678 1 8.7668932973697142e+00 2.6136763914528540e+00 5.0351509543325896e+00 -1 2 0
1936 1 7.6769706675077032e-01 1.9861815639543952e+01 1.3703114103519727e+01 -4 3 0
1751 1 7.8380399898939845e-01 6.9134745989077144e+00 5.2670775691220966e+00 1 1 0
6249 1 1.9878794621728764e+00 4.6264165689889714e+00 6.0635795979423692e+00 1 2 1
3814 1 2.0988850064126257e+00 4.5995112636236453e+00 8.9728576976769876e+00 0 2 1
5329 1 4.4410313578623350e+00 4.8776497973953177e+00 5.0151311013855695e+00 -1 1 0
4589 1 5.5145323130525457e+00 6.5860623020907969e+00 6.5463388572199053e+00 2 1 1
3516 1 5.9050057034487198e+00 6.7894762074157828e+00 9.2798049221238710e+00 1 -1 0
6488 1 8.2263705085242673e+00 6.9892649857805864e+00 5.5306399114205664e+00 -3 3 1
366 1 9.8799647922773879e+00 4.8180672452947428e+00 6.4845971260900237e+00 1 2 0
1947 1 9.9032560124133333e+00 4.4986002505403473e+00 9.0392071776082723e+00 0 1 0
3114 1 4.5625537678038572e+00 2.2420332433330120e+01 1.3636742027537462e+01 0 1 1
6437 1 6.1221210737171683e-01 1.1176557581745573e+01 5.4644567077415811e+00 -2 4 1
368 1 2.1343232474276936e+00 8.9351951192079895e+00 6.4318989556488697e+00 -1 4 1
3855 1 2.2359388930085715e+00 9.0511831282915338e+00 9.1834438534888463e+00 2 -1 1
5014 1 3.5660003697433300e+00 1.1559989446805806e+01 9.9720793064859823e+00 1 -3 0
5080 1 4.6498592013613909e+00 9.0018041127954209e+00 5.5774729271822991e+00 1 0 1
1475 1 5.8824898940015569e+00 1.1367061567974883e+01 6.4068481095557965e+00 -1 -1 1
3073 1 5.8552454672546883e+00 1.1318087398593452e+01 9.1782940444559955e+00 3 0 1
192 1 8.3956086988675036e+00 1.1320166146490944e+01 5.4405404864458164e+00 0 1 0
1571 1 9.6262785660502761e+00 9.1765967207621024e+00 6.2111020874717289e+00 1 2 0
6551 1 9.8578704913290398e+00 9.1507911346244981e+00 8.9908146567959104e+00 -1 1 1
3663 1 8.9896200522095560e-01 1.5575092464340067e+01 5.2097489679699898e+00 1 1 0
255 1 2.1060192406736946e+00 1.3465573344208101e+01 6.0177986889512569e+00 -1 0 1
3334 1 2.1459035611025010e+00 1.3414226125804275e+01 8.8130983140914463e+00 0 -1 0
4844 1 4.8002801830347934e+00 1.3640156466717913e+01 5.4283821211338141e+00 3 2 0
3561 1 5.8692180524512487e+00 1.5905937178486514e+01 6.2508817006784758e+00 0 0 0
3232 1 5.9993328281985212e+00 1.5685752371481577e+01 8.9374966945399645e+00 1 1 1
4742 1 8.3560832695089040e+00 1.6174139455335709e+01 5.2767588292931240e+00 -2 2 1
3200 1 9.8898769302602982e+00 1.3616881071616159e+01 8.7891191584821140e+00 3 0 0
3555 1 9.5493463661079794e+00 1.3653559559664300e+01 6.0588034567331759e+00 3 2 0
6450 1 1.1076161714097548e+01 1.9952162584954316e+01 1.0006185918207471e+01 -1 1 1
4921 1 2.4689295410192527e+00 1.7962608257139042e+01 6.1246224355778400e+00 0 1 1
2236 1 2.1219667580262027e+00 1.7784634373692885e+01 8.8903158668693774e+00 -1 -1 1
3181 1 7.8887226826516021e-01 2.0209912161931978e+01 5.4786564546795242e+00 3 0 1
3847 1 4.9419712453631393e+00 1.8252650372454795e+01 5.1881550646650290e+00 1 0 1
1889 1 5.9450761409467292e+00 2.0486407465298971e+01 6.4214887500964561e+00 -1 1 0
497 1 5.8480726284552214e+00 2.0289510338533969e+01 9.3218814414476086e+00 -1 2 0
51 1 9.8566238391556578e+00 1.7804239335159682e+01 8.9609265919581933e+00 0 0 1
4789 1 9.8268658116010776e+00 1.8186061403832049e+01 6.2703738710846233e+00 2 3 1
3157 1 8.5034673823268356e+00 2.0434644472642844e+01 5.3868810597209809e+00 -1 1 1
3410 1 2.2819718896414720e+00 2.2350095262773863e+01 6.5377148313985662e+00 4 -1 1
1634 1 2.0925318214012876e+00 2.2351374813274582e+01 9.2583642112900648e+00 1 -1 1
6519 1 3.2975056364927298e+00 2.0074981092142426e+01 1.2753747193526108e+01 2 -1 0
4847 1 7.2275536137557070e+00 1.7574435198364252e+01 1.2688303499392221e+01 -1 0 0
1477 1 4.9483843683424036e+00 2.2632861036090731e+01 5.3887648896258229e+00 1 2 1
187 1 7.4007223752458424e+00 2.2528506177737718e+01 9.9829654724882246e+00 2 0 0
3168 1 1.0011810878813408e+01 2.2519300685498134e+01 9.0497418168811521e+00 -1 0 1
3342 1 1.0012715272272631e+01 2.2632773895273026e+01 6.3723126034129303e+00 3 -1 0
6279 1 7.2719841301437880e+00 1.7965004539880812e+01 9.9021793375222042e+00 1 -1 1
2076 1 3.3478723969690591e+00 2.2441288771896963e+00 1.0197411866582053e+01 -1 1 0
1538 1 1.0096878834448888e+00 2.3943374487259561e+00 1.3780213893554874e+01 -1 -1 1
5355 1 3.2944320109562053e+00 2.2715655864991926e+00 1.2686531290814205e+01 2 -2 0
4770 1 8.5171492112889891e-01 6.8501127947635982e+00 1.3790267168111850e+01 0 0 1
56 1 1.9855420211395514e+00 2.7631856158804335e-01 9.2752448925994742e+00 1 1 1
3589 1 1.0072940662519608e+01 3.0972675565888536e-01 8.7144148016594158e+00 0 1 0
5086 1 1.1319295507089212e+01 2.3926022432338567e+00 1.0149159736326073e+01 -2 0 1
6346 1 8.3806348864419782e+00 2.4426223252381019e+00 1.3613955612746302e+01 1 1 1
3099 1 1.0980971952942278e+01 2.2775441710201343e+00 1.2638765767574487e+01 -2 0 1
1580 1 1.1417934095832422e+01 1.6114617515765982e+01 1.2529484390187649e+01 0 0 0
5263 1 3.1370923234757480e+00 6.7794633450329256e+00 1.0003339673066460e+01 1 2 0
396 1 3.4352972855661763e+00 6.9671741479312193e+00 1.2721912742437123e+01 1 1 0
1956 1 7.3208185124380121e+00 4.5405074661874174e+00 1.0018679663458300e+01 -1 -2 0
1281 1 4.6318140485774126e+00 4.6227363081437725e+00 1.3446931335277114e+01 1 1 1
436 1 7.2421480672362231e+00 4.7414156562555005e+00 1.2654266215148791e+01 -1 0 0
500 1 1.1192249143650198e+01 6.7103481152113238e+00 9.9803481404865071e+00 0 0 0
5272 1 8.6196658089527762e+00 6.9265811415694332e+00 1.3678167544431025e+01 1 2 0
1977 1 1.1400575566658802e+01 6.8235631773297101e+00 1.2784467587627741e+01 -1 2 0
1763 1 7.6989900048853854e-01 1.1608429510957857e+01 1.3782951076132056e+01 1 -2 0
43 1 3.4943478121701852e+00 1.1833904341745656e+01 1.2875865110747501e+01 1 -2 1
5152 1 7.3475538345967841e+00 9.1510145138344754e+00 1.0053193593357646e+01 0 0 0
1674 1 4.7431635905525500e+00 9.3967658617777907e+00 1.3278213413523602e+01 -1 -1 1
6424 1 7.3988337297735596e+00 9.0537750629838740e+00 1.2752390611388844e+01 1 3 0
326 1 1.1273299372428825e+01 1.1411677950160746e+01 9.7404138018860547e+00 0 -1 0
3604 1 8.9842722968399418e+00 1.1309932455045319e+01 1.3238839899725207e+01 -2 -1 0
3864 1 1.1627547663115118e+01 1.1471898686039287e+01 1.2479857299384522e+01 0 -1 1
3281 1 3.4324790583965972e+00 1.5510961009771599e+01 9.9069505894429604e+00 2 1 0
204 1 3.2139499492939433e-01 1.5742939667694651e+01 1.3577425039738120e+01 1 0 1
2954 1 2.9411425061930987e+00 1.5798088282722354e+01 1.2800221525384538e+01 2 0 1
5315 1 7.3008225324999971e+00 1.3594304585330921e+01 9.6674143833334103e+00 1 -1 0
384 1 4.9128019377343364e+00 1.3862767727932820e+01 1.3586775555376310e+01 1 0 0
4986 1 7.5031245375664914e+00 1.3522682832602312e+01 1.2414631724037118e+01 3 -1 1
36 1 1.1447066064951056e+01 1.5605790832260510e+01 9.5951149553242594e+00 -2 0 1
4977 1 8.8880373303618434e+00 1.5412085197566828e+01 1.3767149942693818e+01 1 -2 1
4882 1 1.9780587446865199e+00 3.7892987860212990e-01 6.4844733145135409e+00 0 0 1
6343 1 4.6173748619794637e+00 4.7383079408579554e-01 5.4624433275160573e+00 1 1 1
1722 1 4.6476391700863789e-01 2.4409384107343151e+01 1.3713714044416228e+01 0 0 0
2908 1 4.7333908093117785e+00 4.5941947746640299e-01 2.6492358701715735e+00 -4 1 1
1434 1 1.0110778652594357e+00 2.4507068799061333e+01 5.1962475335910554e+00 -1 -2 1
2186 1 8.8201701593625603e-01 1.1547225659504310e+01 1.6475463891196664e+01 2 -2 0
6444 1 2.0833628568170157e+00 5.1300273330765678e-01 1.7710466514616392e+01 1 -1 1
1810 1 1.8178443928537702e+00 6.0635640545616420e-01 2.0578053217267097e+01 -1 -2 0
3321 1 5.8148951405449978e+00 2.8776806246201501e+00 1.7083772531453125e+01 -1 0 1
5076 1 5.8579217082670088e+00 2.7555557484743933e+00 1.9855095302553075e+01 0 2 0
873 2 1.1074500000000002e+01 2.2023314693372832e+01 2.6638884730585630e+01 0 0 0
5383 1 8.6435576186544818e+00 2.6903637724669460e+00 1.6361663866946365e+01 0 2 0
4952 1 9.5692096489884690e+00 2.3255149779523601e-01 1.7292036736392468e+01 2 3 1
1533 1 1.8334240000761530e+00 4.8734124481699199e+00 1.7187431201485467e+01 0 -2 1
4991 1 5.0730427559594293e-01 7.0962439234987960e+00 1.6535045264629087e+01 0 -1 1
1887 1 4.3892421229796614e+00 4.9760068013052718e+00 1.6117951249560008e+01 -1 1 0
3206 1 6.3062623927805461e+00 6.8508962425903777e+00 1.6882263584867967e+01 -2 3 0
476 1 8.9979354875864477e+00 6.8466599408426907e+00 1.6449919620838099e+01 3 0 0
6500 1 1.0313114083529722e+01 4.5900656532905488e+00 1.7442249382333152e+01 1 -3 0
6545 1 2.3672345597863838e+00 9.2741486460039280e+00 1.6916302905257172e+01 2 -1 1
4755 1 6.8466521852684838e+00 3.7267138892911827e-01 2.0879558103219271e+01 0 1 0
5331 1 4.8865698093365300e+00 9.1360496545012690e+00 1.6041498320584545e+01 1 -1 0
1817 1 6.5001352943476487e+00 1.1265948897573629e+01 1.7320521768719455e+01 -2 1 0
6442 1 8.9807466007969055e+00 1.1220505052995010e+01 1.6017858162377223e+01 -3 3 1
2021 1 1.0397458888829668e+01 9.0351827465915395e+00 1.7036362991869087e+01 2 1 0
2214 1 1.0313044380484277e+01 9.1530023222602885e+00 1.9611309866077214e+01 -2 2 1
5283 1 2.0885997715538585e+00 1.3801871244259690e+01 1.7050268856120571e+01 1 1 0
516 1 8.3744592470757040e-01 1.6028961782723140e+01 1.6105782230250341e+01 0 2 0
3053 1 1.8925624808387482e+00 1.3827014735723678e+01 1.9806704895526110e+01 1 1 0
1896 1 4.8259825039398292e+00 1.3628609444973062e+01 1.6484510231542174e+01 2 0 0
2922 1 6.1150836087892202e+00 1.5997845925776467e+01 1.7326535465444113e+01 0 0 1
519 1 6.0456911350609381e+00 1.6125933828252169e+01 2.0109979760707358e+01 0 1 1
2105 1 8.9300871316906481e+00 1.5750436813974204e+01 1.6518911565122860e+01 2 2 1
487 1 1.0221972769338018e+01 1.2994798599874951e+01 1.7136536543693186e+01 0 0 1
2071 1 5.6857768671527509e-01 2.0169186834196854e+01 1.6152299012573792e+01 1 3 0
26 1 2.0267944082957019e+00 1.8075285303614731e+01 1.7035134998365855e+01 1 -3 1
6340 1 4.7585535915876074e+00 1.7990226725484145e+01 1.6374567758607061e+01 1 -1 1
420 1 6.1068410887265756e+00 2.0305053878884607e+01 1.6956904355819184e+01 3 -1 0
301 1 1.0139834388345617e+01 1.8041003170058389e+01 1.7220625707214484e+01 1 0 0
5470 1 8.6385379212433904e+00 1.9976450099111524e+01 1.6031122509343465e+01 0 -1 1
3544 1 1.9328190371691734e+00 2.2361789876294488e+01 1.7416220744536979e+01 -2 1 0
4617 1 4.5695536389981672e+00 2.2533700596284856e+01 1.6502738518895814e+01 4 0 1
550 1 1.0200520566444821e+01 2.2044225623918749e+01 1.7178708391421072e+01 1 1 0
4918 1 3.4105128461535781e+00 2.9012193990413540e+00 2.1285893707932676e+01 3 2 1
6295 1 3.5776934361198340e+00 2.7200662079523985e+00 2.4044051942692878e+01 1 1 1
126 1 4.5173536721648517e+00 1.9595411282577685e-01 1.6553103902786230e+01 1 1 1
869 2 9.8440000000000012e+00 2.4154603212086336e+01 2.6638884730585630e+01 0 0 0
4859 1 6.0755592262831231e+00 2.6653862736817224e+00 2.4423269835702293e+01 3 1 0
867 2 8.6134999999999984e+00 2.3444173705848499e+01 2.6638884730585630e+01 0 0 0
3588 1 1.1648569574901479e+01 1.8294872011444205e+00 2.3561937361569964e+01 1 0 0
1694 1 1.1262702230238398e+01 2.4501327503011505e+00 2.1037574772322106e+01 3 -1 1
871 2 9.8440000000000012e+00 2.1312885187134999e+01 2.6638884730585630e+01 0 0 0
6498 1 1.9641188588831999e+00 5.1187198787781831e+00 1.9811586567588709e+01 2 0 1
6432 1 2.1095845028463924e+00 5.2503639331314123e+00 2.4409039095374304e+01 2 1 0
6221 1 3.5385679850627612e+00 7.3837359173473809e+00 2.0556552316298131e+01 2 0 1
3280 1 3.7474961230923034e+00 7.2579397744498291e+00 2.3173276886522313e+01 1 1 0
3794 1 6.1271956829203678e+00 6.9593077571620094e+00 1.9533587302618606e+01 0 2 0
4710 1 7.3362485232697532e+00 4.7972558521508741e+00 2.0959268222208536e+01 0 5 1
2084 1 7.5126128941702364e+00 4.7702569639740569e+00 2.3673695986731982e+01 -2 1 0
169 1 6.2007837736940150e+00 7.1817678368937150e+00 2.4116105557540763e+01 1 -1 1
1728 1 1.0140852747566049e+01 4.6019374078206718e+00 2.0093827310656760e+01 0 2 1
3405 1 1.1684130812842142e+01 6.4560893116954308e+00 2.3593273050849326e+01 0 1 1
1606 1 1.0334265549404018e+01 4.2544244463310141e+00 2.4126891248836614e+01 0 -1 1
325 1 1.1785919117467460e+01 6.8316631611702805e+00 2.0766414806048157e+01 3 -1 0
72 1 2.0318704898163262e+00 9.3608057378083753e+00 1.9638782624537868e+01 3 1 0
3452 1 1.9650213435764841e+00 9.2440347652164174e+00 2.4195534490959954e+01 0 2 1
140 1 3.5407116569425523e+00 1.1501912396175898e+01 2.0578757568172918e+01 1 -2 0
4925 1 3.2336763506301391e+00 1.1435347902270886e+01 2.3293666303669617e+01 0 -2 1
6198 1 6.2059559964113911e+00 1.1360729259193729e+01 2.0009878801886927e+01 2 0 1
3159 1 7.6410709223546727e+00 9.1247918596128663e+00 2.3277376078028492e+01 0 0 1
53 1 7.9737782077502510e+00 8.9690692037798367e+00 2.0667846968303223e+01 -1 2 1
1742 1 5.9659027017179396e+00 1.1259353934630335e+01 2.4187709076727444e+01 -2 -3 0
2188 1 1.0164367387545679e+01 8.8710397803855709e+00 2.4304775163553991e+01 2 0 1
6503 1 1.1565792846665348e+01 1.1228837127458243e+01 2.0542006734558942e+01 1 -1 0
5282 1 1.1357938468403711e+01 1.0991271547547052e+01 2.3332158018501261e+01 2 1 0
351 1 2.1646707592784686e+00 1.3719412836211630e+01 2.3965959188689208e+01 0 1 0
2077 1 3.4881515904190792e+00 1.6024499679191635e+01 2.0746519583435877e+01 0 -1 0
3201 1 3.7495841467039273e+00 1.6042683466202906e+01 2.3482338965122711e+01 1 1 1
5139 1 7.5265762919287065e+00 1.3416367903268425e+01 2.0740405682076119e+01 1 0 0
2906 1 7.2066591976865011e+00 1.3846401286432608e+01 2.3362977640095345e+01 0 -1 1
3174 1 1.0126408888385081e+01 1.3516621619985905e+01 1.9825003111915862e+01 0 1 0
421 1 1.0138087078693339e+01 1.3613514331940397e+01 2.3629316217672052e+01 -2 2 0
397 1 1.1678579463234000e+01 1.5649442083700459e+01 2.0640605240758838e+01 1 -2 0
3071 1 1.1978268919756852e+01 1.5625092621976732e+01 2.3466497914168905e+01 1 1 1
3706 1 1.8479834530578281e+00 1.8198297379469057e+01 1.9735984944854767e+01 1 -1 0
4961 1 1.8965580115531566e+00 1.8345244351188150e+01 2.4142705402618780e+01 -1 0 1
464 1 3.5926720784535973e+00 2.0254286815541747e+01 2.0784930465833838e+01 0 -1 0
4753 1 6.2662136568168574e+00 2.0336071098231397e+01 1.9706757310918572e+01 -1 0 1
6323 1 6.3735882407602871e+00 1.6375921004835085e+01 2.3550542989314035e+01 1 -2 1
64 1 8.0498843996579872e+00 1.8690160745638309e+01 2.3374396754054519e+01 2 0 0
1465 1 7.7219460316174091e+00 1.8437911027270303e+01 2.0749927794480609e+01 1 2 1
3471 1 1.0449467264046474e+01 1.8059385854145681e+01 1.9908212459212596e+01 1 -2 0
5316 1 1.0663468545136178e+01 1.8217671956264823e+01 2.4143959818518098e+01 -3 2 0
6297 1 1.1755074545215786e+01 2.0767427488255315e+01 2.3537690388382057e+01 0 2 1
5516 1 1.6894154933773819e+00 2.2014395321211087e+01 2.0000266753464505e+01 0 -1 1
3824 1 3.5160355864111241e+00 2.0404987199618684e+01 2.3403922864364052e+01 0 0 1
6202 1 2.2490560105923278e+00 2.2675935600931815e+01 2.4113188500231427e+01 -1 -4 1
3615 1 6.4397830804349141e+00 2.0731887111543259e+01 2.4267151390201352e+01 -2 3 0
342 1 7.7199018228827674e+00 2.2577574961521893e+01 2.0637012706877336e+01 2 0 1
359 1 8.0455904098371178e+00 2.2964004615697924e+01 2.3352214775574517e+01 -1 1 0
147 1 1.0518620731201167e+01 2.2475617809800795e+01 1.9893353709502726e+01 3 -1 1
4915 1 1.1477511765690597e+01 2.0299125920480037e+01 2.0861658742737884e+01 1 1 1
1774 1 1.0742055330974006e+01 2.3225450854478979e+01 2.4314320919585452e+01 1 2 0
594 2 0.0000000000000000e+00 2.8417180249513345e+00 2.6638884730585630e+01 0 0 0
596 2 0.0000000000000000e+00 0.0000000000000000e+00 2.6638884730585630e+01 0 0 0
598 2 1.2305000000000001e+00 7.1042950623783474e-01 2.6638884730585630e+01 0 0 0
605 2 1.2305000000000001e+00 2.1312885187134998e+00 2.6638884730585630e+01 0 0 0
607 2 2.4610000000000003e+00 2.8417180249513345e+00 2.6638884730585630e+01 0 0 0
609 2 2.4610000000000003e+00 0.0000000000000000e+00 2.6638884730585630e+01 0 0 0
611 2 3.6915000000000004e+00 7.1042950623783474e-01 2.6638884730585630e+01 0 0 0
626 2 3.6914999999999996e+00 2.1312885187134998e+00 2.6638884730585630e+01 0 0 0
628 2 4.9220000000000006e+00 2.8417180249513332e+00 2.6638884730585630e+01 0 0 0
630 2 4.9220000000000006e+00 0.0000000000000000e+00 2.6638884730585630e+01 0 0 0
632 2 6.1524999999999999e+00 7.1042950623783407e-01 2.6638884730585630e+01 0 0 0
655 2 6.1524999999999999e+00 2.1312885187134989e+00 2.6638884730585630e+01 0 0 0
657 2 7.3829999999999991e+00 2.8417180249513345e+00 2.6638884730585630e+01 0 0 0
659 2 7.3829999999999991e+00 0.0000000000000000e+00 2.6638884730585630e+01 0 0 0
661 2 8.6134999999999984e+00 7.1042950623783407e-01 2.6638884730585630e+01 0 0 0
692 2 8.6134999999999984e+00 2.1312885187135002e+00 2.6638884730585630e+01 0 0 0
694 2 9.8440000000000012e+00 2.8417180249513332e+00 2.6638884730585630e+01 0 0 0
696 2 9.8440000000000012e+00 0.0000000000000000e+00 2.6638884730585630e+01 0 0 0
698 2 1.1074500000000002e+01 7.1042950623783330e-01 2.6638884730585630e+01 0 0 0
737 2 1.1074500000000002e+01 2.1312885187135002e+00 2.6638884730585630e+01 0 0 0
599 2 0.0000000000000000e+00 7.1042950623783341e+00 2.6638884730585630e+01 0 0 0
601 2 0.0000000000000000e+00 4.2625770374269996e+00 2.6638884730585630e+01 0 0 0
603 2 1.2305000000000001e+00 4.9730065436648339e+00 2.6638884730585630e+01 0 0 0
618 2 1.2305000000000001e+00 6.3938655561404980e+00 2.6638884730585630e+01 0 0 0
620 2 2.4610000000000003e+00 7.1042950623783341e+00 2.6638884730585630e+01 0 0 0
622 2 2.4610000000000003e+00 4.2625770374269996e+00 2.6638884730585630e+01 0 0 0
624 2 3.6914999999999996e+00 4.9730065436648339e+00 2.6638884730585630e+01 0 0 0
647 2 3.6914999999999996e+00 6.3938655561404980e+00 2.6638884730585630e+01 0 0 0
649 2 4.9220000000000006e+00 7.1042950623783341e+00 2.6638884730585630e+01 0 0 0
651 2 4.9220000000000006e+00 4.2625770374269978e+00 2.6638884730585630e+01 0 0 0
653 2 6.1524999999999999e+00 4.9730065436648339e+00 2.6638884730585630e+01 0 0 0
684 2 6.1524999999999999e+00 6.3938655561404980e+00 2.6638884730585630e+01 0 0 0
686 2 7.3830000000000009e+00 7.1042950623783341e+00 2.6638884730585630e+01 0 0 0
688 2 7.3829999999999991e+00 4.2625770374269996e+00 2.6638884730585630e+01 0 0 0
690 2 8.6135000000000002e+00 4.9730065436648339e+00 2.6638884730585630e+01 0 0 0
729 2 8.6135000000000002e+00 6.3938655561404980e+00 2.6638884730585630e+01 0 0 0
731 2 9.8440000000000012e+00 7.1042950623783341e+00 2.6638884730585630e+01 0 0 0
733 2 9.8440000000000012e+00 4.2625770374270004e+00 2.6638884730585630e+01 0 0 0
735 2 1.1074500000000002e+01 4.9730065436648339e+00 2.6638884730585630e+01 0 0 0
776 2 1.1074500000000002e+01 6.3938655561404980e+00 2.6638884730585630e+01 0 0 0
612 2 0.0000000000000000e+00 1.1366872099805333e+01 2.6638884730585630e+01 0 0 0
614 2 0.0000000000000000e+00 8.5251540748539991e+00 2.6638884730585630e+01 0 0 0
616 2 1.2305000000000001e+00 9.2355835810918343e+00 2.6638884730585630e+01 0 0 0
639 2 1.2305000000000001e+00 1.0656442593567498e+01 2.6638884730585630e+01 0 0 0
641 2 2.4610000000000003e+00 1.1366872099805333e+01 2.6638884730585630e+01 0 0 0
643 2 2.4610000000000003e+00 8.5251540748539991e+00 2.6638884730585630e+01 0 0 0
645 2 3.6915000000000004e+00 9.2355835810918343e+00 2.6638884730585630e+01 0 0 0
676 2 3.6914999999999996e+00 1.0656442593567499e+01 2.6638884730585630e+01 0 0 0
678 2 4.9220000000000006e+00 1.1366872099805333e+01 2.6638884730585630e+01 0 0 0
680 2 4.9220000000000006e+00 8.5251540748539991e+00 2.6638884730585630e+01 0 0 0
682 2 6.1524999999999999e+00 9.2355835810918343e+00 2.6638884730585630e+01 0 0 0
721 2 6.1524999999999999e+00 1.0656442593567499e+01 2.6638884730585630e+01 0 0 0
723 2 7.3829999999999991e+00 1.1366872099805333e+01 2.6638884730585630e+01 0 0 0
725 2 7.3830000000000009e+00 8.5251540748539991e+00 2.6638884730585630e+01 0 0 0
727 2 8.6134999999999984e+00 9.2355835810918343e+00 2.6638884730585630e+01 0 0 0
768 2 8.6134999999999984e+00 1.0656442593567498e+01 2.6638884730585630e+01 0 0 0
770 2 9.8440000000000012e+00 1.1366872099805333e+01 2.6638884730585630e+01 0 0 0
772 2 9.8440000000000012e+00 8.5251540748539956e+00 2.6638884730585630e+01 0 0 0
774 2 1.1074500000000002e+01 9.2355835810918343e+00 2.6638884730585630e+01 0 0 0
815 2 1.1074500000000002e+01 1.0656442593567498e+01 2.6638884730585630e+01 0 0 0
817 2 1.2304999999999998e+01 1.1366872099805333e+01 2.6638884730585630e+01 0 0 0
633 2 0.0000000000000000e+00 1.5629449137232333e+01 2.6638884730585630e+01 0 0 0
635 2 0.0000000000000000e+00 1.2787731112280996e+01 2.6638884730585630e+01 0 0 0
637 2 1.2305000000000001e+00 1.3498160618518829e+01 2.6638884730585630e+01 0 0 0
668 2 1.2305000000000001e+00 1.4919019630994494e+01 2.6638884730585630e+01 0 0 0
670 2 2.4610000000000003e+00 1.5629449137232328e+01 2.6638884730585630e+01 0 0 0
672 2 2.4610000000000003e+00 1.2787731112280996e+01 2.6638884730585630e+01 0 0 0
674 2 3.6915000000000004e+00 1.3498160618518829e+01 2.6638884730585630e+01 0 0 0
713 2 3.6915000000000004e+00 1.4919019630994494e+01 2.6638884730585630e+01 0 0 0
715 2 4.9220000000000006e+00 1.5629449137232333e+01 2.6638884730585630e+01 0 0 0
717 2 4.9220000000000006e+00 1.2787731112280996e+01 2.6638884730585630e+01 0 0 0
719 2 6.1524999999999990e+00 1.3498160618518829e+01 2.6638884730585630e+01 0 0 0
760 2 6.1524999999999990e+00 1.4919019630994494e+01 2.6638884730585630e+01 0 0 0
762 2 7.3829999999999991e+00 1.5629449137232333e+01 2.6638884730585630e+01 0 0 0
764 2 7.3829999999999991e+00 1.2787731112280996e+01 2.6638884730585630e+01 0 0 0
766 2 8.6135000000000002e+00 1.3498160618518835e+01 2.6638884730585630e+01 0 0 0
807 2 8.6135000000000002e+00 1.4919019630994494e+01 2.6638884730585630e+01 0 0 0
809 2 9.8440000000000012e+00 1.5629449137232328e+01 2.6638884730585630e+01 0 0 0
811 2 9.8440000000000012e+00 1.2787731112280996e+01 2.6638884730585630e+01 0 0 0
813 2 1.1074500000000002e+01 1.3498160618518829e+01 2.6638884730585630e+01 0 0 0
849 2 1.1074500000000002e+01 1.4919019630994494e+01 2.6638884730585630e+01 0 0 0
662 2 0.0000000000000000e+00 1.9892026174659328e+01 2.6638884730585630e+01 0 0 0
664 2 0.0000000000000000e+00 1.7050308149707998e+01 2.6638884730585630e+01 0 0 0
666 2 1.2305000000000001e+00 1.7760737655945832e+01 2.6638884730585630e+01 0 0 0
705 2 1.2305000000000001e+00 1.9181596668421495e+01 2.6638884730585630e+01 0 0 0
707 2 2.4610000000000003e+00 1.9892026174659328e+01 2.6638884730585630e+01 0 0 0
709 2 2.4610000000000003e+00 1.7050308149707998e+01 2.6638884730585630e+01 0 0 0
711 2 3.6914999999999996e+00 1.7760737655945832e+01 2.6638884730585630e+01 0 0 0
752 2 3.6914999999999996e+00 1.9181596668421495e+01 2.6638884730585630e+01 0 0 0
754 2 4.9220000000000006e+00 1.9892026174659328e+01 2.6638884730585630e+01 0 0 0
756 2 4.9220000000000006e+00 1.7050308149707998e+01 2.6638884730585630e+01 0 0 0
758 2 6.1524999999999999e+00 1.7760737655945832e+01 2.6638884730585630e+01 0 0 0
799 2 6.1524999999999999e+00 1.9181596668421495e+01 2.6638884730585630e+01 0 0 0
801 2 7.3829999999999991e+00 1.9892026174659328e+01 2.6638884730585630e+01 0 0 0
803 2 7.3830000000000009e+00 1.7050308149707998e+01 2.6638884730585630e+01 0 0 0
805 2 8.6134999999999984e+00 1.7760737655945832e+01 2.6638884730585630e+01 0 0 0
841 2 8.6135000000000002e+00 1.9181596668421495e+01 2.6638884730585630e+01 0 0 0
843 2 9.8440000000000012e+00 1.9892026174659335e+01 2.6638884730585630e+01 0 0 0
845 2 9.8440000000000012e+00 1.7050308149707998e+01 2.6638884730585630e+01 0 0 0
847 2 1.1074500000000002e+01 1.7760737655945835e+01 2.6638884730585630e+01 0 0 0
875 2 1.1074500000000002e+01 1.9181596668421495e+01 2.6638884730585630e+01 0 0 0
879 2 1.2304999999999998e+01 1.7050308149707998e+01 2.6638884730585630e+01 0 0 0
699 2 0.0000000000000000e+00 2.4154603212086325e+01 2.6638884730585630e+01 0 0 0
701 2 0.0000000000000000e+00 2.1312885187134999e+01 2.6638884730585630e+01 0 0 0
791 2 3.6915000000000004e+00 2.3444173705848499e+01 2.6638884730585630e+01 0 0 0
703 2 1.2304999999999993e+00 2.2023314693372832e+01 2.6638884730585630e+01 0 0 0
744 2 1.2304999999999993e+00 2.3444173705848499e+01 2.6638884730585630e+01 0 0 0
748 2 2.4610000000000003e+00 2.1312885187134995e+01 2.6638884730585630e+01 0 0 0
750 2 3.6914999999999996e+00 2.2023314693372832e+01 2.6638884730585630e+01 0 0 0
746 2 2.4610000000000003e+00 2.4154603212086325e+01 2.6638884730585630e+01 0 0 0
797 2 6.1524999999999990e+00 2.2023314693372832e+01 2.6638884730585630e+01 0 0 0
837 2 7.3829999999999991e+00 2.1312885187134999e+01 2.6638884730585630e+01 0 0 0
833 2 6.1524999999999999e+00 2.3444173705848499e+01 2.6638884730585630e+01 0 0 0
795 2 4.9220000000000006e+00 2.1312885187134995e+01 2.6638884730585630e+01 0 0 0
793 2 4.9220000000000006e+00 2.4154603212086325e+01 2.6638884730585630e+01 0 0 0
835 2 7.3830000000000009e+00 2.4154603212086336e+01 2.6638884730585630e+01 0 0 0
893 2 1.1074500000000002e+01 2.3444173705848499e+01 2.6638884730585630e+01 0 0 0
839 2 8.6135000000000002e+00 2.2023314693372832e+01 2.6638884730585630e+01 0 0 0
6464 1 1.8210162240043373e+00 3.7159064904865841e-01 2.3671940189501573e+01 3 1 1
3259 1 6.9704744885459080e+00 6.4317992405687946e-02 2.3595190843256422e+01 2 -2 1
1910 1 7.1531379160029174e-01 2.6698952779310745e+00 1.6472076603475855e+01 -1 1 0
1512 1 1.2266119467138445e+01 3.7135212430306075e-01 1.6335909981474121e+01 -2 0 1
2914 1 3.6400767442302062e-01 2.4508667456192345e+01 1.6390510882039418e+01 2 0 1
3690 1 3.4131845289717351e+00 2.4402251395242484e+01 2.0595277483075243e+01 2 -1 0
5083 1 8.8539221758431950e+00 2.4470087035105742e+01 1.6405877750523160e+01 1 1 1
5525 1 9.6668046935459557e+00 2.6199996665844338e-01 2.0311403429748545e+01 0 2 1
595 2 0.0000000000000000e+00 1.4208590124756650e+00 3.0030999999998262e+01 0 0 0
597 2 0.0000000000000000e+00 0.0000000000000000e+00 3.0030999999998262e+01 0 0 0
604 2 1.2305000000000001e+00 3.5521475311891644e+00 3.0030999999998262e+01 0 0 0
606 2 1.2305000000000001e+00 2.1312885187134998e+00 3.0030999999998262e+01 0 0 0
608 2 2.4610000000000003e+00 1.4208590124756650e+00 3.0030999999998262e+01 0 0 0
610 2 2.4610000000000003e+00 0.0000000000000000e+00 3.0030999999998262e+01 0 0 0
625 2 3.6914999999999996e+00 3.5521475311891644e+00 3.0030999999998262e+01 0 0 0