LAMMPS data file via write_data, version 16 Mar 2018, timestep = 6000000

6736 atoms
2 atom types

0.0000000000000000e+00 4.9219999999999999e+01 xlo xhi
0.0000000000000000e+00 4.9019635930410494e+01 ylo yhi
5.3675725105726357e-01 5.9525242748942659e+01 zlo zhi

Masses

1 18.015
2 12.01

Atoms # atomic

5576 1 1.2247752369461538e+00 2.8080933761202513e+00 2.6789611173935137e+00 1 -3 0
1895 1 2.3296578234566923e+00 3.3794596423404383e-01 2.0600429753663754e+00 -1 0 0
5143 1 6.1463222468305991e+00 2.5023773185848839e+00 1.9569791475057046e+00 -2 4 0
2175 1 4.8670246696641293e+00 3.4389943058783240e-01 3.0120309300547867e+00 0 1 0
5392 1 8.4820328396280438e+00 2.7292816778908300e+00 3.1489929158100289e+00 0 0 0
766 1 1.0879098955979128e+01 1.1279474327970167e+01 9.2256350798437587e+00 2 3 0
3393 1 2.1711674700366896e+00 4.9925518426958790e+00 2.0092852213336241e+00 2 2 1
1039 1 9.4651168152494902e-01 7.2031737796318209e+00 2.7756186213105476e+00 1 -2 1
6215 1 4.7174695836369622e+00 4.8879916685770697e+00 2.6872076689109505e+00 3 3 1
983 1 6.0234350307861764e+00 7.3713719311472952e+00 1.8418028844155823e+00 2 3 1
5225 1 8.5364116976235707e+00 7.1099593943919794e+00 2.9307872201912919e+00 3 -3 0
4121 1 9.5491253513893835e+00 4.9253563347771703e+00 1.9068857093437954e+00 0 1 1
5222 1 8.6943083470002271e+00 1.6247077384052712e+01 1.0122825258027094e+01 -2 0 0
1721 1 2.3381184425398835e+00 9.8908642019341997e+00 1.9580563905970001e+00 -4 -1 0
5210 1 8.6311230932592331e-01 1.2005837715878998e+01 2.8618969888068664e+00 1 -1 0
2831 1 4.7123263109199334e+00 9.5617120671043541e+00 2.8906684831421354e+00 1 -1 1
1122 1 6.1935243072507040e+00 1.1754633620707981e+01 1.9838328488157957e+00 0 1 1
6188 1 8.7808090188539083e+00 1.1843989014993060e+01 2.7664350154473585e+00 -3 2 1
1116 1 9.8495098580949385e+00 9.1136433849649539e+00 1.9200673610997010e+00 1 -3 1
6162 1 8.8403182518315901e+00 1.6338478820792112e+01 3.1753652897795015e+00 5 0 1
192 1 2.2841993794264264e+00 1.4246105076854981e+01 2.2456413340862742e+00 1 -1 0
5546 1 5.0962846561010835e+00 1.4242214500661602e+01 2.8144162208907559e+00 -1 1 0
5281 1 9.6917767528344463e+00 1.4049818969316734e+01 2.2407392707860265e+00 -1 -1 0
5555 1 3.7738847908815680e+00 1.6210052802637293e+01 6.5062096108650200e+00 -2 0 0
5114 1 1.0077775248018290e+00 3.0488267810066234e+00 5.5964499758354194e+00 1 1 0
4438 1 3.4760162633180784e+00 2.8852272705970923e+00 6.4969662391412104e+00 -1 0 0
6226 1 7.4584409912655012e+00 2.7680206525970019e-01 6.8108606954859932e+00 0 1 1
1765 1 5.0199339752904741e+00 4.1821715304536361e-01 5.8474301051308286e+00 2 -1 0
178 1 8.6825078572861933e+00 2.8489280631179756e+00 6.2670537663433707e+00 -2 -1 1
227 1 1.1163274820916353e+01 2.7348130455360740e+00 6.6537572107618921e+00 0 0 0
4170 1 1.2134401165377012e+01 1.3679524492611939e+01 5.8853512987233900e+00 0 0 1
3423 1 1.0819063779246834e+00 7.3847151653747245e+00 5.5904962359922594e+00 3 1 0
6182 1 3.6905025388250312e+00 7.1772364530385291e+00 6.4631911606630084e+00 -2 1 1
4265 1 4.6758921628002206e+00 4.9916748226516852e+00 5.4471685170409696e+00 1 3 1
93 1 7.2306701499274295e+00 4.8496310654528658e+00 6.4593104743025984e+00 -1 0 0
1129 1 8.2737860755325219e+00 7.2852907075243003e+00 5.6227620036996866e+00 1 0 1
6244 1 1.0858475720233944e+01 6.9131501115282061e+00 6.2291362944866586e+00 0 0 1
2822 1 3.6260837579190817e+00 1.1547581438662011e+01 8.9699357345530277e+00 -1 0 1
2829 1 1.2247318317793257e+00 1.1942642819759438e+01 5.4569399211254170e+00 0 1 0
4452 1 3.7317580793731007e+00 1.2158266605330127e+01 6.2678773385913553e+00 -1 -1 1
5816 1 4.8234778700517884e+00 9.7310046646337085e+00 5.4734143279332708e+00 2 1 1
2177 1 7.1345659012440032e+00 9.6479260734603152e+00 6.5186425589993009e+00 -1 2 0
5135 1 8.5466275357480352e+00 1.1675330914609642e+01 5.5357031363185731e+00 -1 -1 0
4218 1 1.0896736868320170e+01 1.1325870121048844e+01 6.3536387544955035e+00 3 -1 0
5952 1 5.0535998378739944e+00 1.4326285119987107e+01 5.5619953404227189e+00 0 -1 1
255 1 7.3947378657361122e+00 1.4168667687909597e+01 6.2965366455915515e+00 2 -1 0
1824 1 1.1117031588473658e+01 1.5844942214499014e+01 9.1840072034998350e+00 1 3 0
5815 1 8.5642369791346873e+00 1.1553320796913667e+01 9.9361094342694862e+00 1 -2 1
124 1 7.4630505604326416e+00 1.3738381659756101e+01 9.0261866547789200e+00 -2 0 0
469 1 1.2103385309292567e+00 3.1805866599170605e+00 1.0091061730597779e+01 1 -3 0
2582 1 3.7268313877132693e+00 2.8427825303706271e+00 9.1467243321794154e+00 0 1 1
1037 1 7.2001671148400517e+00 3.4464630343716396e-01 9.3946011369864699e+00 3 -1 1
5456 1 4.7867559603675769e+00 7.2529228487425634e-01 1.0263704667496009e+01 -1 -1 0
5985 1 8.7460992657393835e+00 2.7663598730514463e+00 1.0124176391613528e+01 -1 1 1
6027 1 1.1463368261069947e+01 2.6512096810102030e+00 9.3548645805729187e+00 0 -1 1
5332 1 4.9151107228545801e+00 1.3829066246021473e+01 9.9322384677011204e+00 -3 -1 1
2776 1 1.2513570766841056e+00 7.4179390270794112e+00 9.9776545985645626e+00 -1 3 1
1800 1 3.7253135333543876e+00 7.2655798903824129e+00 9.0492166666776619e+00 0 5 0
1229 1 7.3341858749861482e+00 4.9598129618241780e+00 9.1917174781728512e+00 1 0 0
743 1 4.7575314018586106e+00 5.0286703480115351e+00 1.0233812896426986e+01 1 -1 1
3548 1 8.3262468985080780e+00 7.0148444857957903e+00 1.0147582439962544e+01 1 -1 1
835 1 1.0993665734814643e+01 6.6709604359951999e+00 9.1826073485411808e+00 0 -1 1
2827 1 7.0838472082339159e+00 9.2845814161035509e+00 9.0643682199882729e+00 0 5 1
116 1 9.4954143148009074e-01 1.1983340045209097e+01 1.0088388561153129e+01 -1 2 0
4296 1 4.8829401092776719e+00 9.5305353112034332e+00 1.0269624717335807e+01 0 1 1
3372 1 9.6209024574537345e+00 4.0151056312431671e-01 2.3364072560800131e+00 2 2 1
110 1 1.1004115829892495e+01 1.5818301769541630e+01 6.5871241919256409e+00 -2 5 0
5227 1 1.2282920907510887e+01 1.3468792092632420e+01 1.0146014712066632e+01 -2 1 0
1091 1 3.9685249843029204e+00 1.6279433408647261e+01 9.1533177297901460e+00 -2 0 1
5931 1 6.5264105560950325e+00 1.6326058096991225e+01 1.8612735643965153e+00 2 2 1
5432 1 1.2050803157754023e+01 8.8805377409856217e+00 9.8070615703528716e+00 2 1 0
1059 1 1.2279653788307728e+01 1.3664202163162550e+01 2.9832798709675807e+00 1 3 1
3798 1 1.2301147819029390e+01 2.0940111171983658e-01 2.9446445357346716e+00 1 1 0
1235 1 1.2193365461308266e+01 1.0355891495444265e-01 5.4406977472051059e+00 0 3 1
5099 1 1.2263118753455435e+01 4.9303502981554308e+00 5.4862298847763009e+00 -1 -1 0
2079 1 1.2767453574066931e+00 1.6320584678883328e+01 5.3203054285479663e+00 -1 0 0
6075 1 8.5998564509919184e+00 1.6109055310241384e+01 5.6012149229732344e+00 0 1 1
4457 1 4.0951121243715631e+00 2.7587574836839615e+00 1.4021183387462534e+01 -1 2 1
2074 1 7.5095227278449670e+00 4.3428340908605034e-01 1.6393733651791685e+01 -1 1 0
3505 1 8.6362846855724644e+00 1.1867758295456667e+01 1.2511312888253437e+01 2 -1 0
2431 1 4.9990832989326845e+00 4.1488855337376945e-01 1.2939430421047069e+01 2 4 1
464 1 8.8647948360417406e+00 1.6086456848802538e+01 1.2958725591594202e+01 3 -1 0
2196 1 1.1120736679233028e+01 2.3716823481292466e+00 1.3660783388831097e+01 -3 -1 0
2042 1 2.3434816580466780e-01 5.6530272913183470e+00 2.3374188345982525e+01 1 2 0
6259 1 1.1412445577932202e+01 2.3115226851742952e+00 1.6350964395856565e+01 -2 -2 0
2038 1 4.0695791524908635e+00 7.4755501414216088e+00 1.3853946809733980e+01 3 -1 0
5335 1 3.4591296330222709e+00 7.3816090276527291e+00 1.6499533829719859e+01 2 0 0
2164 1 5.0787271747877778e+00 5.0621728859908055e+00 1.3038771770993154e+01 0 1 1
6022 1 7.4418913655950920e+00 4.9743215456438019e+00 1.3846115318258105e+01 0 2 1
6017 1 1.0978034617830128e+01 2.5248177467982553e+00 2.3752223675496062e+01 0 2 1
962 1 1.1582663253380115e+01 7.0107324127988884e+00 1.3983299053808716e+01 1 -3 0
3461 1 1.4348459873338190e-01 9.6689945683491896e+00 2.0328313373175785e+01 1 -1 0
2050 1 8.6587406723580251e+00 2.4738015715689632e+00 1.3027108813157056e+01 3 0 0
3660 1 3.6201151385962058e+00 1.1913284079302098e+01 1.3437946339734888e+01 0 1 0
5802 1 1.1590548444065931e+01 1.5829237769375750e+01 1.3484865354363709e+01 3 0 0
870 1 7.9519706328875248e+00 9.4267432999273542e+00 1.4113407251635106e+01 2 -2 1
6147 1 1.1057936350519860e+01 1.1388696677222770e+01 1.3868676760090381e+01 3 0 0
894 1 8.9182633639519366e+00 7.0750445295953837e+00 1.2849483392738909e+01 -2 1 1
435 1 7.5439236581308471e+00 1.4094618404863613e+01 1.3589818917376032e+01 2 2 0
4260 1 1.0354972598063249e+01 1.5903121020069801e+01 2.3994411145111755e+01 -2 1 1
38 1 4.4480987341674911e+00 1.1596095390013195e+01 2.3832622656538742e+01 2 -1 0
2813 1 9.9803731625477319e+00 2.0743983158400858e-01 1.7347329638704949e+01 2 1 1
6033 1 1.1119016402504094e+00 1.1683903353156278e+01 1.2741291742582199e+01 1 1 1
1019 1 3.6445483981840181e+00 2.6952419019085605e+00 1.6738305068952641e+01 0 -1 1
5293 1 2.2670477581693702e+00 5.6185667355822966e-01 1.7511074372138548e+01 1 2 0
114 1 2.5786629753437582e+00 3.9807359283984284e-01 2.0331305855941839e+01 1 -3 0
1753 1 1.8678582336989937e+00 3.4062302663525581e+00 2.3043811938254432e+01 2 1 0
5928 1 6.3620025667440601e+00 2.6455672923151869e+00 1.7520685002897444e+01 -3 0 1
1911 1 6.4166553328483538e+00 2.2785266706784415e+00 2.0133210954351700e+01 -1 2 0
2127 1 1.0083354598512264e+01 2.9210408553070388e-01 2.0015258159922723e+01 1 -3 0
6172 1 1.0766034822236568e+01 1.5723050326295276e+01 2.1118262590296293e+01 -1 2 1
5104 1 2.4433075353788869e+00 5.0738206447590164e+00 1.7045035214203708e+01 5 0 0
1040 1 1.5210126491141140e+00 7.4630410630507216e+00 1.2580435724486444e+01 4 -2 1
5242 1 7.3544450678351865e+00 4.9121945121735875e+00 1.6582268939295108e+01 2 0 0
1774 1 6.0564485522672173e+00 7.3704781906381109e+00 1.7552214184808264e+01 2 1 0
3379 1 6.1092580217414358e+00 6.8438070999583287e+00 2.0076493945125385e+01 -1 0 1
505 1 1.1208200678857208e+01 6.9077328182442947e+00 1.6658803360183914e+01 -1 2 0
3367 1 1.0297158864096371e+01 4.5366379616929340e+00 1.7319933510489399e+01 -1 0 1
5404 1 1.0095334579789149e+01 4.8767832054513933e+00 2.0201329508614339e+01 1 -4 0
3466 1 3.7227450005207166e+00 1.1547539859730430e+01 1.6095615158601120e+01 -2 4 1
2722 1 2.3035889593091596e+00 9.4318148729737565e+00 1.7160030393725584e+01 0 -2 1
6065 1 2.6254249553894220e+00 9.4016480465026628e+00 1.9795507059412451e+01 2 1 1
2498 1 7.2408384286443992e+00 9.6306347056439723e+00 1.6860293880791467e+01 -2 3 1
3817 1 6.0826146800952907e+00 1.1892771851335842e+01 1.7370047993295792e+01 1 0 0
2714 1 5.8532446584638160e+00 1.1947256093186512e+01 2.0187801435052815e+01 3 1 1
779 1 1.1124659425558763e+01 1.1275255507604024e+01 1.6433959433763768e+01 -1 0 1
6023 1 9.8488980397267749e+00 9.1411768048213151e+00 1.7767594997408295e+01 1 0 1
3852 1 2.6345694896785008e+00 1.3913144536422751e+01 1.6761688748817576e+01 -1 1 1
5830 1 2.2285776263464863e+00 1.4058523238980769e+01 1.9897824934866133e+01 0 3 1
5147 1 1.1008737132479641e+01 1.5872369939632373e+01 1.6214581529239446e+01 1 3 0
2918 1 7.3999037700078292e+00 1.3838785684442769e+01 1.6121547686227721e+01 -1 -1 1
2883 1 1.4718161346040140e-01 1.4158239735670811e+01 1.3301178349387095e+01 1 -1 1
6180 1 9.8183460980053763e+00 1.3800366254057243e+01 1.7151204276292297e+01 3 -2 1
1877 1 9.5797869492930090e+00 1.3827148602927764e+01 2.0091800992005751e+01 1 2 0
1015 1 3.9118194326555433e+00 2.3768109053944633e+00 2.1254079059953693e+01 1 2 1
2782 1 1.8106148551867334e+00 1.1948927363923206e+01 2.3921810438229940e+01 3 2 0
3762 1 1.0625098152109290e+01 7.0069342238114602e+00 2.3865976934225611e+01 1 -2 0
3655 1 4.8435982734493432e-01 9.9022758598810956e+00 2.2953136837355295e+01 0 2 0
5246 1 7.5882661893052061e+00 1.6205513532540011e-01 2.1115878928719653e+01 2 -1 0
2072 1 6.0568367713837965e+00 1.5892121530095038e+01 1.7109533754949819e+01 -4 -1 1
3406 1 5.9157294536381988e+00 1.3827210185307592e+01 2.3873175179271676e+01 1 3 0
795 1 1.1565453020266967e+01 2.4932594863715258e+00 2.1069923793830082e+01 0 -1 0
143 1 5.1387205611707101e+00 9.6678590995899505e+00 1.2959608797241298e+01 0 0 0
169 1 3.0083976342040009e+00 4.7555881536828322e+00 1.9908490580937560e+01 -1 0 1
4385 1 5.0551382827170412e+00 2.7980253651205360e+00 2.3794915974610451e+01 0 -1 1
3763 1 1.2881208218100302e+00 3.2278199499977540e+00 1.2904507884432732e+01 0 2 0
5152 1 3.2717159355821450e+00 7.3483456036630601e+00 2.1210000651429954e+01 1 1 0
5398 1 3.7734033528755724e+00 1.6150904684451064e+01 1.6275094411646425e+01 3 -1 0
209 1 7.7346461590184319e+00 4.8822351886082780e+00 2.1058054384243537e+01 -2 -1 0
6045 1 8.8718625531629627e+00 1.3770128188399417e+01 2.3644157264894815e+01 -2 -3 1
1932 1 5.2839896310079313e+00 1.3989058076424451e+01 1.2478001015064731e+01 2 2 0
342 1 1.1158533246804790e+01 6.9746114763854230e+00 2.1126807001157996e+01 0 3 0
3799 1 7.1388354692279474e+00 1.4077456899699834e+01 2.1046492026504072e+01 2 3 0
228 1 3.4226948907299395e+00 1.1557149837817617e+01 2.1070594311135370e+01 2 1 0
5295 1 6.5335419307252325e+00 9.7190398378607465e+00 2.3575725216025461e+01 -2 0 0
2815 1 6.9457742017253876e+00 5.0893115882973570e+00 2.3668377781703210e+01 -1 1 1
6161 1 1.0722044046296913e+01 1.1714773964788920e+01 2.3691165294805717e+01 0 -3 1
5360 1 7.2748076198367215e+00 9.5981885941536920e+00 2.0946951516229941e+01 -2 1 0
2063 1 1.1058848806887973e+01 1.1854971331570404e+01 2.1061680931084332e+01 1 0 0
5411 1 9.7970945493861610e+00 9.3815650459092570e+00 2.0394453769159846e+01 -1 2 0
6026 1 5.1187417511785860e+00 7.1933779128184829e+00 2.3957580520571106e+01 0 4 1
5846 1 3.8750189605560270e-01 1.4066001236163315e+01 2.3310244520558310e+01 1 2 1
2091 1 6.0102288814186551e+00 1.6294178828576307e+01 1.9748876387269704e+01 3 2 0
4606 1 6.6715648942344599e+00 5.1095907645416871e-01 2.4058021778807799e+01 0 0 1
1021 1 7.4541123502273630e+00 2.5808646519450779e-01 1.3785196898207426e+01 0 -1 1
4487 1 3.7904402908625121e+00 1.6161271677449864e+01 1.3538930921200118e+01 3 -1 1
1158 1 1.2228994713541979e+01 9.3698200162842280e+00 1.2494494307933689e+01 -1 -1 1
3868 1 2.5247261484038075e-01 1.4128267207597274e+01 1.5984421499820465e+01 -3 0 0
3443 1 1.9393732624812576e+00 7.7485568041959159e+00 2.3608083615817179e+01 -1 2 0
3869 1 3.4681347147496129e+00 1.6332487093542081e+01 2.0873549724512920e+01 3 1 0
4259 1 4.4792859368089299e+00 1.6295040463406107e+01 2.3657588524238637e+01 0 0 1
5479 1 9.6425076043476938e+00 1.1743548406050729e-01 2.3994329179876534e+01 -2 -1 0
511 2 0.0000000000000000e+00 2.8417180249513345e+00 2.6780073307025560e+01 0 0 0
512 2 0.0000000000000000e+00 0.0000000000000000e+00 2.6780073307025560e+01 0 0 0
513 2 1.2305000000000001e+00 7.1042950623783474e-01 2.6780073307025560e+01 0 0 0
517 2 1.2305000000000001e+00 2.1312885187134998e+00 2.6780073307025560e+01 0 0 0
518 2 2.4610000000000003e+00 2.8417180249513345e+00 2.6780073307025560e+01 0 0 0
519 2 2.4610000000000003e+00 0.0000000000000000e+00 2.6780073307025560e+01 0 0 0
520 2 3.6915000000000004e+00 7.1042950623783474e-01 2.6780073307025560e+01 0 0 0
528 2 3.6914999999999996e+00 2.1312885187134998e+00 2.6780073307025560e+01 0 0 0
529 2 4.9220000000000006e+00 2.8417180249513332e+00 2.6780073307025560e+01 0 0 0
530 2 4.9220000000000006e+00 0.0000000000000000e+00 2.6780073307025560e+01 0 0 0
531 2 6.1524999999999999e+00 7.1042950623783407e-01 2.6780073307025560e+01 0 0 0
543 2 6.1524999999999999e+00 2.1312885187134989e+00 2.6780073307025560e+01 0 0 0
544 2 7.3829999999999991e+00 2.8417180249513345e+00 2.6780073307025560e+01 0 0 0
545 2 7.3829999999999991e+00 0.0000000000000000e+00 2.6780073307025560e+01 0 0 0
1522 2 9.8440000000000012e+00 1.5629449137232328e+01 3.3281926692957200e+01 0 0 0
546 2 8.6134999999999984e+00 7.1042950623783407e-01 2.6780073307025560e+01 0 0 0
562 2 8.6134999999999984e+00 2.1312885187135002e+00 2.6780073307025560e+01 0 0 0
563 2 9.8440000000000012e+00 2.8417180249513332e+00 2.6780073307025560e+01 0 0 0
564 2 9.8440000000000012e+00 0.0000000000000000e+00 2.6780073307025560e+01 0 0 0
565 2 1.1074500000000002e+01 7.1042950623783330e-01 2.6780073307025560e+01 0 0 0
585 2 1.1074500000000002e+01 2.1312885187135002e+00 2.6780073307025560e+01 0 0 0
514 2 0.0000000000000000e+00 7.1042950623783341e+00 2.6780073307025560e+01 0 0 0
515 2 0.0000000000000000e+00 4.2625770374269996e+00 2.6780073307025560e+01 0 0 0
516 2 1.2305000000000001e+00 4.9730065436648339e+00 2.6780073307025560e+01 0 0 0
524 2 1.2305000000000001e+00 6.3938655561404980e+00 2.6780073307025560e+01 0 0 0
525 2 2.4610000000000003e+00 7.1042950623783341e+00 2.6780073307025560e+01 0 0 0
526 2 2.4610000000000003e+00 4.2625770374269996e+00 2.6780073307025560e+01 0 0 0
527 2 3.6914999999999996e+00 4.9730065436648339e+00 2.6780073307025560e+01 0 0 0
539 2 3.6914999999999996e+00 6.3938655561404980e+00 2.6780073307025560e+01 0 0 0
540 2 4.9220000000000006e+00 7.1042950623783341e+00 2.6780073307025560e+01 0 0 0
541 2 4.9220000000000006e+00 4.2625770374269978e+00 2.6780073307025560e+01 0 0 0
542 2 6.1524999999999999e+00 4.9730065436648339e+00 2.6780073307025560e+01 0 0 0
558 2 6.1524999999999999e+00 6.3938655561404980e+00 2.6780073307025560e+01 0 0 0
559 2 7.3830000000000009e+00 7.1042950623783341e+00 2.6780073307025560e+01 0 0 0
560 2 7.3829999999999991e+00 4.2625770374269996e+00 2.6780073307025560e+01 0 0 0
561 2 8.6135000000000002e+00 4.9730065436648339e+00 2.6780073307025560e+01 0 0 0
581 2 8.6135000000000002e+00 6.3938655561404980e+00 2.6780073307025560e+01 0 0 0
582 2 9.8440000000000012e+00 7.1042950623783341e+00 2.6780073307025560e+01 0 0 0
583 2 9.8440000000000012e+00 4.2625770374270004e+00 2.6780073307025560e+01 0 0 0
584 2 1.1074500000000002e+01 4.9730065436648339e+00 2.6780073307025560e+01 0 0 0
605 2 1.1074500000000002e+01 6.3938655561404980e+00 2.6780073307025560e+01 0 0 0
321 1 1.2153237804403298e+01 1.3282005753048450e+01 3.5737632178076694e+01 0 4 -1
521 2 0.0000000000000000e+00 1.1366872099805333e+01 2.6780073307025560e+01 0 0 0
522 2 0.0000000000000000e+00 8.5251540748539991e+00 2.6780073307025560e+01 0 0 0
523 2 1.2305000000000001e+00 9.2355835810918343e+00 2.6780073307025560e+01 0 0 0
535 2 1.2305000000000001e+00 1.0656442593567498e+01 2.6780073307025560e+01 0 0 0
536 2 2.4610000000000003e+00 1.1366872099805333e+01 2.6780073307025560e+01 0 0 0
537 2 2.4610000000000003e+00 8.5251540748539991e+00 2.6780073307025560e+01 0 0 0
538 2 3.6915000000000004e+00 9.2355835810918343e+00 2.6780073307025560e+01 0 0 0
554 2 3.6914999999999996e+00 1.0656442593567499e+01 2.6780073307025560e+01 0 0 0
555 2 4.9220000000000006e+00 1.1366872099805333e+01 2.6780073307025560e+01 0 0 0
556 2 4.9220000000000006e+00 8.5251540748539991e+00 2.6780073307025560e+01 0 0 0
557 2 6.1524999999999999e+00 9.2355835810918343e+00 2.6780073307025560e+01 0 0 0
577 2 6.1524999999999999e+00 1.0656442593567499e+01 2.6780073307025560e+01 0 0 0
578 2 7.3829999999999991e+00 1.1366872099805333e+01 2.6780073307025560e+01 0 0 0
579 2 7.3830000000000009e+00 8.5251540748539991e+00 2.6780073307025560e+01 0 0 0
580 2 8.6134999999999984e+00 9.2355835810918343e+00 2.6780073307025560e+01 0 0 0
601 2 8.6134999999999984e+00 1.0656442593567498e+01 2.6780073307025560e+01 0 0 0
602 2 9.8440000000000012e+00 1.1366872099805333e+01 2.6780073307025560e+01 0 0 0
603 2 9.8440000000000012e+00 8.5251540748539956e+00 2.6780073307025560e+01 0 0 0
604 2 1.1074500000000002e+01 9.2355835810918343e+00 2.6780073307025560e+01 0 0 0
625 2 1.1074500000000002e+01 1.0656442593567498e+01 2.6780073307025560e+01 0 0 0
626 2 1.2304999999999998e+01 1.1366872099805333e+01 2.6780073307025560e+01 0 0 0
182 1 8.3770488657693267e+00 1.5297802149012035e+01 3.5922362698112295e+01 3 -1 -1
1474 2 4.9220000000000006e+00 1.5629449137232333e+01 3.3281926692957200e+01 0 0 0
532 2 0.0000000000000000e+00 1.5629449137232333e+01 2.6780073307025560e+01 0 0 0
533 2 0.0000000000000000e+00 1.2787731112280996e+01 2.6780073307025560e+01 0 0 0
534 2 1.2305000000000001e+00 1.3498160618518829e+01 2.6780073307025560e+01 0 0 0
550 2 1.2305000000000001e+00 1.4919019630994494e+01 2.6780073307025560e+01 0 0 0
551 2 2.4610000000000003e+00 1.5629449137232328e+01 2.6780073307025560e+01 0 0 0
552 2 2.4610000000000003e+00 1.2787731112280996e+01 2.6780073307025560e+01 0 0 0
553 2 3.6915000000000004e+00 1.3498160618518829e+01 2.6780073307025560e+01 0 0 0
573 2 3.6915000000000004e+00 1.4919019630994494e+01 2.6780073307025560e+01 0 0 0
574 2 4.9220000000000006e+00 1.5629449137232333e+01 2.6780073307025560e+01 0 0 0
575 2 4.9220000000000006e+00 1.2787731112280996e+01 2.6780073307025560e+01 0 0 0
576 2 6.1524999999999990e+00 1.3498160618518829e+01 2.6780073307025560e+01 0 0 0
597 2 6.1524999999999990e+00 1.4919019630994494e+01 2.6780073307025560e+01 0 0 0
598 2 7.3829999999999991e+00 1.5629449137232333e+01 2.6780073307025560e+01 0 0 0
599 2 7.3829999999999991e+00 1.2787731112280996e+01 2.6780073307025560e+01 0 0 0
600 2 8.6135000000000002e+00 1.3498160618518835e+01 2.6780073307025560e+01 0 0 0
621 2 8.6135000000000002e+00 1.4919019630994494e+01 2.6780073307025560e+01 0 0 0
622 2 9.8440000000000012e+00 1.5629449137232328e+01 2.6780073307025560e+01 0 0 0
623 2 9.8440000000000012e+00 1.2787731112280996e+01 2.6780073307025560e+01 0 0 0
624 2 1.1074500000000002e+01 1.3498160618518829e+01 2.6780073307025560e+01 0 0 0
642 2 1.1074500000000002e+01 1.4919019630994494e+01 2.6780073307025560e+01 0 0 0
1250 2 0.0000000000000000e+00 1.4208590124756650e+00 3.0031000000000148e+01 0 0 0
1251 2 0.0000000000000000e+00 0.0000000000000000e+00 3.0031000000000148e+01 0 0 0
1254 2 1.2305000000000001e+00 3.5521475311891644e+00 3.0031000000000148e+01 0 0 0
1255 2 1.2305000000000001e+00 2.1312885187134998e+00 3.0031000000000148e+01 0 0 0
1256 2 2.4610000000000003e+00 1.4208590124756650e+00 3.0031000000000148e+01 0 0 0
1257 2 2.4610000000000003e+00 0.0000000000000000e+00 3.0031000000000148e+01 0 0 0
1264 2 3.6914999999999996e+00 3.5521475311891644e+00 3.0031000000000148e+01 0 0 0
1265 2 3.6914999999999996e+00 2.1312885187134998e+00 3.0031000000000148e+01 0 0 0
1266 2 4.9220000000000006e+00 1.4208590124756650e+00 3.0031000000000148e+01 0 0 0
1267 2 4.9220000000000006e+00 0.0000000000000000e+00 3.0031000000000148e+01 0 0 0
1278 2 6.1524999999999999e+00 3.5521475311891644e+00 3.0031000000000148e+01 0 0 0
1279 2 6.1524999999999999e+00 2.1312885187134989e+00 3.0031000000000148e+01 0 0 0
1280 2 7.3829999999999991e+00 1.4208590124756659e+00 3.0031000000000148e+01 0 0 0
1281 2 7.3829999999999991e+00 0.0000000000000000e+00 3.0031000000000148e+01 0 0 0
1296 2 8.6134999999999984e+00 3.5521475311891657e+00 3.0031000000000148e+01 0 0 0
1297 2 8.6134999999999984e+00 2.1312885187135002e+00 3.0031000000000148e+01 0 0 0
1298 2 9.8440000000000012e+00 1.4208590124756659e+00 3.0031000000000148e+01 0 0 0
1299 2 9.8440000000000012e+00 0.0000000000000000e+00 3.0031000000000148e+01 0 0 0
1318 2 1.1074500000000002e+01 3.5521475311891644e+00 3.0031000000000148e+01 0 0 0
1319 2 1.1074500000000002e+01 2.1312885187135002e+00 3.0031000000000148e+01 0 0 0
1252 2 0.0000000000000000e+00 5.6834360499026637e+00 3.0031000000000148e+01 0 0 0
1253 2 0.0000000000000000e+00 4.2625770374269996e+00 3.0031000000000148e+01 0 0 0
1260 2 1.2305000000000001e+00 7.8147245686161639e+00 3.0031000000000148e+01 0 0 0
1261 2 1.2305000000000001e+00 6.3938655561404980e+00 3.0031000000000148e+01 0 0 0
1262 2 2.4610000000000003e+00 5.6834360499026637e+00 3.0031000000000148e+01 0 0 0
1263 2 2.4610000000000003e+00 4.2625770374269996e+00 3.0031000000000148e+01 0 0 0
1274 2 3.6914999999999996e+00 7.8147245686161639e+00 3.0031000000000148e+01 0 0 0
1275 2 3.6914999999999996e+00 6.3938655561404980e+00 3.0031000000000148e+01 0 0 0
1276 2 4.9220000000000006e+00 5.6834360499026637e+00 3.0031000000000148e+01 0 0 0
1277 2 4.9220000000000006e+00 4.2625770374269978e+00 3.0031000000000148e+01 0 0 0
1292 2 6.1524999999999999e+00 7.8147245686161639e+00 3.0031000000000148e+01 0 0 0
1293 2 6.1524999999999999e+00 6.3938655561404980e+00 3.0031000000000148e+01 0 0 0
1294 2 7.3829999999999991e+00 5.6834360499026637e+00 3.0031000000000148e+01 0 0 0
1295 2 7.3829999999999991e+00 4.2625770374269996e+00 3.0031000000000148e+01 0 0 0
1314 2 8.6135000000000002e+00 7.8147245686161639e+00 3.0031000000000148e+01 0 0 0
1315 2 8.6135000000000002e+00 6.3938655561404980e+00 3.0031000000000148e+01 0 0 0
1316 2 9.8440000000000012e+00 5.6834360499026637e+00 3.0031000000000148e+01 0 0 0
1317 2 9.8440000000000012e+00 4.2625770374270004e+00 3.0031000000000148e+01 0 0 0
1337 2 1.1074500000000002e+01 7.8147245686161639e+00 3.0031000000000148e+01 0 0 0
1338 2 1.1074500000000002e+01 6.3938655561404980e+00 3.0031000000000148e+01 0 0 0
1258 2 0.0000000000000000e+00 9.9460130873296642e+00 3.0031000000000148e+01 0 0 0
1259 2 0.0000000000000000e+00 8.5251540748539991e+00 3.0031000000000148e+01 0 0 0
1270 2 1.2305000000000001e+00 1.2077301606043163e+01 3.0031000000000148e+01 0 0 0
1271 2 1.2305000000000001e+00 1.0656442593567498e+01 3.0031000000000148e+01 0 0 0
1272 2 2.4610000000000003e+00 9.9460130873296642e+00 3.0031000000000148e+01 0 0 0
1273 2 2.4610000000000003e+00 8.5251540748539991e+00 3.0031000000000148e+01 0 0 0
1288 2 3.6914999999999996e+00 1.2077301606043163e+01 3.0031000000000148e+01 0 0 0
1289 2 3.6914999999999996e+00 1.0656442593567499e+01 3.0031000000000148e+01 0 0 0
1290 2 4.9220000000000006e+00 9.9460130873296642e+00 3.0031000000000148e+01 0 0 0
1291 2 4.9220000000000006e+00 8.5251540748539991e+00 3.0031000000000148e+01 0 0 0
1310 2 6.1524999999999999e+00 1.2077301606043163e+01 3.0031000000000148e+01 0 0 0
1311 2 6.1524999999999999e+00 1.0656442593567499e+01 3.0031000000000148e+01 0 0 0
1312 2 7.3830000000000009e+00 9.9460130873296642e+00 3.0031000000000148e+01 0 0 0
1313 2 7.3830000000000009e+00 8.5251540748539991e+00 3.0031000000000148e+01 0 0 0
1333 2 8.6135000000000002e+00 1.2077301606043163e+01 3.0031000000000148e+01 0 0 0
1334 2 8.6134999999999984e+00 1.0656442593567498e+01 3.0031000000000148e+01 0 0 0
1335 2 9.8440000000000012e+00 9.9460130873296642e+00 3.0031000000000148e+01 0 0 0
1336 2 9.8440000000000012e+00 8.5251540748539956e+00 3.0031000000000148e+01 0 0 0
1356 2 1.1074500000000002e+01 1.2077301606043163e+01 3.0031000000000148e+01 0 0 0
1357 2 1.1074500000000002e+01 1.0656442593567498e+01 3.0031000000000148e+01 0 0 0
1268 2 0.0000000000000000e+00 1.4208590124756663e+01 3.0031000000000148e+01 0 0 0
1269 2 0.0000000000000000e+00 1.2787731112280996e+01 3.0031000000000148e+01 0 0 0
1285 2 1.2305000000000001e+00 1.4919019630994494e+01 3.0031000000000148e+01 0 0 0
1286 2 2.4610000000000003e+00 1.4208590124756663e+01 3.0031000000000148e+01 0 0 0
1287 2 2.4610000000000003e+00 1.2787731112280996e+01 3.0031000000000148e+01 0 0 0
1307 2 3.6915000000000004e+00 1.4919019630994494e+01 3.0031000000000148e+01 0 0 0
1308 2 4.9220000000000006e+00 1.4208590124756663e+01 3.0031000000000148e+01 0 0 0
1309 2 4.9220000000000006e+00 1.2787731112280996e+01 3.0031000000000148e+01 0 0 0
1330 2 6.1524999999999990e+00 1.4919019630994494e+01 3.0031000000000148e+01 0 0 0
1331 2 7.3830000000000009e+00 1.4208590124756663e+01 3.0031000000000148e+01 0 0 0
1332 2 7.3829999999999991e+00 1.2787731112280996e+01 3.0031000000000148e+01 0 0 0
1355 2 9.8440000000000012e+00 1.2787731112280996e+01 3.0031000000000148e+01 0 0 0
1373 2 1.1074500000000002e+01 1.6339878643470161e+01 3.0031000000000148e+01 0 0 0
1354 2 9.8440000000000012e+00 1.4208590124756663e+01 3.0031000000000148e+01 0 0 0
1353 2 8.6135000000000002e+00 1.4919019630994494e+01 3.0031000000000148e+01 0 0 0
1374 2 1.1074500000000002e+01 1.4919019630994494e+01 3.0031000000000148e+01 0 0 0
1375 2 1.2304999999999998e+01 1.4208590124756658e+01 3.0031000000000148e+01 0 0 0
1411 2 0.0000000000000000e+00 2.8417180249513345e+00 3.3281926692957200e+01 0 0 0
1412 2 0.0000000000000000e+00 0.0000000000000000e+00 3.3281926692957200e+01 0 0 0
1413 2 1.2305000000000001e+00 7.1042950623783474e-01 3.3281926692957200e+01 0 0 0
1417 2 1.2305000000000001e+00 2.1312885187134998e+00 3.3281926692957200e+01 0 0 0
1418 2 2.4610000000000003e+00 2.8417180249513345e+00 3.3281926692957200e+01 0 0 0
1419 2 2.4610000000000003e+00 0.0000000000000000e+00 3.3281926692957200e+01 0 0 0
1420 2 3.6915000000000004e+00 7.1042950623783474e-01 3.3281926692957200e+01 0 0 0
1428 2 3.6914999999999996e+00 2.1312885187134998e+00 3.3281926692957200e+01 0 0 0
1429 2 4.9220000000000006e+00 2.8417180249513332e+00 3.3281926692957200e+01 0 0 0
1430 2 4.9220000000000006e+00 0.0000000000000000e+00 3.3281926692957200e+01 0 0 0
1431 2 6.1524999999999999e+00 7.1042950623783407e-01 3.3281926692957200e+01 0 0 0
1443 2 6.1524999999999999e+00 2.1312885187134989e+00 3.3281926692957200e+01 0 0 0
1444 2 7.3829999999999991e+00 2.8417180249513345e+00 3.3281926692957200e+01 0 0 0
1445 2 7.3829999999999991e+00 0.0000000000000000e+00 3.3281926692957200e+01 0 0 0
1446 2 8.6134999999999984e+00 7.1042950623783407e-01 3.3281926692957200e+01 0 0 0
1462 2 8.6134999999999984e+00 2.1312885187135002e+00 3.3281926692957200e+01 0 0 0
1463 2 9.8440000000000012e+00 2.8417180249513332e+00 3.3281926692957200e+01 0 0 0
1464 2 9.8440000000000012e+00 0.0000000000000000e+00 3.3281926692957200e+01 0 0 0
1465 2 1.1074500000000002e+01 7.1042950623783330e-01 3.3281926692957200e+01 0 0 0
1485 2 1.1074500000000002e+01 2.1312885187135002e+00 3.3281926692957200e+01 0 0 0
1414 2 0.0000000000000000e+00 7.1042950623783341e+00 3.3281926692957200e+01 0 0 0
1415 2 0.0000000000000000e+00 4.2625770374269996e+00 3.3281926692957200e+01 0 0 0
1416 2 1.2305000000000001e+00 4.9730065436648339e+00 3.3281926692957200e+01 0 0 0
1424 2 1.2305000000000001e+00 6.3938655561404980e+00 3.3281926692957200e+01 0 0 0
1425 2 2.4610000000000003e+00 7.1042950623783341e+00 3.3281926692957200e+01 0 0 0
1426 2 2.4610000000000003e+00 4.2625770374269996e+00 3.3281926692957200e+01 0 0 0
1427 2 3.6914999999999996e+00 4.9730065436648339e+00 3.3281926692957200e+01 0 0 0
1439 2 3.6914999999999996e+00 6.3938655561404980e+00 3.3281926692957200e+01 0 0 0