LAMMPS data file via write_data, version 16 Mar 2018, timestep = 100000

6736 atoms
2 atom types

0.0000000000000000e+00 4.9219999999999999e+01 xlo xhi
0.0000000000000000e+00 4.9019635930410494e+01 ylo yhi
9.3821174142622255e-01 5.9123788258573157e+01 zlo zhi

Masses

1 18.015
2 12.01

Atoms # atomic

206 1 1.2752610351193980e+00 5.6699079498770661e+00 1.1018397974278619e+01 1 0 0
295 1 1.1616263648776037e+01 4.7915074233747168e-01 3.3411323230147461e+00 -1 1 0
6126 1 2.9619552904234796e+00 3.7477878047726318e+00 3.8596403798873422e+00 -1 0 1
5226 1 1.4476415375979281e+00 1.1987312841116285e+01 9.7972399126136516e+00 -2 1 0
4410 1 3.4216241392992386e-01 1.2770677809914950e+01 7.5704243544893117e+00 0 0 0
3690 1 1.0901289306644554e+01 1.3760990669208049e+01 9.7500285500622574e+00 0 0 0
2605 1 6.4541721518628214e-01 6.4080292898991837e+00 1.6001383455483089e+00 2 1 1
994 1 4.8748678753166041e+00 3.1824405133101199e+00 1.8370893563052513e+00 3 0 0
1775 1 1.0649389681589010e+01 1.9064343899979781e+00 5.6417854930401745e+00 0 1 0
1912 1 3.7770765140265197e+00 1.1981530865842746e+01 1.4499919780226440e+00 0 1 0
3639 1 7.1929233496209593e+00 4.6165624946089920e+00 5.5274797273925733e+00 1 -1 0
6136 1 6.4940163188482467e+00 2.2847688585560046e+00 4.4931225635145360e+00 0 0 0
6143 1 8.0140804450677106e+00 1.1159399139345249e+01 1.2284707510390678e+01 -1 1 1
268 1 7.0547577348431307e+00 6.2258836441524643e+00 3.1522282256202425e+00 1 1 0
3435 1 8.3827664173837615e+00 2.6380559103635224e+00 2.4618530421027631e+00 0 0 0
3547 1 1.1077657233232934e+01 2.9611210315992995e+00 1.7516904363713190e+00 -1 -1 1
1740 1 9.5468391007790263e+00 1.1571747687652723e+01 1.7476394220870108e+00 -1 1 0
5320 1 4.3726285842773125e+00 6.9891715907822940e+00 2.6189019632558184e+00 3 1 0
180 1 6.2258291688288887e+00 1.2207095488499569e+01 9.6329437038662089e+00 1 0 0
2147 1 6.1983404377545606e+00 1.4139809812033720e+01 4.6325147576986563e+00 0 -1 0
1090 1 7.9870847875342239e+00 8.9420951006448313e+00 3.2516023580313158e+00 -1 0 0
81 1 1.1469065612000101e+01 1.0625161384663210e+01 3.3859668401894929e+00 0 0 0
4391 1 1.1533388723962887e+00 1.1925960170548569e+01 3.1485150225567411e+00 0 0 1
3680 1 7.3920304090529738e+00 3.3443046281486097e+00 1.0129745436442629e+01 1 1 0
488 1 1.4772934090923898e-01 9.9880958051133817e+00 1.0932691833477447e+01 0 0 0
897 1 1.1280684163856719e+01 4.6181066640658672e+00 1.2191341272281463e+01 -1 -1 1
27 1 1.6135840630472873e+00 1.6010352442542416e+01 7.4938415160405842e+00 0 0 0
4412 1 3.7963779540542277e+00 1.8558284493775536e+00 5.7526157992734115e+00 1 0 1
954 1 4.4499005648703402e+00 3.6425369959716880e-01 2.4067925985216330e+00 0 0 1
2725 1 6.0534004539377682e+00 1.3905418867125032e+00 8.6966246801159635e+00 2 1 1
1103 1 7.9557062092923658e+00 8.9881572417298805e-01 6.4043016498398471e+00 0 1 1
6073 1 9.4652121387638086e+00 4.4362593713471057e+00 6.5492151424827503e+00 -1 0 1
6133 1 3.5857469806540889e+00 6.1028945616727528e+00 5.1987906429570305e+00 2 1 1
6160 1 2.1897242782118691e+00 8.7265772490762394e+00 7.4788084281506544e+00 1 0 1
2852 1 7.1709910506241026e-01 3.2428183270395814e+00 8.6264855147294242e+00 -1 1 1
2429 1 3.5434081982322434e+00 2.4167889389907415e+00 8.5114164886922445e+00 0 0 0
974 1 5.1480777709291710e+00 5.2615873665709474e+00 7.2802415753448022e+00 0 0 1
5140 1 5.2175205335235093e+00 7.7938707429293075e+00 7.9990836986061638e+00 2 1 0
6219 1 1.1272058168331492e+01 6.8020422554280886e+00 5.7982694168500633e+00 1 1 1
5077 1 7.1087772397742546e+00 1.6061261760122996e+01 8.4933595577723189e+00 0 0 0
1842 1 2.3547607789623166e+00 1.1366173120302633e+01 5.9945206185460531e+00 1 1 0
5552 1 6.7628368089560427e+00 1.0190364366273027e+01 7.2219449707680967e+00 1 1 0
4397 1 9.9071129278235919e+00 9.2438258805825146e+00 5.4427781947844123e+00 -1 0 1
5448 1 5.1004580111030053e+00 1.1677726624869226e+01 5.4720270685616175e+00 1 0 0
2203 1 1.2046753697384199e+01 1.4721359955964481e+01 2.0306569284387659e+00 0 0 0
5496 1 3.3032789287352751e+00 1.5858989217523055e+01 1.7251143115648020e+00 1 0 0
5573 1 9.7165466590606613e+00 1.0920414166191906e+01 7.7948780708216203e+00 -1 1 0
3607 1 4.3968215558675289e-01 1.4297410026900966e+01 5.2482766829924996e+00 -1 -2 1
6277 1 3.0004118006540046e+00 1.6037171778635230e+01 4.6500451202298301e+00 1 0 1
1786 1 8.9623373328949647e+00 1.3849004946594395e+01 5.5665768983900206e+00 1 1 1
5443 1 8.6736555211280049e+00 1.5786062154922503e+01 1.2241934618353778e+01 1 0 0
3673 1 1.1221096155849059e+01 1.3283745875804678e+01 4.3948542071144825e+00 0 1 0
6018 1 5.3173553041723087e+00 1.4140272593733295e+01 2.2682857354380221e+00 0 1 1
4131 1 1.8370304935638602e+00 3.9371128485301138e-01 2.6019816103965812e+00 0 1 1
5345 1 3.6829436158612010e+00 8.8409537989525866e+00 1.1360132617783716e+01 2 1 1
2029 1 4.0273260771044175e+00 6.3450833076622617e+00 1.0222933747688181e+01 0 -1 0
6053 1 7.6703971885692412e-01 1.4560535179441555e+01 1.9405564470301579e+00 -2 0 1
6234 1 1.0432072861686919e+01 2.3846453475660288e+00 1.0427815518620310e+01 0 1 1
4500 1 8.3724371690944235e+00 1.1375150728775179e+00 1.1791575330058583e+01 1 -1 0
2558 1 9.4278565535240375e+00 4.8562148196171391e+00 8.8245143800445156e+00 1 0 1
2007 1 6.0435660824398223e+00 5.0351381260848740e+00 1.1815857157587475e+01 0 1 0
745 1 2.9021723294765751e+00 1.8131842525642474e+00 1.2298666696132516e+01 0 0 1
5407 1 1.1583152339886576e+01 1.0568656443725550e+00 8.1249332260094800e+00 2 0 0
3743 1 7.8862872571059581e+00 7.0738166971037240e+00 9.4784148625381359e+00 2 1 0
4269 1 5.2331344500068768e+00 9.9318314118082434e+00 3.1503122202038258e+00 1 0 1
3599 1 1.1204843047321599e+01 6.7844410394815871e+00 1.0321013139598550e+01 1 0 1
3470 1 2.1469030546739454e+00 8.9728067877818418e+00 3.5024865524198612e+00 2 0 1
840 1 6.3583137375947194e+00 1.4359974563212271e+01 1.1611377923463801e+01 0 1 0
5876 1 3.8895460191642508e+00 1.0807510066993936e+01 9.4015805227471620e+00 0 2 1
2668 1 9.0728169736295836e+00 9.5045654508776920e+00 1.0098647191098827e+01 1 0 0
3539 1 8.6656184817391519e+00 1.3438668091418270e+01 7.9825711101883412e+00 0 -1 0
778 1 2.2433977715179485e+00 1.5018976225621708e+01 1.0144047843990721e+01 0 -1 1
2718 1 9.7908127645559129e-01 7.1434818776095135e+00 5.3518145545037976e+00 0 0 1
3433 1 1.1695600986429977e+01 9.5515385322830664e+00 1.1553546939218787e+01 -2 1 0
2740 1 5.9871844299181069e-02 2.5367865927242410e+00 4.0759898300450690e+00 0 1 1
4586 1 9.6867697289856771e+00 1.3256516779854051e+01 1.1869002513269383e+01 1 1 0
5330 1 5.2926334809335485e-01 7.6376547616440220e+00 9.1391818128110902e+00 0 0 0
2540 1 2.3168969770200039e+00 3.4158752430499817e-03 1.0456321199197344e+01 1 2 1
1123 1 7.7033706961567550e+00 7.1746767438664278e+00 1.2349863674518740e+01 0 0 1
2798 1 8.7331636359030573e-01 1.1896407623953376e+01 2.1029937846239257e+01 0 0 0
5810 1 3.8723600343234064e+00 8.4734046091537074e+00 2.3735335007575749e+01 1 0 1
178 1 5.1621752372041652e+00 3.5059612325572052e+00 1.4021807780649938e+01 -1 0 1
3505 1 4.6024546287522416e-01 5.1145669286949036e-01 1.5478478298530900e+01 1 0 0
930 1 7.4751694610751906e+00 1.9460084351555300e+00 1.4540916917818821e+01 0 1 1
2608 1 9.6221570201802447e+00 2.9016242433126940e+00 1.5882358111394966e+01 -2 -1 1
2707 1 1.0299257536035551e+00 1.2900867879514383e+01 1.5395949850134656e+01 -1 1 1
2456 1 1.9935363015043335e+00 4.9509736340851820e+00 1.3845891071613593e+01 0 -1 0
3516 1 8.8938184141509229e+00 1.2932194940929767e+01 2.0899119465045054e+01 2 0 0
5512 1 4.3469026883224418e+00 5.0262372339918180e+00 1.6147028007979184e+01 1 -1 0
1731 1 6.4661600077793286e+00 1.6198475144844281e+01 1.5437867819475837e+01 1 -1 0
1023 1 9.0345032876207174e+00 7.3954789843832911e+00 1.4941075046737248e+01 1 1 1
341 1 1.0743233800813259e+01 4.9583084388492571e+00 1.4601212144799948e+01 0 1 0
4182 1 1.6550694872271998e+00 9.1634712408771826e+00 1.3209662865280182e+01 1 0 1
915 1 6.0111638674844921e+00 9.1733013572307609e+00 1.2932941405524558e+01 -1 1 1
129 1 7.3303878392912514e-01 1.5450118696372092e+01 2.3193418481273405e+01 0 0 1
3478 1 7.9880240024428009e+00 1.1826907562160025e+01 1.5931185809839130e+01 0 -2 0
2678 1 9.6781887136568834e+00 9.9630991486072542e+00 1.4371742606856085e+01 -1 0 1
203 1 7.0897663031961828e+00 1.3999070011198699e+01 2.3467206769944838e+01 -1 1 0
2585 1 2.1437017586754079e+00 1.0517804013492640e+01 1.5477453112744030e+01 1 0 1
5335 1 5.5177713546907867e+00 1.3780010704692151e+01 1.4195732226309469e+01 1 -1 0
5088 1 2.7694090685326924e+00 1.3968345470988110e+01 2.2505094001558522e+01 1 1 1
2894 1 1.4945268000585326e+00 1.6061766438079495e+01 1.2790479685209796e+01 0 1 1
6288 1 3.2966111907015891e+00 2.8343058810759088e+00 1.7283486629199249e+01 0 1 0
313 1 4.9858019747372557e+00 1.9153364553424559e+00 1.9605897000475469e+01 0 1 0
1219 1 9.1867315580602487e+00 2.5403820974062516e+00 1.9647902813038435e+01 0 1 0
6022 1 8.5136532535071918e-01 4.0395229158565753e+00 1.7612293849136975e+01 1 2 1
1053 1 8.3583551832289504e-01 7.0064940660462476e+00 1.8481362479628679e+01 -1 1 1
435 1 6.1347690512379227e+00 5.5622228393192135e+00 1.8071094926688986e+01 1 1 0
5588 1 5.0052718189282714e+00 1.1133426217653373e+01 2.1010036045934701e+01 1 0 0
230 1 7.5567783745118344e+00 8.1934649186355824e+00 1.7040921322608675e+01 0 0 0
6261 1 9.9734398271672138e+00 3.1135035942082800e+00 2.3752169994770615e+01 -1 1 1
506 1 8.7393032736352954e+00 4.5233106717192895e+00 1.7784650362065726e+01 1 1 0
932 1 3.7239078197646438e+00 1.6179714538938651e+01 1.9253475787840333e+01 0 0 1
5173 1 9.9930001850119190e+00 6.8514892032801642e+00 1.8684807656642818e+01 1 1 1
2080 1 2.0699559803242473e+00 7.2527965367576250e+00 1.6030201839786649e+01 1 0 0
5556 1 1.5510110140832228e-01 1.0483782636080404e+01 2.3636831232602351e+01 1 -1 0
2065 1 5.2139187872474695e+00 9.6180288234859432e+00 1.5441556466336278e+01 1 0 0
3418 1 4.3283633579226199e+00 7.9766462556091531e+00 1.7803720469544686e+01 0 2 1
238 1 4.2594895175141074e+00 1.2503505290702664e+01 1.8500509342348789e+01 1 -1 1
1231 1 8.7767579517938987e+00 1.0751770329080356e+01 1.8366415764634926e+01 0 1 0
4453 1 1.2088367535711138e+01 1.1145333023157054e+01 1.6229012235364252e+01 1 0 1
431 1 1.1844089017602503e+01 1.3703839931850341e+01 2.3708580444373677e+01 -1 0 0
5481 1 5.0298545380569522e+00 1.2003632780835195e+01 1.5871711085473779e+01 1 1 0
4474 1 8.5880453668608130e+00 7.1891542932240116e+00 2.3243092846162742e+01 0 1 0
6006 1 6.9649445273796848e+00 1.3496907927608174e+01 1.9297192089879662e+01 -1 0 1
5435 1 3.1835133912990217e+00 1.1692159710664889e+00 1.5008770269672226e+01 0 0 0
3800 1 1.1464730244847114e+01 1.2208036954940376e+01 1.9043499479866728e+01 -1 -1 1
385 1 8.3844988447087676e+00 1.4222458506708165e+01 1.6940116729994973e+01 0 0 0
1929 1 2.3231479343541284e+00 2.6193681901921639e+00 2.0974485476794086e+01 0 0 0
284 1 4.9330821490365233e+00 1.5676701451271114e+01 2.3225306499993643e+01 1 -1 0
306 1 1.0688929513192534e+01 1.4908425965877299e+01 1.8311130221606135e+01 0 1 0
1065 1 7.5300188815651365e+00 3.1876862596737792e+00 2.3314377164500360e+01 0 1 1
6079 1 6.9512349779389409e+00 3.1937853842046282e+00 2.0816098097333203e+01 1 1 1
931 1 2.7908508061847055e+00 1.4626460684305107e+01 1.4540664227454720e+01 1 1 1
3502 1 1.1434529883483219e+01 2.8419748757973395e+00 2.1405830244823203e+01 2 -1 0
740 1 6.4271921453866343e-01 2.1845783398314764e+00 2.3853323522109726e+01 0 0 1
3850 1 1.1799705944883542e+01 1.1944996694611993e+00 1.6580610687889951e+01 -1 -1 0
3602 1 4.1085207171423557e+00 8.5598832512639405e+00 2.0936647013782590e+01 1 1 0
3627 1 2.3837861361450901e+00 5.5056580832737643e+00 2.0366971751115422e+01 0 1 0
1849 1 9.5915307379007313e+00 1.5181995403261702e+01 2.3221226341766808e+01 1 0 0
5113 1 5.5699306147701781e+00 5.7716333519489380e+00 2.0809987824083940e+01 0 0 1
2033 1 7.9608802710347728e+00 7.4175856003046006e+00 2.0730716339872192e+01 1 0 0
4577 1 5.8514014109568455e+00 6.0693691148994438e+00 2.3800103753052358e+01 1 1 0
13 1 1.0543637523121243e+01 5.7420678993883705e+00 2.4141216498144995e+01 0 0 1
1080 1 3.2588495106499669e+00 1.1145776032337579e+01 2.3721063954831131e+01 0 1 0
226 1 8.7011989431075616e+00 9.8740428180486131e+00 2.3826277607705673e+01 0 -1 1
4143 1 7.8108313768976076e+00 1.0163508330642705e+01 2.0969668155657164e+01 0 0 1
992 1 1.1791598902644374e+01 8.7457967642661583e+00 1.7936326646464682e+01 -1 0 1
2588 1 2.5234628243436941e+00 1.0238822806729859e+01 1.8708000111573252e+01 1 1 1
5984 1 2.0045520060363917e+00 1.4338355987702052e+01 1.9515863250493709e+01 1 0 1
893 1 2.9250670802841294e-01 2.3386080540126932e+00 1.3277544890702815e+01 0 1 1
6155 1 9.5605819537733012e+00 1.6189766631650929e+01 2.0562591905617321e+01 0 0 1
4115 1 4.9880740134659723e-01 8.6534421261632009e+00 2.0792796922573721e+01 1 -1 1
4407 1 6.2254666450656515e+00 1.1513256780337031e+01 2.3885368908032618e+01 1 -1 1
5461 1 1.1886759426381273e+01 1.3133825182187419e+01 1.3561509346499490e+01 0 1 0
6017 1 6.1101426753338739e+00 1.5783194896081342e+01 2.0369077497587625e+01 -1 1 1
5419 1 1.8244465734461182e+00 6.7243124705857555e+00 2.2963311112199737e+01 1 1 0
192 1 3.4052358112402477e+00 4.1933008520136568e+00 2.3440283592386571e+01 0 1 0
1954 1 1.1612975707107102e+01 6.8550850638751397e+00 2.1228955452822589e+01 0 -1 0
3774 1 1.0959415786624309e+01 4.5266290192249226e-01 2.4151686637551169e+01 -1 2 0
511 2 0.0000000000000000e+00 2.8417180249513345e+00 2.6824322590854472e+01 0 0 0
512 2 0.0000000000000000e+00 0.0000000000000000e+00 2.6824322590854472e+01 0 0 0
513 2 1.2305000000000001e+00 7.1042950623783474e-01 2.6824322590854472e+01 0 0 0
517 2 1.2305000000000001e+00 2.1312885187134998e+00 2.6824322590854472e+01 0 0 0
518 2 2.4610000000000003e+00 2.8417180249513345e+00 2.6824322590854472e+01 0 0 0
519 2 2.4610000000000003e+00 0.0000000000000000e+00 2.6824322590854472e+01 0 0 0
520 2 3.6915000000000004e+00 7.1042950623783474e-01 2.6824322590854472e+01 0 0 0
528 2 3.6914999999999996e+00 2.1312885187134998e+00 2.6824322590854472e+01 0 0 0
529 2 4.9220000000000006e+00 2.8417180249513332e+00 2.6824322590854472e+01 0 0 0
530 2 4.9220000000000006e+00 0.0000000000000000e+00 2.6824322590854472e+01 0 0 0
531 2 6.1524999999999999e+00 7.1042950623783407e-01 2.6824322590854472e+01 0 0 0
543 2 6.1524999999999999e+00 2.1312885187134989e+00 2.6824322590854472e+01 0 0 0
544 2 7.3829999999999991e+00 2.8417180249513345e+00 2.6824322590854472e+01 0 0 0
545 2 7.3829999999999991e+00 0.0000000000000000e+00 2.6824322590854472e+01 0 0 0
2811 1 3.8840281537110108e+00 8.8995688769823786e+00 3.5270011872976831e+01 0 0 -1
546 2 8.6134999999999984e+00 7.1042950623783407e-01 2.6824322590854472e+01 0 0 0
562 2 8.6134999999999984e+00 2.1312885187135002e+00 2.6824322590854472e+01 0 0 0
563 2 9.8440000000000012e+00 2.8417180249513332e+00 2.6824322590854472e+01 0 0 0
564 2 9.8440000000000012e+00 0.0000000000000000e+00 2.6824322590854472e+01 0 0 0
565 2 1.1074500000000002e+01 7.1042950623783330e-01 2.6824322590854472e+01 0 0 0
585 2 1.1074500000000002e+01 2.1312885187135002e+00 2.6824322590854472e+01 0 0 0
514 2 0.0000000000000000e+00 7.1042950623783341e+00 2.6824322590854472e+01 0 0 0
515 2 0.0000000000000000e+00 4.2625770374269996e+00 2.6824322590854472e+01 0 0 0
516 2 1.2305000000000001e+00 4.9730065436648339e+00 2.6824322590854472e+01 0 0 0
524 2 1.2305000000000001e+00 6.3938655561404980e+00 2.6824322590854472e+01 0 0 0
525 2 2.4610000000000003e+00 7.1042950623783341e+00 2.6824322590854472e+01 0 0 0
526 2 2.4610000000000003e+00 4.2625770374269996e+00 2.6824322590854472e+01 0 0 0
527 2 3.6914999999999996e+00 4.9730065436648339e+00 2.6824322590854472e+01 0 0 0
539 2 3.6914999999999996e+00 6.3938655561404980e+00 2.6824322590854472e+01 0 0 0
540 2 4.9220000000000006e+00 7.1042950623783341e+00 2.6824322590854472e+01 0 0 0
541 2 4.9220000000000006e+00 4.2625770374269978e+00 2.6824322590854472e+01 0 0 0
542 2 6.1524999999999999e+00 4.9730065436648339e+00 2.6824322590854472e+01 0 0 0
558 2 6.1524999999999999e+00 6.3938655561404980e+00 2.6824322590854472e+01 0 0 0
559 2 7.3830000000000009e+00 7.1042950623783341e+00 2.6824322590854472e+01 0 0 0
560 2 7.3829999999999991e+00 4.2625770374269996e+00 2.6824322590854472e+01 0 0 0
2018 1 3.2716706473512134e+00 8.9027930586905657e-01 2.4330537396662653e+01 1 1 0
561 2 8.6135000000000002e+00 4.9730065436648339e+00 2.6824322590854472e+01 0 0 0
581 2 8.6135000000000002e+00 6.3938655561404980e+00 2.6824322590854472e+01 0 0 0
582 2 9.8440000000000012e+00 7.1042950623783341e+00 2.6824322590854472e+01 0 0 0
583 2 9.8440000000000012e+00 4.2625770374270004e+00 2.6824322590854472e+01 0 0 0
584 2 1.1074500000000002e+01 4.9730065436648339e+00 2.6824322590854472e+01 0 0 0
605 2 1.1074500000000002e+01 6.3938655561404980e+00 2.6824322590854472e+01 0 0 0
1523 2 9.8440000000000012e+00 1.2787731112280996e+01 3.3237677409146805e+01 0 0 0
521 2 0.0000000000000000e+00 1.1366872099805333e+01 2.6824322590854472e+01 0 0 0
522 2 0.0000000000000000e+00 8.5251540748539991e+00 2.6824322590854472e+01 0 0 0
523 2 1.2305000000000001e+00 9.2355835810918343e+00 2.6824322590854472e+01 0 0 0
535 2 1.2305000000000001e+00 1.0656442593567498e+01 2.6824322590854472e+01 0 0 0
536 2 2.4610000000000003e+00 1.1366872099805333e+01 2.6824322590854472e+01 0 0 0
537 2 2.4610000000000003e+00 8.5251540748539991e+00 2.6824322590854472e+01 0 0 0
538 2 3.6915000000000004e+00 9.2355835810918343e+00 2.6824322590854472e+01 0 0 0
554 2 3.6914999999999996e+00 1.0656442593567499e+01 2.6824322590854472e+01 0 0 0
1522 2 9.8440000000000012e+00 1.5629449137232328e+01 3.3237677409146805e+01 0 0 0
1474 2 4.9220000000000006e+00 1.5629449137232333e+01 3.3237677409146805e+01 0 0 0
555 2 4.9220000000000006e+00 1.1366872099805333e+01 2.6824322590854472e+01 0 0 0
556 2 4.9220000000000006e+00 8.5251540748539991e+00 2.6824322590854472e+01 0 0 0
557 2 6.1524999999999999e+00 9.2355835810918343e+00 2.6824322590854472e+01 0 0 0
577 2 6.1524999999999999e+00 1.0656442593567499e+01 2.6824322590854472e+01 0 0 0
578 2 7.3829999999999991e+00 1.1366872099805333e+01 2.6824322590854472e+01 0 0 0
579 2 7.3830000000000009e+00 8.5251540748539991e+00 2.6824322590854472e+01 0 0 0
580 2 8.6134999999999984e+00 9.2355835810918343e+00 2.6824322590854472e+01 0 0 0
601 2 8.6134999999999984e+00 1.0656442593567498e+01 2.6824322590854472e+01 0 0 0
602 2 9.8440000000000012e+00 1.1366872099805333e+01 2.6824322590854472e+01 0 0 0
603 2 9.8440000000000012e+00 8.5251540748539956e+00 2.6824322590854472e+01 0 0 0
604 2 1.1074500000000002e+01 9.2355835810918343e+00 2.6824322590854472e+01 0 0 0
625 2 1.1074500000000002e+01 1.0656442593567498e+01 2.6824322590854472e+01 0 0 0
626 2 1.2304999999999998e+01 1.1366872099805333e+01 2.6824322590854472e+01 0 0 0
1476 2 6.1524999999999990e+00 1.3498160618518829e+01 3.3237677409146805e+01 0 0 0
1498 2 7.3829999999999991e+00 1.5629449137232333e+01 3.3237677409146805e+01 0 0 0
532 2 0.0000000000000000e+00 1.5629449137232333e+01 2.6824322590854472e+01 0 0 0
533 2 0.0000000000000000e+00 1.2787731112280996e+01 2.6824322590854472e+01 0 0 0
534 2 1.2305000000000001e+00 1.3498160618518829e+01 2.6824322590854472e+01 0 0 0
550 2 1.2305000000000001e+00 1.4919019630994494e+01 2.6824322590854472e+01 0 0 0
551 2 2.4610000000000003e+00 1.5629449137232328e+01 2.6824322590854472e+01 0 0 0
552 2 2.4610000000000003e+00 1.2787731112280996e+01 2.6824322590854472e+01 0 0 0
553 2 3.6915000000000004e+00 1.3498160618518829e+01 2.6824322590854472e+01 0 0 0
573 2 3.6915000000000004e+00 1.4919019630994494e+01 2.6824322590854472e+01 0 0 0
574 2 4.9220000000000006e+00 1.5629449137232333e+01 2.6824322590854472e+01 0 0 0
575 2 4.9220000000000006e+00 1.2787731112280996e+01 2.6824322590854472e+01 0 0 0
576 2 6.1524999999999990e+00 1.3498160618518829e+01 2.6824322590854472e+01 0 0 0
597 2 6.1524999999999990e+00 1.4919019630994494e+01 2.6824322590854472e+01 0 0 0
598 2 7.3829999999999991e+00 1.5629449137232333e+01 2.6824322590854472e+01 0 0 0
599 2 7.3829999999999991e+00 1.2787731112280996e+01 2.6824322590854472e+01 0 0 0
600 2 8.6135000000000002e+00 1.3498160618518835e+01 2.6824322590854472e+01 0 0 0
621 2 8.6135000000000002e+00 1.4919019630994494e+01 2.6824322590854472e+01 0 0 0
622 2 9.8440000000000012e+00 1.5629449137232328e+01 2.6824322590854472e+01 0 0 0
623 2 9.8440000000000012e+00 1.2787731112280996e+01 2.6824322590854472e+01 0 0 0
624 2 1.1074500000000002e+01 1.3498160618518829e+01 2.6824322590854472e+01 0 0 0
642 2 1.1074500000000002e+01 1.4919019630994494e+01 2.6824322590854472e+01 0 0 0
1250 2 0.0000000000000000e+00 1.4208590124756650e+00 3.0030999999999850e+01 0 0 0
1251 2 0.0000000000000000e+00 0.0000000000000000e+00 3.0030999999999850e+01 0 0 0
1254 2 1.2305000000000001e+00 3.5521475311891644e+00 3.0030999999999850e+01 0 0 0
1255 2 1.2305000000000001e+00 2.1312885187134998e+00 3.0030999999999850e+01 0 0 0
1256 2 2.4610000000000003e+00 1.4208590124756650e+00 3.0030999999999850e+01 0 0 0
1257 2 2.4610000000000003e+00 0.0000000000000000e+00 3.0030999999999850e+01 0 0 0
1264 2 3.6914999999999996e+00 3.5521475311891644e+00 3.0030999999999850e+01 0 0 0
1265 2 3.6914999999999996e+00 2.1312885187134998e+00 3.0030999999999850e+01 0 0 0
1266 2 4.9220000000000006e+00 1.4208590124756650e+00 3.0030999999999850e+01 0 0 0
1267 2 4.9220000000000006e+00 0.0000000000000000e+00 3.0030999999999850e+01 0 0 0
1278 2 6.1524999999999999e+00 3.5521475311891644e+00 3.0030999999999850e+01 0 0 0
1279 2 6.1524999999999999e+00 2.1312885187134989e+00 3.0030999999999850e+01 0 0 0
1280 2 7.3829999999999991e+00 1.4208590124756659e+00 3.0030999999999850e+01 0 0 0
1281 2 7.3829999999999991e+00 0.0000000000000000e+00 3.0030999999999850e+01 0 0 0
1296 2 8.6134999999999984e+00 3.5521475311891657e+00 3.0030999999999850e+01 0 0 0
1297 2 8.6134999999999984e+00 2.1312885187135002e+00 3.0030999999999850e+01 0 0 0
1298 2 9.8440000000000012e+00 1.4208590124756659e+00 3.0030999999999850e+01 0 0 0
1299 2 9.8440000000000012e+00 0.0000000000000000e+00 3.0030999999999850e+01 0 0 0
1318 2 1.1074500000000002e+01 3.5521475311891644e+00 3.0030999999999850e+01 0 0 0
1319 2 1.1074500000000002e+01 2.1312885187135002e+00 3.0030999999999850e+01 0 0 0
1252 2 0.0000000000000000e+00 5.6834360499026637e+00 3.0030999999999850e+01 0 0 0
1253 2 0.0000000000000000e+00 4.2625770374269996e+00 3.0030999999999850e+01 0 0 0
1260 2 1.2305000000000001e+00 7.8147245686161639e+00 3.0030999999999850e+01 0 0 0
1261 2 1.2305000000000001e+00 6.3938655561404980e+00 3.0030999999999850e+01 0 0 0
1262 2 2.4610000000000003e+00 5.6834360499026637e+00 3.0030999999999850e+01 0 0 0
1263 2 2.4610000000000003e+00 4.2625770374269996e+00 3.0030999999999850e+01 0 0 0
1274 2 3.6914999999999996e+00 7.8147245686161639e+00 3.0030999999999850e+01 0 0 0
1275 2 3.6914999999999996e+00 6.3938655561404980e+00 3.0030999999999850e+01 0 0 0
1276 2 4.9220000000000006e+00 5.6834360499026637e+00 3.0030999999999850e+01 0 0 0
1277 2 4.9220000000000006e+00 4.2625770374269978e+00 3.0030999999999850e+01 0 0 0
1292 2 6.1524999999999999e+00 7.8147245686161639e+00 3.0030999999999850e+01 0 0 0
1293 2 6.1524999999999999e+00 6.3938655561404980e+00 3.0030999999999850e+01 0 0 0
1294 2 7.3829999999999991e+00 5.6834360499026637e+00 3.0030999999999850e+01 0 0 0
1295 2 7.3829999999999991e+00 4.2625770374269996e+00 3.0030999999999850e+01 0 0 0
1314 2 8.6135000000000002e+00 7.8147245686161639e+00 3.0030999999999850e+01 0 0 0
1315 2 8.6135000000000002e+00 6.3938655561404980e+00 3.0030999999999850e+01 0 0 0
1316 2 9.8440000000000012e+00 5.6834360499026637e+00 3.0030999999999850e+01 0 0 0
1317 2 9.8440000000000012e+00 4.2625770374270004e+00 3.0030999999999850e+01 0 0 0
1337 2 1.1074500000000002e+01 7.8147245686161639e+00 3.0030999999999850e+01 0 0 0
1338 2 1.1074500000000002e+01 6.3938655561404980e+00 3.0030999999999850e+01 0 0 0
1258 2 0.0000000000000000e+00 9.9460130873296642e+00 3.0030999999999850e+01 0 0 0
1259 2 0.0000000000000000e+00 8.5251540748539991e+00 3.0030999999999850e+01 0 0 0
1270 2 1.2305000000000001e+00 1.2077301606043163e+01 3.0030999999999850e+01 0 0 0
1271 2 1.2305000000000001e+00 1.0656442593567498e+01 3.0030999999999850e+01 0 0 0
1272 2 2.4610000000000003e+00 9.9460130873296642e+00 3.0030999999999850e+01 0 0 0
1273 2 2.4610000000000003e+00 8.5251540748539991e+00 3.0030999999999850e+01 0 0 0
1288 2 3.6914999999999996e+00 1.2077301606043163e+01 3.0030999999999850e+01 0 0 0
1289 2 3.6914999999999996e+00 1.0656442593567499e+01 3.0030999999999850e+01 0 0 0
1290 2 4.9220000000000006e+00 9.9460130873296642e+00 3.0030999999999850e+01 0 0 0
1291 2 4.9220000000000006e+00 8.5251540748539991e+00 3.0030999999999850e+01 0 0 0
1310 2 6.1524999999999999e+00 1.2077301606043163e+01 3.0030999999999850e+01 0 0 0
1311 2 6.1524999999999999e+00 1.0656442593567499e+01 3.0030999999999850e+01 0 0 0
1312 2 7.3830000000000009e+00 9.9460130873296642e+00 3.0030999999999850e+01 0 0 0
1313 2 7.3830000000000009e+00 8.5251540748539991e+00 3.0030999999999850e+01 0 0 0
1333 2 8.6135000000000002e+00 1.2077301606043163e+01 3.0030999999999850e+01 0 0 0
1334 2 8.6134999999999984e+00 1.0656442593567498e+01 3.0030999999999850e+01 0 0 0
1335 2 9.8440000000000012e+00 9.9460130873296642e+00 3.0030999999999850e+01 0 0 0
1336 2 9.8440000000000012e+00 8.5251540748539956e+00 3.0030999999999850e+01 0 0 0
1356 2 1.1074500000000002e+01 1.2077301606043163e+01 3.0030999999999850e+01 0 0 0
1357 2 1.1074500000000002e+01 1.0656442593567498e+01 3.0030999999999850e+01 0 0 0
1268 2 0.0000000000000000e+00 1.4208590124756663e+01 3.0030999999999850e+01 0 0 0
1269 2 0.0000000000000000e+00 1.2787731112280996e+01 3.0030999999999850e+01 0 0 0
1285 2 1.2305000000000001e+00 1.4919019630994494e+01 3.0030999999999850e+01 0 0 0
1286 2 2.4610000000000003e+00 1.4208590124756663e+01 3.0030999999999850e+01 0 0 0
1287 2 2.4610000000000003e+00 1.2787731112280996e+01 3.0030999999999850e+01 0 0 0
1307 2 3.6915000000000004e+00 1.4919019630994494e+01 3.0030999999999850e+01 0 0 0
1308 2 4.9220000000000006e+00 1.4208590124756663e+01 3.0030999999999850e+01 0 0 0
1309 2 4.9220000000000006e+00 1.2787731112280996e+01 3.0030999999999850e+01 0 0 0
1330 2 6.1524999999999990e+00 1.4919019630994494e+01 3.0030999999999850e+01 0 0 0
1331 2 7.3830000000000009e+00 1.4208590124756663e+01 3.0030999999999850e+01 0 0 0
1332 2 7.3829999999999991e+00 1.2787731112280996e+01 3.0030999999999850e+01 0 0 0
1373 2 1.1074500000000002e+01 1.6339878643470161e+01 3.0030999999999850e+01 0 0 0
1354 2 9.8440000000000012e+00 1.4208590124756663e+01 3.0030999999999850e+01 0 0 0
1374 2 1.1074500000000002e+01 1.4919019630994494e+01 3.0030999999999850e+01 0 0 0
1353 2 8.6135000000000002e+00 1.4919019630994494e+01 3.0030999999999850e+01 0 0 0
1375 2 1.2304999999999998e+01 1.4208590124756658e+01 3.0030999999999850e+01 0 0 0
1355 2 9.8440000000000012e+00 1.2787731112280996e+01 3.0030999999999850e+01 0 0 0
1411 2 0.0000000000000000e+00 2.8417180249513345e+00 3.3237677409146805e+01 0 0 0
1412 2 0.0000000000000000e+00 0.0000000000000000e+00 3.3237677409146805e+01 0 0 0
1413 2 1.2305000000000001e+00 7.1042950623783474e-01 3.3237677409146805e+01 0 0 0
1417 2 1.2305000000000001e+00 2.1312885187134998e+00 3.3237677409146805e+01 0 0 0
1418 2 2.4610000000000003e+00 2.8417180249513345e+00 3.3237677409146805e+01 0 0 0
1419 2 2.4610000000000003e+00 0.0000000000000000e+00 3.3237677409146805e+01 0 0 0
1420 2 3.6915000000000004e+00 7.1042950623783474e-01 3.3237677409146805e+01 0 0 0
1428 2 3.6914999999999996e+00 2.1312885187134998e+00 3.3237677409146805e+01 0 0 0
1429 2 4.9220000000000006e+00 2.8417180249513332e+00 3.3237677409146805e+01 0 0 0
1430 2 4.9220000000000006e+00 0.0000000000000000e+00 3.3237677409146805e+01 0 0 0
1431 2 6.1524999999999999e+00 7.1042950623783407e-01 3.3237677409146805e+01 0 0 0
1443 2 6.1524999999999999e+00 2.1312885187134989e+00 3.3237677409146805e+01 0 0 0
1444 2 7.3829999999999991e+00 2.8417180249513345e+00 3.3237677409146805e+01 0 0 0
1445 2 7.3829999999999991e+00 0.0000000000000000e+00 3.3237677409146805e+01 0 0 0
1521 2 8.6135000000000002e+00 1.4919019630994494e+01 3.3237677409146805e+01 0 0 0
1446 2 8.6134999999999984e+00 7.1042950623783407e-01 3.3237677409146805e+01 0 0 0
1462 2 8.6134999999999984e+00 2.1312885187135002e+00 3.3237677409146805e+01 0 0 0
1463 2 9.8440000000000012e+00 2.8417180249513332e+00 3.3237677409146805e+01 0 0 0
1464 2 9.8440000000000012e+00 0.0000000000000000e+00 3.3237677409146805e+01 0 0 0
1465 2 1.1074500000000002e+01 7.1042950623783330e-01 3.3237677409146805e+01 0 0 0
1485 2 1.1074500000000002e+01 2.1312885187135002e+00 3.3237677409146805e+01 0 0 0
1542 2 1.1074500000000002e+01 1.4919019630994494e+01 3.3237677409146805e+01 0 0 0
1414 2 0.0000000000000000e+00 7.1042950623783341e+00 3.3237677409146805e+01 0 0 0
1415 2 0.0000000000000000e+00 4.2625770374269996e+00 3.3237677409146805e+01 0 0 0
1416 2 1.2305000000000001e+00 4.9730065436648339e+00 3.3237677409146805e+01 0 0 0
1424 2 1.2305000000000001e+00 6.3938655561404980e+00 3.3237677409146805e+01 0 0 0
1425 2 2.4610000000000003e+00 7.1042950623783341e+00 3.3237677409146805e+01 0 0 0
1426 2 2.4610000000000003e+00 4.2625770374269996e+00 3.3237677409146805e+01 0 0 0
1427 2 3.6914999999999996e+00 4.9730065436648339e+00 3.3237677409146805e+01 0 0 0
1439 2 3.6914999999999996e+00 6.3938655561404980e+00 3.3237677409146805e+01 0 0 0
1440 2 4.9220000000000006e+00 7.1042950623783341e+00 3.3237677409146805e+01 0 0 0
1441 2 4.9220000000000006e+00 4.2625770374269978e+00 3.3237677409146805e+01 0 0 0
1442 2 6.1524999999999999e+00 4.9730065436648339e+00 3.3237677409146805e+01 0 0 0
1458 2 6.1524999999999999e+00 6.3938655561404980e+00 3.3237677409146805e+01 0 0 0
1459 2 7.3830000000000009e+00 7.1042950623783341e+00 3.3237677409146805e+01 0 0 0
1460 2 7.3829999999999991e+00 4.2625770374269996e+00 3.3237677409146805e+01 0 0 0
1500 2 8.6135000000000002e+00 1.3498160618518835e+01 3.3237677409146805e+01 0 0 0