LAMMPS data file via write_data, version 16 Mar 2018, timestep = 100000

6736 atoms
2 atom types

3.3084201629596066e-01 4.8889157983703157e+01 xlo xhi
3.2949522936475617e-01 4.8690140701045806e+01 ylo yhi
3.6438788182863746e-01 5.9697612118170404e+01 zlo zhi

Masses

1 18.015
2 12.01

Atoms # atomic

5202 1 7.9167786484406821e-01 1.1483040439714168e+01 3.7926736307846602e+00 0 0 0
2462 1 5.1353286871495909e+00 2.9639191105408211e+00 1.3353457792549670e+00 1 0 0
2514 1 9.9085848091165385e+00 7.2001236539914553e+00 3.9334729516231084e+00 0 2 1
5979 1 1.0360588000037282e+01 5.3388103580976995e+00 1.9752542049638244e+00 0 -1 1
4379 1 1.5660855316212652e+01 1.5935233641102934e+01 3.5228669174573346e+00 1 1 1
451 1 1.5043487462490599e+01 4.3043841605679818e+00 3.6246566534407711e+00 0 -1 0
4441 1 2.0447934482449357e+00 7.4958689436959969e-01 4.3564558185260980e+00 0 0 1
2883 1 2.6278074182902325e+00 6.6586000777035794e+00 2.2277471915152827e+00 2 1 1
3711 1 1.7267583404463600e+00 9.2409886583793259e+00 1.2528609876138894e+00 1 0 0
2622 1 1.5239002525708045e+01 8.5693625122185468e-01 9.7218022336285381e-01 2 0 1
3723 1 1.5476019083173057e+01 9.9292463865415925e+00 2.5741623731861560e+00 1 1 0
4382 1 5.9446450244030400e+00 4.5834311292690000e+00 4.0356048812928318e+00 0 2 1
267 1 6.9944810297943265e+00 7.0884470520644189e+00 3.6909394044121488e+00 1 -1 0
3812 1 5.2081099373162525e+00 9.1354830118356087e+00 3.9173475750832565e+00 0 -1 0
5936 1 1.2050116513695595e+01 8.3243709358002089e+00 2.5919913416832232e+00 2 1 1
6077 1 1.3376182876089018e+01 5.4764965879499874e+00 1.6092740012869524e+00 -1 1 1
2631 1 9.3536889053007428e+00 4.1569388584033989e-01 1.6008779753461151e+00 -1 1 1
4239 1 1.3334789198232714e+01 2.2111018323558254e+00 2.6430427430386003e+00 0 2 1
2823 1 1.4707005441111873e+01 2.3276874836312942e+00 1.0026007457444241e+01 0 1 1
4512 1 3.8300436846081903e-01 1.6288545367068576e+01 7.8114134197758283e+00 2 1 0
1207 1 1.3987817437854195e+01 8.6229534359936828e+00 4.6889317476411216e+00 0 1 1
1995 1 8.6588664981595009e+00 1.1667973703932216e+01 4.5182202277251129e+00 0 2 0
380 1 1.2891197668416536e+01 1.2179267517299486e+01 1.5636481141992069e+00 0 -2 0
5114 1 8.0203125194163007e+00 2.7021074555466718e+00 8.8823403036054915e-01 0 0 0
6026 1 2.0927771458042437e+00 1.2833685519027568e+01 1.9756092321066558e+00 1 1 1
5985 1 4.2199497631464320e+00 1.3215504042262324e+01 3.7454756637342888e+00 0 2 1
4151 1 5.4203621743481980e+00 1.5526859911543953e+01 2.8911020972733765e+00 1 0 1
2915 1 8.1034652447003559e+00 1.5176626913174482e+01 2.7208288408770089e+00 0 0 1
1961 1 9.3430990694888916e+00 1.6513617177804935e+01 6.7963349205853998e+00 0 0 0
2085 1 6.9490141703935260e-01 1.8285141906256353e+01 3.9626947394126901e+00 1 1 0
4531 1 1.3035400003721620e+01 1.6077852202319093e+01 3.4763295631454927e+00 0 1 1
3591 1 1.1715070197256951e+01 1.4506689061360427e+00 6.6900066947829695e-01 1 0 0
309 1 1.6051365202074830e+01 1.6235306259512054e+01 9.4817834105401424e+00 0 -1 0
421 1 5.2086826746450248e+00 1.7953295071793605e+01 4.3108507981328517e+00 1 0 0
5916 1 4.7953712194932159e+00 2.0914070223996003e+01 5.1388780470164193e+00 1 1 1
4396 1 8.8736415750870563e+00 1.7558719912833286e+01 1.8780194898546942e+00 0 0 1
780 1 6.2340188969826063e+00 1.9436251359062204e+01 2.1621681465141451e+00 0 0 1
390 1 9.4659704405597314e+00 2.1013694008375719e+01 6.6989996729861874e+00 0 0 0
5112 1 1.0901328232762710e+01 1.8970279989091484e+01 3.6158707420458831e+00 1 0 1
6196 1 1.0957688620149920e+01 1.8669397652980127e+01 6.1916455332325580e+00 -2 1 1
418 1 1.3542901175838187e+01 1.8999276538338425e+01 3.2981709894507292e+00 0 0 0
4384 1 1.2373450051168937e+00 1.9470236693912760e+01 1.5662891510971988e+00 1 0 1
4224 1 6.5985899291255956e-01 2.0755817725368267e+01 5.0360867253519466e+00 1 0 1
5531 1 1.3664362913361101e+01 1.8206606180893552e+01 7.9382250460028230e+00 1 1 0
335 1 1.4629028288620422e+01 2.2883090154236303e+01 8.2671086666264522e+00 0 1 0
4598 1 1.5276209574742371e+01 2.0439659818608973e+01 9.6107565999390694e+00 0 1 1
2503 1 6.6162887177755598e+00 2.2253874920992221e+01 3.1225359769551582e+00 0 0 1
4330 1 1.6067208722196298e+01 4.4776987255852507e+00 8.2604343250020005e+00 -1 0 1
1018 1 6.3358778291597373e+00 9.9847782120550943e-01 5.3369591840291442e+00 0 1 1
1174 1 1.1246461512530438e+01 2.4068561740328843e+01 1.1370424311217993e+01 0 0 0
2794 1 1.6239511833688763e+01 1.5229642194800268e+01 6.2589049525753158e+00 0 0 1
5440 1 1.3540129136892459e+01 2.1653230397992960e+01 2.3313387503730327e+00 1 1 0
246 1 1.0177724428944851e+01 8.9339261269220316e+00 1.1630109649848693e+01 -1 0 0
3452 1 1.6051496332310254e+01 2.1901737126605489e+01 2.6270723917736283e+00 -1 0 0
6050 1 2.8910689816432553e+00 1.6476821092028786e+00 6.8105745020081550e+00 1 1 1
5456 1 1.8960462197355052e+00 1.6812544677591855e+01 3.9544812976640825e-01 1 -1 0
2565 1 8.2645462998075203e+00 3.2719550826700603e+00 5.4301987923980164e+00 1 -1 1
882 1 1.2942067369583611e+01 1.4986405874416528e+01 1.0865679338948606e+00 0 1 1
488 1 1.0538132400828225e+01 3.1182141511881407e+00 3.4996530673123996e+00 0 0 0
4481 1 8.4707457182456771e+00 4.3686412212037933e+00 7.7941331363614612e+00 1 0 1
2470 1 1.2333770849948097e+01 2.5021160841049341e+00 8.3977395536428432e+00 0 1 1
1916 1 2.3742907876186075e+00 4.1192725347553178e+00 6.8397013879265067e+00 1 0 0
1719 1 3.5670443401247556e+00 5.6986260593059379e+00 4.7099420763682804e+00 0 1 0
5901 1 6.4910703318134679e+00 5.7969541936338711e+00 6.8856597464332783e+00 1 -2 1
383 1 8.8600327339396507e+00 8.2127191955294627e+00 7.5064509666271189e+00 0 -1 0
1113 1 9.9657430912083811e+00 9.5548558618121771e+00 5.5095065494002959e+00 -2 0 1
5839 1 1.0626948734802108e+01 3.0811099509945632e+00 1.0259292328057127e+01 1 1 0
918 1 1.2376965305415023e+01 3.6060160210081746e+00 5.6894983673994686e+00 0 0 1
762 1 4.2478159435900036e+00 5.4979839906136849e+00 4.9621418188303135e-01 -2 0 1
4589 1 3.6274589757608107e+00 7.9679063055126678e+00 5.9361979869189003e+00 0 1 0
4548 1 2.1507792536241586e+00 1.1893003295607819e+01 8.0663349441118211e+00 1 0 1
5249 1 1.7239510697464806e+00 9.8454990593849736e+00 6.1929598787921583e+00 1 1 1
4517 1 6.0264370149472448e+00 1.1506680832329200e+01 4.9912005414166449e+00 0 0 1
80 1 5.6395300875355048e+00 8.3038188161623445e+00 7.8970101449387515e+00 0 0 1
2859 1 3.9276487912518085e+00 1.0485508689624154e+01 9.7978400666505436e+00 1 2 1
1001 1 1.1554865501990452e+01 1.1541097538737734e+01 6.9429561094705710e+00 0 1 1
363 1 5.7361902639473286e+00 1.1610928807540958e+01 7.6236029586133292e+00 -1 1 0
1041 1 1.4410255771692730e+00 1.0807566680634837e+00 8.8199492986249144e+00 1 0 1
2725 1 1.3493485700108046e+01 1.1812341808381762e+01 4.3697168976115499e+00 2 1 1
1197 1 2.9698764768086834e+00 2.4458890088671797e+01 6.2000976634843532e+00 0 1 1
329 1 2.6098016049157344e+00 1.4431822277828013e+01 5.4681255902230212e+00 1 1 0
6013 1 4.5655360620010583e+00 9.7475066294499459e+00 1.2120425695245247e+00 0 -1 1
6081 1 2.6081029421980864e+00 1.4976393062995394e+01 8.3617209341938015e+00 1 1 1
915 1 6.1054556878909789e+00 1.4436253052379854e+01 9.2010829237197012e+00 -1 1 1
176 1 1.1558674000863599e+01 1.4086158454665256e+01 9.5181730864294583e+00 -1 1 0
4336 1 7.8798478675318400e+00 1.5088630711649170e+01 1.1070434058371823e+01 -1 0 1
5551 1 9.5369705119439292e+00 1.4049664682591759e+01 4.9753659171032325e+00 1 0 0
1760 1 8.4203957038562987e+00 2.0482021029812540e+01 5.2582857051258747e-01 0 2 0
3663 1 1.2220962753790484e+01 1.4371597658802919e+01 5.4334755893739795e+00 -1 1 1
3489 1 2.8950541979157340e+00 1.7079579412042577e+01 5.0657900254287531e+00 0 0 0
5908 1 2.6465594906239307e+00 2.1171642020379256e+01 7.2309399040158899e+00 1 -2 0
4409 1 2.6414531591196013e+00 1.8563869492319498e+01 7.7797736923247385e+00 0 0 1
73 1 6.9935652651089439e+00 1.7758311800851192e+01 6.4175154118693776e+00 0 0 0
4584 1 1.3576343532459845e+01 1.5373169331063329e+01 8.0164299400100383e+00 1 0 0
2925 1 7.2306022905809071e+00 2.0123868587340997e+01 7.3388477647285768e+00 0 -1 1
5121 1 1.2580273741991128e+01 2.1808935989916822e+01 6.3745496922364184e+00 0 1 1
5902 1 1.4522530389697110e+01 1.9828524747277623e+01 5.7688266914947990e+00 2 2 1
5458 1 1.7248968053077025e+00 2.3193607874362485e+01 3.7913173456957812e+00 0 -2 0
2635 1 9.3085521136306841e+00 6.1826418334494937e+00 1.0064083786160161e+01 0 0 1
5825 1 4.2923975927132556e+00 2.3249565047766492e+01 8.8314657237405907e+00 0 1 1
982 1 6.6089465072750881e+00 2.3174585433518825e+01 7.3484676632196342e+00 0 0 0
2762 1 9.1320833785040278e+00 1.1411817941428396e+01 1.6251287156859209e+00 0 1 1
791 1 9.1066333767590084e+00 2.2587522160451961e+01 4.4052066880192431e+00 2 0 1
2849 1 7.8710087896494851e+00 4.3959636052808495e+00 1.1756579074264824e+01 0 -1 1
2144 1 1.2282529722783234e+01 2.0478901861078860e+01 9.8158203018732326e+00 0 0 0
3765 1 1.2846660996971396e+01 2.3799762171246449e+01 4.1113600234954371e+00 -1 0 0
2450 1 1.1513494219945436e+01 9.9575749279634937e+00 6.0984044592495468e-01 0 1 1
2800 1 8.9788745170247299e+00 1.9808522985699668e+01 1.2039348660198927e+01 0 0 1
86 1 1.0430064669384473e+01 2.1542905197148343e+01 2.3844606005131950e+00 -1 1 0
2906 1 6.5949260278364283e+00 2.9436460958332522e+00 9.4701749564444437e+00 0 1 1
1083 1 4.5858987568349994e+00 1.4483158098182200e+01 1.1525777651457814e+01 1 0 1
863 1 1.0630655861712874e+01 5.7702035003542083e+00 6.2787660517040962e+00 1 1 1
4277 1 1.4076344888833811e+01 8.0749526781665504e-01 5.4831795226343392e+00 -1 0 1
430 1 7.8220066092776195e+00 1.0566143530077419e+01 1.1785964284968456e+01 0 1 0
3741 1 1.4215033615780859e+01 6.2762684938907629e+00 9.2459929846535527e+00 -2 1 0
1119 1 1.4194384756461995e+00 2.2297244614756632e+01 9.7111275738198248e+00 1 0 1
2068 1 2.3414932581862069e+00 3.7273714158212119e+00 1.0072240054601837e+01 0 1 0
1013 1 4.5193176528851708e+00 4.7015771703294256e+00 8.8792987473573675e+00 0 0 1
3692 1 8.6460379368958584e+00 1.3677253352805925e+01 5.2139031788418366e-01 0 0 0
3761 1 1.2149446991214569e+01 5.5238716756318196e+00 1.1005647830390371e+01 0 0 0
2479 1 1.0786846797668479e+01 1.8277880831753642e+01 1.1203394088536058e+01 -1 1 0
3755 1 1.5685148918337491e+01 6.0613949356652181e+00 1.2116437736640400e+01 -1 1 0
835 1 1.2822107188449515e+01 7.4216414794960297e+00 7.2052469437279090e+00 1 0 1
2869 1 5.4852616612898277e+00 9.3126795037532062e-01 7.5261533837799028e+00 1 2 1
949 1 2.4151916829378233e+00 8.0906310799639201e+00 1.0617459350683248e+01 0 0 1
2711 1 4.8630903707277229e+00 6.8551652449877754e+00 1.0387030396284269e+01 0 0 1
4109 1 5.0090552567171587e+00 1.1278132664409881e+01 1.2022225557520018e+01 1 0 0
6271 1 1.1492723887494046e+01 1.3387923427151946e+01 1.1868646584472623e+01 -1 0 1
1189 1 8.0061308623091580e+00 1.0671053626907268e+01 8.8892153687404694e+00 1 0 1
2833 1 9.5232819161541400e+00 1.2689743724489379e+01 7.9077471498895289e+00 -1 1 1
227 1 1.4897434609250316e+01 5.3945749158903196e+00 5.7922240431575691e+00 1 0 0
2003 1 1.1515932143399993e+01 9.3986670319008194e+00 8.9204176000708291e+00 1 0 0
4318 1 1.5869304353761205e+01 2.3047443987726012e+01 1.1166855398315981e+01 1 0 1
2701 1 4.4299706941596719e+00 8.8536433118439417e-01 2.9911080400467607e+00 2 0 1
2481 1 6.2647691277578028e+00 2.2393301441068907e+01 1.0867336044250528e+01 -1 0 1
3661 1 6.7164322945227335e+00 7.4267848421457989e+00 7.9813308821885287e-01 0 1 0
3505 1 2.2996489707748822e+00 1.5893177872595038e+01 1.1015757402070134e+01 1 0 0
4196 1 1.0819254004612116e+01 2.3275199599799741e+01 8.4439192457513919e+00 0 -1 0
3818 1 9.9047243671711467e+00 1.5995693996134886e+01 9.4884320683214494e+00 1 -1 0
2443 1 1.4197871653146292e+01 1.2584906248260051e+01 7.6651648311703893e+00 0 2 1
978 1 1.3810157154179260e+01 1.0677553441630987e+01 9.7923818189412923e+00 0 1 1
4150 1 3.1794204990655635e+00 2.1136124904007357e+01 2.6882177139918784e+00 0 1 0
4458 1 1.4758812819728398e+01 7.9429984930463755e+00 7.5147102322450843e-01 -1 0 1
2444 1 2.9861100290172380e+00 1.8728673668019940e+01 1.1019690429433743e+01 1 -1 1
125 1 5.5788838535995362e+00 1.9412765994378017e+01 9.6041455988034965e+00 0 0 1
2456 1 5.1676301847157111e+00 1.6893162894126700e+01 8.3465507207461158e+00 0 -2 0
2827 1 8.9344429138850057e+00 2.1703597984384039e+01 1.0182606034720571e+01 1 1 1
2860 1 1.5419432355154591e+01 1.8351472211140248e+01 1.2745269653477724e+00 -1 0 1
6141 1 1.5709753945359038e+01 8.5847448076895105e+00 9.7712930443994956e+00 -1 -1 1
5807 1 1.6026789860367831e+01 1.2518709629506915e+01 9.4115251591363047e-01 0 0 1
957 1 2.5349641396686842e+00 2.3430399090243320e+01 1.2055590108634965e+01 -1 -1 1
5476 1 7.1938957053233636e+00 1.7827380317785579e+01 1.1510011307192052e+01 0 0 0
281 1 5.7731668649514409e+00 6.0438978042093383e-01 1.1213488958206247e+01 2 1 0
2568 1 1.6485557036464471e+01 1.1830646937119884e+01 1.1523632900536077e+01 -1 0 1
5372 1 1.6446693022268814e+01 2.2238511976100064e+00 6.6157257595433077e+00 1 0 0
192 1 3.3290512695802477e-01 1.4736089457595817e+01 1.3857802058776643e+00 0 1 0
3632 1 6.0429370653551850e-01 2.4469026419824459e+01 8.4496502012871808e+00 0 0 1
745 1 1.3646660997504474e+01 1.1549823146785680e+01 1.2184036217252133e+01 0 0 1
2009 1 1.5049953268356287e+01 1.6786948708882910e+01 1.2194621659524911e+01 0 1 0
5453 1 4.5451172840930036e+00 1.6104630218763653e+01 4.1866916765137319e-01 0 0 0
276 1 4.1006392963491294e+00 2.2500763960203980e+01 4.0563654206046351e-01 0 1 0
2007 1 5.7419216199130139e+00 1.6494711903071311e+00 1.3942614952411287e+01 0 1 0
3612 1 1.2409240595116588e+01 1.7828902240005061e+01 1.3068335834639498e+01 1 1 0
3638 1 8.8391581238326822e-01 1.0118219253362676e+01 1.5977408252886612e+01 1 2 1
2023 1 4.2819591791435823e+00 1.9499625194934929e+01 1.3496135946302394e+01 1 0 0
5115 1 5.4202983902342279e+00 1.5791852874626988e+01 2.1145489062507014e+01 1 1 0
4328 1 1.0407334782655076e+01 8.8773244104329718e-01 1.2426837962057537e+01 -1 0 1
216 1 9.3030045101653496e+00 3.1719703571788354e+00 1.5979817858747786e+01 -1 0 0
4515 1 8.8402234766017127e+00 1.2866888343495006e+01 1.2272933449739337e+01 -1 2 0
943 1 3.9719720933189842e+00 1.3109585386955064e+01 2.1966206895560738e+01 1 0 0
3536 1 1.3520204229402720e+01 3.4896012938561514e+00 1.2575880321091756e+01 1 1 1
2142 1 2.4476609429277514e+00 4.0485533035112393e+00 1.2754980317625161e+01 1 0 0
466 1 4.3402223662344150e+00 5.2619375936402504e+00 1.4329581911228274e+01 1 0 0
2184 1 1.2745234873786661e+01 2.1567538425316108e+01 1.2266445073538950e+01 -1 0 0
2156 1 8.2600897397774062e+00 2.1771983499306788e+00 1.3897001555216510e+01 0 1 0
2683 1 1.0100793830708236e+01 5.2620039031491288e+00 1.3919251103314961e+01 1 1 1
2858 1 1.2722297697700411e+01 5.1981060060995103e+00 1.4448128454568602e+01 0 1 1
5180 1 1.3980633676513996e+01 7.2616674947263844e+00 1.3754143476541847e+01 0 0 0
1913 1 4.0618023902200253e+00 1.6157168716508146e+01 2.3959448113523443e+01 2 1 0
2585 1 2.4454551505268549e+00 1.0156441158986430e+01 1.3148523890061323e+01 1 0 1
4235 1 4.7981838714995978e-01 1.1717472880288902e+01 1.2389563468173911e+01 0 1 1
4316 1 1.5803580051418340e+01 1.6166154384425120e+01 1.6415247537588339e+01 0 -1 1
15 1 6.8484660904523373e+00 8.4384881850436049e+00 1.3722975267289064e+01 0 1 0
4349 1 9.5993315113899822e+00 8.0135177456136688e+00 1.4005665314446254e+01 2 1 1
5811 1 1.2640812879960322e+01 9.4269692528335547e+00 1.3399419224043720e+01 1 1 1
230 1 1.2594939730461968e+01 1.6359126917187584e+01 1.7555550633113768e+01 0 0 0
5407 1 3.1751681465823336e+00 1.4942856803276838e+01 1.5363188000363261e+01 2 0 0
937 1 1.4156985476515807e+00 1.6540331157710420e+00 2.1486395451168949e+01 2 0 1
3712 1 6.5892296140033944e+00 1.3662723200058029e+01 1.5813172507656713e+01 -1 0 0
4571 1 5.5495702940719491e+00 1.5381747306425272e+01 1.3988656363047410e+01 1 1 1
1130 1 9.0350359870671397e+00 1.2723496463387049e+01 1.5068012987591347e+01 0 0 1
3437 1 9.3341759042819685e+00 1.5799905435266622e+01 1.4768461327994125e+01 0 0 0
4492 1 1.5245458615512629e+01 1.1269789626230439e+01 1.9514069067042644e+01 0 0 1
425 1 1.2703120136271131e+00 1.1421975797034147e+01 2.3451847006818319e+01 1 0 0
6016 1 1.7455220771353988e+00 7.2386036571268528e+00 1.3328170690497567e+01 1 0 1
2781 1 2.8935585871345300e+00 1.7085194307078869e+01 1.6992115792420659e+01 0 0 1
3455 1 6.2511193747484448e+00 1.8997431146376400e+01 1.5747674548060676e+01 -1 1 0
6278 1 1.5102278569569847e+01 2.0956248410713336e+01 2.1369775827445000e+01 0 -1 0
1228 1 2.2991691038913662e+00 1.9502259719862664e+01 1.5322698053850841e+01 0 0 1
3847 1 1.2016890615489354e+01 1.8689015872149568e+01 1.5786856569323790e+01 -1 0 0
3827 1 9.8126618589410146e+00 1.6996929460298016e+01 1.7808815277997297e+01 -1 0 0
5119 1 1.5445871890494251e+01 1.4102347681522565e+01 1.3073688845601117e+01 -1 1 0
4519 1 9.8069512268267562e+00 8.9933648508789048e+00 2.3425664185318997e+01 0 1 1
4369 1 3.6477848907829608e-01 1.5056450195457071e+01 1.8483308567837639e+01 0 3 1
1869 1 2.7933004934105869e+00 1.5336559830600700e+00 1.3848258181587937e+01 0 2 0
3649 1 1.4791500487398290e+01 1.8929771569376502e+01 1.5956690860758350e+01 0 -1 0
3389 1 2.7519290815906756e+00 2.4163311438105232e+01 2.3731373893266273e+01 3 -1 0
839 1 3.1312434135273213e+00 2.1946331898038206e+01 1.6411273761819388e+01 0 -1 0
5188 1 7.0911904302575159e+00 2.3415142145083735e+01 1.5247658173173614e+01 1 -1 0
5399 1 1.0779122825418204e+01 2.0847831503908893e+01 1.4012294540139697e+01 0 -1 0
484 1 9.6244072877036100e+00 2.3936431271125020e+01 1.3981765754569830e+01 0 0 0
5555 1 1.2766699492944401e+01 1.1416044486258479e+00 1.3938548451958260e+01 1 0 0
1037 1 6.0332621620009013e+00 1.1839306547048416e+00 2.3516555685570541e+01 1 1 1
16 1 1.5639675148184105e+01 1.1169380036267253e+01 1.4740405514204417e+01 -1 -1 0
179 1 3.1521652172254875e+00 2.5292130784234663e+00 1.8278953526704040e+01 0 1 0
3779 1 7.4705421708749338e+00 3.7728056666220122e+00 2.1624517293572573e+01 -1 0 0
3676 1 1.4873261767381416e+01 4.4873753326244108e+00 2.3850790646762572e+01 0 2 0
2820 1 6.1372170024109538e+00 1.5766287639583862e+00 2.0208454788242530e+01 0 1 1
1738 1 7.2509883095456553e+00 2.2810602388165355e+00 1.7547250527660520e+01 0 0 1
2905 1 1.1147141249316750e+01 8.4591867177912039e-01 1.6272489861967909e+01 0 1 1
5252 1 1.4454343885854557e+01 2.1001989952347015e+00 1.5981661121912490e+01 1 -1 0
6036 1 4.8954577752393407e+00 2.2518382195268487e+01 1.9516177649782147e+01 1 0 1
4467 1 4.5211325229695207e+00 7.2388496895955319e+00 1.6875593367826045e+01 -1 2 1
4360 1 2.8127655709614157e+00 6.2776304938154528e+00 2.0675416510443061e+01 0 0 1
2727 1 4.8137253197734005e+00 3.2491484362117284e+00 1.6268919794920897e+01 1 1 1
3677 1 7.9892335717719174e+00 5.2293869104550437e+00 1.8467092397364482e+01 1 2 0
792 1 1.0960678561035140e+01 5.8180067421817299e+00 1.8079808624191632e+01 0 0 1
5865 1 1.4710615085930909e+01 7.3673597022018180e+00 1.8208605996472020e+01 0 -1 1
5850 1 1.3018717003110224e+01 4.1115725262030445e+00 1.6994355102130591e+01 1 0 0
4337 1 2.8387467762411536e+00 1.2573766669087783e+01 1.6711418443937660e+01 1 0 0
5242 1 1.8530443136794561e+00 7.5149078802921760e+00 1.6091369938186531e+01 0 0 0
4504 1 1.6150540629518466e+00 9.6393208497967411e+00 1.9097126364139413e+01 0 1 1
2830 1 4.6777553799131004e+00 9.6028776456476042e+00 1.5051362829719649e+01 1 0 1
4457 1 7.2860574416523507e+00 7.4749695005301824e+00 1.6634663802616380e+01 1 1 1
20 1 4.8013552288090535e+00 7.8323282836172332e+00 1.9386168505341629e+01 -1 0 0
126 1 8.3065679912934574e+00 9.1725118908888437e+00 1.8600786259237342e+01 1 0 0
3398 1 1.2359881387205293e+01 8.2718642116284897e+00 1.8439912909748198e+01 0 -1 1
14 1 1.3684386913145920e+01 1.1998979448409642e+01 1.6856632523131207e+01 0 1 0
3543 1 1.2230656739701811e+01 1.0013329999526665e+01 1.6075209577595061e+01 0 1 1
6228 1 2.4652055453964041e+00 2.3901436095731246e+01 1.4675935719202325e+01 -1 0 1
1172 1 5.3574471346626247e+00 1.1745743964981388e+01 1.6483880233504440e+01 2 0 1
1231 1 7.7030693155155143e+00 1.4945995249250281e+01 1.7975559338580659e+01 0 1 0
2614 1 9.6831514903830129e+00 9.9904830836275504e+00 1.6121751712298746e+01 1 2 1
2647 1 1.1075088260855996e+01 1.3340427895673669e+01 1.6986991142265691e+01 0 0 0
3457 1 1.3843895590243440e+01 1.4446893182026301e+01 1.5130538705887556e+01 0 -1 0
1219 1 3.0305162083477728e+00 1.6294242684068507e+01 1.9760806967549438e+01 0 0 0
2559 1 1.4229943869743440e+00 1.4688619291771548e+01 1.3281743604892771e+01 1 1 1
973 1 3.5852192180531062e-01 1.9191166971457143e+00 1.5424687256098881e+01 0 0 1
198 1 6.0233023682257887e+00 1.7233555697575909e+01 1.8184159310897247e+01 0 -1 1
345 1 9.1932751108524915e+00 2.0738481279847619e+01 2.1007798668182129e+01 0 0 0
5400 1 8.5529256565265932e+00 1.9665062162056199e+01 1.7536910188452978e+01 1 1 0
1954 1 1.3326600894018908e+01 1.9638451026634975e+01 1.9005594422084414e+01 0 -1 0
4305 1 1.5916170898050488e+01 1.8831635264546751e+01 1.8405333263537845e+01 1 2 1
2526 1 1.6313311478071100e+01 8.8606482375623621e+00 1.9622663279345737e+01 0 0 1
1985 1 9.9397376017844703e+00 1.5300739121137747e+01 2.3706744204451709e+01 0 1 0
4143 1 6.8288191237275129e+00 1.9401900189852224e+01 2.0109144487818362e+01 0 0 1
6134 1 5.9881698495335298e+00 2.1596135107394126e+01 1.6947759440747394e+01 -1 0 1
6288 1 9.1515381902813893e+00 2.3904761397084830e+01 1.7917303033520419e+01 0 1 0
5454 1 1.6238679883940261e+01 1.9327617063999661e+01 2.4021966798519472e+01 -1 0 0
5332 1 1.0449147944774534e+01 2.1762752705668166e+01 1.6817258802178227e+01 0 -1 1
3630 1 1.2683550382866343e+01 2.2154157876525897e+01 1.8316864357085556e+01 0 0 0
5553 1 1.4784356295306427e+01 2.3335014056823098e+01 1.6676341436028391e+01 0 -1 0
5094 1 3.5816741405590374e-01 1.1310207506006920e+01 2.0796178757556671e+01 -1 0 0
929 1 6.1351266522873047e+00 6.3553259656749574e+00 1.2667336483474935e+01 0 0 1
6175 1 3.8127957547660678e+00 3.3510077411221451e+00 2.1098577424039551e+01 1 0 0
5099 1 4.0676492238919360e-01 3.4190865570096309e+00 1.7894622110035865e+01 0 0 0
104 1 1.1646477369950647e+01 1.5243677450581753e+01 1.3745105717097312e+01 1 0 1
3593 1 2.2419916871535537e+00 1.4022923921001331e+01 2.3986240202911056e+01 0 0 0
1812 1 1.9609355067675613e+00 2.1840013293297449e+01 1.9269699935938402e+01 -1 0 0
2469 1 1.0352961735098106e+01 3.6322916807245171e+00 2.1020915590232210e+01 -1 1 1
5131 1 1.1822836878626809e+01 2.2085275861315732e+00 1.9154929813408764e+01 0 0 1
2637 1 1.4533806526378283e+01 2.0024045795229748e+00 1.9968382504678981e+01 0 0 1
1086 1 1.4117964799459331e+01 1.9766071189624048e+00 2.2805965082468131e+01 0 0 1
742 1 4.8020011577140682e+00 2.2461515213024544e+01 2.4035552101928538e+01 0 2 0
4408 1 2.8837599351907928e+00 7.0251319984081597e+00 2.3589303484183318e+01 -1 1 1
2429 1 9.1567407473078095e+00 2.3444425929571256e+01 2.0429065374993520e+01 0 0 0
5108 1 6.6282530557977015e+00 6.2618261365468699e+00 2.1245546917744150e+01 0 1 1
6041 1 1.6280726126547613e+01 4.0722496312475052e+00 1.4960939572301056e+01 1 1 1
5286 1 4.2373810577427378e+00 3.0607357536485233e+00 2.3788271462172329e+01 1 1 0
980 1 1.1368784679893775e+01 6.0461809090767451e+00 2.0944657972230299e+01 1 -1 1
5463 1 8.9481137962346846e+00 7.8769341333967651e+00 2.0802319397982394e+01 -1 1 0
3451 1 1.5660800548558221e+01 1.7678926134234786e+01 2.1126165890976125e+01 1 1 0
243 1 1.4253440921989053e+01 5.7241742681542007e+00 2.1406251108359307e+01 1 0 0
5548 1 1.4917803816185879e+01 5.0091847357446246e+00 1.9014270190377388e+01 0 0 0
2739 1 1.1940883691010603e+01 7.5433609358777201e+00 2.3457317558736968e+01 0 1 1
5475 1 4.1015538008026802e+00 1.0319975800746482e+01 2.0438316404290127e+01 0 1 0
275 1 8.8307362265812728e+00 1.1484257263036211e+01 2.3356093759117837e+01 0 1 0
4422 1 9.2877772148970159e+00 1.1387835817390352e+01 2.0832569105496329e+01 1 0 1
3737 1 1.3584221241031937e+01 9.5900007439195036e+00 2.2635272267336340e+01 0 1 0
1223 1 1.2024106095607729e+01 1.0373104067398161e+01 2.0362565871078971e+01 -1 2 1
1112 1 1.5631377863746447e+01 8.1175315698367605e+00 2.2007223911901264e+01 1 0 1
5223 1 6.4877048576842498e+00 1.2687698153472812e+01 2.3364727468859858e+01 1 0 1
5459 1 7.4000961788763435e+00 1.7195385002271792e+01 1.4022268899708230e+01 0 1 0
4271 1 2.2674306384045799e+00 1.3087166222301860e+01 1.9625523595974137e+01 0 1 1
2020 1 6.1588166978040295e+00 1.1125312496170652e+01 1.8914490205619398e+01 1 2 0
5124 1 7.0240436775515942e+00 1.3189234764241565e+01 2.0242895942368797e+01 0 1 1
2593 1 1.0465007036339783e+01 1.3639611388329270e+01 1.9637335917305453e+01 1 1 1
3379 1 9.6019576040670795e+00 1.5977003812867741e+01 2.1056507675712290e+01 1 0 1
3607 1 1.4670591424561197e+01 1.3843791530903983e+01 2.2668356491005763e+01 -1 -2 1
5499 1 1.3291026517705578e+01 1.4472304195560202e+01 2.0346026369916260e+01 -1 1 0
6095 1 8.9053829797346253e+00 2.3263150232184373e+01 2.3874329995577199e+01 1 -1 0
6178 1 1.1411628362073631e+00 1.7453316088004858e+01 2.1289894710274542e+01 0 1 1
3472 1 4.9676465330788373e+00 2.0646765449831793e+01 2.1999015884848241e+01 2 1 1
3696 1 1.6022705855251235e+01 7.2642362948256061e+00 1.5504806021492735e+01 0 -1 0
437 1 7.4125737350954140e+00 1.7726036341193836e+01 2.2097570276226985e+01 -1 0 0
1843 1 2.4934401575212921e+00 2.4061250717587832e+01 2.0883462504588913e+01 0 -1 0
2100 1 2.3362634917986482e+00 2.0203909377419240e+01 2.1427864001515022e+01 0 -1 0
480 1 1.1021305711576721e+01 1.8461205844234900e+01 2.0436452329225951e+01 0 0 0
3803 1 1.1845893750289674e+01 1.9591343717629201e+01 2.3550334403962356e+01 0 0 0
1768 1 1.3393706515696783e+01 2.3160934225832911e+01 2.1134127096690694e+01 0 1 0
6171 1 1.3221531825699408e+01 1.6990005848632659e+01 2.1478510940474877e+01 1 -1 1
5986 1 3.4202576586866322e+00 9.7822513665726074e+00 2.3200114596426413e+01 0 0 1
5935 1 9.1275582949849827e+00 2.0421409530178327e+01 2.3784002214134535e+01 0 1 1
771 1 1.5831929185940188e+01 1.4425070357387947e+01 1.8490136348886889e+01 1 0 1
994 1 1.6291343843000707e+01 2.2076770000330821e+01 1.8301345207890552e+01 3 0 0
5873 1 1.3554367883598891e+01 2.3396357464804574e+01 2.3852815054324644e+01 0 0 1
1121 1 1.1179391536386770e+01 2.2909902402161118e+00 2.3476900880153753e+01 1 0 1
5102 1 1.5090701858416491e+01 2.0518086078187867e+01 1.3516245260279149e+01 2 1 1
4421 1 5.1812528124279247e+00 2.1979542392792332e+01 1.3328480190987595e+01 -1 0 1
1925 1 5.0155814666592669e+00 5.5564779909779904e+00 2.3929608605771705e+01 0 2 0
2423 1 3.6354658468030352e+00 1.8594921338135553e+01 2.3969354452965675e+01 0 0 1
2553 1 7.4377345070262679e+00 7.6307045089047305e+00 2.4024151345159574e+01 0 0 1
511 2 3.3084201629596066e-01 3.1330109088825036e+00 2.6761074338708521e+01 0 0 0
512 2 3.3084201629596066e-01 3.2949522936475617e-01 2.6761074338708521e+01 0 0 0
513 2 1.5447999154812009e+00 1.0303741492441683e+00 2.6761074338708521e+01 0 0 0
517 2 1.5447999154812009e+00 2.4321319890029773e+00 2.6761074338708521e+01 0 0 0
518 2 2.7587578146664411e+00 3.1330109088825036e+00 2.6761074338708521e+01 0 0 0
519 2 2.7587578146664411e+00 3.2949522936475617e-01 2.6761074338708521e+01 0 0 0
520 2 3.9727157138514633e+00 1.0303741492441683e+00 2.6761074338708521e+01 0 0 0
528 2 3.9727157138514633e+00 2.4321319890029773e+00 2.6761074338708521e+01 0 0 0
1970 1 1.0469147652566124e+00 2.3851251804390944e+01 3.5517486108029814e+01 0 0 -1
529 2 5.1866736130369215e+00 3.1330109088825036e+00 2.6761074338708521e+01 0 0 0
530 2 5.1866736130369215e+00 3.2949522936475617e-01 2.6761074338708521e+01 0 0 0
531 2 6.4006315122218584e+00 1.0303741492441683e+00 2.6761074338708521e+01 0 0 0
543 2 6.4006315122218584e+00 2.4321319890029773e+00 2.6761074338708521e+01 0 0 0
544 2 7.6145894114069659e+00 3.1330109088825036e+00 2.6761074338708521e+01 0 0 0
545 2 7.6145894114069659e+00 3.2949522936475617e-01 2.6761074338708521e+01 0 0 0
546 2 8.8285473105924197e+00 1.0303741492441683e+00 2.6761074338708521e+01 0 0 0
562 2 8.8285473105924197e+00 2.4321319890029773e+00 2.6761074338708521e+01 0 0 0
563 2 1.0042505209777882e+01 3.1330109088825036e+00 2.6761074338708521e+01 0 0 0
564 2 1.0042505209777882e+01 3.2949522936475617e-01 2.6761074338708521e+01 0 0 0
565 2 1.1256463108962379e+01 1.0303741492441683e+00 2.6761074338708521e+01 0 0 0
585 2 1.1256463108962379e+01 2.4321319890029773e+00 2.6761074338708521e+01 0 0 0
586 2 1.2470421008147756e+01 3.1330109088825036e+00 2.6761074338708521e+01 0 0 0
587 2 1.2470421008147756e+01 3.2949522936475617e-01 2.6761074338708521e+01 0 0 0
5080 1 1.6040642493040124e+01 6.0714647555976897e-01 2.4169217407401351e+01 -1 1 0
588 2 1.3684378907332652e+01 1.0303741492441683e+00 2.6761074338708521e+01 0 0 0
609 2 1.3684378907332652e+01 2.4321319890029773e+00 2.6761074338708521e+01 0 0 0
610 2 1.4898336806517971e+01 3.1330109088825036e+00 2.6761074338708521e+01 0 0 0
611 2 1.4898336806517971e+01 3.2949522936475617e-01 2.6761074338708521e+01 0 0 0
612 2 1.6112294705703789e+01 1.0303741492441683e+00 2.6761074338708521e+01 0 0 0
633 2 1.6112294705703789e+01 2.4321319890029773e+00 2.6761074338708521e+01 0 0 0
514 2 3.3084201629596066e-01 7.3382844281592208e+00 2.6761074338708521e+01 0 0 0
515 2 3.3084201629596066e-01 4.5347687486411985e+00 2.6761074338708521e+01 0 0 0
516 2 1.5447999154812009e+00 5.2356476685207705e+00 2.6761074338708521e+01 0 0 0
524 2 1.5447999154812009e+00 6.6374055082794294e+00 2.6761074338708521e+01 0 0 0
525 2 2.7587578146664411e+00 7.3382844281592208e+00 2.6761074338708521e+01 0 0 0
526 2 2.7587578146664411e+00 4.5347687486411985e+00 2.6761074338708521e+01 0 0 0
527 2 3.9727157138514633e+00 5.2356476685207705e+00 2.6761074338708521e+01 0 0 0
539 2 3.9727157138514633e+00 6.6374055082794294e+00 2.6761074338708521e+01 0 0 0
540 2 5.1866736130369215e+00 7.3382844281592208e+00 2.6761074338708521e+01 0 0 0
541 2 5.1866736130369215e+00 4.5347687486411985e+00 2.6761074338708521e+01 0 0 0