LAMMPS data file via write_data, version 16 Mar 2018, timestep = 6000000

6768 atoms
2 atom types

2.5863564857252896e-01 4.8961364351415867e+01 xlo xhi
2.5758279828942321e-01 4.8762053132114218e+01 ylo yhi
-7.1206603558150761e-01 6.0774066035582237e+01 zlo zhi

Masses

1 18.015
2 12.01

Atoms # atomic

2162 1 3.4106272705673595e+00 3.8911035116304253e+00 2.1723277862248995e+00 0 1 1
3543 1 1.2591751562111764e+01 2.1993961906508677e+01 1.0107028963695139e+01 -2 0 1
6422 1 7.1794805786350979e+00 1.2757590274120172e+00 2.1876010049063264e+00 -1 -2 1
6428 1 4.4869326164479011e+00 1.5505375588519774e+00 2.9171427781801573e+00 2 -2 1
5700 1 1.1159900952137104e+01 3.7396862487741789e+00 2.2361801051330517e+00 1 -1 1
3096 1 1.2179898299146926e+01 1.2968433984702532e+00 2.8653070676038062e+00 -2 -3 1
3779 1 8.5271165746214237e+00 3.4917575846672064e+00 2.9010046490348627e+00 0 0 0
3154 1 1.4700087740632735e+01 1.3109985366040491e+00 2.2346726191036788e+00 -1 -2 1
5401 1 1.0061726637972204e+00 4.2252712739957818e+00 2.8777071556839733e+00 2 -1 0
3410 1 1.5046942665828418e+01 2.1851887652718457e+01 9.1310958250818022e+00 -1 0 0
2127 1 3.2123341771673530e-01 1.1164148935954248e+01 1.0384390506432716e+01 -1 0 0
4762 1 7.5189675810980532e+00 5.9599476550942372e+00 2.0281217530756543e+00 0 0 1
78 1 5.0195856962560654e+00 6.1548124055205573e+00 2.9250037061882974e+00 1 0 1
1505 1 1.1439206119591585e+01 8.2887493324136603e+00 1.9087436907779245e+00 1 0 1
4937 1 8.8299495181604453e+00 8.1104502375955789e+00 2.9038763924466284e+00 1 0 0
390 1 5.5815238299831114e+00 2.2536274895768326e+01 -6.7109942215173068e-01 1 1 0
3054 1 1.2490383115545388e+01 6.1136519179431259e+00 2.6630705612800822e+00 0 1 1
6520 1 1.5178091059476168e+01 5.5832768867026168e+00 1.8053233448902768e+00 0 0 1
6534 1 1.9398825381648201e+00 8.8916366122480905e+00 3.3372663392309132e+00 0 -2 1
3674 1 4.2104689533050506e+00 8.6528405907051944e+00 2.2630306178846906e+00 0 1 0
1947 1 7.6560892138461734e-01 1.1136933967881447e+01 2.2077790631824445e+00 -2 0 0
3022 1 1.4449016211386223e+01 2.4224916090181889e+01 3.0464821544147420e+00 1 3 0
3455 1 5.5423767463676645e+00 1.0881294971488357e+01 3.0755648872781207e+00 1 2 0
5491 1 8.0166307324243711e+00 1.0611850758091320e+01 2.0924148425543105e+00 1 1 0
1375 1 3.9223291613316191e-01 7.0227103793037529e+00 2.0488449710916985e+00 2 1 1
5330 1 1.5817685942109227e+01 9.9582323900367022e+00 2.2400912738766969e+00 -2 0 0
8 1 1.3133055605778500e+01 1.0201865290435038e+01 2.6354264982797209e+00 1 0 0
1752 1 1.3872844336258088e+00 1.5658737956856632e+01 2.0303556492011499e+00 3 -2 0
5079 1 2.0909421756569602e+00 1.3271885054332662e+01 3.2201129080485642e+00 0 -1 0
1850 1 1.6410342153507543e+01 1.4795411647672342e+01 2.0253481511957077e+00 -1 -1 0
2326 1 1.6438966724069328e+01 1.9600917312691827e+01 2.0991006248983846e+00 1 1 1
5441 1 4.6677681057290101e+00 1.3303545368455774e+01 2.4083995159460398e+00 1 1 0
4882 1 6.2749234637768811e+00 1.5620479762520791e+01 2.6755697970640062e+00 0 2 1
6574 1 8.6620782275324455e+00 1.5243628786467733e+01 1.8019542100112353e+00 2 0 1
5547 1 9.4627311782245531e+00 1.2818936060509202e+01 3.0468453135915801e+00 2 0 0
6701 1 1.2244397314741587e+01 1.2556036812584489e+01 2.1206231667322699e+00 -1 2 1
1811 1 1.1686200985501284e+01 2.4398268432051545e+01 6.7046000685261653e+00 3 0 0
3298 1 1.3855796784499544e+01 1.5020077224206847e+01 2.8350412201459680e+00 1 1 1
1969 1 2.6704362312948939e+00 1.7963802483679647e+01 2.8603138333395721e+00 -1 1 0
1854 1 1.3489723833761396e+00 2.0528898178571691e+01 2.1999441985279402e+00 -1 -1 1
5428 1 5.1446171043896278e+00 1.8000795109247800e+01 1.8304241061918098e+00 0 1 0
4947 1 6.3775048598586377e+00 2.0020647832462885e+01 2.8993624492166914e+00 -2 2 1
3989 1 1.6192349180746973e+01 1.9260962636659528e+01 1.0203696670138564e+01 -2 -2 1
5531 1 8.9859391972669798e+00 1.9798891016269398e+01 2.1549166511980045e+00 -2 0 0
2023 1 1.0100653637807346e+01 1.7439519733844918e+01 2.8072444704485284e+00 0 -1 0
6721 1 1.2718589446628705e+01 1.7428362953956501e+01 2.0584180788967585e+00 3 2 0
4014 1 6.3229463716645484e-01 1.1292005508490268e+01 -5.7529365156719114e-01 -1 2 1
4883 1 1.3743693459831354e+01 1.9762464704084614e+01 2.8494356203620721e+00 3 2 1
3575 1 3.0246570073579648e+00 2.2417136607982769e+01 2.7762015647081273e+00 0 -3 0
551 1 5.3970770778760420e+00 2.2408330119800038e+01 2.1093461926551926e+00 2 -2 1
6385 1 8.6883759426039404e+00 1.9869084493428169e+01 9.9494774104814514e+00 -4 -2 1
145 1 1.0253849666720857e+01 2.2343679545818759e+01 3.0220196319567285e+00 2 2 0
2101 1 9.0636976686912440e+00 2.4266898727299264e+01 1.0478912145096780e+01 0 3 0
3414 1 1.2896526262481725e+01 2.2358499290777992e+01 2.1631898238196099e+00 -2 1 0
472 1 1.6085959927173082e+01 3.4343959462947433e+00 2.9645916596033901e+00 0 -1 1
3591 1 7.7609864407727596e+00 2.2332540685237621e+01 9.0517691184342031e+00 -1 -1 0
317 1 2.0321286089561479e+00 1.8769898153936504e+00 6.6415097439025432e+00 0 1 0
2320 1 4.5642216906089903e+00 1.9612760684932511e+00 5.6287059326022941e+00 0 -1 1
1372 1 5.8880130287340124e+00 4.3301347911106047e+00 6.9600168597941456e+00 -3 -2 1
179 1 9.3838345808842654e+00 1.1922644382052865e+00 6.2125282665436661e+00 0 2 0
5525 1 8.2616422802813911e+00 3.8251466875660673e+00 5.6002724648716686e+00 1 2 0
3590 1 1.2010491347361823e+01 1.4283660584927858e+00 5.6950551318712108e+00 0 3 0
1535 1 1.3543059836312723e+01 3.3654478966905317e+00 6.5423792517633199e+00 1 0 1
5436 1 5.3147670035223742e+00 2.2206598856657052e+01 1.0507444564242398e+01 1 -1 0
349 1 9.3890141068079025e-01 4.1203279058350795e+00 5.6538142992657345e+00 -2 -1 0
3225 1 2.3916047902992292e+00 6.3107420321562540e+00 6.4996677584233051e+00 0 -1 1
3841 1 4.8238810185994865e+00 6.1991811381403661e+00 5.6417173392394444e+00 2 0 0
460 1 6.4668795644739960e+00 8.3651864392318522e+00 6.3971213389374073e+00 1 0 0
5643 1 9.9861461514412788e+00 5.7993978391837864e+00 6.4018163564651971e+00 1 3 1
2072 1 1.2731357955459719e+01 5.9436602083064969e+00 5.7106177412750005e+00 -2 -1 0
1676 1 1.4197169778233313e+01 7.9185611501475321e+00 6.6276119342252082e+00 -2 -2 1
6717 1 1.1603531127935829e+00 8.7203206048253605e+00 5.9732822704411674e+00 2 -1 1
2079 1 2.9564389921829788e+00 1.0684815205528260e+01 6.4749388596325561e+00 4 3 0
3153 1 5.3530295152182727e+00 1.0885770823469830e+01 5.7011136751189015e+00 1 -2 1
3518 1 8.8721062757505464e+00 7.8625915796410961e+00 5.3128505008404217e+00 1 1 1
4763 1 1.0203265716222136e+01 1.0434180402531158e+01 6.3141387878279707e+00 -2 1 1
4699 1 1.3057100534090051e+01 1.0313146126355322e+01 5.2752344225115237e+00 -2 2 1
5348 1 2.2096135511592996e+00 1.3372196722272745e+01 5.9027642550510606e+00 1 -4 0
5611 1 3.5289076689165824e+00 1.5540786666820384e+01 6.7849530901089290e+00 0 1 1
1666 1 7.1433017354300548e+00 1.3247371027949747e+01 6.4022198649398367e+00 -3 3 0
1988 1 6.1723116328538197e+00 1.5677895629746867e+01 5.5077008837044561e+00 0 -1 0
107 1 9.7491101724562785e+00 1.2964467545865011e+01 5.6230945680647855e+00 1 -2 0
5580 1 1.0617623857005928e+01 1.5316192428291805e+01 6.4732913937236694e+00 -2 0 1
3286 1 1.4024532023803534e+01 1.2661757506394983e+01 6.3947398894907970e+00 1 2 0
6369 1 1.3083978656351432e+01 1.5077500498581051e+01 5.6505490071970561e+00 2 2 1
5475 1 2.8775237354421801e+00 1.7888169055159551e+01 5.8593578554226387e+00 1 -2 0
126 1 3.9661632784924414e+00 2.0187247251783294e+01 6.7037219638247114e+00 1 2 0
6390 1 7.5340985765124735e+00 1.7645203364197297e+01 6.3269131549961592e+00 0 1 1
2258 1 6.3261964560610870e+00 2.0052587389453109e+01 5.5998713080152509e+00 4 -3 0
4785 1 1.0006566986616987e+01 1.7725641306828336e+01 5.5700629353821833e+00 1 -2 1
6542 1 1.1738469816441652e+01 1.9785593354360159e+01 6.7006011640835919e+00 1 0 1
465 1 1.4797460257117464e+01 1.6861224976158557e+01 6.5156214730514472e+00 -1 -3 0
5032 1 1.4076129151375413e+01 1.9480282667422209e+01 5.5388510290652695e+00 0 -1 1
1594 1 6.8365573258237609e+00 1.6774356131317938e+00 -4.6353259864972252e-01 -1 -3 1
5576 1 2.9783364978064348e+00 2.2435676812109723e+01 5.7548388837222362e+00 3 1 1
3342 1 1.2099754430164589e+01 1.7564467840493140e+01 9.9487523674594129e+00 1 0 0
2117 1 1.4605903792864977e+01 1.7228851946504417e+01 8.9511772617260625e+00 1 0 1
4801 1 7.7958519737038996e+00 2.2172502509362058e+01 6.3825731066100708e+00 0 -1 1
3467 1 1.0392025612102087e+01 2.2315995340743207e+01 5.7239481880665668e+00 2 0 1
2025 1 1.1367687773054167e+01 1.9852103572492620e+01 9.0358246468609664e+00 0 2 0
3166 1 1.1296333801415292e+01 3.7277675347774442e+00 -4.3973523460984815e-01 0 -2 1
3175 1 1.5045605923320512e+01 2.1665609927788523e+01 6.3636955115904437e+00 -2 3 0
5415 1 2.1059065274336239e+00 1.6425067368597925e+00 9.3292443763522979e+00 3 0 1
2171 1 3.5382402083305364e+00 4.0376099040052447e+00 9.7347460729681359e+00 1 0 0
5003 1 7.2401276967532668e+00 1.1038697873152650e+00 9.9291524109091895e+00 1 1 1
3955 1 6.2737767899232670e+00 3.9250652708177434e+00 9.5609357583443817e+00 -1 2 1
2179 1 9.8966141217907388e+00 1.2730995179916269e+00 9.1505755817940511e+00 3 3 0
5447 1 1.0968146914575170e+01 3.4771181574139463e+00 1.0019751632595979e+01 -5 -2 0
2142 1 1.4536616245559077e+01 1.1944152657766045e+00 9.9531354477041099e+00 -3 2 0
1473 1 1.3326423408672749e+01 3.6098057582321945e+00 9.0569554354016812e+00 -1 2 1
3147 1 2.6150177980619249e+00 6.4395885638514656e+00 9.4949460425025833e+00 -1 1 1
2165 1 7.6391531412277427e+00 6.1942433347654156e+00 9.7079152758453926e+00 -2 1 0
3573 1 6.3341076465051929e+00 8.4948549965165689e+00 8.9877508831614499e+00 2 -2 0
3771 1 1.0163918715003295e+01 5.7220611158944994e+00 8.9853289520588984e+00 0 0 0
3062 1 1.1608726126727527e+01 7.9677183190589460e+00 9.8862144874042386e+00 1 1 1
1892 1 1.4994065889442494e+01 5.6010367589021035e+00 9.9050341860655617e+00 0 0 0
2155 1 1.4165264400198259e+01 7.9385064916833441e+00 9.1909647691751069e+00 2 1 0
4866 1 2.8936973457207591e+00 1.1081266700872341e+01 9.3549548918369805e+00 0 2 1
4925 1 3.9293123622198531e+00 8.7399994234931881e+00 1.0357884775067484e+01 -1 1 1
1512 1 7.9752794281464103e+00 1.0664100874973563e+01 9.5858521863398938e+00 -1 0 1
2177 1 1.0556477055057771e+01 1.0456502537980828e+01 8.9985428545410340e+00 2 0 0
4749 1 1.5424815396174150e+01 1.0360024217703304e+01 9.5348277709287501e+00 1 0 1
4767 1 1.1772060557138757e+00 1.5797852945014306e+01 1.0068152152591173e+01 1 1 1
5143 1 3.9386796782265954e+00 1.5564986488604553e+01 9.4268389675896689e+00 0 1 1
6424 1 4.7200566561611161e+00 1.2953273122567953e+01 1.0040341963869134e+01 2 2 1
318 1 7.2943344858653152e+00 1.3256041602904570e+01 8.9771632051830288e+00 1 1 0
3386 1 8.2895194054230892e+00 1.5391552979001098e+01 1.0071140143014944e+01 -1 -2 1
3273 1 1.0635627474659209e+01 1.5301751652827061e+01 9.0531023930535817e+00 0 1 1
4842 1 1.1595562836782008e+01 1.2831217815717576e+01 9.8804258822035020e+00 -2 -2 1
6367 1 1.4013811095081866e+01 1.2461983627845116e+01 8.9228582528602836e+00 0 -1 1
1967 1 1.5491303460733732e+01 1.4928112725428663e+01 9.8635919948236204e+00 0 0 0
2321 1 3.9093027808853726e+00 2.0259817452488939e+01 9.3583880836531534e+00 0 0 0
34 1 1.2908388254088214e+00 2.0406322981134107e+01 1.0219513847483697e+01 2 -2 0
3151 1 7.5527627286853170e+00 1.7841444318047422e+01 8.8479368371074418e+00 -1 3 1
4761 1 4.9546884898981860e+00 1.7970774219993466e+01 1.0377136263756721e+01 3 -2 1
3947 1 1.6241785096191673e+01 3.1005626799801549e+00 5.7238066450797120e+00 2 0 1
3858 1 1.4041701938395693e+01 2.4470252763700618e+01 5.5418089402628556e+00 -2 1 1
5398 1 1.4641482186053167e+01 1.5550471391375782e+00 -6.1069815527972471e-01 3 0 0
2287 1 4.3030152862042365e-01 2.2673054707790975e+01 6.3766697536433226e+00 0 1 1
3524 1 4.8231142125449162e+00 1.3561602383019139e+01 -4.7745882636798631e-01 -2 2 0
1434 1 1.2600614946478025e+01 1.7444775129854797e+01 -6.8767549277152362e-01 0 1 1
177 1 3.9297217442312249e+00 8.6946558962971068e+00 -2.6075757671560773e-01 1 2 0
2306 1 7.4551631269890395e+00 5.9415119617048857e+00 -6.4927413992301353e-01 0 0 1
3184 1 1.1893152097815394e+01 1.2791187126016258e+01 -6.0513200950956758e-01 1 -1 1
181 1 1.3074103485825421e+00 1.5690033586334811e+01 -6.4060858195890802e-01 0 0 0
1590 1 5.4155008333929260e+00 1.7915948929018537e+01 -6.1998858122638723e-01 -1 -1 1
2137 1 1.3106461843998265e+01 2.2161592347102765e+01 -5.1811635610270912e-01 -1 -3 1
4943 1 1.5512013809140081e+01 6.1228632906100362e+00 -7.0182857956328348e-01 -1 1 0
4841 1 3.0026990690286550e+00 3.9236469277142212e+00 1.2542736591419994e+01 -1 0 1
3463 1 4.9442866368432931e-01 3.7482384523922661e+00 1.3476774935174705e+01 4 1 1
1723 1 4.1824097148344404e+00 1.5541742565735348e+00 1.3536878250728529e+01 0 2 1
3857 1 6.6734215740967917e+00 1.3617678950757344e+00 1.2728123465589240e+01 0 0 0
3488 1 1.0685827611589334e+01 3.5601416420238063e+00 1.2590463653903999e+01 2 1 0
6715 1 8.2811585363886007e+00 3.6424396250696986e+00 1.3497896085109245e+01 0 0 1
5461 1 1.1730371074242191e+01 1.2208286117054152e+00 1.3635846891615117e+01 -2 3 0
3631 1 1.4643324990891262e+01 1.1700135612514178e+00 1.2890374129702391e+01 -2 0 0
3899 1 8.0311418614719781e+00 8.9343296946623898e+00 2.3627022763088686e+01 1 -1 0
36 1 4.7924392794770467e+00 5.7586409783784749e+00 1.3564697299274000e+01 -2 3 0
6376 1 7.2234100173293232e+00 5.8775097633370867e+00 1.2499134342875362e+01 0 -1 1
3959 1 1.1306749545391249e+01 8.2347046675393933e+00 1.2469564681290796e+01 -2 0 1
2265 1 8.5796049136637969e+00 7.8179334249549708e+00 1.3347624280368837e+01 -1 -1 0
3577 1 1.2297875533644120e+01 5.9575559100257518e+00 1.3314360930173814e+01 2 2 0
3719 1 1.4892468837454787e+01 5.9783251899555863e+00 1.2585714918993276e+01 -3 1 0
49 1 1.5961155281188169e+01 1.9299173015305822e+01 1.3114509038929988e+01 1 -4 0
6603 1 1.5659721250193950e+00 8.8226929886652439e+00 1.3635194060865985e+01 -1 -2 1
3211 1 4.0076667009962339e+00 8.5633382125755713e+00 1.2917658992569708e+01 2 0 1
5405 1 5.3898350066141827e+00 1.0763630259157535e+01 1.3478884272904866e+01 0 0 0
135 1 7.8818026376439327e+00 1.0664301086742704e+01 1.2479282400885060e+01 0 2 0
1394 1 1.2936987280276048e+01 1.0570132576116944e+01 1.3214903674072126e+01 -1 1 1
1677 1 1.5418968967680939e+01 1.0399065563246987e+01 1.2421839443269681e+01 -2 -1 0
575 1 1.9214811392579285e+00 1.3497734249394252e+01 1.3869826698760210e+01 -1 -1 1
4715 1 7.6435559935502784e-01 1.5563446138933850e+01 1.3036052953810039e+01 2 0 1
3227 1 4.5246477009643300e+00 1.3151453064183352e+01 1.2740768137616451e+01 -1 0 0
3507 1 5.8172503817876837e+00 1.5573883123062254e+01 1.3723488263133200e+01 0 2 1
5393 1 8.1647554601257362e+00 1.4971009264735278e+01 1.2730221492706940e+01 3 2 0
5407 1 9.1617985882185629e+00 1.2604526473965510e+01 1.3674517963170898e+01 2 1 0
3309 1 1.1729649419427398e+01 1.2940452566527243e+01 1.2555375483590380e+01 -1 2 0
3940 1 1.2731060101485467e+01 1.5098522490758892e+01 1.3726442352038475e+01 0 1 1
3860 1 1.5496779577412184e+01 1.4862388753080046e+01 1.2759418922643816e+01 1 0 0
4810 1 2.3117059967946383e+00 1.7831220404333898e+01 1.3749126471787301e+01 3 0 1
188 1 1.4944569169723836e+00 2.0407292281364708e+01 1.2947870462880870e+01 -2 -2 0
4887 1 4.7684142645250560e+00 1.7963841377665723e+01 1.3061522945962500e+01 0 2 1
1844 1 6.3598653960810587e+00 1.9877969496691865e+01 1.3723149602508208e+01 0 -1 0
4734 1 8.8657156444190406e+00 1.9693079911344213e+01 1.2880021097710651e+01 -1 -3 1
3722 1 9.6326555680066921e+00 1.7422991918626842e+01 1.3675137384691011e+01 4 1 0
2301 1 1.2132806340982341e+01 1.7533335303549258e+01 1.2588963582054616e+01 -1 -2 1
1540 1 1.3375025141480565e+01 1.9599659413834555e+01 1.3330562712667435e+01 -3 1 1
5433 1 9.9348700435116069e+00 1.7821356960692707e+01 2.3049908769908697e+01 -2 1 0
5149 1 2.4122974643163122e+00 2.3030993367404619e+01 1.3563868253508687e+01 -1 1 0
468 1 5.2094914494608515e+00 2.2511472798860449e+01 1.3145637187645789e+01 1 0 0
2344 1 9.7986565456465744e+00 2.1893357606359320e+01 1.3680990511523760e+01 -1 1 1
1478 1 1.4136628637735107e+01 2.4112244880452366e+01 1.6436453645894080e+01 -1 1 1
6527 1 1.2419992102480178e+01 2.2044243940049732e+01 1.2781793477085515e+01 -2 -1 1
5169 1 2.1770985406220094e+00 1.6478110410709219e+00 1.7270982348735014e+01 0 3 0
622 1 1.0524087285828938e+00 3.8758116332711197e+00 1.6370278755055907e+01 1 2 1
5404 1 2.0322436965824506e+00 1.7250066154055574e+00 2.0072652666339916e+01 2 -1 0
1937 1 4.6151748952486420e+00 1.5945069431811321e+00 1.6289102338912453e+01 1 2 0
3903 1 5.8090152346516009e+00 4.0015628089788811e+00 1.7287312821051099e+01 0 3 1
3296 1 8.2814667298004991e+00 3.7389750949600637e+00 1.6375660213320266e+01 2 2 0
3037 1 9.3021376541362155e+00 1.5109012747374888e+00 1.7378618708077390e+01 -2 -2 1
6685 1 1.2047760756385042e+01 1.1066001830350336e+00 1.6403298414264867e+01 1 3 1
2038 1 9.3643470811644125e+00 1.7769261766566362e+00 2.0067922054049642e+01 0 -1 0
4910 1 1.3656727044707260e+01 3.2539134417086379e+00 1.7190862666337129e+01 2 2 1
1673 1 1.5830526883843747e+01 3.5353483923043130e+00 1.3474642917532108e+01 -2 0 0
5314 1 2.3768339146907111e+00 6.1230591758802664e+00 1.7049564862820173e+01 -1 0 0
3255 1 2.4797121443499712e+00 6.2917358981429041e+00 1.9803224164942282e+01 0 3 1
6392 1 4.9698046533210984e+00 6.2606170247320270e+00 1.6170739468966435e+01 1 1 1
3869 1 9.5103732891782080e+00 6.2554492670860116e+00 1.6965057879899216e+01 -3 0 0
2146 1 8.5520813738947901e+00 8.3664305846792661e+00 1.6018674804372861e+01 1 -1 0
385 1 1.2199617140782598e+01 5.6667897944184675e+00 1.6121765540285082e+01 -3 1 0
4877 1 1.3858718812716962e+01 8.0002698348388819e+00 1.6865656378269392e+01 3 1 1
5121 1 1.6860765443222505e+00 8.5933034084418072e+00 1.6339690747463347e+01 1 0 0
5608 1 2.9668471096665021e+00 1.0895929426358046e+01 1.7314756761489839e+01 3 0 0
5129 1 6.2005811923039467e+00 8.5285961644077233e+00 1.7031747147047316e+01 3 0 0
3055 1 5.2533603083103610e+00 1.0786451412207787e+01 1.6141478306073331e+01 4 -1 1
1352 1 1.0447809945204940e+01 1.0444251597924790e+01 1.6909221562314819e+01 1 2 1
1335 1 1.2819470287532882e+01 1.0341418622365042e+01 1.5841938149183559e+01 -1 1 1
1950 1 2.0120310578322878e+00 1.3366334201956402e+01 1.6345674702922306e+01 1 0 0
1997 1 3.3218690407306561e+00 1.5606228862891095e+01 1.7360958295847936e+01 1 1 0
3239 1 5.7842359824620688e+00 1.5279475191178431e+01 1.6375752828595971e+01 1 -2 1
94 1 6.6846150794338657e+00 1.3000424635911431e+01 1.7080772701717933e+01 -1 0 0
4914 1 9.2044526576561676e+00 1.2872607718110968e+01 1.6555932856880155e+01 2 -3 1
6466 1 1.0533747315712311e+01 1.5388805614436915e+01 1.7119484514830543e+01 -1 0 1
1583 1 1.4177597764939753e+01 1.2468890342561672e+01 1.6924357722921858e+01 -3 0 1
6656 1 1.3181068673044178e+01 1.4981920503871295e+01 1.6375949243239702e+01 -1 0 1
1838 1 2.3144894324607006e+00 1.7871904189202123e+01 1.6364525921971964e+01 -2 1 0
3048 1 3.8195872179398416e+00 2.0133503661417198e+01 1.7296445554399099e+01 -1 3 1
3519 1 7.3859865361712966e+00 1.7678672094411706e+01 1.7215322973666154e+01 2 2 0
3794 1 6.3306426858291447e+00 2.0307888155180205e+01 1.6257793101634213e+01 0 -3 0
3275 1 6.9794635924120758e+00 1.7672736180143882e+01 1.9895401311442953e+01 0 4 1
3904 1 9.6662623307963180e+00 1.7840840582564439e+01 1.6270908076039703e+01 2 -2 0
5537 1 1.1134103307622464e+01 1.9905334294032102e+01 1.7099758525087989e+01 1 -1 1
5006 1 1.3565829221972772e+01 1.9622115643813210e+01 1.5988985521160529e+01 2 -1 0
3688 1 1.4482966510060946e+01 1.7273965514484058e+01 1.7064521724155153e+01 2 -1 0
1566 1 1.4474502934962587e+01 1.7497335399418514e+01 1.9847499310613326e+01 0 0 1
495 1 3.0552408205003236e+00 2.2404791519014349e+01 1.6116723637209759e+01 1 -1 1
3216 1 1.4038995334710442e+01 2.4082608743767697e+01 2.3556957578491620e+01 -2 0 1
605 1 7.4974835118660570e+00 2.2320736462434773e+01 1.7073913115613976e+01 0 2 1
4708 1 1.3786957137548246e+01 1.9788045599827988e+01 2.0871848114937848e+01 1 1 1
1652 1 1.0467161812479839e+01 2.2124394472887587e+01 1.6347158381955211e+01 0 -2 1
3176 1 8.9051733869752585e+00 2.4491387520925187e+01 1.3049675093649046e+01 -2 0 1
3927 1 1.5239467219204750e+01 2.1575891802159568e+01 1.7182259958601357e+01 0 2 0
1778 1 1.5029120677459598e+01 2.1776209057074432e+01 1.9636813891283545e+01 0 -1 0
594 1 2.2261744711671803e+00 8.3201256409363822e+00 2.3299275868557295e+01 1 5 1
4725 1 1.6336688827075612e+01 8.1000134048587089e+00 1.3263783605538794e+01 -4 1 1
2193 1 5.8457384947066346e+00 3.7591767406643801e+00 2.0004249038627165e+01 0 1 0
3906 1 6.4922698902419596e+00 1.9950710040691707e+01 2.3104857517355441e+01 0 2 1
6499 1 4.5380078196201792e+00 1.4702968762181834e+00 2.0635361560302968e+01 1 2 1
3462 1 8.4322120446337152e+00 4.3218463733304464e+00 2.0795034902033812e+01 1 0 0
5462 1 1.6210562110573129e+01 8.0064805064050990e+00 2.0434963706351873e+01 0 2 0
4916 1 1.1929145037543641e+01 1.5537686862596072e+00 2.0934103493393433e+01 2 2 1
5458 1 1.2647689694676844e+01 5.4125673883266208e+00 2.3444325036962166e+01 3 2 0
6630 1 2.3026750642641458e+00 1.8237870319815343e+01 2.3628648923351317e+01 3 0 1
530 1 1.3384952517628584e+01 3.5961545436553153e+00 1.9855948085310352e+01 1 0 0
3954 1 5.6960476029723273e+00 1.5655511766064334e+01 2.3802009533082174e+01 -1 -1 1
1410 1 1.1499646496300908e+01 2.4384175336610241e+01 2.3855339636838821e+01 -2 -1 1
223 1 1.0103311242760324e+00 3.9355169822607192e+00 2.0973138323064877e+01 2 -2 0
232 1 4.1259861710309442e+00 6.1893990396709722e+00 2.3549178466164065e+01 4 -3 0
6684 1 6.5258638798302684e+00 8.7022681296441053e+00 1.9879746158723250e+01 -1 -1 1
3652 1 5.1246480943194603e+00 6.2989991529263589e+00 2.0883492958974106e+01 1 1 0
4718 1 9.5927551683721362e+00 6.4373540667074494e+00 1.9658460162945172e+01 1 0 1
5264 1 8.9953088910839245e+00 8.6727180267891804e+00 2.1128077689057072e+01 1 0 0
5589 1 1.5078008652454256e+01 3.9870536847648732e+00 2.3305646308246633e+01 2 1 1
2304 1 8.6329136790667036e+00 3.9616637371903742e+00 2.3403944152324410e+01 0 2 1
1402 1 1.2120897262115681e+01 5.7788281572082889e+00 2.0760196264852031e+01 4 0 1
449 1 1.3633979455011801e+01 8.2131191534534338e+00 1.9516249007136693e+01 0 1 1
2999 1 1.6019445012820668e+01 3.4430593289100222e+00 2.0706767456647956e+01 1 2 1
4901 1 2.0217667669971724e+00 8.7636023178922695e+00 2.0803284217663293e+01 1 0 0
1927 1 3.0826497813628069e+00 1.1000077973048407e+01 2.0145431249862316e+01 1 3 0
5244 1 1.2669973108151368e+01 1.0366532893150755e+01 2.3181433760048193e+01 2 1 0
3908 1 2.6550746741287599e+00 2.2785149971446881e+01 2.0782002718894198e+01 3 1 0
2281 1 5.5846458999909405e+00 1.0912062526768931e+01 2.1141411187596869e+01 2 -1 1
2055 1 1.1245489453336395e+01 1.9753721941069383e+01 2.0047659308618307e+01 0 -1 0
1962 1 1.0456875692567584e+01 1.0697591862060642e+01 1.9635968886482157e+01 1 -4 1
3815 1 7.6547537286892018e+00 2.2075612651339480e+01 1.9804424757091336e+01 2 1 0
5636 1 1.2937723105480664e+01 1.0512665258279574e+01 2.0462393356366775e+01 1 -2 1
3783 1 3.5616554307655539e+00 1.5452100535095507e+01 2.0242810460031698e+01 2 1 0
1573 1 6.6357199204240152e+00 2.4406561217791229e+01 2.3307242476135656e+01 -2 2 1
2111 1 2.0562821517313572e+00 1.3395999324856531e+01 2.1299014099371206e+01 2 2 0
3580 1 6.6243908546369354e+00 1.3248376330903739e+01 2.0075505636387330e+01 0 0 1
56 1 9.0079468151915645e+00 1.3168802202696243e+01 2.3310780505602406e+01 4 -1 1
1690 1 5.9765294567637888e+00 1.5776648044427647e+01 2.1252135343731226e+01 3 1 1
5451 1 1.3120399586583460e+01 1.5271254736029883e+01 2.3545162369607350e+01 -1 0 0
2059 1 1.0625431655120417e+01 1.5205734660579294e+01 1.9688250837989631e+01 1 3 0
3657 1 9.1434039420896500e+00 1.3034840609837749e+01 2.0340462301313110e+01 0 1 0
2163 1 9.5822923580136834e+00 1.7805134184599634e+01 2.0501968253675408e+01 2 0 0
3686 1 1.4348044456769992e+01 1.2797373005267209e+01 1.9810099430494166e+01 1 0 1
3723 1 1.3086793402524316e+01 1.5279210184226109e+01 2.0731665913415746e+01 0 0 0
4888 1 1.6307270200527491e+01 8.0785518863405592e+00 2.3278474091533042e+01 2 0 1
6561 1 1.3215059961008800e+01 1.9805489713565944e+01 2.3369771906701267e+01 -2 0 1
6503 1 3.6462487025273571e+00 2.0285969439508037e+01 2.0116308533475536e+01 1 0 1
6675 1 2.3661228975283999e+00 1.8046911635766016e+01 2.0851863771833258e+01 0 0 1
5376 1 1.0210085386237179e+01 2.2099862177326568e+01 2.0750498812437556e+01 -1 0 0
3105 1 6.1906038456685586e+00 2.0289114828706275e+01 2.0679873916982071e+01 0 1 1
5281 1 1.1433635563640021e+01 2.4236699314672297e+01 1.7552526230349123e+01 2 4 0
4960 1 1.0050601291418744e+01 2.2086195511702513e+01 2.3263038974515538e+01 -3 3 1
1633 1 1.2280801475487481e+01 1.0677551014420139e+00 2.3873713471243381e+01 -1 -1 0
1721 1 1.6020309600493292e+01 3.4367967143356339e+00 1.5917106210251372e+01 -3 -2 0
174 1 6.4249330921790837e-01 1.1120738799706178e+01 1.3057293174571834e+01 0 1 0
3610 1 1.4273326956284620e+01 2.4129000706653688e+01 1.3736236666543130e+01 2 1 0
3394 1 1.6405358972960240e+01 7.8638594541024815e+00 1.6038227103942589e+01 0 4 1
248 1 2.8936916524600100e+00 2.2629233481027399e+01 2.3542654401366246e+01 2 -1 0
5597 1 4.7174259631843274e+00 1.7732688070880873e+00 2.3580666614158140e+01 0 0 1
2209 1 1.4294170191885193e+01 2.4240500316306154e+01 2.0831490026787179e+01 0 -2 0
5343 1 1.1537304671120163e+01 2.4351451659437913e+01 2.0187384138907468e+01 2 1 0
3297 1 3.1877036029788286e-01 6.5115955398564775e+00 1.2684361371210690e+01 2 -1 0
97 1 1.4110470037740699e+01 1.2803409842414627e+01 2.3772956059919220e+01 1 1 1
623 2 2.5863564857252896e-01 3.0694361509736448e+00 2.6746770567436766e+01 0 0 0
625 2 2.5863564857252896e-01 2.5758279828942321e-01 2.6746770567436766e+01 0 0 0
627 2 1.4762038661437640e+00 9.6054613646042719e-01 2.6746770567436766e+01 0 0 0
634 2 1.4762038661437640e+00 2.3664728128034915e+00 2.6746770567436766e+01 0 0 0
636 2 2.6937720837149990e+00 3.0694361509736448e+00 2.6746770567436766e+01 0 0 0
638 2 2.6937720837149990e+00 2.5758279828942321e-01 2.6746770567436766e+01 0 0 0
640 2 3.9113403012853256e+00 9.6054613646042719e-01 2.6746770567436766e+01 0 0 0
655 2 3.9113403012853256e+00 2.3664728128034915e+00 2.6746770567436766e+01 0 0 0
657 2 5.1289085188574690e+00 3.0694361509736448e+00 2.6746770567436766e+01 0 0 0
659 2 5.1289085188574690e+00 2.5758279828942321e-01 2.6746770567436766e+01 0 0 0
661 2 6.3464767364279444e+00 9.6054613646042719e-01 2.6746770567436766e+01 0 0 0
684 2 6.3464767364279444e+00 2.3664728128034915e+00 2.6746770567436766e+01 0 0 0
686 2 7.5640449539981223e+00 3.0694361509736448e+00 2.6746770567436766e+01 0 0 0
688 2 7.5640449539981223e+00 2.5758279828942321e-01 2.6746770567436766e+01 0 0 0
690 2 8.7816131715699211e+00 9.6054613646042719e-01 2.6746770567436766e+01 0 0 0
721 2 8.7816131715699211e+00 2.3664728128034915e+00 2.6746770567436766e+01 0 0 0
723 2 9.9991813891424091e+00 3.0694361509736448e+00 2.6746770567436766e+01 0 0 0
725 2 9.9991813891424091e+00 2.5758279828942321e-01 2.6746770567436766e+01 0 0 0
727 2 1.1216749606708563e+01 9.6054613646042719e-01 2.6746770567436766e+01 0 0 0
766 2 1.1216749606708563e+01 2.3664728128034915e+00 2.6746770567436766e+01 0 0 0
768 2 1.2434317824283360e+01 3.0694361509736448e+00 2.6746770567436766e+01 0 0 0
770 2 1.2434317824283360e+01 2.5758279828942321e-01 2.6746770567436766e+01 0 0 0
5138 1 3.1481153099925514e+00 1.5910572153961223e+01 2.3927959934946909e+01 1 0 0
772 2 1.3651886041854024e+01 9.6054613646042719e-01 2.6746770567436766e+01 0 0 0
813 2 1.3651886041854024e+01 2.3664728128034915e+00 2.6746770567436766e+01 0 0 0
815 2 1.4869454259423716e+01 3.0694361509736448e+00 2.6746770567436766e+01 0 0 0
817 2 1.4869454259423716e+01 2.5758279828942321e-01 2.6746770567436766e+01 0 0 0
819 2 1.6087022476996481e+01 9.6054613646042719e-01 2.6746770567436766e+01 0 0 0
860 2 1.6087022476996481e+01 2.3664728128034915e+00 2.6746770567436766e+01 0 0 0
628 2 2.5863564857252896e-01 7.2872161800031083e+00 2.6746770567436766e+01 0 0 0
630 2 2.5863564857252896e-01 4.4753628273175599e+00 2.6746770567436766e+01 0 0 0
632 2 1.4762038661437640e+00 5.1783261654876549e+00 2.6746770567436766e+01 0 0 0
647 2 1.4762038661437640e+00 6.5842528418307289e+00 2.6746770567436766e+01 0 0 0
649 2 2.6937720837149990e+00 7.2872161800031083e+00 2.6746770567436766e+01 0 0 0
651 2 2.6937720837149990e+00 4.4753628273175599e+00 2.6746770567436766e+01 0 0 0
653 2 3.9113403012853256e+00 5.1783261654876549e+00 2.6746770567436766e+01 0 0 0
676 2 3.9113403012853256e+00 6.5842528418307289e+00 2.6746770567436766e+01 0 0 0
678 2 5.1289085188574690e+00 7.2872161800031083e+00 2.6746770567436766e+01 0 0 0
680 2 5.1289085188574690e+00 4.4753628273175599e+00 2.6746770567436766e+01 0 0 0
682 2 6.3464767364279444e+00 5.1783261654876549e+00 2.6746770567436766e+01 0 0 0
713 2 6.3464767364279444e+00 6.5842528418307289e+00 2.6746770567436766e+01 0 0 0
715 2 7.5640449539981223e+00 7.2872161800031083e+00 2.6746770567436766e+01 0 0 0
717 2 7.5640449539981223e+00 4.4753628273175599e+00 2.6746770567436766e+01 0 0 0
1114 2 1.3651886041854024e+01 2.3455372957939296e+01 3.3315229432559342e+01 0 0 0
719 2 8.7816131715699211e+00 5.1783261654876549e+00 2.6746770567436766e+01 0 0 0
758 2 8.7816131715699211e+00 6.5842528418307289e+00 2.6746770567436766e+01 0 0 0
760 2 9.9991813891424091e+00 7.2872161800031083e+00 2.6746770567436766e+01 0 0 0
762 2 9.9991813891424091e+00 4.4753628273175599e+00 2.6746770567436766e+01 0 0 0
764 2 1.1216749606708563e+01 5.1783261654876549e+00 2.6746770567436766e+01 0 0 0
805 2 1.1216749606708563e+01 6.5842528418307289e+00 2.6746770567436766e+01 0 0 0
807 2 1.2434317824283360e+01 7.2872161800031083e+00 2.6746770567436766e+01 0 0 0
809 2 1.2434317824283360e+01 4.4753628273175599e+00 2.6746770567436766e+01 0 0 0
811 2 1.3651886041854024e+01 5.1783261654876549e+00 2.6746770567436766e+01 0 0 0