LAMMPS data file via write_data, version 16 Mar 2018, timestep = 100000

6337 atoms
2 atom types

0.0000000000000000e+00 4.9219999999999999e+01 xlo xhi
0.0000000000000000e+00 4.9019635930410494e+01 ylo yhi
2.5953104868083408e+00 5.7466689513188697e+01 zlo zhi

Masses

1 18.015
2 12.01

Atoms # atomic

286 1 2.3214998816200128e+00 1.9524579553656951e+00 3.5740859748886931e+00 0 1 1
2101 1 9.6551596603757439e-01 3.9592470595071050e+00 6.3658494060135666e+00 1 0 0
3422 1 4.8780324806092326e+00 4.9160553822644397e+00 6.6459738197422817e+00 -1 1 0
1362 1 7.7304735912219735e+00 6.0462209554749569e-02 5.4197149734035683e+00 1 0 0
4553 1 2.8078828355087757e+00 5.0108306773834599e+00 4.9619179950098946e+00 1 1 1
3435 1 2.0194115303624098e+00 7.5039736645799753e+00 5.2836770490667959e+00 1 0 0
249 1 8.9228061441442250e+00 6.6226823794242025e+00 6.7447914656096604e+00 1 1 1
5224 1 6.1456045633905960e+00 7.1754432916879605e+00 7.1724436465454424e+00 0 0 1
182 1 9.3290468404401690e+00 9.4305803076594223e+00 5.6594776728103966e+00 0 1 1
3304 1 8.4668467234502511e+00 1.1905254201727512e+01 1.0085473005205140e+01 0 0 1
1422 1 6.8113302499913813e+00 3.5774162230070297e+00 5.2340433028604538e+00 0 1 0
138 1 4.5397495218693811e+00 8.6870419605351845e+00 5.6567817758649550e+00 0 1 0
121 1 5.0572654151033616e+00 1.1281410498700803e+01 6.7343611340272336e+00 0 0 1
1458 1 7.1241071309658448e+00 1.3701321492516627e+01 1.1587630032554376e+01 1 1 1
5111 1 3.2154580700517297e+00 1.4722969714653683e+01 3.5000084201845882e+00 0 1 0
4441 1 7.9845172180105362e+00 1.1563983752820738e+01 7.1684609682552676e+00 0 1 1
1801 1 9.0487107403967093e-01 1.2613869659339279e+01 9.0444961968325917e+00 0 1 0
3491 1 4.9946734195818836e+00 1.2632343194106850e+01 3.9442629445424444e+00 1 0 1
4785 1 3.6493149249860806e+00 1.5776242900711210e+01 6.7183445563426192e+00 0 2 0
4576 1 7.8875335224438619e+00 1.3851537262151756e+00 2.8084384540551866e+00 1 1 1
6224 1 8.1966302189986617e+00 1.4136240267257946e+01 6.1808400881256134e+00 1 -1 1
6275 1 7.4962255380629026e+00 1.5919210915205310e+01 1.0104968650164917e+01 0 0 1
3084 1 8.0037482568119440e+00 1.0185597133500123e+01 3.5437883419057297e+00 0 0 1
3505 1 2.1564453636263226e+00 2.6436736220449855e+00 1.0040621974936894e+01 1 1 0
1803 1 5.7864235137272235e-01 1.3947256369890292e+01 2.9488574438391932e+00 0 0 0
4487 1 5.5206983010868065e+00 8.5842441404285204e+00 2.9542089671097003e+00 1 0 1
3470 1 2.5003303408808802e-01 1.6697790276238635e+00 8.3981577742370010e+00 0 0 0
1614 1 4.6745942455570582e+00 3.1555735399485414e+00 8.8735372300856596e+00 0 0 1
3293 1 5.9622716128225512e+00 1.1234204400602652e+00 7.1493006360118585e+00 -1 0 0
1514 1 2.8598918070342219e+00 1.5851064010242245e+01 1.1308969206226296e+01 1 0 1
2111 1 6.1283106737821547e-01 5.1434500344064329e+00 8.9431425722595712e+00 0 0 0
1366 1 1.4026046717632563e+00 7.9381714359895161e+00 8.2039106409861482e+00 0 2 1
180 1 7.6868423960548569e+00 1.3119991875434092e+01 3.5829602983128792e+00 0 0 0
5088 1 6.3249256988070197e+00 1.5554276635508081e+01 7.4007460643613561e+00 1 0 0
2981 1 8.4192713340797063e+00 3.1333227065991083e+00 7.8653645229810127e+00 0 0 1
3198 1 5.7890655522766732e+00 7.7243630674870420e+00 1.0010993979269397e+01 0 0 0
1438 1 3.3326303600106675e+00 8.9928776224866791e+00 1.0021244201451909e+01 0 0 0
2079 1 3.4799287057048565e+00 1.1469505199876846e+01 8.9424552716104344e+00 1 1 1
4996 1 4.3852821123700245e+00 1.3354813024177670e+01 1.1276873136753863e+01 1 -1 0
291 1 5.8355794360520772e+00 4.9020359595128422e+00 1.0714451545030851e+01 0 0 0
3023 1 9.0238527151418317e+00 5.1175215395197569e+00 4.5473745430062689e+00 0 1 1
1543 1 9.1926813803336369e+00 7.5010108375931450e-01 9.2575936332429691e+00 0 0 1
2874 1 1.7724615949648108e+00 1.5481432231601230e+01 8.7082654744043513e+00 0 -1 1
2992 1 8.9061150715823558e+00 4.6263007955646396e+00 1.0658643266891641e+01 0 0 0
196 1 9.7743356755758075e+00 9.6747697113823623e+00 1.1286232075610499e+01 0 0 0
6099 1 3.7403993396747066e+00 4.2220688256669803e-02 5.6728709373621609e+00 1 0 1
5220 1 1.5478306246662050e+00 2.8563540882100380e+00 1.5351452833924498e+01 1 0 0
4675 1 4.3101900339149326e+00 2.6486772725528236e+00 1.5009227202619096e+01 0 1 1
2120 1 2.2554190832393948e+00 1.1017099612383252e+00 1.2258112346248225e+01 0 1 1
93 1 4.9331291687625178e+00 4.6324307914026031e-01 1.3395805687104483e+01 0 0 0
2900 1 6.0754259182759949e+00 1.1842418455198466e+01 1.9991233804361634e+01 0 0 1
493 1 9.1039957259153592e+00 1.3895067095667864e+01 1.8611363601935281e+01 0 1 1
1271 1 2.6264478849455708e+00 6.2179746030139258e+00 1.3764482611373897e+01 0 0 1
4927 1 1.8087670103457838e+00 5.3541381894098885e+00 1.6283712606527203e+01 1 1 0
362 1 3.8870622616949522e+00 8.0634492135558187e+00 1.5788633810295666e+01 0 0 0
135 1 6.6271028727106067e+00 6.2829821827255472e+00 1.4642811032274391e+01 0 1 0
3146 1 1.9684199818873460e+00 8.7158132120870881e+00 1.2571977420853319e+01 0 0 1
5177 1 8.8174082032761669e-01 4.5651655835566842e+00 1.2102028385156029e+01 0 1 0
4437 1 4.1817429178797729e+00 1.0808792267596909e+01 1.2717227934214428e+01 1 1 1
3572 1 7.9489094629041688e+00 1.0051376950490722e+01 1.5450852241880352e+01 1 0 0
502 1 6.0545807293967808e+00 9.0778774116905030e+00 1.4029731484986234e+01 0 1 1
3475 1 9.8260819377608621e-01 1.3501076184920354e+01 1.5426139972753687e+01 1 0 0
402 1 3.4226884670442623e+00 1.2045447521846988e+01 1.5203102645192358e+01 1 0 0
5065 1 5.1028641731557469e+00 1.3855204978948757e+01 1.6926003962701138e+01 1 0 1
1439 1 9.6593398249079243e-01 1.5012321787305289e+01 1.3068514009771253e+01 0 1 0
1426 1 8.1921156760638461e+00 1.4417572876031716e+01 1.3975845161612479e+01 0 1 0
2846 1 2.9342373762816059e+00 9.7204155133122960e-01 1.8782058915243525e+01 0 1 1
3151 1 4.3530048113724513e+00 3.2029880082288926e+00 1.7744618934382885e+01 0 0 1
328 1 6.1008611745905506e-01 6.7257620926268835e-01 1.7404113355651290e+01 0 0 0
3237 1 7.1219491680563545e+00 2.8281297645907637e+00 1.7997269055840249e+01 -1 1 0
4986 1 7.3552090701738813e+00 1.2032520374021024e+01 1.7404943923500056e+01 0 0 0
5320 1 3.4592674115615196e+00 5.7338557179472458e+00 1.8831847677218285e+01 0 0 0
326 1 8.2907749662245180e+00 4.5999981512633568e+00 1.6191017751265285e+01 0 0 1
1834 1 6.8595594094974137e+00 1.5883923223354435e+01 1.6248226638405640e+01 0 0 0
4505 1 2.0694643139322704e+00 1.0029781410598330e+01 1.6728721680317868e+01 1 0 1
1691 1 7.4920113366380416e+00 3.4907446128160557e-01 1.2030052080758507e+01 0 0 1
4836 1 3.8993545835528325e+00 1.0195062483733556e+01 1.8795088427043268e+01 1 1 0
2837 1 4.3307424391886808e+00 1.4500746149554965e+01 1.9750686351825962e+01 0 0 1
3352 1 5.4725140479067411e+00 7.7908541669668034e+00 1.8276115445525470e+01 1 0 0
1535 1 8.1085377451929155e+00 8.1274087755494442e+00 1.7378269680385184e+01 0 0 0
1957 1 8.7669996620630641e+00 6.2247068950920408e+00 1.3122043619684135e+01 0 1 0
1328 1 2.1284865401424451e+00 1.4919709209976828e+01 1.7472868825320177e+01 1 0 1
3303 1 9.0033785003178455e+00 8.9388719300144348e-01 1.6608116708362822e+01 0 0 0
71 1 9.3370749300978098e+00 5.7697778901700918e+00 1.8572136151167207e+01 0 -1 1
95 1 7.5386559651338887e+00 8.3976656122557589e+00 1.1864806664670795e+01 0 0 0
148 1 4.7128501481354821e+00 4.7237984145426077e+00 1.3388464860056155e+01 0 1 0
5969 1 9.5369752396373677e+00 2.3680346767148084e+00 1.2175859749975055e+01 0 1 0
4816 1 7.0603257138676045e-02 1.5535191716041236e+01 1.9455050798781791e+01 1 0 0
1774 1 9.7157065222114056e+00 9.0365746672930811e+00 1.9574360480288629e+01 0 0 0
5191 1 1.7742189940813453e+00 2.5095278686272278e+00 2.4333151680177266e+01 -1 1 0
675 2 4.9220000000000006e+00 1.5629449137232333e+01 2.6871126770350195e+01 0 0 0
1627 1 8.7932107289835759e+00 6.3058708437558648e+00 2.1384704317291046e+01 1 0 1
4786 1 6.2572330851049882e+00 1.9465745489054074e+00 2.4311156243372370e+01 0 1 0
4931 1 3.8392861330732120e+00 1.2393579728807381e+01 2.1906707816640964e+01 0 0 0
6335 1 8.7696176852761294e+00 5.9438446727636185e+00 2.4211840055175472e+01 0 0 1
2095 1 3.7691531804404228e+00 8.8932093809075685e-01 2.3874570159608538e+01 1 1 0
5176 1 1.8441341773026025e+00 1.7480748217569233e+00 2.1287737495073397e+01 -1 1 0
3482 1 4.1520590322495310e-01 1.0740708367629832e+01 2.1869271853449796e+01 0 1 0
427 1 3.0570361545131179e+00 4.9595908672996698e+00 2.4409080490831528e+01 0 0 0
552 1 8.4826521428219925e-01 6.3921433435336130e+00 2.3949743801456144e+01 0 0 0
3578 1 8.5613877244316221e+00 9.0146076314170409e-01 2.3380443669881217e+01 0 0 1
677 2 4.9220000000000006e+00 1.2787731112280996e+01 2.6871126770350195e+01 0 0 0
212 1 5.9932719373438834e+00 4.7268893332557456e+00 2.3993277804668796e+01 0 0 0
6003 1 6.1993806806201466e+00 4.6310643870912580e+00 2.1245779286437049e+01 0 0 1
1628 1 7.6587761330219131e+00 9.9230259644169543e+00 2.1464292422088079e+01 0 -1 0
1984 1 2.8137558315064655e+00 9.4512079404418650e+00 2.1279661739788700e+01 0 1 0
337 1 1.4051459170953084e+00 9.2138382353384554e+00 2.4377788577948703e+01 0 0 0
4496 1 4.1678627085941695e+00 1.0147701393558787e+01 2.4035039274250810e+01 1 0 1
726 2 8.6135000000000002e+00 1.3498160618518835e+01 2.6871126770350195e+01 0 0 0
1465 1 6.1398311434883084e+00 8.0414103717931997e+00 2.3904815772065749e+01 0 1 1
355 1 7.8166513560593973e+00 1.0789438153490940e+01 2.3849619689254741e+01 0 0 0
767 2 8.6135000000000002e+00 1.4919019630994494e+01 2.6871126770350195e+01 0 0 0
294 1 5.8772452640299742e+00 1.3040669708917967e+01 2.4178035144518201e+01 -1 1 0
5137 1 1.5968183840867265e+00 1.5968202176924205e+01 2.4100446735149529e+01 0 -1 0
679 2 6.1524999999999990e+00 1.3498160618518829e+01 2.6871126770350195e+01 0 0 0
410 1 4.2023267147076062e+00 1.5610894678831198e+01 2.3074024510504675e+01 0 1 0
3348 1 7.2113437940209915e+00 1.4342715061373623e+01 2.1467861383185625e+01 0 0 0
1873 1 7.6512868949800801e+00 1.5304633533552353e+01 2.4270334898753532e+01 1 0 1
554 2 0.0000000000000000e+00 2.8417180249513345e+00 2.6871126770350195e+01 0 0 0
556 2 0.0000000000000000e+00 0.0000000000000000e+00 2.6871126770350195e+01 0 0 0
558 2 1.2305000000000001e+00 7.1042950623783474e-01 2.6871126770350195e+01 0 0 0
565 2 1.2305000000000001e+00 2.1312885187134998e+00 2.6871126770350195e+01 0 0 0
567 2 2.4610000000000003e+00 2.8417180249513345e+00 2.6871126770350195e+01 0 0 0
569 2 2.4610000000000003e+00 0.0000000000000000e+00 2.6871126770350195e+01 0 0 0
571 2 3.6915000000000004e+00 7.1042950623783474e-01 2.6871126770350195e+01 0 0 0
586 2 3.6914999999999996e+00 2.1312885187134998e+00 2.6871126770350195e+01 0 0 0
588 2 4.9220000000000006e+00 2.8417180249513332e+00 2.6871126770350195e+01 0 0 0
590 2 4.9220000000000006e+00 0.0000000000000000e+00 2.6871126770350195e+01 0 0 0
592 2 6.1524999999999999e+00 7.1042950623783407e-01 2.6871126770350195e+01 0 0 0
615 2 6.1524999999999999e+00 2.1312885187134989e+00 2.6871126770350195e+01 0 0 0
617 2 7.3829999999999991e+00 2.8417180249513345e+00 2.6871126770350195e+01 0 0 0
619 2 7.3829999999999991e+00 0.0000000000000000e+00 2.6871126770350195e+01 0 0 0
621 2 8.6134999999999984e+00 7.1042950623783407e-01 2.6871126770350195e+01 0 0 0
652 2 8.6134999999999984e+00 2.1312885187135002e+00 2.6871126770350195e+01 0 0 0
561 2 0.0000000000000000e+00 4.2625770374269996e+00 2.6871126770350195e+01 0 0 0
563 2 1.2305000000000001e+00 4.9730065436648339e+00 2.6871126770350195e+01 0 0 0
578 2 1.2305000000000001e+00 6.3938655561404980e+00 2.6871126770350195e+01 0 0 0
582 2 2.4610000000000003e+00 4.2625770374269996e+00 2.6871126770350195e+01 0 0 0
584 2 3.6914999999999996e+00 4.9730065436648339e+00 2.6871126770350195e+01 0 0 0
607 2 3.6914999999999996e+00 6.3938655561404980e+00 2.6871126770350195e+01 0 0 0
559 2 0.0000000000000000e+00 7.1042950623783341e+00 2.6871126770350195e+01 0 0 0
580 2 2.4610000000000003e+00 7.1042950623783341e+00 2.6871126770350195e+01 0 0 0
611 2 4.9220000000000006e+00 4.2625770374269978e+00 2.6871126770350195e+01 0 0 0
613 2 6.1524999999999999e+00 4.9730065436648339e+00 2.6871126770350195e+01 0 0 0
644 2 6.1524999999999999e+00 6.3938655561404980e+00 2.6871126770350195e+01 0 0 0
648 2 7.3829999999999991e+00 4.2625770374269996e+00 2.6871126770350195e+01 0 0 0
650 2 8.6135000000000002e+00 4.9730065436648339e+00 2.6871126770350195e+01 0 0 0
689 2 8.6135000000000002e+00 6.3938655561404980e+00 2.6871126770350195e+01 0 0 0
609 2 4.9220000000000006e+00 7.1042950623783341e+00 2.6871126770350195e+01 0 0 0
646 2 7.3830000000000009e+00 7.1042950623783341e+00 2.6871126770350195e+01 0 0 0
574 2 0.0000000000000000e+00 8.5251540748539991e+00 2.6871126770350195e+01 0 0 0
576 2 1.2305000000000001e+00 9.2355835810918343e+00 2.6871126770350195e+01 0 0 0
603 2 2.4610000000000003e+00 8.5251540748539991e+00 2.6871126770350195e+01 0 0 0
605 2 3.6915000000000004e+00 9.2355835810918343e+00 2.6871126770350195e+01 0 0 0
572 2 0.0000000000000000e+00 1.1366872099805333e+01 2.6871126770350195e+01 0 0 0
599 2 1.2305000000000001e+00 1.0656442593567498e+01 2.6871126770350195e+01 0 0 0
601 2 2.4610000000000003e+00 1.1366872099805333e+01 2.6871126770350195e+01 0 0 0
636 2 3.6914999999999996e+00 1.0656442593567499e+01 2.6871126770350195e+01 0 0 0
640 2 4.9220000000000006e+00 8.5251540748539991e+00 2.6871126770350195e+01 0 0 0
642 2 6.1524999999999999e+00 9.2355835810918343e+00 2.6871126770350195e+01 0 0 0
685 2 7.3830000000000009e+00 8.5251540748539991e+00 2.6871126770350195e+01 0 0 0
687 2 8.6134999999999984e+00 9.2355835810918343e+00 2.6871126770350195e+01 0 0 0
638 2 4.9220000000000006e+00 1.1366872099805333e+01 2.6871126770350195e+01 0 0 0
681 2 6.1524999999999999e+00 1.0656442593567499e+01 2.6871126770350195e+01 0 0 0
683 2 7.3829999999999991e+00 1.1366872099805333e+01 2.6871126770350195e+01 0 0 0
728 2 8.6134999999999984e+00 1.0656442593567498e+01 2.6871126770350195e+01 0 0 0
630 2 2.4610000000000003e+00 1.5629449137232328e+01 2.6871126770350195e+01 0 0 0
673 2 3.6915000000000004e+00 1.4919019630994494e+01 2.6871126770350195e+01 0 0 0
595 2 0.0000000000000000e+00 1.2787731112280996e+01 2.6871126770350195e+01 0 0 0
597 2 1.2305000000000001e+00 1.3498160618518829e+01 2.6871126770350195e+01 0 0 0
632 2 2.4610000000000003e+00 1.2787731112280996e+01 2.6871126770350195e+01 0 0 0
634 2 3.6915000000000004e+00 1.3498160618518829e+01 2.6871126770350195e+01 0 0 0
628 2 1.2305000000000001e+00 1.4919019630994494e+01 2.6871126770350195e+01 0 0 0
593 2 0.0000000000000000e+00 1.5629449137232333e+01 2.6871126770350195e+01 0 0 0
720 2 6.1524999999999990e+00 1.4919019630994494e+01 2.6871126770350195e+01 0 0 0
724 2 7.3829999999999991e+00 1.2787731112280996e+01 2.6871126770350195e+01 0 0 0
722 2 7.3829999999999991e+00 1.5629449137232333e+01 2.6871126770350195e+01 0 0 0
382 1 3.1039027254548017e+00 4.3437765532305006e+00 2.1567465955057063e+01 0 0 0
5194 1 1.5275969611762557e+00 6.6447414648544711e+00 2.1133846723663250e+01 1 1 0
1568 1 5.4684946243991561e+00 7.8072231090508826e+00 2.1375538432421941e+01 1 0 1
3068 1 8.0828900518038775e+00 2.3265809472892629e+00 2.0937403520649774e+01 0 0 1
555 2 0.0000000000000000e+00 1.4208590124756650e+00 3.0030999999998549e+01 0 0 0
557 2 0.0000000000000000e+00 0.0000000000000000e+00 3.0030999999998549e+01 0 0 0
566 2 1.2305000000000001e+00 2.1312885187134998e+00 3.0030999999998549e+01 0 0 0
568 2 2.4610000000000003e+00 1.4208590124756650e+00 3.0030999999998549e+01 0 0 0
570 2 2.4610000000000003e+00 0.0000000000000000e+00 3.0030999999998549e+01 0 0 0
587 2 3.6914999999999996e+00 2.1312885187134998e+00 3.0030999999998549e+01 0 0 0
564 2 1.2305000000000001e+00 3.5521475311891644e+00 3.0030999999998549e+01 0 0 0
585 2 3.6914999999999996e+00 3.5521475311891644e+00 3.0030999999998549e+01 0 0 0
883 2 0.0000000000000000e+00 2.8417180249513345e+00 3.3190873229646257e+01 0 0 0
884 2 0.0000000000000000e+00 0.0000000000000000e+00 3.3190873229646257e+01 0 0 0
885 2 1.2305000000000001e+00 7.1042950623783474e-01 3.3190873229646257e+01 0 0 0
889 2 1.2305000000000001e+00 2.1312885187134998e+00 3.3190873229646257e+01 0 0 0
890 2 2.4610000000000003e+00 2.8417180249513345e+00 3.3190873229646257e+01 0 0 0
891 2 2.4610000000000003e+00 0.0000000000000000e+00 3.3190873229646257e+01 0 0 0
892 2 3.6915000000000004e+00 7.1042950623783474e-01 3.3190873229646257e+01 0 0 0
900 2 3.6914999999999996e+00 2.1312885187134998e+00 3.3190873229646257e+01 0 0 0
589 2 4.9220000000000006e+00 1.4208590124756650e+00 3.0030999999998549e+01 0 0 0
591 2 4.9220000000000006e+00 0.0000000000000000e+00 3.0030999999998549e+01 0 0 0
616 2 6.1524999999999999e+00 2.1312885187134989e+00 3.0030999999998549e+01 0 0 0
618 2 7.3829999999999991e+00 1.4208590124756659e+00 3.0030999999998549e+01 0 0 0
620 2 7.3829999999999991e+00 0.0000000000000000e+00 3.0030999999998549e+01 0 0 0
653 2 8.6134999999999984e+00 2.1312885187135002e+00 3.0030999999998549e+01 0 0 0
614 2 6.1524999999999999e+00 3.5521475311891644e+00 3.0030999999998549e+01 0 0 0
651 2 8.6134999999999984e+00 3.5521475311891657e+00 3.0030999999998549e+01 0 0 0
901 2 4.9220000000000006e+00 2.8417180249513332e+00 3.3190873229646257e+01 0 0 0
902 2 4.9220000000000006e+00 0.0000000000000000e+00 3.3190873229646257e+01 0 0 0
903 2 6.1524999999999999e+00 7.1042950623783407e-01 3.3190873229646257e+01 0 0 0
915 2 6.1524999999999999e+00 2.1312885187134989e+00 3.3190873229646257e+01 0 0 0
916 2 7.3829999999999991e+00 2.8417180249513345e+00 3.3190873229646257e+01 0 0 0
917 2 7.3829999999999991e+00 0.0000000000000000e+00 3.3190873229646257e+01 0 0 0
918 2 8.6134999999999984e+00 7.1042950623783407e-01 3.3190873229646257e+01 0 0 0
934 2 8.6134999999999984e+00 2.1312885187135002e+00 3.3190873229646257e+01 0 0 0
560 2 0.0000000000000000e+00 5.6834360499026637e+00 3.0030999999998549e+01 0 0 0
562 2 0.0000000000000000e+00 4.2625770374269996e+00 3.0030999999998549e+01 0 0 0
579 2 1.2305000000000001e+00 6.3938655561404980e+00 3.0030999999998549e+01 0 0 0
581 2 2.4610000000000003e+00 5.6834360499026637e+00 3.0030999999998549e+01 0 0 0
583 2 2.4610000000000003e+00 4.2625770374269996e+00 3.0030999999998549e+01 0 0 0
608 2 3.6914999999999996e+00 6.3938655561404980e+00 3.0030999999998549e+01 0 0 0
577 2 1.2305000000000001e+00 7.8147245686161639e+00 3.0030999999998549e+01 0 0 0
606 2 3.6914999999999996e+00 7.8147245686161639e+00 3.0030999999998549e+01 0 0 0
887 2 0.0000000000000000e+00 4.2625770374269996e+00 3.3190873229646257e+01 0 0 0
888 2 1.2305000000000001e+00 4.9730065436648339e+00 3.3190873229646257e+01 0 0 0
896 2 1.2305000000000001e+00 6.3938655561404980e+00 3.3190873229646257e+01 0 0 0
898 2 2.4610000000000003e+00 4.2625770374269996e+00 3.3190873229646257e+01 0 0 0
899 2 3.6914999999999996e+00 4.9730065436648339e+00 3.3190873229646257e+01 0 0 0
911 2 3.6914999999999996e+00 6.3938655561404980e+00 3.3190873229646257e+01 0 0 0
886 2 0.0000000000000000e+00 7.1042950623783341e+00 3.3190873229646257e+01 0 0 0
897 2 2.4610000000000003e+00 7.1042950623783341e+00 3.3190873229646257e+01 0 0 0
610 2 4.9220000000000006e+00 5.6834360499026637e+00 3.0030999999998549e+01 0 0 0
612 2 4.9220000000000006e+00 4.2625770374269978e+00 3.0030999999998549e+01 0 0 0
645 2 6.1524999999999999e+00 6.3938655561404980e+00 3.0030999999998549e+01 0 0 0
647 2 7.3829999999999991e+00 5.6834360499026637e+00 3.0030999999998549e+01 0 0 0
649 2 7.3829999999999991e+00 4.2625770374269996e+00 3.0030999999998549e+01 0 0 0
690 2 8.6135000000000002e+00 6.3938655561404980e+00 3.0030999999998549e+01 0 0 0
643 2 6.1524999999999999e+00 7.8147245686161639e+00 3.0030999999998549e+01 0 0 0
688 2 8.6135000000000002e+00 7.8147245686161639e+00 3.0030999999998549e+01 0 0 0
913 2 4.9220000000000006e+00 4.2625770374269978e+00 3.3190873229646257e+01 0 0 0
914 2 6.1524999999999999e+00 4.9730065436648339e+00 3.3190873229646257e+01 0 0 0
930 2 6.1524999999999999e+00 6.3938655561404980e+00 3.3190873229646257e+01 0 0 0
932 2 7.3829999999999991e+00 4.2625770374269996e+00 3.3190873229646257e+01 0 0 0
933 2 8.6135000000000002e+00 4.9730065436648339e+00 3.3190873229646257e+01 0 0 0
953 2 8.6135000000000002e+00 6.3938655561404980e+00 3.3190873229646257e+01 0 0 0
912 2 4.9220000000000006e+00 7.1042950623783341e+00 3.3190873229646257e+01 0 0 0
931 2 7.3830000000000009e+00 7.1042950623783341e+00 3.3190873229646257e+01 0 0 0
573 2 0.0000000000000000e+00 9.9460130873296642e+00 3.0030999999998549e+01 0 0 0
575 2 0.0000000000000000e+00 8.5251540748539991e+00 3.0030999999998549e+01 0 0 0
602 2 2.4610000000000003e+00 9.9460130873296642e+00 3.0030999999998549e+01 0 0 0
604 2 2.4610000000000003e+00 8.5251540748539991e+00 3.0030999999998549e+01 0 0 0
598 2 1.2305000000000001e+00 1.2077301606043163e+01 3.0030999999998549e+01 0 0 0
600 2 1.2305000000000001e+00 1.0656442593567498e+01 3.0030999999998549e+01 0 0 0
635 2 3.6914999999999996e+00 1.2077301606043163e+01 3.0030999999998549e+01 0 0 0
637 2 3.6914999999999996e+00 1.0656442593567499e+01 3.0030999999998549e+01 0 0 0
894 2 0.0000000000000000e+00 8.5251540748539991e+00 3.3190873229646257e+01 0 0 0
895 2 1.2305000000000001e+00 9.2355835810918343e+00 3.3190873229646257e+01 0 0 0
909 2 2.4610000000000003e+00 8.5251540748539991e+00 3.3190873229646257e+01 0 0 0
910 2 3.6915000000000004e+00 9.2355835810918343e+00 3.3190873229646257e+01 0 0 0
893 2 0.0000000000000000e+00 1.1366872099805333e+01 3.3190873229646257e+01 0 0 0
907 2 1.2305000000000001e+00 1.0656442593567498e+01 3.3190873229646257e+01 0 0 0
908 2 2.4610000000000003e+00 1.1366872099805333e+01 3.3190873229646257e+01 0 0 0
926 2 3.6914999999999996e+00 1.0656442593567499e+01 3.3190873229646257e+01 0 0 0
639 2 4.9220000000000006e+00 9.9460130873296642e+00 3.0030999999998549e+01 0 0 0
641 2 4.9220000000000006e+00 8.5251540748539991e+00 3.0030999999998549e+01 0 0 0
684 2 7.3830000000000009e+00 9.9460130873296642e+00 3.0030999999998549e+01 0 0 0
686 2 7.3830000000000009e+00 8.5251540748539991e+00 3.0030999999998549e+01 0 0 0
680 2 6.1524999999999999e+00 1.2077301606043163e+01 3.0030999999998549e+01 0 0 0
682 2 6.1524999999999999e+00 1.0656442593567499e+01 3.0030999999998549e+01 0 0 0
727 2 8.6135000000000002e+00 1.2077301606043163e+01 3.0030999999998549e+01 0 0 0
729 2 8.6134999999999984e+00 1.0656442593567498e+01 3.0030999999998549e+01 0 0 0
928 2 4.9220000000000006e+00 8.5251540748539991e+00 3.3190873229646257e+01 0 0 0
929 2 6.1524999999999999e+00 9.2355835810918343e+00 3.3190873229646257e+01 0 0 0
951 2 7.3830000000000009e+00 8.5251540748539991e+00 3.3190873229646257e+01 0 0 0
952 2 8.6134999999999984e+00 9.2355835810918343e+00 3.3190873229646257e+01 0 0 0
927 2 4.9220000000000006e+00 1.1366872099805333e+01 3.3190873229646257e+01 0 0 0
949 2 6.1524999999999999e+00 1.0656442593567499e+01 3.3190873229646257e+01 0 0 0
950 2 7.3829999999999991e+00 1.1366872099805333e+01 3.3190873229646257e+01 0 0 0
973 2 8.6134999999999984e+00 1.0656442593567498e+01 3.3190873229646257e+01 0 0 0
596 2 0.0000000000000000e+00 1.2787731112280996e+01 3.0030999999998549e+01 0 0 0
633 2 2.4610000000000003e+00 1.2787731112280996e+01 3.0030999999998549e+01 0 0 0
594 2 0.0000000000000000e+00 1.4208590124756663e+01 3.0030999999998549e+01 0 0 0
629 2 1.2305000000000001e+00 1.4919019630994494e+01 3.0030999999998549e+01 0 0 0
631 2 2.4610000000000003e+00 1.4208590124756663e+01 3.0030999999998549e+01 0 0 0
674 2 3.6915000000000004e+00 1.4919019630994494e+01 3.0030999999998549e+01 0 0 0
905 2 0.0000000000000000e+00 1.2787731112280996e+01 3.3190873229646257e+01 0 0 0
906 2 1.2305000000000001e+00 1.3498160618518829e+01 3.3190873229646257e+01 0 0 0
924 2 2.4610000000000003e+00 1.2787731112280996e+01 3.3190873229646257e+01 0 0 0
925 2 3.6915000000000004e+00 1.3498160618518829e+01 3.3190873229646257e+01 0 0 0
904 2 0.0000000000000000e+00 1.5629449137232333e+01 3.3190873229646257e+01 0 0 0
922 2 1.2305000000000001e+00 1.4919019630994494e+01 3.3190873229646257e+01 0 0 0
923 2 2.4610000000000003e+00 1.5629449137232328e+01 3.3190873229646257e+01 0 0 0
945 2 3.6915000000000004e+00 1.4919019630994494e+01 3.3190873229646257e+01 0 0 0
678 2 4.9220000000000006e+00 1.2787731112280996e+01 3.0030999999998549e+01 0 0 0
725 2 7.3829999999999991e+00 1.2787731112280996e+01 3.0030999999998549e+01 0 0 0
676 2 4.9220000000000006e+00 1.4208590124756663e+01 3.0030999999998549e+01 0 0 0
721 2 6.1524999999999990e+00 1.4919019630994494e+01 3.0030999999998549e+01 0 0 0
723 2 7.3830000000000009e+00 1.4208590124756663e+01 3.0030999999998549e+01 0 0 0
768 2 8.6135000000000002e+00 1.4919019630994494e+01 3.0030999999998549e+01 0 0 0
947 2 4.9220000000000006e+00 1.2787731112280996e+01 3.3190873229646257e+01 0 0 0
948 2 6.1524999999999990e+00 1.3498160618518829e+01 3.3190873229646257e+01 0 0 0
971 2 7.3829999999999991e+00 1.2787731112280996e+01 3.3190873229646257e+01 0 0 0
972 2 8.6135000000000002e+00 1.3498160618518835e+01 3.3190873229646257e+01 0 0 0
946 2 4.9220000000000006e+00 1.5629449137232333e+01 3.3190873229646257e+01 0 0 0
969 2 6.1524999999999990e+00 1.4919019630994494e+01 3.3190873229646257e+01 0 0 0
970 2 7.3829999999999991e+00 1.5629449137232333e+01 3.3190873229646257e+01 0 0 0
993 2 8.6135000000000002e+00 1.4919019630994494e+01 3.3190873229646257e+01 0 0 0
1939 1 7.7752174989440688e+00 1.8831807132601430e+00 3.8512530509694884e+01 0 1 -1
1244 1 2.5420338213988813e-01 1.3565870488901981e+01 3.9020955009698767e+01 1 0 -1
3745 1 9.3630702223076661e+00 1.3123006684152028e+01 3.5935910155978860e+01 0 1 0
3731 1 2.2662829133180913e+00 7.8276854966488274e-01 3.6562732731783754e+01 1 1 0
1327 1 6.1245212852971518e+00 2.4373518106396790e+00 3.5709994419295811e+01 1 1 0
134 1 8.9948928423154442e+00 2.9925996481948438e+00 3.6178027821794288e+01 0 0 -1
3736 1 1.1698704320241926e+00 3.2744327814143723e+00 3.5731378975490955e+01 1 0 0
485 1 4.1793474955034977e+00 4.5445947287310515e+00 3.5435549344757078e+01 0 0 0
3604 1 1.2346651799185606e+00 7.6808314204925061e+00 3.8111489565031263e+01 1 0 -1
1356 1 6.4871302620876499e+00 7.9607398348287575e+00 3.7398231466664456e+01 0 0 0
104 1 5.9068090614730382e+00 1.2048294424892964e+01 3.5858783817229266e+01 1 0 0
1661 1 5.1150810172956644e+00 1.4504343709369488e+01 3.5158080196697597e+01 0 0 -1
1581 1 4.3503670769519518e+00 7.1994875497170057e+00 3.5423030060435352e+01 0 0 0
3055 1 2.1077322571348920e+00 8.9265416125380774e+00 3.5873240338084585e+01 1 1 0
3285 1 2.3483069024085577e+00 5.0346572351835377e+00 3.7874581858054029e+01 1 0 -1
2915 1 7.6669062657963707e+00 1.3443235937614610e+01 3.8258419460643324e+01 1 1 -1
1689 1 7.9961573054893140e+00 9.7023286908079935e+00 3.5932402507330309e+01 0 0 -1
210 1 4.6075111135432376e+00 3.5774061728544686e-02 3.5490007092710684e+01 0 0 -1
3070 1 5.4409152627525703e+00 1.0328031359288451e+01 3.8691795308503899e+01 1 0 -1
2830 1 2.9548536747480010e+00 1.1498773398482214e+01 3.6054067161158599e+01 0 0 0
3225 1 2.5127922680360002e+00 1.5118438231456011e+01 3.5918275140007026e+01 0 0 -1
488 1 3.1045140762643375e+00 1.5233164196843003e+01 3.8545021246578486e+01 0 0 0
2941 1 5.2016000774647386e+00 5.4377758145403066e+00 3.8392805455552462e+01 0 1 0
2842 1 5.7253631178704243e+00 1.5995672917869205e-01 3.8464693837089769e+01 -1 1 0
3712 1 7.0196737340568491e+00 1.5957676667550489e+01 3.6526425067587709e+01 0 0 0
6160 1 1.4615062674669155e-01 1.3546682259818533e+01 3.6138092736364428e+01 1 0 -1
1448 1 8.5700617457468375e+00 6.8690335766149806e+00 3.8879002179774659e+01 0 1 0
3746 1 3.4338089384136516e+00 1.2504668347203465e+01 3.8723289271269834e+01 1 1 0
59 1 9.7662049959790842e+00 1.6272281069725825e+01 3.5966729432101189e+01 1 0 -1
4702 1 3.7940192396471559e+00 1.2133178469165124e+01 4.7126440672378649e+01 0 -1 0
3689 1 5.7320755020888905e+00 1.5371533795946176e+01 3.9264033489085762e+01 1 1 0
6049 1 7.6841115536672735e+00 5.7517559658252866e+00 4.1806000496719122e+01 0 1 0
5272 1 6.7680165371715137e+00 4.0482004001743794e+00 3.9936352090880135e+01 0 1 -1
4875 1 2.2850775773761742e+00 5.3594476135875571e+00 4.2001236637047256e+01 1 0 0
405 1 3.2457741174227523e+00 3.3533413266039234e+00 4.3685991931332410e+01 1 0 -1
1677 1 5.3681771385489814e+00 7.8130017339229418e-01 4.5158502536573977e+01 0 1 -1
1756 1 6.1409082781121889e+00 7.8080696499030742e+00 4.2935691754700443e+01 1 1 -1
284 1 8.8644334777049778e+00 2.3549919996628597e+00 4.8034946024273523e+01 1 0 0
4769 1 6.3929479510750022e+00 5.1105008424477905e-01 4.2594113451259204e+01 0 0 0
62 1 2.0842438699332884e+00 1.0779458017561591e+01 4.1882719297501083e+01 1 1 -1
1293 1 7.1644517927180793e+00 1.1067067499662855e+01 4.0384627853951372e+01 0 0 0
1861 1 7.9169400395337544e+00 9.7908567285319954e+00 4.2693091622463413e+01 0 0 -1
1376 1 5.1418441562405830e+00 4.4074467290159749e+00 4.7843988782702411e+01 1 1 0
1876 1 9.5951353664407624e-01 7.2115683056870274e+00 4.3972843556262305e+01 0 1 -1
2956 1 3.1411032815881583e+00 1.3350486746307979e+01 4.2221630748597818e+01 0 1 0
2097 1 5.9303211943547867e+00 1.3572699284931137e+01 4.1376933453164952e+01 1 1 0
4662 1 2.9646750317056139e+00 9.0068831154845483e+00 3.9760919605405661e+01 0 1 0
4573 1 7.7313801638871045e+00 1.4750642880106616e+01 4.2861776351176530e+01 0 0 0
3742 1 1.0716002468377819e+00 1.6207777593131014e+00 4.4367210900576666e+01 0 0 0
4688 1 4.1187558953688024e+00 6.7357598583946015e+00 4.0653248894918008e+01 0 2 -1
3574 1 9.6176877765537778e+00 6.5773014273602097e+00 4.7669447829528650e+01 0 0 -1
3116 1 6.8447908747952697e+00 3.1085300303085526e+00 4.6103067974588868e+01 0 1 -1
1416 1 8.7041286746156068e+00 3.8989234089953220e+00 4.3898752366783810e+01 0 1 0
4519 1 9.5209527732608130e+00 1.5244686128157403e+01 4.6950942836246242e+01 0 1 -1
1734 1 5.7207648937224087e-01 8.4824703831718506e-01 4.1308034491036096e+01 1 0 -1
6144 1 1.3547988802896369e+00 3.4062135062699266e+00 4.0042048291711779e+01 -1 1 0
5034 1 1.4688622307816195e+00 5.9110759361138596e+00 4.6452977763804824e+01 0 1 -1
3236 1 4.2500864868802664e+00 5.2905023555183490e+00 4.5556520224264474e+01 1 0 0
5110 1 1.6200877861781469e+00 1.5230288237376874e+01 4.0963961296589432e+01 1 0 -1