LAMMPS data file via write_data, version 16 Mar 2018, timestep = 6000000

6337 atoms
2 atom types

0.0000000000000000e+00 4.9219999999999999e+01 xlo xhi
0.0000000000000000e+00 4.9019635930410494e+01 ylo yhi
1.5138976913966964e+00 5.8548102308597926e+01 zlo zhi

Masses

1 18.015
2 12.01

Atoms # atomic

1608 1 4.2646029965546290e+00 1.5992715009298444e+00 3.7736540910537082e+00 1 -1 1
512 1 2.7575239477275870e+00 3.8441346019321743e+00 2.9120955390643726e+00 -2 4 1
3554 1 6.9362105176660043e+00 1.7877330721706031e+00 3.1976666467072987e+00 0 1 0
6081 1 4.1439818178385028e+00 6.0849881252660403e+00 3.8809371734972955e+00 0 3 1
5103 1 2.9108103371565557e+00 8.4444384413884048e+00 3.0481774063059315e+00 -1 -3 0
5184 1 7.8017288754592693e+00 4.4968711361916638e+00 3.9845957689427309e+00 -1 0 0
1624 1 6.6365934309842771e+00 6.8610272892425437e+00 2.9954621165566717e+00 0 1 1
5300 1 3.5905827591483925e+00 1.1088169007945297e+01 3.5633259988470005e+00 0 -1 1
1607 1 7.6948500833546793e+00 9.5613240195598941e+00 3.6410023726668146e+00 3 0 0
1700 1 6.2184184366881325e+00 1.1661911554584099e+01 2.6624177897262715e+00 -2 0 1
6053 1 2.1359736083058647e+00 1.3365899065361745e+01 3.4034618898900919e+00 0 -4 1
1418 1 3.1333060857096537e+00 1.5589442625917671e+01 4.0199099686413691e+00 1 1 1
5100 1 7.4580605354397633e+00 1.3955463186828812e+01 3.6376683880556229e+00 -1 1 0
4620 1 2.4337284244350618e-01 3.7739571166980297e+00 6.5954798120806739e+00 -3 -2 1
1876 1 5.5487457336006543e+00 1.6063559838426048e+01 2.9410182791436181e+00 -2 2 0
3045 1 8.1804691666597869e+00 8.7378453933726696e+00 1.0783439501969909e+01 -1 -3 1
1765 1 2.1277499142234357e+00 1.4690763655289079e+00 7.6076778173580983e+00 -2 -1 1
4547 1 4.4234215154039820e+00 1.4097708799609174e+00 6.5131619417842588e+00 -1 -4 1
1349 1 2.2597201623381666e+00 1.3030507869981667e+00 1.0285532649746008e+01 -1 1 1
2957 1 3.5852907153193903e-01 3.6949958840557624e+00 3.9994824795349846e+00 0 -2 0
1378 1 1.1839125852150223e+00 1.0692569089156567e+01 1.0313548864886000e+01 2 -2 0
6181 1 1.0425092851261561e+00 1.5480681773007438e+01 1.0332827146385659e+01 -1 1 1
3308 1 5.6649099355430916e+00 3.6195033027178125e+00 7.3563903603991276e+00 -4 0 0
6092 1 4.1603748775625133e+00 6.0280400760237622e+00 6.5841967597551116e+00 2 1 1
3343 1 1.6597189498210265e+00 5.8544417588085249e+00 7.5319358107732848e+00 0 1 1
3693 1 1.7612710943330354e+00 6.0194049016186897e+00 1.0328599378000305e+01 0 0 1
4562 1 9.0012508443457691e+00 1.5948624064267374e+01 7.1224974529236897e+00 0 -2 1
5994 1 9.5981710628892056e+00 6.9186922622592784e+00 7.1556432925892297e+00 0 1 1
6265 1 8.4558945968661696e+00 4.5194002249677707e+00 6.7144071643276231e+00 3 4 0
3089 1 5.5699616436129125e+00 3.9152192780066217e+00 1.0057787046157138e+01 0 -2 1
1318 1 9.8389569657861635e+00 1.8541689976749358e+00 6.9071488603192268e+00 3 1 0
4604 1 3.7199387059011122e+00 1.0984477662392512e+01 6.5020539136173952e+00 -1 0 1
6256 1 1.3003720824620524e+00 1.0403078918954229e+01 7.5781182966911977e+00 2 0 1
2966 1 5.3762181495309669e+00 8.6055044740737987e+00 7.1929822049200167e+00 1 2 0
1661 1 9.0159871743611326e+00 1.1304331517463609e+01 9.7834776663320042e+00 1 0 0
1948 1 7.9312497815727605e+00 9.2858911442291028e+00 6.3466443107863721e+00 1 2 0
3704 1 9.1853093130948338e+00 1.1727182167562116e+01 7.1043201066980952e+00 2 2 1
6173 1 5.5669546302243447e+00 8.3852540270350957e+00 9.8699953663942814e+00 1 1 1
6317 1 8.0973473484668617e+00 1.3528078890178705e+01 1.1012333066346587e+01 -2 -2 1
2832 1 3.5201060215659870e+00 1.5778328461749719e+01 6.7921426123789219e+00 -1 -2 1
3362 1 4.7669555798902170e+00 1.3306583034860001e+01 7.5341130730772798e+00 0 2 0
3337 1 8.9287958511923691e+00 1.6038436749940427e+01 1.0019861364559819e+01 -3 -1 0
5297 1 9.1131683380532857e-01 1.5277142647924050e+01 7.6731877521569531e+00 2 0 1
3329 1 5.4135622133899677e+00 1.2949674948864011e+01 1.0226270627622059e+01 2 0 0
4956 1 7.4790204248389962e+00 1.3763295528814337e+01 6.3988936420187077e+00 1 -3 0
4982 1 9.6985981169617492e+00 6.6894566187394329e+00 9.7298827268922814e+00 -1 1 0
5127 1 9.8369622138469222e+00 2.0510528444861524e+00 9.6871907630324401e+00 3 0 0
2017 1 8.3457323456121539e+00 4.3242808696018828e+00 1.0587154625201675e+01 0 -3 1
1337 1 1.9561231723303046e-01 8.4105507199895104e+00 4.2609817109308334e+00 2 0 0
2843 1 4.0729297344626438e+00 1.0545193036943758e+01 1.0833259992850733e+01 -5 0 1
5322 1 4.9546839599014039e+00 1.2195526348420711e+00 1.0903602727070803e+01 2 2 0
4777 1 3.7431887687293846e+00 1.5223735880716857e+01 1.0928062141918611e+01 -1 0 0
4875 1 9.5148551142929161e-01 3.7360793347890984e+00 1.3830402028278725e+01 2 -3 1
541 1 3.5726416836501373e+00 3.9662226911458394e+00 1.4907866133333876e+01 3 2 1
4466 1 9.2780737229808441e-01 3.5494098150314635e+00 1.1144563822047795e+01 1 4 1
3658 1 5.3362124761370184e+00 1.9812797921538594e+00 1.3817806477186197e+01 -1 2 0
1515 1 8.0275794819416024e+00 2.4480188364132607e+00 1.4579377486527019e+01 4 3 1
1635 1 4.9508745396448015e+00 6.2275413937259527e+00 1.3794000138067657e+01 -1 0 1
4428 1 6.3378388148179283e+00 1.5867425147463006e+01 1.4269650817068488e+01 -3 -1 1
2987 1 8.7545463470273077e+00 4.6782651290185893e+00 1.3409388192225331e+01 0 1 1
6319 1 7.3569084423029292e+00 6.7493108591438151e+00 1.4387508969963632e+01 0 1 1
6032 1 7.3477900693883336e-01 8.4677703502971298e+00 1.4216661099553376e+01 1 -1 1
2917 1 3.3873720382930039e+00 8.3685018276136063e+00 1.4859004723772252e+01 1 1 1
4637 1 4.0442074595720845e+00 1.0695877324352633e+01 1.3567675380985927e+01 2 2 1
4832 1 9.8169856091050125e+00 6.8740113439789781e+00 1.8063886882766958e+01 1 3 0
6135 1 8.1746733267059657e+00 8.9682498771148307e+00 1.3538843174967107e+01 -1 -1 1
3262 1 6.6616848450912309e+00 1.1220310342225272e+01 1.4436442629156055e+01 1 -1 1
223 1 3.7934943844738731e+00 1.5198363639672790e+01 1.3758986318449960e+01 3 4 0
3312 1 2.7074454988940042e+00 1.2851594508712669e+01 1.4442728770422114e+01 -2 1 0
43 1 5.3215419644520190e-01 8.2958203448881509e+00 1.1529674425659776e+01 -1 1 0
3638 1 7.8246966029378928e+00 1.3671499123432589e+01 1.3838306462839201e+01 -2 1 1
6333 1 5.5635941528280286e+00 1.3277648752412560e+01 1.7990481475546428e+01 0 1 1
262 1 2.6813850538895529e+00 1.5356064897745030e+00 1.8055752112621288e+01 -2 3 0
1430 1 3.6811720566042800e+00 3.9752393873334579e+00 1.7608363419298215e+01 0 1 1
3236 1 7.9713382186832433e+00 2.1322012855568699e+00 1.7242848982367278e+01 2 -1 1
6244 1 2.4034298441132775e+00 6.3264152448046644e+00 1.8570403033898184e+01 0 -2 1
351 1 6.3953976265943258e+00 4.4533000010960686e+00 1.7947769981463370e+01 -2 0 1
1655 1 7.3521656786009828e+00 6.5138251732928767e+00 1.6965751661621717e+01 0 -1 0
2858 1 1.7880153445662907e+00 1.0479250924600306e+01 1.8367355742808115e+01 2 4 1
1295 1 3.5814557131809281e+00 8.4911844968757038e+00 1.7457905089877073e+01 -2 -2 1
435 1 1.8650909316852818e-01 1.3170473776481918e+01 1.3925801479314041e+01 -2 1 0
36 1 6.2115633803581289e+00 8.9587104224124303e+00 1.8114387240306463e+01 -2 0 1
1539 1 7.2254195724146415e+00 1.1481389044166026e+01 1.7187879902092419e+01 -6 0 0
333 1 3.1105287680387752e+00 1.2779022623174699e+01 1.7287583472363458e+01 -3 0 0
5189 1 1.6829658924485875e+00 1.5389779931750811e+01 1.8055194426364793e+01 -1 -3 0
4735 1 6.6831411621391741e+00 1.5759168543784096e+01 1.7248648599474386e+01 -1 3 1
5006 1 6.7050575277756083e-02 1.3173474804238712e+00 1.4847932792740970e+01 2 0 0
2004 1 4.6131484443866526e+00 6.1942366139218210e+00 1.1082132760078009e+01 -1 1 0
422 1 9.0517079803516509e+00 2.7358866983341557e-02 1.3555845589221757e+01 0 1 1
1342 1 3.2559788897885205e+00 1.5102460582699113e+00 2.4173156891851605e+01 -2 1 1
675 2 4.9220000000000006e+00 1.5629449137232333e+01 2.6746576325173098e+01 0 0 0
3606 1 5.6160619844835118e+00 2.0152794955068210e+00 2.1441030041806091e+01 0 -1 1
4864 1 6.2051077717509333e+00 1.9890645275887375e+00 2.4281448887830201e+01 0 -4 0
722 2 7.3829999999999991e+00 1.5629449137232333e+01 2.6746576325173098e+01 0 0 0
767 2 8.6135000000000002e+00 1.4919019630994494e+01 2.6746576325173098e+01 0 0 0
3613 1 9.2220750088618910e+00 4.6704963340850725e+00 2.1743112760695883e+01 -2 2 0
1665 1 1.7154361283927066e+00 3.7229214529878814e+00 2.4198609114423913e+01 -2 -4 0
6270 1 3.0192003296624921e+00 6.2661853848224132e+00 2.4362130373725527e+01 1 2 1
3232 1 9.0155228353266175e+00 1.4315475013903995e+01 2.3717050248985359e+01 -1 2 0
2938 1 5.3028190404743283e+00 6.4769121583554350e+00 2.1397931784287213e+01 1 3 0
1348 1 5.8870246389030543e+00 6.3892889888360562e+00 2.4081549355291546e+01 -1 -3 1
4806 1 7.7124316993669515e+00 4.1618374775800779e+00 2.4207073871769690e+01 -1 -1 0
3276 1 2.6707339732694626e+00 5.9000768856543608e+00 2.1284877764713418e+01 2 1 1
679 2 6.1524999999999990e+00 1.3498160618518829e+01 2.6746576325173098e+01 0 0 0
4957 1 9.4420659275245766e-01 8.2790746931842865e+00 2.4320575059406636e+01 1 0 1
3289 1 6.9202314639874873e-01 7.8771251952160553e+00 2.1555308863037478e+01 2 -2 1
3732 1 2.1166214750065135e+00 1.0740203625149300e+01 2.4233297823136432e+01 1 -1 1
4994 1 4.5881019849865252e+00 1.1168544983737984e+01 2.1365218561368319e+01 -1 3 0
3488 1 4.8344632721243874e+00 1.1102118934114431e+01 2.4078254229867941e+01 -2 2 0
148 1 6.8746503834598878e+00 8.9939595219724779e+00 2.4354653566887055e+01 0 2 0
3142 1 8.8903677677326005e+00 9.6294050076615409e+00 2.1496493691709901e+01 1 0 1
492 1 4.7645649244170807e+00 1.6076896327534200e+01 2.4257849177598843e+01 -2 2 1
1748 1 4.2095249617903701e+00 1.5931880409531102e+01 2.1396756808400109e+01 -1 -3 0
720 2 6.1524999999999990e+00 1.4919019630994494e+01 2.6746576325173098e+01 0 0 0
3393 1 2.1553130770948256e-01 1.3009818753569981e+01 2.4086698153455490e+01 -1 -3 0
5975 1 1.6181366465984994e+00 1.5506235992909142e+01 2.4136180605974882e+01 2 -2 1
6315 1 1.4211140047811699e+00 3.5984670765473492e+00 2.1279893327956366e+01 0 -1 0
2906 1 8.2836399459066019e+00 1.3985578591998010e+01 2.1141992495186365e+01 2 2 1
1868 1 5.9569256035192186e+00 1.3599244677910368e+01 2.3975031849584333e+01 2 0 0
724 2 7.3829999999999991e+00 1.2787731112280996e+01 2.6746576325173098e+01 0 0 0
554 2 0.0000000000000000e+00 2.8417180249513345e+00 2.6746576325173098e+01 0 0 0
556 2 0.0000000000000000e+00 0.0000000000000000e+00 2.6746576325173098e+01 0 0 0
558 2 1.2305000000000001e+00 7.1042950623783474e-01 2.6746576325173098e+01 0 0 0
565 2 1.2305000000000001e+00 2.1312885187134998e+00 2.6746576325173098e+01 0 0 0
567 2 2.4610000000000003e+00 2.8417180249513345e+00 2.6746576325173098e+01 0 0 0
569 2 2.4610000000000003e+00 0.0000000000000000e+00 2.6746576325173098e+01 0 0 0
571 2 3.6915000000000004e+00 7.1042950623783474e-01 2.6746576325173098e+01 0 0 0
586 2 3.6914999999999996e+00 2.1312885187134998e+00 2.6746576325173098e+01 0 0 0
588 2 4.9220000000000006e+00 2.8417180249513332e+00 2.6746576325173098e+01 0 0 0
590 2 4.9220000000000006e+00 0.0000000000000000e+00 2.6746576325173098e+01 0 0 0
592 2 6.1524999999999999e+00 7.1042950623783407e-01 2.6746576325173098e+01 0 0 0
615 2 6.1524999999999999e+00 2.1312885187134989e+00 2.6746576325173098e+01 0 0 0
617 2 7.3829999999999991e+00 2.8417180249513345e+00 2.6746576325173098e+01 0 0 0
619 2 7.3829999999999991e+00 0.0000000000000000e+00 2.6746576325173098e+01 0 0 0
621 2 8.6134999999999984e+00 7.1042950623783407e-01 2.6746576325173098e+01 0 0 0
652 2 8.6134999999999984e+00 2.1312885187135002e+00 2.6746576325173098e+01 0 0 0
561 2 0.0000000000000000e+00 4.2625770374269996e+00 2.6746576325173098e+01 0 0 0
563 2 1.2305000000000001e+00 4.9730065436648339e+00 2.6746576325173098e+01 0 0 0
578 2 1.2305000000000001e+00 6.3938655561404980e+00 2.6746576325173098e+01 0 0 0
582 2 2.4610000000000003e+00 4.2625770374269996e+00 2.6746576325173098e+01 0 0 0
584 2 3.6914999999999996e+00 4.9730065436648339e+00 2.6746576325173098e+01 0 0 0
607 2 3.6914999999999996e+00 6.3938655561404980e+00 2.6746576325173098e+01 0 0 0
559 2 0.0000000000000000e+00 7.1042950623783341e+00 2.6746576325173098e+01 0 0 0
580 2 2.4610000000000003e+00 7.1042950623783341e+00 2.6746576325173098e+01 0 0 0
611 2 4.9220000000000006e+00 4.2625770374269978e+00 2.6746576325173098e+01 0 0 0
613 2 6.1524999999999999e+00 4.9730065436648339e+00 2.6746576325173098e+01 0 0 0
644 2 6.1524999999999999e+00 6.3938655561404980e+00 2.6746576325173098e+01 0 0 0
648 2 7.3829999999999991e+00 4.2625770374269996e+00 2.6746576325173098e+01 0 0 0
650 2 8.6135000000000002e+00 4.9730065436648339e+00 2.6746576325173098e+01 0 0 0
689 2 8.6135000000000002e+00 6.3938655561404980e+00 2.6746576325173098e+01 0 0 0
609 2 4.9220000000000006e+00 7.1042950623783341e+00 2.6746576325173098e+01 0 0 0
646 2 7.3830000000000009e+00 7.1042950623783341e+00 2.6746576325173098e+01 0 0 0
574 2 0.0000000000000000e+00 8.5251540748539991e+00 2.6746576325173098e+01 0 0 0
576 2 1.2305000000000001e+00 9.2355835810918343e+00 2.6746576325173098e+01 0 0 0
603 2 2.4610000000000003e+00 8.5251540748539991e+00 2.6746576325173098e+01 0 0 0
605 2 3.6915000000000004e+00 9.2355835810918343e+00 2.6746576325173098e+01 0 0 0
572 2 0.0000000000000000e+00 1.1366872099805333e+01 2.6746576325173098e+01 0 0 0
599 2 1.2305000000000001e+00 1.0656442593567498e+01 2.6746576325173098e+01 0 0 0
601 2 2.4610000000000003e+00 1.1366872099805333e+01 2.6746576325173098e+01 0 0 0
636 2 3.6914999999999996e+00 1.0656442593567499e+01 2.6746576325173098e+01 0 0 0
640 2 4.9220000000000006e+00 8.5251540748539991e+00 2.6746576325173098e+01 0 0 0
642 2 6.1524999999999999e+00 9.2355835810918343e+00 2.6746576325173098e+01 0 0 0
685 2 7.3830000000000009e+00 8.5251540748539991e+00 2.6746576325173098e+01 0 0 0
687 2 8.6134999999999984e+00 9.2355835810918343e+00 2.6746576325173098e+01 0 0 0
638 2 4.9220000000000006e+00 1.1366872099805333e+01 2.6746576325173098e+01 0 0 0
681 2 6.1524999999999999e+00 1.0656442593567499e+01 2.6746576325173098e+01 0 0 0
683 2 7.3829999999999991e+00 1.1366872099805333e+01 2.6746576325173098e+01 0 0 0
728 2 8.6134999999999984e+00 1.0656442593567498e+01 2.6746576325173098e+01 0 0 0
628 2 1.2305000000000001e+00 1.4919019630994494e+01 2.6746576325173098e+01 0 0 0
593 2 0.0000000000000000e+00 1.5629449137232333e+01 2.6746576325173098e+01 0 0 0
632 2 2.4610000000000003e+00 1.2787731112280996e+01 2.6746576325173098e+01 0 0 0
673 2 3.6915000000000004e+00 1.4919019630994494e+01 2.6746576325173098e+01 0 0 0
597 2 1.2305000000000001e+00 1.3498160618518829e+01 2.6746576325173098e+01 0 0 0
630 2 2.4610000000000003e+00 1.5629449137232328e+01 2.6746576325173098e+01 0 0 0
634 2 3.6915000000000004e+00 1.3498160618518829e+01 2.6746576325173098e+01 0 0 0
595 2 0.0000000000000000e+00 1.2787731112280996e+01 2.6746576325173098e+01 0 0 0
726 2 8.6135000000000002e+00 1.3498160618518835e+01 2.6746576325173098e+01 0 0 0
677 2 4.9220000000000006e+00 1.2787731112280996e+01 2.6746576325173098e+01 0 0 0
4857 1 5.6652755218358752e+00 1.3456905604040811e+01 2.0862377930614691e+01 3 1 1
2125 1 1.6222074545157523e+00 1.5652811882255843e+01 2.0789311215798470e+01 2 -2 1
3519 1 1.8474704265777355e+00 1.0640879743548245e+01 2.1257401432950655e+01 -2 2 1
3435 1 4.4715024515045892e-01 1.3229228981793923e+01 2.1353223783159859e+01 0 -1 0
1356 1 3.1504946329160890e+00 1.3708650498814459e+00 2.0683027789776666e+01 0 -2 1
3219 1 6.1974173757298221e+00 8.8723736440064709e+00 2.1025103764716558e+01 -4 2 1
3582 1 6.7694069561314612e+00 4.3661181006619518e+00 2.0646156499693529e+01 -3 -1 0
1693 1 9.4880695473411159e+00 1.7540483285207575e-01 2.1508416819825008e+01 -2 -1 0
3383 1 9.6097271397453010e+00 9.9360989164953732e+00 2.4066356543655804e+01 0 -5 0
4791 1 9.3521675357238347e+00 1.6258233657776447e+01 2.0529435925808077e+01 3 -2 1
555 2 0.0000000000000000e+00 1.4208590124756650e+00 3.0030999999997348e+01 0 0 0
557 2 0.0000000000000000e+00 0.0000000000000000e+00 3.0030999999997348e+01 0 0 0
566 2 1.2305000000000001e+00 2.1312885187134998e+00 3.0030999999997348e+01 0 0 0
568 2 2.4610000000000003e+00 1.4208590124756650e+00 3.0030999999997348e+01 0 0 0
570 2 2.4610000000000003e+00 0.0000000000000000e+00 3.0030999999997348e+01 0 0 0
587 2 3.6914999999999996e+00 2.1312885187134998e+00 3.0030999999997348e+01 0 0 0
564 2 1.2305000000000001e+00 3.5521475311891644e+00 3.0030999999997348e+01 0 0 0
585 2 3.6914999999999996e+00 3.5521475311891644e+00 3.0030999999997348e+01 0 0 0
883 2 0.0000000000000000e+00 2.8417180249513345e+00 3.3315423674796335e+01 0 0 0
884 2 0.0000000000000000e+00 0.0000000000000000e+00 3.3315423674796335e+01 0 0 0
885 2 1.2305000000000001e+00 7.1042950623783474e-01 3.3315423674796335e+01 0 0 0
889 2 1.2305000000000001e+00 2.1312885187134998e+00 3.3315423674796335e+01 0 0 0
890 2 2.4610000000000003e+00 2.8417180249513345e+00 3.3315423674796335e+01 0 0 0
891 2 2.4610000000000003e+00 0.0000000000000000e+00 3.3315423674796335e+01 0 0 0
892 2 3.6915000000000004e+00 7.1042950623783474e-01 3.3315423674796335e+01 0 0 0
900 2 3.6914999999999996e+00 2.1312885187134998e+00 3.3315423674796335e+01 0 0 0
589 2 4.9220000000000006e+00 1.4208590124756650e+00 3.0030999999997348e+01 0 0 0
591 2 4.9220000000000006e+00 0.0000000000000000e+00 3.0030999999997348e+01 0 0 0
616 2 6.1524999999999999e+00 2.1312885187134989e+00 3.0030999999997348e+01 0 0 0
618 2 7.3829999999999991e+00 1.4208590124756659e+00 3.0030999999997348e+01 0 0 0
620 2 7.3829999999999991e+00 0.0000000000000000e+00 3.0030999999997348e+01 0 0 0
653 2 8.6134999999999984e+00 2.1312885187135002e+00 3.0030999999997348e+01 0 0 0
614 2 6.1524999999999999e+00 3.5521475311891644e+00 3.0030999999997348e+01 0 0 0
651 2 8.6134999999999984e+00 3.5521475311891657e+00 3.0030999999997348e+01 0 0 0
901 2 4.9220000000000006e+00 2.8417180249513332e+00 3.3315423674796335e+01 0 0 0
902 2 4.9220000000000006e+00 0.0000000000000000e+00 3.3315423674796335e+01 0 0 0
903 2 6.1524999999999999e+00 7.1042950623783407e-01 3.3315423674796335e+01 0 0 0
915 2 6.1524999999999999e+00 2.1312885187134989e+00 3.3315423674796335e+01 0 0 0
916 2 7.3829999999999991e+00 2.8417180249513345e+00 3.3315423674796335e+01 0 0 0
917 2 7.3829999999999991e+00 0.0000000000000000e+00 3.3315423674796335e+01 0 0 0
918 2 8.6134999999999984e+00 7.1042950623783407e-01 3.3315423674796335e+01 0 0 0
934 2 8.6134999999999984e+00 2.1312885187135002e+00 3.3315423674796335e+01 0 0 0
560 2 0.0000000000000000e+00 5.6834360499026637e+00 3.0030999999997348e+01 0 0 0
562 2 0.0000000000000000e+00 4.2625770374269996e+00 3.0030999999997348e+01 0 0 0
579 2 1.2305000000000001e+00 6.3938655561404980e+00 3.0030999999997348e+01 0 0 0
581 2 2.4610000000000003e+00 5.6834360499026637e+00 3.0030999999997348e+01 0 0 0
583 2 2.4610000000000003e+00 4.2625770374269996e+00 3.0030999999997348e+01 0 0 0
608 2 3.6914999999999996e+00 6.3938655561404980e+00 3.0030999999997348e+01 0 0 0
577 2 1.2305000000000001e+00 7.8147245686161639e+00 3.0030999999997348e+01 0 0 0
606 2 3.6914999999999996e+00 7.8147245686161639e+00 3.0030999999997348e+01 0 0 0
887 2 0.0000000000000000e+00 4.2625770374269996e+00 3.3315423674796335e+01 0 0 0
888 2 1.2305000000000001e+00 4.9730065436648339e+00 3.3315423674796335e+01 0 0 0
896 2 1.2305000000000001e+00 6.3938655561404980e+00 3.3315423674796335e+01 0 0 0
898 2 2.4610000000000003e+00 4.2625770374269996e+00 3.3315423674796335e+01 0 0 0
899 2 3.6914999999999996e+00 4.9730065436648339e+00 3.3315423674796335e+01 0 0 0
911 2 3.6914999999999996e+00 6.3938655561404980e+00 3.3315423674796335e+01 0 0 0
886 2 0.0000000000000000e+00 7.1042950623783341e+00 3.3315423674796335e+01 0 0 0
897 2 2.4610000000000003e+00 7.1042950623783341e+00 3.3315423674796335e+01 0 0 0
610 2 4.9220000000000006e+00 5.6834360499026637e+00 3.0030999999997348e+01 0 0 0
612 2 4.9220000000000006e+00 4.2625770374269978e+00 3.0030999999997348e+01 0 0 0
645 2 6.1524999999999999e+00 6.3938655561404980e+00 3.0030999999997348e+01 0 0 0
647 2 7.3829999999999991e+00 5.6834360499026637e+00 3.0030999999997348e+01 0 0 0
649 2 7.3829999999999991e+00 4.2625770374269996e+00 3.0030999999997348e+01 0 0 0
690 2 8.6135000000000002e+00 6.3938655561404980e+00 3.0030999999997348e+01 0 0 0
643 2 6.1524999999999999e+00 7.8147245686161639e+00 3.0030999999997348e+01 0 0 0
688 2 8.6135000000000002e+00 7.8147245686161639e+00 3.0030999999997348e+01 0 0 0
913 2 4.9220000000000006e+00 4.2625770374269978e+00 3.3315423674796335e+01 0 0 0
914 2 6.1524999999999999e+00 4.9730065436648339e+00 3.3315423674796335e+01 0 0 0
930 2 6.1524999999999999e+00 6.3938655561404980e+00 3.3315423674796335e+01 0 0 0
932 2 7.3829999999999991e+00 4.2625770374269996e+00 3.3315423674796335e+01 0 0 0
933 2 8.6135000000000002e+00 4.9730065436648339e+00 3.3315423674796335e+01 0 0 0
953 2 8.6135000000000002e+00 6.3938655561404980e+00 3.3315423674796335e+01 0 0 0
912 2 4.9220000000000006e+00 7.1042950623783341e+00 3.3315423674796335e+01 0 0 0
931 2 7.3830000000000009e+00 7.1042950623783341e+00 3.3315423674796335e+01 0 0 0
573 2 0.0000000000000000e+00 9.9460130873296642e+00 3.0030999999997348e+01 0 0 0
575 2 0.0000000000000000e+00 8.5251540748539991e+00 3.0030999999997348e+01 0 0 0
602 2 2.4610000000000003e+00 9.9460130873296642e+00 3.0030999999997348e+01 0 0 0
604 2 2.4610000000000003e+00 8.5251540748539991e+00 3.0030999999997348e+01 0 0 0
598 2 1.2305000000000001e+00 1.2077301606043163e+01 3.0030999999997348e+01 0 0 0
600 2 1.2305000000000001e+00 1.0656442593567498e+01 3.0030999999997348e+01 0 0 0
635 2 3.6914999999999996e+00 1.2077301606043163e+01 3.0030999999997348e+01 0 0 0
637 2 3.6914999999999996e+00 1.0656442593567499e+01 3.0030999999997348e+01 0 0 0
894 2 0.0000000000000000e+00 8.5251540748539991e+00 3.3315423674796335e+01 0 0 0
895 2 1.2305000000000001e+00 9.2355835810918343e+00 3.3315423674796335e+01 0 0 0
909 2 2.4610000000000003e+00 8.5251540748539991e+00 3.3315423674796335e+01 0 0 0
910 2 3.6915000000000004e+00 9.2355835810918343e+00 3.3315423674796335e+01 0 0 0
893 2 0.0000000000000000e+00 1.1366872099805333e+01 3.3315423674796335e+01 0 0 0
907 2 1.2305000000000001e+00 1.0656442593567498e+01 3.3315423674796335e+01 0 0 0
908 2 2.4610000000000003e+00 1.1366872099805333e+01 3.3315423674796335e+01 0 0 0
926 2 3.6914999999999996e+00 1.0656442593567499e+01 3.3315423674796335e+01 0 0 0
639 2 4.9220000000000006e+00 9.9460130873296642e+00 3.0030999999997348e+01 0 0 0
641 2 4.9220000000000006e+00 8.5251540748539991e+00 3.0030999999997348e+01 0 0 0
684 2 7.3830000000000009e+00 9.9460130873296642e+00 3.0030999999997348e+01 0 0 0
686 2 7.3830000000000009e+00 8.5251540748539991e+00 3.0030999999997348e+01 0 0 0
680 2 6.1524999999999999e+00 1.2077301606043163e+01 3.0030999999997348e+01 0 0 0
682 2 6.1524999999999999e+00 1.0656442593567499e+01 3.0030999999997348e+01 0 0 0
727 2 8.6135000000000002e+00 1.2077301606043163e+01 3.0030999999997348e+01 0 0 0
729 2 8.6134999999999984e+00 1.0656442593567498e+01 3.0030999999997348e+01 0 0 0
928 2 4.9220000000000006e+00 8.5251540748539991e+00 3.3315423674796335e+01 0 0 0
929 2 6.1524999999999999e+00 9.2355835810918343e+00 3.3315423674796335e+01 0 0 0
951 2 7.3830000000000009e+00 8.5251540748539991e+00 3.3315423674796335e+01 0 0 0
952 2 8.6134999999999984e+00 9.2355835810918343e+00 3.3315423674796335e+01 0 0 0
927 2 4.9220000000000006e+00 1.1366872099805333e+01 3.3315423674796335e+01 0 0 0
949 2 6.1524999999999999e+00 1.0656442593567499e+01 3.3315423674796335e+01 0 0 0
950 2 7.3829999999999991e+00 1.1366872099805333e+01 3.3315423674796335e+01 0 0 0
973 2 8.6134999999999984e+00 1.0656442593567498e+01 3.3315423674796335e+01 0 0 0
596 2 0.0000000000000000e+00 1.2787731112280996e+01 3.0030999999997348e+01 0 0 0
633 2 2.4610000000000003e+00 1.2787731112280996e+01 3.0030999999997348e+01 0 0 0
594 2 0.0000000000000000e+00 1.4208590124756663e+01 3.0030999999997348e+01 0 0 0
629 2 1.2305000000000001e+00 1.4919019630994494e+01 3.0030999999997348e+01 0 0 0
631 2 2.4610000000000003e+00 1.4208590124756663e+01 3.0030999999997348e+01 0 0 0
674 2 3.6915000000000004e+00 1.4919019630994494e+01 3.0030999999997348e+01 0 0 0
905 2 0.0000000000000000e+00 1.2787731112280996e+01 3.3315423674796335e+01 0 0 0
906 2 1.2305000000000001e+00 1.3498160618518829e+01 3.3315423674796335e+01 0 0 0
924 2 2.4610000000000003e+00 1.2787731112280996e+01 3.3315423674796335e+01 0 0 0
925 2 3.6915000000000004e+00 1.3498160618518829e+01 3.3315423674796335e+01 0 0 0
904 2 0.0000000000000000e+00 1.5629449137232333e+01 3.3315423674796335e+01 0 0 0
922 2 1.2305000000000001e+00 1.4919019630994494e+01 3.3315423674796335e+01 0 0 0
923 2 2.4610000000000003e+00 1.5629449137232328e+01 3.3315423674796335e+01 0 0 0
945 2 3.6915000000000004e+00 1.4919019630994494e+01 3.3315423674796335e+01 0 0 0
678 2 4.9220000000000006e+00 1.2787731112280996e+01 3.0030999999997348e+01 0 0 0
725 2 7.3829999999999991e+00 1.2787731112280996e+01 3.0030999999997348e+01 0 0 0
676 2 4.9220000000000006e+00 1.4208590124756663e+01 3.0030999999997348e+01 0 0 0
721 2 6.1524999999999990e+00 1.4919019630994494e+01 3.0030999999997348e+01 0 0 0
723 2 7.3830000000000009e+00 1.4208590124756663e+01 3.0030999999997348e+01 0 0 0
768 2 8.6135000000000002e+00 1.4919019630994494e+01 3.0030999999997348e+01 0 0 0
947 2 4.9220000000000006e+00 1.2787731112280996e+01 3.3315423674796335e+01 0 0 0
948 2 6.1524999999999990e+00 1.3498160618518829e+01 3.3315423674796335e+01 0 0 0
971 2 7.3829999999999991e+00 1.2787731112280996e+01 3.3315423674796335e+01 0 0 0
972 2 8.6135000000000002e+00 1.3498160618518835e+01 3.3315423674796335e+01 0 0 0
946 2 4.9220000000000006e+00 1.5629449137232333e+01 3.3315423674796335e+01 0 0 0
969 2 6.1524999999999990e+00 1.4919019630994494e+01 3.3315423674796335e+01 0 0 0
970 2 7.3829999999999991e+00 1.5629449137232333e+01 3.3315423674796335e+01 0 0 0
993 2 8.6135000000000002e+00 1.4919019630994494e+01 3.3315423674796335e+01 0 0 0
3459 1 3.1358785133836156e+00 1.4174677219571243e+00 3.6257623063980105e+01 -1 6 -1
3245 1 4.2494043504965733e+00 3.8896512876825802e+00 3.5826698565611338e+01 2 -3 -1
3358 1 6.0318705958039476e-01 1.2533431067603777e+00 3.5338653579897354e+01 0 1 -1
477 1 3.4988008063274321e+00 1.6259553985345054e+00 3.9088728774605542e+01 3 -1 -1
3594 1 8.6356477937417306e+00 2.1147830135163743e+00 3.5698655697488974e+01 0 0 -1
3353 1 7.3220419646333861e+00 3.8621727003339017e+00 3.8624603653722943e+01 3 -1 -1
5070 1 3.5628034781728366e+00 1.3143643700345349e+01 3.9442025228490181e+01 -2 1 -1
261 1 2.8324245339315910e+00 5.8639964574332843e+00 3.8623668465557742e+01 1 1 -1
1585 1 2.9686380920121631e+00 6.2080311645019295e+00 3.5837201252745771e+01 4 -1 -1
6246 1 6.4088770584993755e+00 1.3518757121512053e+01 3.5905346711035989e+01 1 2 0
1951 1 7.0329955434897764e+00 4.1840078441779101e+00 3.5783187624437616e+01 1 1 -1
4946 1 8.3024542382727535e+00 6.6694819675161874e+00 3.5876136884618248e+01 -3 0 -1
3656 1 2.3683585360386967e+00 1.0738422332334244e+01 3.8938473175143216e+01 0 3 0
4728 1 2.3090513541311926e+00 1.0714107915373196e+01 3.6273750489039045e+01 -1 1 -1
1304 1 3.9665914431004836e+00 8.6653149042832194e+00 3.5928586495699548e+01 1 2 0
3311 1 6.2022658373957489e+00 1.3429545734518864e+01 3.8610017206204475e+01 3 -2 -1
1278 1 6.6141467574651527e+00 8.8529504087966995e+00 3.5745700977820576e+01 3 2 0
496 1 8.0672800315157716e+00 1.1378163798044685e+01 3.5788571514502536e+01 2 1 0
2167 1 6.7612907277652079e+00 8.8531257980296374e+00 3.8787383374111130e+01 0 0 0
3345 1 2.1001357743621982e+00 1.5426668921649036e+01 3.8954867713100171e+01 -1 0 -1
194 1 1.8916866573152455e+00 1.5173653543349490e+01 3.6127850458823175e+01 1 2 -1
4885 1 3.7626957899147433e+00 1.3032654537752460e+01 3.5842691678343087e+01 3 0 -1
1509 1 8.2081527227296736e+00 6.5374624811656403e+00 3.8892425226725749e+01 -1 -1 -1
1919 1 7.5680212706441772e+00 1.6208324126274448e+01 3.6113706434521589e+01 0 -2 -1
74 1 7.9439692492011913e+00 1.1351333431766534e+01 3.8955053777642931e+01 1 1 -1
4457 1 2.2018386448128061e-01 5.8375130097022288e+00 3.5330035415339594e+01 -3 -2 0
549 1 7.4653544255527882e+00 1.5753611770688833e+01 3.9004932793179066e+01 -1 1 0
505 1 4.0730726686808536e+00 8.4202277536050403e+00 3.9272092890881410e+01 0 0 0
4706 1 4.8142562276403229e+00 3.8522609220894810e+00 3.9404995298626645e+01 -1 2 -1
4762 1 3.6195903890931138e+00 1.5650333748159413e+00 4.2902548894396801e+01 3 0 0
3500 1 8.4993494641497147e-01 1.4439325035077613e+00 4.2262250954126742e+01 0 -1 -1
1751 1 4.6466216667055287e+00 4.1079235680837485e+00 4.2291551476719874e+01 0 4 -1
544 1 2.0787101789891640e+00 1.5580378428174981e+01 4.6100911513339213e+01 -1 2 -1
1651 1 1.4368229522466694e-01 1.0284240890321822e+01 4.2457945656048722e+01 0 2 -1
175 1 8.7427103585454020e+00 1.9182177871936814e+00 4.2449040803952101e+01 3 2 0
6291 1 2.9302329411490073e+00 6.1443450855884532e+00 4.3184442901929629e+01 1 3 0
3323 1 1.0366736624586035e+00 1.3163292482677024e+01 4.6936975699274896e+01 3 -1 -1
5140 1 9.2458710672293165e+00 1.3845727261702708e+01 4.6275080338457187e+01 -2 3 -1
4858 1 7.0940990151533994e+00 4.1135637682118711e+00 4.2990227748423806e+01 1 -2 -1
2066 1 8.1441142367541612e+00 6.4123201090378243e+00 4.1768861747045932e+01 3 2 -1
5304 1 2.8668382526046017e+00 1.0876586016797452e+01 4.3110673035023694e+01 0 -2 0
1837 1 4.2689049619379373e+00 8.5574534929888646e+00 4.2250710692411445e+01 3 0 -1
3177 1 6.5856936575341569e+00 1.3613910736401513e+01 4.5703427072403088e+01 1 1 -1
5989 1 6.9649212209870646e+00 8.9410649884168265e+00 4.2845683133274818e+01 1 2 0
6321 1 7.7579828251956782e+00 1.1391482939322023e+01 4.1914479994018720e+01 1 2 -1
4933 1 3.8066286044372242e+00 1.3277276258317755e+01 4.2168646915747487e+01 0 1 -1
1674 1 2.2161089400395309e+00 1.5522978198801706e+01 4.3088462088181302e+01 3 2 0
487 1 7.0108645390527380e-01 1.0330882190163946e+00 3.9546888665659225e+01 1 1 -1
6157 1 6.5347014822937153e+00 1.3500690045975674e+01 4.2762197127507719e+01 0 -1 0
1370 1 3.5182531007661142e+00 1.5290887464809750e+00 4.5746251500908343e+01 1 -1 0