
# Create simulation box and atoms

read_data data.ML_graphite_m1000atm_245K
  orthogonal box = (0 0 2.62195) to (49.22 49.0196 57.4401)
  5 by 3 by 6 MPI processor grid
  reading atoms ...
  6337 atoms
  reading velocities ...
  6337 velocities
group water type 1
3577 atoms in group water
group graphite type 2
2760 atoms in group graphite

# Define potential

pair_style sw
pair_coeff * * MLC_e.sw mW C


# Fix graphite atoms in place

fix 5 graphite setforce 0.0 0.0 0.0
velocity graphite set 0.0 0.0 0.0


# Equilibration of molecular water

# Add velocity/set timestep

velocity	    water create ${TEMP} ${SEED} rot yes dist gaussian
velocity	    water create 248 ${SEED} rot yes dist gaussian
velocity	    water create 248 25124 rot yes dist gaussian
timestep	    5.0

# Define output

compute			1 water msd
compute			3 water temp
thermo	    	50
thermo_style	custom step temp press vol etotal ke pe c_1[4] c_3

# Neighbor lists

neigh_modify    delay 0 every 1 check yes

# Set fixes

fix             1 water momentum 10 linear 1 1 1 rescale
fix             2 water nve
fix             3 water temp/csvr ${TEMP} ${TEMP} 500.0 ${SEED}
fix             3 water temp/csvr 248 ${TEMP} 500.0 ${SEED}
fix             3 water temp/csvr 248 248 500.0 ${SEED}
fix             3 water temp/csvr 248 248 500.0 25124
fix             4 water press/berendsen z ${PRES} ${PRES} 1000.0 modulus 20000
fix             4 water press/berendsen z -1000 ${PRES} 1000.0 modulus 20000
fix             4 water press/berendsen z -1000 -1000 1000.0 modulus 20000

# Run 0.5 ns equilibration

dump		    1 all atom 2000 ${DIR}/eq.${NAME}-${TEMP}.dump
dump		    1 all atom 2000 run_1/eq.${NAME}-${TEMP}.dump
dump		    1 all atom 2000 run_1/eq.het_freeze_1-${TEMP}.dump
dump		    1 all atom 2000 run_1/eq.het_freeze_1-248.dump

reset_timestep  0

run	            100000
Neighbor list info ...
  update every 1 steps, delay 0 steps, check yes
  max neighbors/atom: 2000, page size: 100000
  master list distance cutoff = 6.67472
  ghost atom cutoff = 6.67472
  binsize = 3.33736, bins = 15 15 17
  1 neighbor lists, perpetual/occasional/extra = 1 0 0
  (1) pair sw, perpetual
      attributes: full, newton on
      pair build: full/bin/atomonly
      stencil: full/bin/3d
      bin: standard
Per MPI rank memory allocation (min/avg/max) = 4.07 | 4.222 | 4.502 Mbytes
Step Temp Press Volume TotEng KinEng PotEng c_1[4] c_3 
       0     139.9697   -1056.0851     132262.2   -34085.323    2643.5254   -36728.848            0          248 
      50     140.5462   -961.85139    132378.89   -34072.646    2654.4135    -36727.06   0.50477693    249.02145 
     100    140.43273   -1065.0954    132424.52   -34078.133    2652.2704   -36730.404   0.77338482     248.8204 
     150     140.8815   -1139.7295     132415.8   -34048.716    2660.7461   -36709.462   0.96434126    249.61554 
     200     139.2997   -1146.0451    132451.59   -34046.825    2630.8715   -36677.697    1.1444528    246.81289 
     250    142.04354   -859.78561    132479.51   -34039.325    2682.6929   -36722.018       1.3379    251.67446 
     300    140.32428   -1132.4994     132547.1   -34026.786    2650.2223   -36677.008    1.5747454    248.62826 
     350    141.51126   -1107.0842    132485.41    -34018.68    2672.6401    -36691.32    1.8256822    250.73136 
     400    139.88618   -1112.3181    132527.51   -34047.349    2641.9481   -36689.297    2.0033969    247.85202 
     450    139.81999   -1099.9198    132581.06   -34077.065    2640.6979   -36717.763    2.1698417    247.73474 
     500    138.70466   -1191.6146    132551.38   -34122.835    2619.6335   -36742.468    2.2616627     245.7586 
     550    138.22022   -1130.0901    132571.72   -34134.659     2610.484   -36745.143    2.3841783    244.90025 
     600     136.8796   -1146.2233    132511.15   -34150.916    2585.1646    -36736.08     2.464324    242.52493 
     650    139.43336   -976.69706    132471.34   -34142.318     2633.396   -36775.714    2.6173523    247.04972 
     700    139.22356   -924.16664    132519.31     -34156.5    2629.4336   -36785.934     2.736455    246.67799 
     750    138.67024    -1194.616    132573.94   -34116.098    2618.9834   -36735.081     2.895607    245.69761 
     800    141.40983   -1089.0807     132593.7   -34105.729    2670.7245   -36776.453    3.0006354    250.55165 
     850    139.39303   -986.81325    132622.77    -34191.09    2632.6343   -36823.725    3.0942262    246.97826 
     900    140.71661   -1320.1927    132647.96   -34119.804     2657.632   -36777.436     3.229159    249.32339 
     950    139.08048   -1251.9308    132711.03   -34148.415    2626.7313   -36775.146     3.414863    246.42448 
    1000    138.32421   -978.76073    132821.29   -34126.255     2612.448   -36738.703     3.606668     245.0845 
    1050    136.69739   -1195.6967    132882.81   -34135.555    2581.7234   -36717.278    3.7301468    242.20209 
    1100    138.56427   -1182.5933    132973.96   -34141.979     2616.982   -36758.961    3.8165097    245.50985 
    1150    138.33289   -1165.2911    133029.64   -34124.336    2612.6119   -36736.948    3.9210873    245.09988 
    1200    137.85834   -1251.1481    133134.26   -34139.549    2603.6495   -36743.199    4.0608746    244.25907 
    1250    137.46268   -1226.3132    133171.45   -34179.821    2596.1769   -36775.998    4.1365532    243.55804 
    1300    138.85033   -1100.8549    133225.77   -34197.795    2622.3846   -36820.179    4.2455266    246.01669 
    1350    136.35876   -1106.3378    133254.97   -34182.655    2575.3278   -36757.982     4.357475     241.6021 
    1400     139.6192   -1268.6418    133318.64   -34160.314    2636.9059    -36797.22    4.5346682    247.37899 
    1450    137.75652   -1297.7797    133293.46   -34181.587    2601.7264   -36783.313    4.6843198    244.07867 
    1500    139.49867   -1089.3535    133215.19   -34136.083    2634.6294   -36770.712    4.8411414    247.16543 
    1550    138.67907   -1280.7101    133237.91   -34106.967      2619.15   -36726.117    5.0492277    245.71324 
    1600    142.87364   -1131.7756    133204.56   -34120.105    2698.3705   -36818.475    5.2446347    253.14524 
    1650    141.38224   -1307.2955    133165.08   -34141.086    2670.2033    -36811.29    5.4445033    250.50276 
    1700    138.07843   -1114.8793    133104.95    -34111.86    2607.8061   -36719.666    5.6205524    244.64903 
    1750    138.17787    -1329.186    133096.08   -34093.094    2609.6843   -36702.779    5.7762153    244.82523 
    1800     140.8249   -1329.9325    133005.23   -34089.264    2659.6772   -36748.941    5.9144945    249.51526 
    1850    139.18366   -1209.3512    132937.73   -34090.794    2628.6799   -36719.473    6.1196948    246.60728 
    1900    139.98123   -1103.8001    132908.52   -34068.517    2643.7432    -36712.26    6.2515038    248.02043 
    1950    143.95555   -1118.5672    132954.32   -34061.658    2718.8039   -36780.461    6.3425352    255.06218 
    2000    139.86226   -1159.1148    132950.04    -34075.77    2641.4963   -36717.267    6.5703968    247.80964 
    2050    140.01444   -1133.6696     132960.4   -34055.328    2644.3705   -36699.699    6.6839672    248.07928 
    2100    141.70257   -1238.1133    133031.93   -33981.534    2676.2532   -36657.788    6.8067307    251.07033 
    2150    142.10595   -1323.3791    132994.82   -33973.164    2683.8715   -36657.036    6.9827619    251.78503 
    2200    141.92719   -1266.7254    133006.35   -33987.973    2680.4954   -36668.469    7.1823622    251.46831 
    2250    143.75244   -1399.5257    133003.53   -33970.508    2714.9679   -36685.476    7.2386251    254.70231 
    2300    142.15706   -1559.0127    132951.85   -33968.684     2684.837   -36653.521    7.3690676     251.8756 
    2350    143.81683   -1262.6379    132886.87   -33937.014    2716.1839   -36653.198    7.6257948    254.81639 
    2400    140.25647   -1177.2094    132867.34   -33990.029    2648.9415   -36638.971    7.7916113     248.5081 
    2450     141.0987   -1245.3947    132860.57   -34018.427    2664.8482   -36683.275    8.0256711    250.00038 
    2500    142.90139   -1240.3273    132870.95   -34055.359    2698.8946   -36754.253     8.147103    253.19441 
    2550    141.65615    -1247.741    132954.53   -34067.039    2675.3765   -36742.415    8.2941155    250.98808 
    2600    139.84412   -1239.9349    133017.72   -34082.355    2641.1537   -36723.508    8.4522324     247.7775 
    2650    139.37101   -833.57854    133027.04   -34101.544    2632.2183   -36733.762    8.5123745    246.93923 
    2700     142.5554   -1294.4988    132976.24   -34064.234      2692.36   -36756.594    8.7341894    252.58138 
    2750    140.18053   -1391.5917    132852.91   -34072.999    2647.5073   -36720.507    8.8824433    248.37355 
    2800    140.54406   -1500.2111     132800.8     -34054.2    2654.3731   -36708.573    8.9110092    249.01766 
    2850    143.21558   -1346.7958    132700.23   -34082.081    2704.8286    -36786.91     9.021612     253.7511 
    2900    144.16711   -1370.6644    132670.76   -34051.731    2722.7996    -36774.53    9.2140278    255.43703 
    2950    141.80129   -1308.0764    132637.59   -34055.585    2678.1177   -36733.703    9.3466199    251.24524 
    3000    139.50496   -1267.7135    132604.27   -34076.881    2634.7483    -36711.63    9.4390444    247.17658 
    3050    138.78855    -1061.297    132648.68   -34099.408    2621.2178   -36720.625    9.6226573    245.90723 
    3100    138.84317   -1205.9412    132684.47   -34121.097    2622.2494   -36743.347    9.6992325    246.00401 
    3150    138.38104   -1118.9642    132748.87   -34125.964    2613.5214   -36739.485    9.7425148     245.1852 
    3200    139.13525    -1167.276       132700   -34133.396    2627.7658   -36761.162     9.933405    246.52152 
    3250    140.76799    -1101.143     132696.6   -34120.046    2658.6024   -36778.648    10.089624    249.41443 
    3300    136.82809    -1193.851    132749.21   -34144.706    2584.1917   -36728.898    10.236978    242.43366 
    3350    137.45001   -1134.6528    132799.29   -34150.663    2595.9375     -36746.6    10.384857    243.53558 
    3400    141.49728   -1160.9302    132835.21   -34138.207     2672.376   -36810.583      10.5443    250.70659 
    3450    138.84057   -1224.2847    132877.56   -34082.565    2622.2002   -36704.766    10.669623    245.99939 
    3500    138.18175   -1312.3526    132887.19   -34121.002    2609.7576    -36730.76    10.881164     244.8321 
    3550     140.2063   -1155.5448    132846.71     -34132.6     2647.994   -36780.594    10.957024    248.41922 
    3600    137.77234    -1146.866    132833.14   -34163.933    2602.0253   -36765.958    11.048739     244.1067 
    3650    136.75285   -1073.3721    132786.49   -34140.069    2582.7707    -36722.84    11.159448    242.30035 
    3700     137.1993   -1091.8858    132790.48   -34099.458    2591.2026    -36690.66     11.30905    243.09138 
    3750    138.47145   -1283.6473    132752.89   -34118.959    2615.2288   -36734.187    11.485481    245.34538 
    3800    137.86936   -1160.2969    132637.32   -34134.489    2603.8576   -36738.347    11.737653    244.27859 
    3850    139.14882   -928.02553    132708.01   -34104.932     2628.022   -36732.954    12.055169    246.54556 
    3900    140.14158   -1278.3533    132720.64   -34058.823    2646.7716   -36705.594    12.151338    248.30454 
    3950     139.9251   -1394.6327    132740.06   -34011.812    2642.6832   -36654.495      12.3305    247.92099 
    4000    136.65076   -1220.3148    132661.86   -34034.714    2580.8427   -36615.557    12.481827    242.11947 
    4050    139.89108   -941.05227    132691.34   -33970.976    2642.0406   -36613.017    12.681818     247.8607 
    4100     142.9565   -1005.1585    132751.75   -33932.661    2699.9355   -36632.597    12.912706    253.29206 
    4150    141.19471    -805.8107    132819.73   -33888.164    2666.6615   -36554.826    13.084344    250.17049 
    4200     140.2979   -1023.7287    132887.35   -33945.103    2649.7241   -36594.827    13.293545    248.58152 
    4250     141.7116   -1157.6335    132835.51   -33949.491    2676.4237   -36625.914    13.469685    251.08632 
    4300    139.86149   -1185.5418    132811.11   -33943.786    2641.4818   -36585.268    13.636098    247.80828 
    4350    142.22794   -1130.6521    132793.18   -33963.034    2686.1755    -36649.21     13.74274    252.00118 
    4400     141.7636   -1190.0515    132826.02   -33899.038    2677.4058   -36576.443    13.851643    251.17846 
    4450     139.1604   -1294.0244    132793.37    -33958.52    2628.2407   -36586.761    14.088086    246.56608 
    4500    141.44352   -1234.7489    132808.48   -33900.393    2671.3606   -36571.754    14.269891    250.61133 
    4550    141.33623   -1085.4968    132863.54   -33927.809    2669.3343   -36597.144    14.436693    250.42124 
    4600    139.44658   -1272.5517    132841.74   -33900.407    2633.6455   -36534.053    14.567773    247.07313 
    4650    141.30257   -1225.4073    132884.59   -33931.978    2668.6987   -36600.676    14.693744    250.36161 
    4700    142.58347   -1040.1292    132929.57   -33891.755    2692.8902   -36584.645    14.748575    252.63111 
    4750    140.92036   -1332.2788    132931.24   -33947.981    2661.4801   -36609.461    14.804933     249.6844 
    4800    143.40981   -1231.7622    132937.96   -33917.939    2708.4969   -36626.436     15.07325    254.09524 
    4850    141.47283   -1317.0805    132899.42   -33947.747    2671.9141   -36619.661    15.136506    250.66326 
    4900    141.53608   -1107.1133    132846.85   -33933.276    2673.1087   -36606.385    15.234738    250.77533 
    4950    140.62231   -1248.3958    132838.26   -33950.582     2655.851   -36606.433    15.489954    249.15631 
    5000    139.61987   -1060.8849    132831.45    -33952.47    2636.9185   -36589.389    15.733677    247.38018 
    5050    141.97963   -863.44414    132918.58   -33952.004    2681.4859    -36633.49    15.961522    251.56123 
    5100    142.70818   -1012.9875    133007.84   -33938.728    2695.2456   -36633.973    16.074321    252.85208 
    5150    142.73918    -1143.094    132966.22   -33968.588    2695.8311   -36664.419     16.31055    252.90701 
    5200    140.99895    -1505.335    132928.19   -33958.839    2662.9643   -36621.803    16.409339    249.82364 
    5250    139.09865   -1159.6893    132937.02    -33986.14    2627.0745   -36613.214    16.611836    246.45667 
    5300    141.91979    -1352.473    132974.89    -33953.71    2680.3557   -36634.066    16.883438     251.4552 
    5350    140.19549   -1399.6771    132993.22    -34046.57    2647.7898   -36694.359    17.032945    248.40006 
    5400    137.15997   -1235.7137    132987.51   -34067.132    2590.4597   -36657.591    17.261212    243.02169 
    5450    139.88625   -1231.7078     133022.3   -34003.387    2641.9494   -36645.336    17.388012    247.85215 
    5500     137.0252   -1345.8918    132961.49   -34070.727    2587.9145   -36658.642    17.501156    242.78291 
    5550    139.42003   -1517.4623     132854.9   -34060.662    2633.1442   -36693.807    17.564868    247.02609 
    5600    137.42447   -1359.1169       132887   -34075.197    2595.4552   -36670.652     17.63507    243.49033 
    5650    138.00863   -1119.6966     132877.2    -34033.03    2606.4879   -36639.518    17.786132    244.52536 
    5700    139.08733    -1386.007    132764.84   -34004.428    2626.8607   -36631.289    17.876625    246.43662 
    5750    141.83764   -1368.3599    132754.04    -34026.39    2678.8042   -36705.194    18.019361    251.30965 
    5800    139.58143   -1330.4981    132687.27   -34000.602    2636.1924   -36636.794    18.267369    247.31206 
    5850    140.39122   -1252.5167     132673.5   -33949.616    2651.4865   -36601.103    18.365093    248.74686 
    5900    141.10028   -1167.5818     132622.5   -33968.893    2664.8781   -36633.771    18.641321    250.00318 
    5950    139.17827   -1316.0125    132578.08   -33987.588    2628.5783   -36616.166    18.774543    246.59775 
    6000    137.72344   -1410.0328    132569.76   -33986.961    2601.1017   -36588.063     18.88974    244.02005 
    6050    138.78818   -1359.9982    132578.06    -33967.99    2621.2107   -36589.201    18.985331    245.90657 
    6100    139.86707   -1315.1875    132440.44   -33953.736    2641.5872   -36595.323    19.144607    247.81817 
    6150    140.93624   -1199.7853    132482.23   -33943.402    2661.7799   -36605.182    19.316263    249.71253 
    6200    143.01354     -962.347    132540.02   -33922.309    2701.0127   -36623.322    19.443176    253.39312 
    6250    142.85085    -1080.524    132662.02    -33888.62    2697.9401    -36586.56    19.557356    253.10486 
    6300    140.31799   -1123.3194    132762.03    -33881.89    2650.1033   -36531.994    19.556576     248.6171 
    6350    139.75871    -1280.579    132827.99   -33894.099    2639.5407    -36533.64    19.877419    247.62618 
    6400    140.45097    -1188.153    132935.93   -33918.799    2652.6149   -36571.414    20.055243    248.85272 
    6450    141.96061   -1209.5338    132975.69    -33969.52    2681.1267   -36650.647    20.145855    251.52753 
    6500    138.99609   -1113.4045    133004.45   -33978.788    2625.1374   -36603.925     20.29701    246.27495 
    6550    139.27785    -1448.323    132967.57   -33966.387    2630.4589   -36596.846    20.335941    246.77418 
    6600    141.41557   -1188.1284    132985.62   -33981.494    2670.8328   -36652.327    20.443243    250.56182 
    6650    140.70466   -1425.5209    132928.33   -33955.095    2657.4063   -36612.501    20.632509    249.30222 
    6700    142.07286   -1305.5667    132923.04    -33964.77    2683.2466   -36648.017    20.839157    251.72641 
    6750    140.93836   -1166.0248    132940.85   -33955.243    2661.8199   -36617.063    21.023924    249.71628 
    6800    139.69223   -1430.9376    132952.92   -34000.289     2638.285   -36638.574    21.209161    247.50838 
    6850    140.37042   -1148.2157    132985.87   -33930.597    2651.0937   -36581.691    21.222189    248.71001 
    6900    141.22445    -1195.806    132905.57   -33938.714    2667.2233   -36605.937    21.314504    250.22319 
    6950    143.33479    -1493.683    132932.33   -33947.245    2707.0799   -36654.325    21.355113    253.96231 
    7000    142.29368   -1212.1694    132861.14   -33975.468    2687.4171   -36662.885     21.48772    252.11766 
    7050    140.85383   -1138.7172    132794.14   -33984.465    2660.2236   -36644.689    21.496889    249.56652 
    7100     138.2021   -1686.2524     132739.9   -34049.209    2610.1419   -36659.351    21.611749    244.86816 
    7150    138.51688   -1022.5007    132641.99   -34040.877    2616.0869   -36656.964    21.750535    245.42588 
    7200    140.73503   -1345.4174    132622.63   -34014.959    2657.9798   -36672.939    21.942129    249.35603 
    7250    140.18726   -1302.8156    132535.11   -34040.295    2647.6344    -36687.93    22.125272    248.38548 
    7300     141.4339   -1241.0657    132592.53   -34058.883    2671.1791   -36730.062    22.279144     250.5943 
    7350    140.22115   -1364.8588    132549.54   -34074.773    2648.2744   -36723.048    22.514381    248.44552 
    7400     136.0798   -1199.1397    132529.18   -34083.109    2570.0593   -36653.168    22.758012    241.10784 
    7450    140.29169   -1315.3533    132506.33   -34028.603    2649.6068    -36678.21    22.909107    248.57052 
    7500    140.56001   -1038.7886    132589.86   -34007.859    2654.6744   -36662.533    23.203962    249.04593 
    7550    142.04812   -910.99568     132668.5   -33980.093    2682.7793   -36662.872    23.409921    251.68257 
    7600    140.48373   -1237.4539    132684.02   -34015.308    2653.2336   -36668.542    23.489386    248.91077 
    7650      144.006   -1188.7595    132575.36   -33948.903    2719.7568    -36668.66    23.564452    255.15158 
    7700    139.23957   -1015.1771    132605.29    -33942.86    2629.7359   -36572.596    23.659355    246.70635 
    7750    141.45931   -1183.3032    132633.97   -33916.145    2671.6588   -36587.804    23.842317    250.63931 
    7800    143.07859    -1353.381    132598.81   -33913.042    2702.2412   -36615.283    23.968965    253.50837 
    7850     140.9101   -1380.7941    132580.25   -33974.553    2661.2863    -36635.84    24.090173    249.66622 
    7900    138.36154   -1520.9207    132487.35    -33993.09    2613.1531   -36606.243    24.354224    245.15064 
    7950    142.87038   -1340.7961    132371.38   -33942.312    2698.3089   -36640.621    24.507828    253.13946 
    8000    138.68124   -1367.1732    132324.55   -33943.758     2619.191   -36562.949    24.680191    245.71709 
    8050    138.44585   -1239.8923    132297.76   -33885.098    2614.7455   -36499.844     24.99676    245.30003 
    8100    140.24793   -1263.2926    132155.26   -33868.608    2648.7802   -36517.388    25.102524    248.49297 
    8150    141.13989   -1092.1943     132141.4   -33872.047    2665.6262   -36537.673    25.226514    250.07336 
    8200     140.2006   -1415.5267    132103.54   -33901.951    2647.8863   -36549.837    25.345717    248.40911 
    8250    139.88264   -1286.7681     132013.3   -33892.097    2641.8813   -36533.978    25.549586    247.84576 
    8300    139.63303   -1105.1833    132037.74   -33853.743     2637.167    -36490.91    25.684466    247.40349 
    8350    141.69201   -1289.1476    132049.29   -33883.698    2676.0537   -36559.752    25.879839    251.05161 
    8400    141.97034   -1131.0265    131955.61   -33866.943    2681.3104   -36548.253    26.062161    251.54476 
    8450    138.75679   -1139.7189    131954.97   -33917.663     2620.618   -36538.281    26.326078    245.85096 
    8500    139.90455   -1082.1826    131883.09   -33942.707    2642.2951   -36585.002    26.522652    247.88457 
    8550    139.53731   -1099.0375    131975.84   -33951.234    2635.3592   -36586.593    26.765302    247.23389 
    8600    140.23461    -1066.783    132070.41   -33929.479    2648.5288   -36578.008    26.976603    248.46938 
    8650    141.01481   -1329.8775    132038.09   -33937.261    2663.2639   -36600.525    27.152982    249.85175 
    8700    139.43852   -1204.6332    131950.39   -34001.048    2633.4935   -36634.541     27.32211    247.05886 
    8750    138.71786   -1319.8235    131892.74   -33975.727    2619.8828   -36595.609     27.40895    245.78198 
    8800    135.45641    -1433.304    131803.76   -34023.388    2558.2856   -36581.673    27.478982     240.0033 
    8850    139.55283   -1288.7851    131718.77   -33956.481    2635.6523   -36592.133    27.501051    247.26139 
    8900    137.41308   -1326.9229    131761.02   -33967.287    2595.2401   -36562.527     27.50731    243.47015 
    8950    139.88568   -1429.5467    131760.25   -33923.722    2641.9387   -36565.661    27.651054    247.85115 
    9000    139.28887   -1106.5208    131774.31   -33950.679     2630.667   -36581.346    27.899491     246.7937 
    9050     141.7874   -1347.7746    131742.96   -33928.832    2677.8552   -36606.687    28.079286    251.22062 
    9100    137.25244   -1175.9608    131699.85    -33904.57    2592.2061   -36496.776    28.290086    243.18553 
    9150    139.56918   -1338.7212    131645.27   -33907.993    2635.9612   -36543.954    28.510734    247.29036 
    9200    142.77594   -1143.1967    131636.58   -33889.293    2696.5254   -36585.818    28.632894    252.97214 
    9250    142.91804   -1166.9805    131766.62   -33854.008    2699.2091   -36553.217    28.704445    253.22392 
    9300    139.82586   -1400.5323    131723.79   -33868.116    2640.8089   -36508.925    28.759141    247.74515 
    9350    138.53013   -1113.5668    131757.62   -33894.297    2616.3372   -36510.634    28.939516    245.44936 
    9400    142.32769    -1325.582       131776   -33868.507    2688.0594   -36556.566    29.145092    252.17792 
    9450    140.65607   -1063.0745    131788.85   -33913.382    2656.4885   -36569.871    29.251275    249.21612 
    9500    138.55558   -1454.0968    131793.27   -33917.476    2616.8178   -36534.294    29.429746    245.49445 
    9550     140.6152   -1323.4025     131744.4    -33938.39    2655.7167   -36594.106    29.559308    249.14371 
    9600    141.14466   -1255.0527     131792.7   -33903.189    2665.7163   -36568.905    29.779365    250.08182 
    9650    141.28994   -1305.3754    131843.57    -33898.53      2668.46    -36566.99    29.943422    250.33922 
    9700    142.21077   -1145.3246    131829.49   -33911.403    2685.8513   -36597.255    30.282056    251.97076 
    9750    143.02523   -1147.3257     131934.4   -33884.917    2701.2335   -36586.151     30.53005    253.41383 
    9800     140.5477   -1092.8695    131899.99   -33874.381    2654.4418   -36528.823    30.858468    249.02411 
    9850    140.89811   -1117.0735    131844.98   -33912.286    2661.0598   -36573.346    31.013434    249.64497 
    9900    139.45923   -1210.6862    131754.02   -33924.119    2633.8846   -36558.003    31.202104    247.09555 
    9950    139.78467   -1395.2492    131650.29   -33949.223    2640.0309   -36589.254    31.489603    247.67216 
   10000      138.656   -1106.8425    131609.19   -33940.868    2618.7144   -36559.583    31.550976    245.67238 
   10050    141.93367   -1073.3726    131679.51   -33921.497    2680.6179   -36602.115    31.688395     251.4798 
   10100    142.91077   -907.01008    131698.65   -33917.678    2699.0718    -36616.75    31.946878    253.21103 
   10150    139.68915   -1139.1371    131681.94   -33925.329     2638.227   -36563.556    32.165704    247.50293 
   10200    139.46878   -802.05576    131625.48   -33915.218    2634.0648   -36549.283    32.461724    247.11246 
   10250    138.90843   -859.23159    131718.95   -33935.003     2623.482   -36558.485    32.678698    246.11964 
   10300    142.23358    -1155.953    131794.27   -33891.058    2686.2821    -36577.34    32.836481    252.01118 
   10350    140.28842   -1004.2006    131791.17    -33906.94    2649.5449   -36556.485    32.845381    248.56471 
   10400    140.24432   -1126.5901    131835.49   -33880.775     2648.712   -36529.487    32.944603    248.48657 
   10450    138.81789   -1106.7023    131940.71   -33966.447    2621.7719   -36588.219    33.088571    245.95921 
   10500    140.99104   -1108.2682     131982.2   -33988.517    2662.8149   -36651.332    33.300205    249.80963 
   10550    140.51725   -1057.5651    132034.17   -33998.083    2653.8668    -36651.95    33.425359    248.97016 
   10600    140.81143   -854.56972    132084.03    -33988.33    2659.4227   -36647.753    33.489778    249.49139 
   10650    139.49077   -1237.6517    132088.97   -34014.797    2634.4801   -36649.277     33.62473    247.15142 
   10700    138.74785   -1214.1311    132105.18   -33984.873    2620.4492   -36605.323    33.910958    245.83512 
   10750    138.25196   -1482.1152    132052.64   -33975.754    2611.0835   -36586.837    34.267105    244.95649 
   10800    141.42946   -837.27325    132122.92   -33960.376    2671.0952   -36631.471    34.405053    250.58643 
   10850    139.74889   -1164.3914    132240.04   -33947.981    2639.3551   -36587.336    34.608567    247.60877 
   10900    139.27857   -1085.0161    132219.76   -33944.063    2630.4724   -36574.536    34.722214    246.77545 
   10950    139.52788   -1347.8104    132255.51   -33875.916    2635.1812   -36511.097     34.87063    247.21719 
   11000    141.01305   -1187.0636    132267.45   -33915.209    2663.2306   -36578.439    35.050598    249.84862 
   11050    143.45767   -1123.2367    132264.68   -33869.972    2709.4006   -36579.373    35.054324    254.18002 
   11100    141.26911   -1228.0628    132299.26   -33852.618    2668.0667   -36520.685      35.3821    250.30232 
   11150    145.38213   -885.18205    132428.81   -33823.004    2745.7469   -36568.751     35.78923    257.58982 
   11200    141.80545    -1120.727    132488.61   -33878.185    2678.1963   -36556.382    35.986359    251.25262 
   11250    138.90713   -1048.2249    132394.42   -33906.653    2623.4573    -36530.11    36.113493    246.11732 
   11300    142.28458   -1104.2575    132413.73   -33890.566    2687.2454   -36577.812    36.338323    252.10155 
   11350    142.60848   -1224.8447    132427.33   -33907.489    2693.3627   -36600.852    36.455294    252.67543 
   11400    141.32023   -1170.3377    132378.48   -33930.808    2669.0322    -36599.84    36.444881    250.39289 
   11450     141.8215   -1546.2149    132321.01   -33951.354    2678.4993   -36629.854     36.71851    251.28105 
   11500    136.89405    -1334.665    132212.46   -33964.174    2585.4376   -36549.612    36.879069    242.55054 
   11550    137.37337   -1276.9946    132121.11   -33976.566    2594.4902   -36571.056    37.121669     243.3998 
   11600    139.61994    -1117.671    132112.98   -33909.756    2636.9198   -36546.676      37.3229     247.3803 
   11650    140.14353    -1189.899    132181.45   -33918.826    2646.8084   -36565.634    37.502563    248.30799 
   11700    142.16721    -1312.874    132142.54   -33958.504    2685.0286   -36643.532    37.758362    251.89358 
   11750    138.69788   -1248.4012    132065.86   -33952.902    2619.5054   -36572.407    38.028924    245.74658 
   11800    140.35647   -1515.3916    131919.62    -33956.01    2650.8303    -36606.84    38.294416     248.6853 
   11850    140.33527   -1345.7569    131844.88   -33979.401    2650.4299   -36629.831     38.41681    248.64773 
   11900    139.58575    -1239.717    131841.12   -33954.144     2636.274   -36590.418    38.697573    247.31971 
   11950    138.59688   -1319.8398     131869.4    -33974.66    2617.5979   -36592.258    38.768625    245.56763 
   12000     137.8806   -1278.0891    131954.61   -33962.952    2604.0698   -36567.022    38.975881    244.29851 
   12050    140.67763   -1422.7646    131962.56   -33934.036    2656.8957   -36590.932    39.307785    249.25432 
   12100    141.78554   -1113.8595    131968.12   -33948.427    2677.8201   -36626.247    39.421378    251.21732 
   12150    140.02565   -886.67582    131942.72   -33953.322    2644.5822   -36597.904    39.519151    248.09914 
   12200    136.80441   -1216.4345    132055.76    -33959.06    2583.7446   -36542.805    39.640591    242.39171 
   12250    139.87754   -1387.5358    131973.42   -33951.256    2641.7849   -36593.041    39.775055    247.83671 
   12300    139.79917   -966.81548    131999.86   -33906.509    2640.3049   -36546.814    39.869163    247.69787 
   12350    136.76469   -1184.6827    131971.69   -33982.453    2582.9943   -36565.447    39.986615    242.32132 
   12400    139.16335   -1272.1139    131957.68   -33991.667    2628.2963   -36619.963    40.115804     246.5713 
   12450    138.72658   -1170.2701    131999.67   -33967.441    2620.0475   -36587.489     40.21292    245.79744 
   12500    138.06094   -1313.3452    132066.34   -33985.284    2607.4759    -36592.76    40.280769    244.61805 
   12550    139.41031   -1220.8414    132145.08   -33941.037    2632.9606   -36573.997    40.397227    247.00887 
   12600    141.57575   -1140.9744       132240   -33981.973    2673.8581   -36655.831    40.516836    250.84563 
   12650    136.37418   -1207.5638    132203.47   -33953.213     2575.619   -36528.832    40.655176    241.62942 
   12700    138.59202   -1225.8124    132151.19   -33991.066    2617.5061   -36608.572    40.958519    245.55902 
   12750    139.83104   -1534.7897     132041.1   -34022.695    2640.9068   -36663.602    41.048723    247.75433 
   12800      137.834   -1097.7578    132030.97   -34005.528    2603.1897   -36608.718    41.332893    244.21594 
   12850    140.42399   -1378.9329    131959.96    -33939.57    2652.1055   -36591.675    41.400618    248.80493 
   12900    140.56205   -1169.5222    131947.01   -33935.707    2654.7129    -36590.42    41.561005    249.04954 
   12950    137.58478   -1096.4122    131904.76   -33960.769     2598.483   -36559.252    41.656893    243.77438 
   13000    139.05385   -1244.8261    131871.74   -34000.265    2626.2284   -36626.493    41.605335    246.37729 
   13050    137.23996   -1200.6041    131843.76   -34020.508    2591.9704   -36612.479    41.782479    243.16341 
   13100    140.33141   -1217.4871    131811.07   -34038.142    2650.3568   -36688.499    41.961154    248.64088 
   13150    142.19763    -821.2369     131933.2   -33998.839    2685.6031   -36684.443    41.831465    251.94748 
   13200    143.98389   -1025.8583    132076.43    -33978.11    2719.3392   -36697.449    41.950497     255.1124 
   13250    139.99003   -1145.1432    132134.37   -33989.075    2643.9094   -36632.985    42.142614    248.03603 
   13300    141.97523   -1053.6556    132169.99   -33970.569    2681.4027   -36651.972    42.317925    251.55342 
   13350     138.7047   -978.23124     132234.5   -33995.914    2619.6342   -36615.548    42.621144    245.75867 
   13400    141.61338   -1226.5013    132308.87   -33994.262    2674.5686   -36668.831    42.739547    250.91229 
   13450    139.93482   -1315.3263    132343.25   -33992.994    2642.8667    -36635.86    43.016345     247.9382 
   13500    141.39142   -1171.7547    132343.75   -33998.119    2670.3767   -36668.495    43.079366    250.51903 
   13550    140.34235   -1043.2183    132452.79   -33973.534    2650.5635   -36624.098    43.346274    248.66027 
   13600    142.37177   -1052.0283    132489.07   -34011.591     2688.892   -36700.484    43.654614    252.25603 
   13650    140.84472    -1110.631    132461.37   -34032.946    2660.0515   -36692.997    43.810341    249.55038 
   13700    141.84322   -1080.1945    132510.76   -33969.564    2678.9095   -36648.473    43.861901    251.31952 
   13750    141.09468   -1360.9504    132438.89   -33983.299    2664.7723   -36648.072    44.022038    249.99325 
   13800    141.23121   -1294.3687    132450.63   -33948.886    2667.3509   -36616.237    44.440535    250.23516 
   13850    139.23567   -1047.8203     132469.4   -33951.746    2629.6622   -36581.408    44.509668    246.69944 
   13900     140.0895   -830.73659    132531.01   -33938.837    2645.7881   -36584.625    44.823357    248.21227 
   13950    143.67786   -1027.0657       132676    -33899.88    2713.5594   -36613.439    44.994091    254.57017 
   14000    145.31365   -1160.2914    132733.96   -33863.528    2744.4535   -36607.982    45.237605    257.46848 
   14050    142.27772   -1368.3261    132742.99   -33894.013    2687.1156   -36581.128    45.475062    252.08937 
   14100    139.60307   -1531.1234    132619.41   -33908.015    2636.6012   -36544.616    45.659943    247.35041 
   14150    141.26203   -1294.8502    132577.19   -33899.145    2667.9331   -36567.078     45.60948    250.28978 
   14200     139.4246   -1341.0744    132563.84   -33929.595    2633.2306   -36562.825    45.586576     247.0342 
   14250    141.74401   -1025.9617    132584.76   -33902.763    2677.0358   -36579.798     45.70505    251.14375 
   14300    139.24778   -1056.3874    132647.77   -33956.793     2629.891   -36586.684    46.040123     246.7209 
   14350    141.04363   -1162.6098    132667.88   -33916.953    2663.8082   -36580.761    46.414643    249.90281 
   14400    139.03663   -1199.0691    132695.01   -33948.149    2625.9031   -36574.053    46.596079    246.34677 
   14450    140.35609   -1340.7375    132638.52   -33997.005     2650.823   -36647.828    46.855148    248.68462 
   14500    139.56415   -1093.2114    132657.81    -33988.17    2635.8662   -36624.036     47.02256    247.28145 
   14550    139.15145      -1163.5    132668.47   -33964.319    2628.0717   -36592.391    47.236217    246.55022 
   14600    142.54626   -1288.0227    132729.43   -33939.607    2692.1875   -36631.794     47.54572    252.56519 
   14650    135.98022   -1184.4683    132596.62   -34008.507    2568.1784   -36576.686    47.989373    240.93139 
   14700    138.26394   -1485.0503    132569.15   -33985.525    2611.3097   -36596.835    48.200352    244.97771 
   14750    140.65865   -1372.0763    132495.51   -34011.373    2656.5373   -36667.911     48.21776     249.2207 
   14800    140.52685   -1353.6758    132456.04   -33994.773     2654.048   -36648.821    48.331385    248.98716 
   14850    139.68085   -1250.8359    132387.44   -33980.738    2638.0702   -36618.809    48.351712    247.48822 
   14900    139.70297   -1083.0836    132406.44   -33932.384    2638.4879   -36570.872    48.290557    247.52741 
   14950    138.07298   -1099.0804    132424.17   -33988.663    2607.7032   -36596.367     48.65279    244.63937 
   15000    137.18389   -1245.3211    132411.25   -34003.032    2590.9115   -36593.943    48.617959    243.06407 
   15050    139.01232   -1385.5126    132405.46   -33992.904    2625.4441   -36618.348    48.811192    246.30371 
   15100    138.80445   -1106.4035    132316.78   -33996.815    2621.5181   -36618.333     49.05294    245.93541 
   15150    140.49996    -1232.001    132362.02    -34042.58    2653.5402    -36696.12    49.349402    248.93953 
   15200     139.3801   -1386.8997    132320.58   -34053.732    2632.3901   -36686.122    49.799488    246.95535 
   15250    139.54456     -1221.78    132269.12   -34118.121    2635.4961   -36753.617    50.028498    247.24673 
   15300    139.71265   -1276.5516    132388.02    -34101.86    2638.6708   -36740.531    50.243429    247.54457 
   15350    137.36341   -937.00537    132476.81   -34096.822     2594.302   -36691.124    50.394358    243.38214 
   15400    139.49389   -1128.7026    132516.63   -34146.622    2634.5391   -36781.161     50.44124    247.15696 
   15450     140.0571   -1079.3078    132471.15   -34113.765    2645.1762   -36758.941    50.524594    248.15487 
   15500    140.97852   -1135.4471    132506.22    -34127.23    2662.5784   -36789.808    50.461847    249.78744 
   15550    139.16548   -1182.1891     132494.5   -34121.867    2628.3367   -36750.203    50.635314    246.57508 
   15600    136.48724   -1125.6178    132481.87   -34141.564    2577.7543   -36719.318    50.856116    241.82974 
   15650     137.8008   -1284.3972    132523.79   -34139.032    2602.5628   -36741.595    50.869533    244.15713 
   15700    138.64068   -1100.8638    132628.21   -34114.071    2618.4251   -36732.496    50.868883    245.64524 
   15750    137.88312   -1343.7026     132575.6   -34110.081    2604.1174   -36714.199    50.947168    244.30297 
   15800      136.512   -1164.0744    132580.73   -34115.492     2578.222   -36693.714    51.206318    241.87362 
   15850     139.4754   -1335.4489    132591.51   -34126.192    2634.1899   -36760.382    51.304188    247.12419 
   15900    138.11842   -1106.0832    132617.11   -34143.441    2608.5615   -36752.002    51.434385    244.71989 
   15950    140.57692   -1204.4553    132631.88   -34116.862    2654.9936   -36771.855    51.620211    249.07588 
   16000    139.43414   -1201.6717     132571.8   -34134.185    2633.4107   -36767.596    51.711509     247.0511 
   16050    140.75473   -1079.9189    132559.82    -34170.48    2658.3519   -36828.832      51.8544    249.39093 
   16100      135.869   -1282.2314    132589.23   -34155.116    2566.0779   -36721.194     51.95173    240.73433 
   16150    140.68894   -1224.1834    132637.01   -34085.915    2657.1094   -36743.024    52.365282    249.27437 
   16200    136.79447   -1200.3304    132667.61   -34104.015    2583.5567   -36687.572    52.376782    242.37409 
   16250    136.61889    -1030.153    132679.66   -34096.811    2580.2407   -36677.051     52.47128      242.063 
   16300    139.16788   -1147.9782    132727.26   -34103.533    2628.3821   -36731.915    52.775427    246.57934 
   16350    140.45947   -1349.3017    132724.27   -33990.591    2652.7755   -36643.366    52.750554    248.86779 
   16400    141.26468   -1258.5361    132632.33   -33953.068     2667.983   -36621.051    52.961083    250.29446 
   16450    140.82579   -1428.2518    132644.45   -34027.155     2659.694   -36686.849    53.193001    249.51684 
   16500    141.41667    -1368.562    132586.76   -34007.205    2670.8536   -36678.059    53.440251    250.56377 
   16550    139.95094   -1195.1596    132640.87     -34031.6    2643.1711   -36674.771    53.580774    247.96676 
   16600    139.14378   -1246.4551    132546.59   -34018.552    2627.9268   -36646.479    53.695608    246.53663 
   16650    138.39484   -1183.7806     132517.5   -34026.157    2613.7821   -36639.939    54.112016    245.20965 
   16700    139.64719   -1362.6739     132486.3   -33954.001    2637.4344   -36591.435     54.18654    247.42857 
   16750    144.22338   -1149.3106    132469.25   -33938.429    2723.8622   -36662.291    54.669984    255.53672 
   16800    137.84673   -963.29416    132560.85   -33953.813    2603.4302   -36557.243    55.089704    244.23851 
   16850    141.71239   -1170.0271    132610.66   -33914.997    2676.4387   -36591.435    55.519056    251.08773 
   16900    141.23891   -1407.1768    132438.45    -33946.41    2667.4964   -36613.906    55.616788    250.24881 
   16950    139.71379   -1291.5796    132379.11   -33997.588    2638.6922    -36636.28    55.667883    247.54657 
   17000    142.28746   -1087.6632    132411.57   -33994.197    2687.2996   -36681.497    55.964123    252.10664 
   17050    138.64191   -797.70144    132508.01   -34000.944    2618.4483   -36619.393    56.265207    245.64741 
   17100    138.06215   -1208.6325     132533.7   -33990.748    2607.4987   -36598.247      56.2758    244.62019 
   17150    138.74815   -1161.3285    132553.22   -33973.292    2620.4548   -36593.746    56.489056    245.83565 
   17200    138.55376   -1275.0137    132442.17   -34031.011    2616.7835   -36647.795    56.638901    245.49123 
   17250    136.18586   -1374.3178    132320.79   -34088.273    2572.0624   -36660.335    56.811659    241.29576 
   17300    140.64055    -1290.185    132184.79   -34005.874    2656.1954   -36662.069    56.777199    249.18862 
   17350     138.1401   -1243.2145     132168.2   -34003.463    2608.9709   -36612.434    56.954549     244.7583 
   17400    142.05699   -989.44383    132178.22   -33980.901     2682.947   -36663.848    57.228381     251.6983 
   17450    142.19555   -1267.7522    132235.74   -33917.768    2685.5637   -36603.332    57.330907    251.94379 
   17500    137.97709   -1072.3921    132288.02   -33992.962    2605.8922   -36598.854    57.630159    244.46947 
   17550    140.40211   -1062.7427    132334.32   -33986.977    2651.6921   -36638.669    57.662157    248.76615 
   17600    140.60305   -1491.5643     132345.2   -34010.272    2655.4871    -36665.76    57.828777    249.12218 
   17650    138.74481   -1368.5111    132328.92    -34032.69    2620.3918   -36653.082    57.959523    245.82974 
   17700    139.55144   -1332.2777    132367.92   -34066.841     2635.626   -36702.467    58.110435    247.25893 
   17750    138.59234   -1150.6533    132380.88   -34049.011    2617.5121   -36666.523    58.009635    245.55958 
   17800    138.50241   -1019.1608    132437.09   -34039.721    2615.8136   -36655.535    58.043693    245.40024 
   17850    140.05726   -1151.3858    132495.04   -34011.989    2645.1792   -36657.169    58.493485    248.15514 
   17900     140.1483   -1340.9312    132547.45   -34026.421    2646.8986    -36673.32    58.689604    248.31645 
   17950    140.07615   -1113.9372    132545.86   -34012.343     2645.536   -36657.879    58.875724    248.18862 
   18000    138.95394   -1263.9637    132574.38    -34025.84    2624.3414   -36650.182    58.938969    246.20027 
   18050    138.72058   -1378.0778    132620.51   -34013.988    2619.9341   -36633.922    59.292293     245.7868 
   18100    140.53892    -1085.658     132612.2   -34019.426    2654.2761   -36673.702    59.430965    249.00856 
   18150    141.46109   -872.01707     132626.8   -34010.386    2671.6924   -36682.078    59.386082    250.64246 
   18200    139.51994   -1029.7558    132687.25   -33974.057    2635.0311   -36609.088    59.595146    247.20312 
   18250    142.74547   -924.11064    132754.81   -34007.479    2695.9499   -36703.429    60.058621    252.91816 
   18300    140.56466   -1112.3428    132928.32   -34002.491    2654.7622   -36657.253     60.10075    249.05416 
   18350    139.72167   -1103.3833       133055   -33967.058    2638.8412     -36605.9     60.29852    247.56055 
   18400    141.66998   -1115.4426    133094.27   -33888.908    2675.6377   -36564.546    60.336108    251.01258 
   18450    139.66254   -1047.0203    133056.04   -33889.974    2637.7243   -36527.698    60.263976    247.45577 
   18500    140.84814   -1165.7205    133076.34    -33907.51    2660.1161   -36567.626     60.51499    249.55644 
   18550    140.70574   -1157.9283    133122.13   -33900.418    2657.4266   -36557.845    60.698785    249.30413 
   18600    142.75695   -1386.7122    133156.81   -33895.139    2696.1666   -36591.306    61.053438    252.93849 
   18650    141.67627   -1546.8891    133202.42   -33907.136    2675.7565   -36582.892    61.179022    251.02373 
   18700     140.0226   -1263.0345    133212.86   -33936.362    2644.5246   -36580.887    61.151916    248.09374 
   18750    138.79309   -1294.4696    133220.34   -33974.245    2621.3036   -36595.549    61.180787    245.91528 
   18800    139.77385   -1122.3633    133215.07   -33998.171    2639.8266   -36637.997    61.423939    247.65299 
   18850    140.34543   -1080.5409    133313.05   -33978.912    2650.6217   -36629.533    61.684789    248.66573 
   18900    138.21849   -1067.2607    133477.81   -33937.657    2610.4515   -36548.108    61.873547     244.8972 
   18950    139.85895   -1284.4267    133627.71   -33979.436    2641.4338   -36620.869    62.243945    247.80377 
   19000    135.53342     -1123.53    133680.25   -33999.292      2559.74   -36559.032    62.429227    240.13974 
   19050    142.83457   -1259.1502    133632.12   -33944.167    2697.6327     -36641.8    62.346782    253.07603 
   19100    139.99965    -1278.851    133689.27   -33947.078    2644.0911   -36591.169     62.52147    248.05307 
   19150    138.14711   -1211.2621    133617.02   -34016.968    2609.1033   -36626.071    62.722759    244.77072 
   19200     139.1757   -1358.3576    133560.58   -33976.549    2628.5297   -36605.079     62.92796    246.59319 
   19250    139.47956   -1359.3196    133493.69   -34013.312    2634.2685   -36647.581    63.017025    247.13157 
   19300    139.66982   -1364.7264       133469   -34032.889    2637.8618    -36670.75    63.120716    247.46867 
   19350    138.64969   -1209.6923    133393.72   -34079.362    2618.5951   -36697.957    63.399792    245.66119 
   19400     138.2335   -1303.5479    133366.16   -34098.189    2610.7349   -36708.924    63.171177    244.92378 
   19450    139.83928   -1088.3134    133341.29   -34073.472    2641.0624   -36714.534    63.437458    247.76893 
   19500    139.12079   -978.30087    133381.33    -34080.34    2627.4926   -36707.833    63.568509    246.49589 
   19550    141.85139   -1246.8262    133398.48   -34087.407    2679.0638    -36766.47     63.92739      251.334 
   19600     137.7222   -1216.7272    133397.98   -34113.639    2601.0783   -36714.717    64.090003    244.01786 
   19650    137.31341   -1602.6914    133470.25   -34132.142    2593.3577   -36725.499    64.334848    243.29356 
   19700    133.94875    -1048.284    133412.73   -34178.163    2529.8113   -36707.975    64.563791    237.33201 
   19750    140.50281   -1150.3329    133387.35   -34083.599    2653.5941   -36737.193    64.606259    248.94458 
   19800     138.6697   -1109.1766    133473.94   -34064.309    2618.9732   -36683.282    64.703649    245.69665 
   19850    140.46588   -1036.3504    133502.44     -34069.2    2652.8965   -36722.096    64.699996    248.87913 
   19900    139.62038   -1030.3676    133497.39   -34032.492     2636.928    -36669.42    64.717085    247.38107 
   19950    140.47902   -1142.1431    133519.06   -34017.932    2653.1447   -36671.076    64.857455    248.90243 
   20000    134.24205   -1399.7105    133473.12   -34068.978    2535.3507   -36604.328      64.9217    237.85169 
   20050    139.28261   -1353.9825     133391.7   -34100.241    2630.5489   -36730.789    65.178529    246.78262 
   20100    137.40944   -1373.6474    133279.05    -34097.81    2595.1714   -36692.981    65.409175    243.46371 
   20150     141.1532   -1289.7299     133288.9   -34063.909    2665.8776   -36729.787    65.508681    250.09695 
   20200    138.51853   -1384.9867    133269.33   -34063.939     2616.118   -36680.057    65.639043     245.4288 
   20250    140.72866   -1432.1092    133199.67    -34097.84    2657.8595     -36755.7     65.79934    249.34473 
   20300    140.04118   -1271.1372     133138.4   -34060.788    2644.8755   -36705.663    65.994577    248.12665 
   20350    140.13807   -1223.6232    133079.85   -34042.447    2646.7054   -36689.152    65.928362    248.29833 
   20400     141.0469   -1158.9108    133112.53    -33999.24      2663.87   -36663.109      66.0861     249.9086 
   20450    139.21401   -1297.8251    133060.14   -34036.667    2629.2532   -36665.921    66.198926    246.66106 
   20500    141.04366   -1346.0231    133002.38   -33990.458    2663.8087   -36654.267    66.153714    249.90285 
   20550    144.49955   -1161.0017    132963.66    -33952.45     2729.078   -36681.528    66.106099    256.02604 
   20600    139.36255   -860.27378     132936.6   -33984.169    2632.0586   -36616.227    66.316771    246.92425 
   20650    138.18732    -1254.102    132823.04   -34024.186    2609.8627   -36634.049    66.310476    244.84196 
   20700     139.8449    -1000.413    132725.62   -34070.007    2641.1684   -36711.175    66.159115    247.77888 
   20750    136.35994    -1540.123    132639.32   -34127.739    2575.3501   -36703.089    66.247666    241.60419 
   20800    138.48975   -1149.5034    132628.18   -34119.126    2615.5746   -36734.701    66.166606    245.37782 
   20850    139.22853   -1412.3505     132602.9   -34078.137    2629.5275   -36707.664     66.61411     246.6868 
   20900    138.63415   -1664.7969    132502.04   -34115.914    2618.3018   -36734.215    66.580772    245.63367 
   20950    138.19815   -1413.9333     132438.5   -34077.822    2610.0672   -36687.889    66.559707    244.86115 
   21000    136.95669    -1373.116    132442.96   -34061.891    2586.6206   -36648.511    66.984204    242.66153 
   21050    140.13323   -1065.8081     132371.1   -34018.724    2646.6139   -36665.338    67.008715    248.28975 
   21100    142.51891   -1061.9013    132365.66   -34025.505    2691.6708   -36717.176    66.954591    252.51672 
   21150    140.47365   -1345.2239    132279.66   -33996.255    2653.0432   -36649.299    67.207137     248.8929 
   21200    141.03024   -1131.8697    132224.34   -33983.439    2663.5553   -36646.994    67.403149    249.87908 
   21250    141.25735   -1337.1361     132194.5   -34006.789    2667.8446   -36674.634    67.504327    250.28148 
   21300    137.54491   -1110.9244    132169.32   -34072.164    2597.7298   -36669.893    67.611936    243.70373 
   21350    138.94519   -1191.1821    132162.23   -34071.442    2624.1762   -36695.618    67.583039    246.18477 
   21400    140.24922   -933.58235    132075.61   -34099.513    2648.8046   -36748.317    67.711509    248.49526 
   21450    139.04229   -1206.8594    132173.37   -34111.917    2626.0101   -36737.927    67.891076    246.35681 
   21500    139.44533   -1151.8418    132144.99   -34077.456    2633.6221   -36711.078    68.149463    247.07093 
   21550    138.02099   -1145.1575    132127.26   -34058.784    2606.7214   -36665.505    68.484974    244.54726 
   21600    141.94494   -1291.1448    132090.25   -33954.489    2680.8308    -36635.32    68.670735    251.49977 
   21650    140.23142   -1211.1821    132067.38   -33991.762    2648.4684    -36640.23    68.955918    248.46372 
   21700    139.15642   -1266.5694    131967.91    -33977.16    2628.1655   -36605.326    69.130915    246.55902 
   21750    138.57532   -1007.9618    131955.62   -33999.832    2617.1907   -36617.022    69.363125    245.52943 
   21800    139.15212   -1229.0668    131924.05   -33984.673    2628.0844   -36612.757     69.64076    246.55141 
   21850    139.59191   -1161.0686    131932.62   -34026.367    2636.3904   -36662.757    69.933262    247.33064 
   21900    139.17531   -1235.9399    131998.09    -33961.54    2628.5222   -36590.062    70.156633    246.59249 
   21950    139.25214    -1185.098    132027.57   -33974.382    2629.9733   -36604.355    70.273285    246.72862 
   22000     139.2709   -1085.6538     132028.4   -33947.074    2630.3276   -36577.401    70.246904    246.76186 
   22050     142.0329   -1093.9868    132030.72   -33914.607    2682.4919   -36597.099    70.244471     251.6556 
   22100    141.94082   -1071.0448    132023.55   -33919.413    2680.7529   -36600.166    70.454554    251.49246 
   22150    140.40521    -1341.363    132094.29   -33932.758    2651.7507   -36584.509    70.455426    248.77164 
   22200    142.21839   -1189.9382     132125.9   -33947.489    2685.9951   -36633.484    70.786858    251.98426 
   22250    140.04488   -1129.4503    132120.59   -33877.089    2644.9453   -36522.034    71.106986    248.13321 
   22300    143.04805   -1148.1689    132106.32   -33926.629    2701.6644   -36628.294    71.142974    253.45426 
   22350    142.08986   -1311.9028    132159.38   -33963.056    2683.5677   -36646.624    71.270665    251.75653 
   22400    140.77246   -1358.8895    132215.42   -33989.764    2658.6868   -36648.451      71.4216    249.42235 
   22450    140.00949   -874.12081    132284.09   -34028.673    2644.2769    -36672.95    71.683588     248.0705 
   22500    141.80484   -1159.1001    132318.72   -34018.477    2678.1846   -36696.662    71.985093    251.25152 
   22550    142.24288   -1246.3049    132353.07   -34056.049    2686.4576   -36742.507     72.35868    252.02764 
   22600    139.82631   -1275.9062    132409.58   -34010.363    2640.8173    -36651.18    72.625507    247.74594 
   22650     138.9611   -971.83483    132497.87   -34032.532    2624.4767   -36657.009    72.841823    246.21296 
   22700    139.24613   -1082.8062    132613.56   -34054.399    2629.8599   -36684.259     72.97489    246.71798 
   22750     141.2163   -885.11112    132697.25   -34022.069    2667.0693   -36689.139    73.210973    250.20875 
   22800    138.00736   -1123.0195    132646.93   -34032.742     2606.464   -36639.205    73.240073    244.52311 
   22850    140.62709    -1205.308    132683.47   -34009.126    2655.9413   -36665.067    73.638748    249.16478 
   22900    140.22076   -1384.8376    132678.78    -34012.09     2648.267   -36660.357    73.787777    248.44483 
   22950    138.91651   -1447.1621    132630.29   -34037.759    2623.6345   -36661.394    74.131856    246.13395 
   23000    141.96664   -1109.6413    132570.03   -34029.465    2681.2404   -36710.706    74.308171     251.5382 
   23050    136.79666   -1394.4497    132501.33    -34069.42    2583.5981   -36653.018    74.535775    242.37797 
   23100    133.94852   -1282.0459    132491.79   -34135.477     2529.807   -36665.284    74.568719     237.3316 
   23150    135.22762   -1316.6436    132449.49   -34118.268    2553.9646   -36672.232    74.396834    239.59793 
   23200    136.30075   -1122.4963    132518.57   -34087.188    2574.2321    -36661.42    74.695347    241.49931 
   23250    135.08381   -1271.2566    132504.17   -34114.487    2551.2485   -36665.736    74.757518    239.34313 
   23300    137.90008    -968.5917    132509.91   -34076.711    2604.4377   -36681.149    74.848835    244.33302 
   23350    138.86118   -1197.8282    132545.95   -34069.997    2622.5895   -36692.587    75.145497    246.03592 
   23400    137.88773   -1459.6643    132512.38   -34090.334    2604.2045   -36694.539     75.53979    244.31114 
   23450     138.6382   -1106.8881    132496.49    -34089.55    2618.3782   -36707.928     75.59635    245.64084 
   23500    140.68762   -1099.0757     132667.4   -34032.428    2657.0844   -36689.512    75.714761    249.27202 
   23550    138.42967   -1205.9722    132724.06   -34002.362    2614.4398   -36616.802    75.717727    245.27136 
   23600    140.59057   -1427.4009    132682.77   -34038.599    2655.2515    -36693.85    75.908272    249.10007 
   23650    142.96286   -1299.4652    132655.76   -34007.994    2700.0556   -36708.049    76.090733    253.30333 
   23700    141.20665   -1176.9758     132637.5   -34035.823    2666.8869    -36702.71    76.276217    250.19164 
   23750     143.4061   -1176.3478    132658.88   -34024.452    2708.4268   -36732.878    76.422148    254.08867 
   23800    138.90105   -962.15186    132678.97   -34064.435    2623.3425   -36687.778    76.676564    246.10656 
   23850     137.9669   -906.28738    132825.63   -34027.584    2605.6998   -36633.284    76.866255    244.45142 
   23900    139.60193     -803.452    132949.64   -33996.693    2636.5797   -36633.272    77.040834    247.34839 
   23950    139.93478   -1165.4722    132975.02   -33977.527    2642.8659   -36620.393    77.101514    247.93813 
   24000    142.31063   -1167.6933    133002.64    -34015.55    2687.7373   -36703.287    77.432876    252.14769 
   24050    141.29574   -1267.7006     133021.4   -34010.238    2668.5696   -36678.808    77.383308    250.34949 
   24100    142.87317   -1156.3744    133083.35   -34025.776    2698.3615   -36724.138    77.444205     253.1444 
   24150     145.5331   -990.22094    133162.86    -34047.98    2748.5981   -36796.578    77.508995     257.8573 
   24200     140.1661   -1307.7218    133154.56    -34085.89    2647.2348   -36733.124    77.442168    248.34799 
   24250    139.86344   -1271.0876    133109.88   -34142.862    2641.5186   -36784.381    77.483057    247.81173 
   24300    138.63717    -1459.804    133086.06   -34146.763    2618.3588   -36765.122    77.607171    245.63902 
   24350    137.69842   -1464.6887    133084.91   -34134.912    2600.6293   -36735.542    78.013857    243.97573 
   24400    139.56037   -1160.1976    133008.53   -34106.239    2635.7946   -36742.033     78.16452    247.27474 
   24450    136.38599   -1284.3876    132970.06   -34110.902     2575.842   -36686.744    78.254575    241.65034 
   24500    135.44498   -1330.6836    132889.95   -34219.368    2558.0697   -36777.438    78.142576    239.98305 
   24550    137.33536   -1225.8113    132891.41   -34203.591    2593.7722   -36797.364    78.350622    243.33244 
   24600    135.78936   -1217.5427    132930.74   -34191.865    2564.5738   -36756.439    78.550656    240.59322 
   24650    136.60702   -1130.9094    132890.67   -34185.423    2580.0166    -36765.44    78.867197    242.04197 
   24700    139.88473   -1222.9878    132966.96   -34104.162    2641.9207   -36746.082    79.331051    247.84946 
   24750    137.25926   -1195.5469    133003.38   -34135.028     2592.335   -36727.363    79.489743    243.19761 
   24800    139.39194   -1353.5991    133017.28    -34102.55    2632.6136   -36735.164    79.461714    246.97632 
   24850    135.54123    -1179.678    133023.79   -34160.488    2559.8875   -36720.376    79.629772    240.15358 
   24900    138.93789    -1186.351    132968.45    -34117.05    2624.0383   -36741.088    79.745122    246.17183 
   24950    142.88071   -1172.1021    133001.92   -34073.653    2698.5041   -36772.157    79.808241    253.15777 
   25000    139.24492   -1071.1136    133079.28   -34015.541    2629.8371   -36645.378    80.014374    246.71584 
   25050    139.49897    -1166.291    133089.75   -33992.222     2634.635   -36626.857    80.192915    247.16595 
   25100    140.46992   -1069.7655    132977.87    -34025.64    2652.9728   -36678.613    80.207615     248.8863 
   25150    141.63666   -1017.7929     133041.1     -34036.7    2675.0083   -36711.709    80.654959    250.95354 
   25200    136.83262   -1202.2121    133090.03   -34070.967    2584.2774   -36655.244    80.757044    242.44169 
   25250    139.13571   -1301.4714    132990.45   -34072.419    2627.7745   -36700.193    80.995793    246.52234 
   25300     141.0558   -1239.1838    133008.66   -33959.038    2664.0381   -36623.076    80.973223    249.92438 
   25350     141.4445   -1258.0479    132955.06   -33934.489    2671.3792   -36605.869    81.121037    250.61308 
   25400    141.99615    -1306.092    132841.45   -34021.749    2681.7978   -36703.547    81.339349    251.59049 
   25450    141.15393   -1369.5576     132733.4   -33974.269    2665.8913    -36640.16    81.526788    250.09823 
   25500    141.71472   -860.19586    132732.01   -33993.638    2676.4826   -36670.121    81.561705    251.09185 
   25550    143.22742   -1029.3286    132817.43   -33999.876    2705.0522   -36704.928    81.519471    253.77208 
   25600    142.37891   -1092.4401    132862.76   -33979.679    2689.0268   -36668.706    81.630533    252.26867 
   25650     145.6869   -1327.9385    132853.59   -33978.145    2751.5029   -36729.648    81.767124    258.12981 
   25700    140.19966   -915.61322    132926.96   -33995.988    2647.8687   -36643.856    82.311635    248.40746 
   25750    141.63875   -1188.7838    132964.07   -34050.074    2675.0478   -36725.122    82.673573    250.95724 
   25800    139.96024   -1217.5369     133027.8   -34070.884    2643.3469   -36714.231    83.122498    247.98325 
   25850    139.69027   -1275.3652     133015.5   -34094.373    2638.2481   -36732.621    83.428372    247.50491 
   25900    141.70391   -1091.3296    132964.05   -34085.696    2676.2785   -36761.974    83.530574     251.0727 
   25950    139.66738   -1187.5879    132915.61   -34078.548    2637.8157   -36716.364    83.540971    247.46435 
   26000    140.60287    -1020.575    132901.64   -34062.594    2655.4838   -36718.078    83.548791    249.12186 
   26050     139.7636   -1256.2895    132892.41   -34038.594     2639.633   -36678.227    83.726294    247.63484 
   26100    142.70857    -1307.706    132897.95   -34023.899    2695.2528   -36719.152    83.447375    252.85276 
   26150    140.71071   -1662.6669    132815.75   -34069.492    2657.5205   -36727.012    83.536728    249.31294 
   26200    141.46958   -1193.0362    132758.41   -34042.659    2671.8529   -36714.512    83.551412    250.65752 
   26250    140.70865   -1250.3185     132722.5    -34019.75    2657.4817   -36677.232    83.577702    249.30929 
   26300    141.58207   -1172.9791    132698.87   -34034.195    2673.9774   -36708.172    83.645797    250.85682 
   26350    140.16946    -1145.952     132666.6   -34017.432    2647.2983   -36664.731    84.152389    248.35395 
   26400    139.63298   -1365.1616    132697.28   -34054.156     2637.166   -36691.322    84.299085    247.40339 
   26450    139.35625   -1223.5744    132666.53   -34080.373    2631.9396   -36712.313    84.458308    246.91309 
   26500    139.42458   -1222.8551    132661.98   -34064.641    2633.2302   -36697.872    84.353417    247.03416 
   26550    139.33348    -1403.409    132758.81   -34080.933    2631.5096   -36712.442    84.572134    246.87275 
   26600    137.73294   -1301.9856    132792.45   -34087.436    2601.2811   -36688.717    84.880024    244.03689 
   26650     140.6754   -1299.7359    132820.38   -34082.625    2656.8536   -36739.479    84.817693    249.25037 
   26700    138.30917   -1395.7507    132743.56   -34102.606     2612.164    -36714.77    85.180454    245.05786 
   26750    139.14081   -1463.2836    132679.29   -34086.608    2627.8707   -36714.478    85.132618    246.53137 
   26800    137.59927   -1216.6736    132624.26   -34105.551    2598.7565   -36704.308    85.100042    243.80004 
   26850    139.37281   -1261.1378    132686.33   -34075.855    2632.2524   -36708.108    85.237939    246.94243 
   26900    136.37095   -1223.6894     132665.2   -34057.574     2575.558   -36633.132    85.348796    241.62369 
   26950    139.90135   -1194.5277    132678.86   -34020.242    2642.2346   -36662.477    85.864373     247.8789 
   27000    139.61277   -1189.4905    132660.94   -34057.122    2636.7844   -36693.907    86.123749     247.3676 
   27050    139.79543   -1329.6909    132575.28   -34064.893    2640.2341   -36705.127    86.091961    247.69122 
   27100    139.15741   -1372.8297    132599.21   -34070.851    2628.1843   -36699.035    86.003675    246.56078 
   27150    138.02932   -1334.3471    132559.15   -34056.763    2606.8787   -36663.642     86.51204    244.56202 
   27200    139.84882   -1016.0805    132582.33   -34065.535    2641.2424   -36706.778     86.88192    247.78582 
   27250    138.90788   -1164.4054    132643.36   -34061.468    2623.4714   -36684.939    86.862577    246.11865 
   27300    139.39774   -1223.8279    132684.61   -34020.529    2632.7232   -36653.253    86.983003     246.9866 
   27350    140.37986   -1096.2995     132735.3   -33989.205    2651.2719   -36640.476    87.176421    248.72673 
   27400    142.57079    -1410.889    132744.15   -33960.867    2692.6507   -36653.518    87.660102    252.60864 
   27450    141.21526   -1417.4236    132752.69   -33962.635    2667.0497   -36629.685     87.95127    250.20691 
   27500    140.53623   -1230.1711    132722.76   -34032.772    2654.2252   -36686.998    88.227389    249.00379 
   27550    137.38804   -1046.4341    132819.36   -33998.386    2594.7672   -36593.153    88.338388    243.42579 
   27600    139.65625   -1252.9984     132899.4   -34005.274    2637.6055    -36642.88    88.709151    247.44463 
   27650    139.89307   -1146.6196    132950.42   -33977.068    2642.0781   -36619.146    89.045337    247.86422 
   27700    138.86878    -1112.549    132990.88   -34004.421     2622.733   -36627.154     89.36111    246.04938 
   27750    139.71315   -1137.0715    133073.31    -33956.37    2638.6803   -36595.051    89.295772    247.54545 
   27800    140.86813   -1084.9522    133185.09   -33949.329    2660.4935   -36609.822    89.529861    249.59185 
   27850    142.73861   -1288.2615    133194.25   -33946.122    2695.8202   -36641.942    89.517932    252.90599 
   27900    143.34474   -1446.9275    133126.11   -33960.228    2707.2679   -36667.496    89.517004    253.97994 
   27950    141.61937   -1228.8307    133097.85    -33960.06    2674.6818   -36634.742    89.921357    250.92291 
   28000     141.2154   -1310.5453    133053.33   -33947.774    2667.0524   -36614.827    90.216566    250.20716 
   28050      142.947   -1172.2158     133007.5   -33961.202    2699.7559   -36660.958    90.340724    253.27522 
   28100    141.91902   -1353.2491    133024.74   -33925.953    2680.3411   -36606.294    90.380737    251.45383 
   28150    141.24981   -1522.4768    132928.77    -33948.69    2667.7022   -36616.393    90.406697    250.26813 
   28200    141.69687   -1528.4227    132840.22   -33934.896    2676.1455   -36611.041    90.421476    251.06022 
   28250    139.91796   -1235.1716    132745.99   -33972.488    2642.5482   -36615.036    90.711585    247.90832 
   28300    140.27866   -1387.4644    132711.03    -33940.77    2649.3606   -36590.131    90.875257    248.54742 
   28350    141.70252   -1455.7394    132712.13   -33910.468    2676.2522    -36586.72    91.239015    251.07024 
   28400    141.81265   -1189.1863    132748.55   -33890.115    2678.3322   -36568.447    91.428889    251.26536 
   28450    144.46356   -1114.2034     132798.1   -33859.887    2728.3984   -36588.286    91.550409    255.96229 
   28500    141.44843   -1060.4815    132796.93   -33924.833    2671.4535   -36596.286    91.727669    250.62005 
   28550    142.30881   -1097.7179    132774.09   -33961.895     2687.703   -36649.598    91.839647    252.14448 
   28600    142.13667   -998.76112    132828.53   -33963.544    2684.4517   -36647.996    92.245835    251.83946 
   28650     141.1747   -974.61601    132886.22   -34001.142    2666.2837   -36667.426    92.446876    250.13505 
   28700    140.72759   -1495.4212    132821.94    -33978.78    2657.8394   -36636.619    92.655783    249.34285 
   28750    140.81301   -1236.7574    132875.94    -33989.28    2659.4526   -36648.732    92.724541    249.49419 
   28800    142.94052   -1365.6317    132847.87   -34040.978    2699.6336   -36740.611    92.873927    253.26374 
   28850     139.8303   -1179.2169     132802.3   -33982.726    2640.8927   -36623.619    93.069672    247.75302 
   28900    140.89866    -1326.664    132744.11   -33994.048    2661.0702   -36655.118    93.198716    249.64595 
   28950    140.27146   -997.75722    132702.16   -34011.631    2649.2247   -36660.856    93.337129    248.53467 
   29000    142.99812   -1191.4766    132693.16   -33993.728    2700.7214    -36694.45     93.49639    253.36579 
   29050    142.61305    -1070.688    132764.72   -34009.525    2693.4488   -36702.974    93.417661    252.68352 
   29100    141.94259   -1061.8058    132809.24   -34039.628    2680.7864   -36720.414    93.691626     251.4956 
   29150    139.90392   -1122.8483    132815.49   -34020.791    2642.2831   -36663.074    93.816384    247.88345 
   29200    146.75163   -1123.7607    132926.63   -33916.439    2771.6119   -36688.051    93.917349    260.01632 
   29250    142.57615   -1163.0848    132980.11   -33928.385     2692.752   -36621.137    94.103347    252.61815 
   29300    142.57527   -1230.2907    133074.69   -33942.416    2692.7353   -36635.151    94.194424    252.61658 
   29350    141.17907   -1224.2425    133124.85   -33970.381    2666.3661   -36636.748    94.340308    250.14278 
   29400     141.9688   -1271.6315    133185.71   -33985.062    2681.2813   -36666.344    94.647729    251.54204 
   29450    139.33302   -1234.3939    133240.04   -34031.229    2631.5009    -36662.73    94.892819    246.87193 
   29500    137.63824   -1374.8078    133248.78    -34074.03    2599.4926   -36673.523     95.14543     243.8691 
   29550    141.14859   -1372.4467     133254.3   -34104.797    2665.7905   -36770.587     95.20566    250.08878 
   29600    137.65892   -1379.3248    133256.47   -34074.303    2599.8831   -36674.186    95.159934    243.90573 
   29650    140.65233   -1199.6302    133256.44   -34040.793     2656.418   -36697.211    95.237026     249.2095 
   29700    141.54279   -1314.8896    133207.79   -34033.833    2673.2356   -36707.068    95.300207    250.78723 
   29750    139.15809   -1500.5685    133194.29   -34031.418    2628.1971   -36659.615    95.425441    246.56199 
   29800    140.30735   -1305.5279    133139.78   -34037.933    2649.9024   -36687.836    95.412866    248.59825 
   29850    140.52687   -1302.2584     133165.2   -33962.398    2654.0485   -36616.447    95.880047    248.98721 
   29900    140.23857   -1206.2449    133137.23   -34023.595    2648.6035   -36672.198    96.107554     248.4764 
   29950    141.33807    -1203.769    133165.67   -34017.101     2669.369    -36686.47    96.263436    250.42449 
   30000    140.67768   -1287.5227    133210.25   -34004.524    2656.8966   -36661.421    96.416118    249.25441 
   30050    139.31121   -1293.0779    133170.96   -34013.873     2631.089   -36644.962    96.925437    246.83329 
   30100    140.12703   -1273.4493    133197.52   -34024.277    2646.4969   -36670.774     97.02722    248.27877 
   30150    140.67881   -1156.5718    133230.28   -34031.698     2656.918   -36688.616    96.872436    249.25641 
   30200     138.1743   -1080.1144    133224.06   -34067.937    2609.6169   -36677.554    96.898328     244.8189 
   30250    137.83816   -1243.8331    133248.59   -34095.549    2603.2684   -36698.818    97.231093    244.22332 
   30300    138.39169   -1404.7776    133272.05    -34086.74    2613.7226   -36700.462    97.347732    245.20407 
   30350    138.00951   -1288.9565    133221.22   -34082.115    2606.5046    -36688.62     97.40575    244.52692 
   30400    139.59416   -1211.6023    133197.34   -34044.826    2636.4329   -36681.259    97.688286    247.33462 
   30450    139.63378   -1077.7963    133243.94   -34046.111    2637.1812   -36683.292    97.923306    247.40482 
   30500    141.33752   -1375.5328    133284.06    -34072.37    2669.3587   -36741.729    98.165962    250.42353 
   30550    140.91149   -1215.7446    133254.66   -34021.864    2661.3125   -36683.177    98.238048    249.66867 
   30600    143.99559    -1409.996    133274.22    -33969.22    2719.5602   -36688.781    98.266093    255.13313 
   30650    140.25285   -1465.2897    133283.51   -33931.815    2648.8732   -36580.688    98.459245    248.50169 
   30700    139.17106   -1246.0055    133353.94   -33938.903     2628.442   -36567.345    98.363772    246.58496 
   30750    142.04345   -1373.5578    133347.87   -33928.031    2682.6912   -36610.722    98.638633     251.6743 
   30800     140.2047   -1289.5548    133304.07   -33959.703    2647.9639   -36607.667    98.906732    248.41639 
   30850     140.7683   -1439.7077    133186.72   -33954.238    2658.6081   -36612.846    98.970333    249.41497 
   30900     140.1959   -1209.2508    133167.08   -33948.054    2647.7975   -36595.851    99.472125    248.40078 
   30950    140.76701   -1195.5181    133074.64   -33963.338    2658.5839   -36621.922    99.741574    249.41269 
   31000    144.16329   -1084.8809    133064.09   -33931.339    2722.7274   -36654.066    99.809896    255.43027 
   31050    142.38964   -1308.1957    133014.41   -33881.752    2689.2295   -36570.981    100.18559    252.28769 
   31100    143.82088   -1154.3289    132960.79   -33909.647    2716.2605   -36625.908     100.3377    254.82358 
   31150    143.62376   -1086.0805    132933.67    -33921.22    2712.5376   -36633.757    100.51848    254.47432 
   31200    141.05467   -1076.7028    133007.89   -33910.256    2664.0166   -36574.272     100.6541    249.92236 
   31250    141.19808    -1017.497    133054.87   -33948.239    2666.7251   -36614.964    100.84896    250.17646 
   31300    137.23341   -1208.5823    133074.09    -33972.97    2591.8468   -36564.817    100.95812    243.15181 
   31350    140.33198   -1066.7417    133125.99   -33961.304    2650.3676   -36611.672    100.95282    248.64189 
   31400    141.41626    -812.1457    133126.84    -33986.87    2670.8459   -36657.716     101.0819    250.56304 
   31450    137.97647   -1042.5817    133163.58   -33999.397    2605.8805   -36605.278    101.46035    244.46837 
   31500    144.55487   -952.53561    133205.83   -33961.696    2730.1229   -36691.818    101.83924    256.12406 
   31550    140.84421   -1144.7762    133273.79   -33946.666    2660.0418   -36606.708    102.01819    249.54947 
   31600      140.819   -1102.4242    133281.36   -33955.635    2659.5658   -36615.201    102.52566    249.50481 
   31650    140.57575   -1203.0635    133337.77   -34008.191    2654.9716   -36663.162    102.76392    249.07381 
   31700    140.87867   -1026.8037    133300.13   -33999.884    2660.6926   -36660.577    103.01236    249.61052 
   31750     137.2804   -1493.5852    133328.13   -34002.751    2592.7343   -36595.485    103.42517    243.23508 
   31800    140.11121   -1226.1059    133391.26    -33970.35    2646.1982   -36616.548    103.38714    248.25074 
   31850    141.64374   -1306.0847    133408.54   -33971.423     2675.142   -36646.565    103.50495    250.96608 
   31900    139.03104   -1179.8683    133331.74   -34010.539    2625.7976   -36636.336    103.51203    246.33688 
   31950    139.30828    -1281.674    133261.79   -34038.517    2631.0337    -36669.55    103.66008     246.8281 
   32000    141.05437   -1387.4133    133191.89   -34029.236     2664.011   -36693.247    103.77575    249.92184 
   32050    137.93339   -1422.2697    133133.37   -34044.035    2605.0669   -36649.101    103.67979    244.39205 
   32100    138.26234   -1449.4654    133105.03    -34033.25    2611.2795   -36644.529    103.59603    244.97488 
   32150    140.46551   -1197.4379    133178.83   -33981.974    2652.8895   -36634.864    103.80762    248.87848 
   32200    141.00822   -1111.8009     133177.3   -33978.533    2663.1394   -36641.672    103.83146    249.84007 
   32250    144.51431   -1217.9069    133239.75   -33917.954    2729.3568   -36647.311    103.88741     256.0522 
   32300    142.14268   -1447.3946    133230.09   -33929.906    2684.5653   -36614.472    103.85801    251.85012 
   32350     140.6457    -1725.104    133149.61   -33941.722    2656.2927   -36598.015    104.12537    249.19775 
   32400    142.45322    -1033.855    133086.59   -33959.781    2690.4302   -36650.211    104.32936    252.40033 
   32450    137.62359   -1346.0308    133062.88   -34010.201    2599.2158   -36609.417    104.80914    243.84313 
   32500     141.2056   -1469.1149    133055.18   -34048.012    2666.8672    -36714.88    104.83181    250.18979 
   32550    140.48936   -1422.4764    133023.72     -34050.1    2653.3401    -36703.44    105.17912    248.92075 
   32600    138.20348    -1335.485    133007.51   -34039.841    2610.1679   -36650.009    105.30471    244.87059 
   32650    138.17004   -1095.6355    133081.69   -34007.207    2609.5365   -36616.743    105.62372    244.81135 
   32700    141.20541    -1208.939     133129.1    -33986.84    2666.8636   -36653.703    105.77698    250.18945 
   32750    138.83515   -1429.8313    133126.09   -34101.323    2622.0978   -36723.421    105.80785    245.98979 
   32800     140.0872   -1320.7697    133069.76   -34128.932    2645.7446   -36774.676    105.98057    248.20819 
   32850    137.26739   -1174.6442    133079.51   -34147.125    2592.4886   -36739.614    106.14421    243.21202 
   32900    137.55941   -1109.8844    133107.83   -34148.372    2598.0038   -36746.376    106.36895    243.72942 
   32950    139.38125   -976.54307    133176.82   -34141.394    2632.4118   -36773.806    106.51665    246.95739 
   33000    137.77739   -1212.6171    133204.51   -34144.947    2602.1206   -36747.067    106.78642    244.11564 
   33050    138.77714   -1244.9895    133186.71   -34119.177    2621.0024   -36740.179    106.67497    245.88702 
   33100    138.19011   -1428.3658     133155.5   -34070.242    2609.9154   -36680.157    107.16285     244.8469 
   33150    139.36964   -1293.4985    133060.53   -34033.554    2632.1925   -36665.747    106.93311    246.93681 
   33200    138.31447   -1205.0347    132993.02   -34023.803    2612.2642   -36636.067    106.98617    245.06726 
   33250    140.47547   -1117.6198    132988.44   -34079.711    2653.0777   -36732.789    107.14015    248.89614 
   33300    136.06528   -1329.7464     132955.3   -34115.116    2569.7851   -36684.901    107.35489    241.08211 
   33350    138.12324    -1277.856    132877.44   -34117.129    2608.6526   -36725.781     107.8029    244.72843 
   33400    140.42441   -1213.8642    132817.52   -34118.627    2652.1134    -36770.74    107.77061    248.80567 
   33450    140.34987    -1123.643    132733.99   -34112.705    2650.7055    -36763.41    108.02111     248.6736 
   33500    136.68022   -1220.8136    132736.23   -34128.488     2581.399   -36709.887    108.22814    242.17167 
   33550     139.4599   -1095.4615    132761.62    -34071.22    2633.8972   -36705.117    108.60034    247.09674 
   33600    140.47047   -1207.9464    132773.13   -34009.891    2652.9832   -36662.874    109.07817    248.88727 
   33650    140.79789   -1221.3753    132722.14   -33930.151    2659.1671   -36589.318    108.98935    249.46741 
   33700     140.2244   -1209.7216       132634   -33929.067    2648.3359   -36577.403    108.96401    248.45129 
   33750    143.50384   -1313.8413    132687.43    -33889.19    2710.2726   -36599.463    109.14247    254.26183 
   33800    144.22679   -1208.7016    132718.22   -33884.317    2723.9267   -36608.244    109.13129    255.54278 
   33850    138.98063   -1212.7898    132770.79   -33956.478    2624.8455   -36581.324    109.14926    246.24756 
   33900    139.96363   -1175.0718    132779.07    -33940.63    2643.4109   -36584.041    109.25015    247.98926 
   33950     144.2249   -850.93732    132910.85   -33957.947    2723.8909   -36681.838    109.38959    255.53942 
[...]
   92000    139.70346   -1158.2715    132865.89   -33984.304    2638.4972   -36622.801    277.32612    247.52828 
   92050     139.9907   -1089.7031    132833.67   -33972.111    2643.9221   -36616.033    276.93987    248.03722 
   92100    142.21706   -1277.0731     132868.4   -33984.051    2685.9701   -36670.022    277.40447    251.98191 
   92150    138.98474   -1322.7203    132877.01   -34038.705    2624.9231   -36663.628     277.3043    246.25484 
   92200    137.94681   -1210.3358    132888.16   -34044.608    2605.3204   -36649.929    277.62964    244.41583 
   92250    136.36202   -1302.0019    132829.81   -34061.932    2575.3895   -36637.321    278.15308    241.60788 
   92300    138.90397   -999.34226    132771.43   -34041.398    2623.3977   -36664.796    277.97068    246.11173 
   92350    136.57227   -1273.1951     132807.8   -34073.794    2579.3602   -36653.154    278.24839    241.98039 
   92400     137.5426   -1396.8109    132737.99   -34062.747    2597.6863   -36660.433     277.9648    243.69964 
   92450    138.71664   -1590.6411    132577.13   -34038.265    2619.8596   -36658.124    277.83881    245.77981 
   92500    136.55993   -1177.4586     132476.6   -34034.157    2579.1271   -36613.284    277.89777    241.95853 
   92550    136.07299   -1243.8816     132550.4   -34016.818    2569.9306   -36586.749    277.76182    241.09576 
   92600    140.83259   -1016.4164    132523.15   -33959.919    2659.8223   -36619.741    278.06379    249.52888 
   92650    138.28015   -1437.5443    132571.23   -33936.991    2611.6159   -36548.607    278.31914    245.00644 
   92700    138.25092   -1417.5904    132586.45    -33973.78     2611.064   -36584.844    278.90021    244.95466 
   92750    139.48899   -1093.1338    132598.52   -33944.247    2634.4467   -36578.694    278.79364    247.14828 
   92800    141.99218    -1399.961     132475.3    -33960.98    2681.7229   -36642.703    279.00168    251.58346 
   92850    137.72563   -1054.4887    132532.34   -33980.153    2601.1431   -36581.296    279.69611    244.02394 
   92900    138.67158   -1138.3809    132416.15    -34012.53    2619.0087   -36631.539    279.65551    245.69998 
   92950    137.98565   -1324.9617    132299.14   -34010.152    2606.0539   -36616.206     279.6969    244.48465 
   93000     141.8488   -1189.3432    132246.53   -34013.285    2679.0149     -36692.3    279.54547    251.32941 
   93050    139.28744   -1282.4337    132320.38   -34031.545      2630.64   -36662.185     279.6505    246.79117 
   93100    137.94624   -1412.1067    132213.28   -34039.711    2605.3095   -36645.021    280.11584    244.41481 
   93150    140.56897   -1593.6548     132098.6   -34048.728    2654.8436   -36703.572    279.89871     249.0618 
   93200    139.24912    -996.3039    131955.81   -34061.533    2629.9163    -36691.45    279.60464    246.72328 
   93250    135.11084   -1446.6681    131962.31   -34067.139    2551.7591   -36618.898    279.77065    239.39102 
   93300    134.70145   -1473.5481    131871.58   -34068.423    2544.0271    -36612.45    279.49391    238.66565 
   93350    138.42429   -1112.0071    131797.71    -34032.72    2614.3382   -36647.058    279.61882    245.26183 
   93400    138.69468   -1192.7404    131833.82   -34000.655     2619.445     -36620.1    279.52586    245.74091 
   93450    140.60141   -1117.4613    131842.45   -33978.761    2655.4563   -36634.217    279.80048    249.11928 
   93500    142.06102   -1199.1576    131843.58   -34018.186    2683.0231   -36701.209    280.57872    251.70543 
   93550    141.10003    -977.1554    131947.97   -33983.508    2664.8734   -36648.382    280.84492    250.00274 
   93600     139.9705   -1473.2551    131976.82   -33951.533    2643.5406   -36595.073    281.48622    248.00142 
   93650    138.29845   -988.02288    131991.92   -33999.027    2611.9616   -36610.989    282.13672    245.03887 
   93700    141.06661   -927.94776    132055.42   -33989.694    2664.2421   -36653.936    282.40332    249.94352 
   93750    140.67121    -1031.251    132193.01   -34001.392    2656.7746   -36658.167    282.39408    249.24296 
   93800    141.39146   -1023.9095    132246.63   -33963.156    2670.3774   -36633.533    282.99094    250.51909 
   93850    140.61982   -1322.7875    132233.15   -33965.595     2655.804   -36621.399    282.80406     249.1519 
   93900      139.497   -1416.1312    132218.88   -33978.511    2634.5979   -36613.109    282.63022    247.16248 
   93950    140.68054   -1082.1768    132270.45   -33952.022    2656.9506   -36608.973     282.5658    249.25947 
   94000    139.33617   -1404.9869    132272.46   -33980.154    2631.5605   -36611.715    283.04035    246.87752 
   94050    141.65289   -1123.7111    132298.29   -33931.474    2675.3149   -36606.788     283.3127     250.9823 
   94100    141.50832    -1058.598    132395.89   -33876.734    2672.5845   -36549.318    283.37519    250.72615 
   94150    140.97105   -1361.5567    132488.67   -33922.752    2662.4373    -36585.19    283.72299     249.7742 
   94200    140.21391   -1234.2795    132504.61   -33953.201    2648.1377   -36601.339    283.72159    248.43269 
   94250    140.87943   -1157.9317    132570.69   -33959.781    2660.7069   -36620.488    283.57457    249.61187 
   94300    143.39322   -1137.0923    132566.45   -33934.957    2708.1834   -36643.141    283.81403    254.06583 
   94350    141.68114   -1179.0705    132616.09   -33961.881    2675.8485   -36637.729    284.53649    251.03236 
   94400    140.43409   -1212.6422    132560.36   -33926.234    2652.2962    -36578.53    284.75822    248.82282 
   94450    139.98984   -983.16027    132453.77   -34034.566    2643.9058   -36678.471    284.68304    248.03569 
   94500    136.80733    -1284.583    132474.95   -34047.737    2583.7996   -36631.536    285.14719    242.39687 
   94550    136.38811   -992.92929    132446.38   -34037.122    2575.8821   -36613.004    285.78359     241.6541 
   94600    138.97398   -1096.0887    132456.79   -34009.511      2624.72   -36634.231    285.68564    246.23578 
   94650     138.5513   -1290.7464    132434.15    -34020.37     2616.737   -36637.108    285.76136    245.48687 
   94700    142.70816   -1500.8409    132460.78    -33975.84    2695.2452   -36671.085    286.08731    252.85205 
   94750    139.93095   -1286.1219    132344.82   -33970.185    2642.7937   -36612.979    286.24948    247.93135 
   94800    140.36271   -1294.2063    132365.32   -34009.637     2650.948   -36660.585    285.90041    248.69635 
   94850    141.15012   -1314.9115    132337.34   -33977.661    2665.8194    -36643.48    286.05256    250.09149 
   94900    140.64424   -1290.9852    132347.01   -33995.893    2656.2651   -36652.158     285.6706    249.19516 
   94950    142.06235    -1335.236    132296.84   -33955.478    2683.0482   -36638.526    285.43704     251.7078 
   95000     140.9498   -1420.5434     132288.4   -33940.793    2662.0361   -36602.829    285.30664    249.73656 
   95050    144.48326   -1136.6574     132221.1   -33878.697    2728.7704   -36607.467     285.3468    255.99718 
   95100    143.23253   -1302.6936    132120.99   -33907.644    2705.1487   -36612.792    285.59435    253.78113 
   95150    145.26486   -1111.0913    132035.72   -33891.098    2743.5321   -36634.631    285.87848    257.38203 
   95200    143.76447    -1200.135    132071.38   -33862.444    2715.1951   -36577.639    286.70958    254.72363 
   95250    141.42507   -1184.7483    132085.87   -33894.329    2671.0122   -36565.342    286.63722    250.57864 
   95300    140.21464   -1381.6485    132037.26   -33938.718    2648.1514   -36586.869    286.57919    248.43398 
   95350    141.03878   -1213.3125    132003.08   -33916.545    2663.7167   -36580.262     286.3152    249.89422 
   95400    138.70014   -1072.3761    132086.27   -33947.975    2619.5481   -36567.524    286.33142    245.75059 
   95450    139.67712   -1386.2864    132006.71   -33977.861    2637.9997   -36615.861    287.05532     247.4816 
   95500    139.94628   -1117.4919    132030.78    -33979.06    2643.0831   -36622.143     287.2403    247.95851 
   95550    142.60608   -1192.1189     132049.2   -33914.189    2693.3172   -36607.507    287.13347    252.67117 
   95600    143.85446   -1245.8054    132025.47   -33880.363    2716.8947   -36597.258    286.90574    254.88307 
   95650    142.62347   -1081.3735    132057.57   -33859.251    2693.6456   -36552.897     286.8509    252.70198 
   95700    139.76632   -938.75614    132023.38   -33883.335    2639.6844    -36523.02     286.8938    247.63966 
   95750    139.10482   -998.96074    132075.95   -33901.647    2627.1909   -36528.838    287.10945    246.46759 
   95800    136.17377   -1181.0024    132099.89   -33969.761     2571.834   -36541.595    287.20333    241.27434 
   95850    142.37534   -1233.3022    132121.08   -33953.424    2688.9593   -36642.383    287.34166    252.26234 
   95900    141.45538    -1217.699    132120.55   -33918.402    2671.5847   -36589.987    287.64059    250.63236 
   95950    141.75145   -1282.1981    132097.91   -33923.285    2677.1763   -36600.461    287.53451    251.15692 
   96000    141.92926   -1444.6835    132039.08   -33968.949    2680.5345   -36649.484    288.27782    251.47198 
   96050    141.86884   -1272.0499    131972.22   -33987.809    2679.3935   -36667.203    288.51003    251.36493 
   96100    140.55927   -1046.3133    132031.88   -34053.075    2654.6603   -36707.736    288.58629    249.04461 
   96150    138.36193   -1211.5041    131983.69   -34122.477    2613.1604   -36735.637    288.77137    245.15133 
   96200    138.11713   -1155.2497    132021.09   -34086.723    2608.5371    -36695.26    288.88472     244.7176 
   96250    139.07805   -1093.5575    132032.97   -34080.978    2626.6854   -36707.663    288.95151    246.42017 
   96300    137.53358   -1070.7309     132041.2   -34072.114    2597.5159    -36669.63    289.05401    243.68365 
   96350    139.01449   -857.68793    132104.05   -34078.831    2625.4849   -36704.316    289.43767    246.30755 
   96400    140.47735   -964.84823    132246.19   -34007.223    2653.1132   -36660.336    289.87485    248.89947 
   96450    139.80018   -1064.5493    132287.27   -34033.952    2640.3238   -36674.276    290.04436    247.69964 
   96500    138.38789   -1193.2466    132283.18   -34082.315    2613.6508   -36695.965    289.98549    245.19733 
   96550    139.47711   -1448.5004    132324.54   -34065.087    2634.2223   -36699.309    290.26547    247.12724 
   96600    139.00401    -1259.733    132379.42   -34089.713     2625.287       -36715    290.94022    246.28898 
   96650    138.01166   -1236.5825    132385.67   -34059.112    2606.5452   -36665.657    290.98326    244.53073 
   96700     137.3715   -1214.4086    132369.65   -34058.763    2594.4548   -36653.218     290.9046    243.39648 
   96750    140.82227   -1067.4791    132407.66   -34062.245    2659.6275   -36721.873    290.89042     249.5106 
   96800    138.28798   -1251.6462    132359.71   -34051.852    2611.7637   -36663.615    291.28896    245.02031 
   96850       139.51   -1266.5512    132397.78   -34021.237    2634.8434    -36656.08    291.36604     247.1855 
   96900    138.51576   -1066.7028    132456.05   -34039.366    2616.0659   -36655.432    291.41797     245.4239 
   96950    140.39207   -1137.8175    132548.59   -34062.903    2651.5026   -36714.406    291.58937    248.74837 
   97000    140.16993   -1287.6839     132561.9   -34044.226    2647.3071   -36691.533    291.60725    248.35477 
   97050    138.95468   -1220.3081    132630.63   -33972.206    2624.3554   -36596.562    291.82967    246.20158 
   97100    140.80058   -1181.2292    132583.61    -33948.86    2659.2179   -36608.078    291.63399    249.47217 
   97150    143.95719   -1196.2615    132594.55   -33911.012    2718.8349   -36629.847    292.11645    255.06509 
   97200     139.2495   -1420.8653    132658.47     -33948.2    2629.9234   -36578.124    292.10498    246.72394 
   97250    138.65271   -1508.7499    132625.56    -33962.66    2618.6523   -36581.312    292.08118    245.66655 
   97300    139.64454   -1383.2886       132614   -33932.395    2637.3844   -36569.779    291.53959    247.42389 
   97350     140.1945   -1153.0452     132627.1   -33960.789    2647.7711    -36608.56    291.50213     248.3983 
   97400    138.83417   -1107.1294    132580.16   -33994.873    2622.0794   -36616.953    291.12922    245.98806 
   97450    138.79599   -1389.0266    132518.86   -34009.308    2621.3584   -36630.666    291.26127    245.92042 
   97500    142.44287   -1161.6391    132533.59    -33989.24    2690.2348   -36679.475    291.38068      252.382 
   97550    137.84244   -1328.6284     132459.9   -34014.983    2603.3491   -36618.332    291.39479     244.2309 
   97600    141.02773   -928.49536    132459.65    -33977.95    2663.5079   -36641.458    291.60634    249.87463 
   97650    140.57517    -1267.209    132486.21   -33940.058    2654.9607   -36595.019    291.66622    249.07279 
   97700     142.0065   -1197.5555     132480.5   -33988.849    2681.9934   -36670.842    292.02623    251.60883 
   97750    142.50415   -1287.8488    132355.57    -33963.95    2691.3922   -36655.342    292.21118    252.49058 
   97800    142.68585   -1176.5196    132368.27   -33955.927    2694.8238   -36650.751    292.14128    252.81251 
   97850    141.12338   -1043.9785    132421.23   -33972.309    2665.3144   -36637.624    292.84232    250.04412 
   97900    139.74729   -1289.4679    132359.38     -33976.6     2639.325   -36615.925    292.75391    247.60594 
   97950    138.39624   -1194.9004    132321.68   -33981.404    2613.8085   -36595.212    292.50964    245.21213 
   98000    141.41078   -1038.6516    132390.65   -33866.397    2670.7423   -36537.139    292.70854    250.55332 
   98050    141.03245   -1194.1794    132559.24   -33860.543     2663.597    -36524.14      293.109    249.88299 
   98100    142.24742    -1283.396    132611.91   -33845.927    2686.5434    -36532.47    293.48786     252.0357 
   98150    139.85522   -1267.6085    132582.25   -33847.582    2641.3634   -36488.946    293.65044    247.79717 
   98200    141.96698   -1278.6449    132591.46   -33876.727     2681.247   -36557.974    293.48072    251.53881 
   98250     141.9809   -1562.3409    132529.29   -33918.219    2681.5098   -36599.729    293.22646    251.56347 
   98300    143.00802   -1056.0991    132539.16   -33912.393    2700.9085   -36613.301    293.29323    253.38334 
   98350    140.53821   -1099.0063    132560.62   -33948.387    2654.2626   -36602.649    293.28101     249.0073 
   98400    140.52751   -1359.8084    132594.74   -33923.796    2654.0606   -36577.857     293.1977    248.98835 
   98450     140.4481   -1596.7449    132457.83   -33925.398    2652.5607   -36577.958    293.34443    248.84763 
   98500    143.89389   -1259.3791    132478.49    -33891.68    2717.6394   -36609.319    293.40246    254.95293 
   98550    143.12871    -1383.719    132365.32   -33919.278    2703.1878   -36622.466    293.31212    253.59718 
   98600    137.92236   -1375.3738    132292.47   -33982.665    2604.8586   -36587.524    293.33479     244.3725 
   98650    139.12468   -1586.7964    132299.78   -34024.298    2627.5661   -36651.864    293.30267    246.50279 
   98700    140.29984   -1241.0185    132213.68   -33988.575    2649.7607   -36638.336    293.67539    248.58496 
   98750    137.88051   -1424.8866    132153.16   -34058.885    2604.0682   -36662.953    293.60858    244.29835 
   98800    137.67727   -1179.2237    132110.06   -34023.649    2600.2297   -36623.879    293.83249    243.93825 
   98850    137.49305   -1225.5486    132066.78    -34010.05    2596.7505     -36606.8     293.8408    243.61185 
   98900    139.63429    -1078.344    132133.34   -33950.934    2637.1909   -36588.125    294.16204    247.40573 
   98950    139.63693    -1348.823    132069.25   -33992.185    2637.2407   -36629.425     294.3703    247.41041 
   99000    144.04371   -1154.1425    132253.96   -33937.194    2720.4689   -36657.663    294.83824    255.21838 
   99050    136.72424   -1421.2637    132317.14   -33972.449    2582.2304   -36554.679    295.43495    242.24966 
   99100    141.75455   -1460.3742    132319.49   -33974.672    2677.2348   -36651.907    295.12385    251.16242 
   99150    140.08013   -1443.6929    132241.69   -33976.449    2645.6112    -36622.06    295.23972    248.19567 
   99200    139.70937   -1090.7465    132087.68   -33938.516    2638.6088   -36577.124    294.88134    247.53875 
   99250    141.37842   -1230.2866    132125.44   -33932.832    2670.1311   -36602.963    295.13576    250.49599 
   99300    138.58446   -1289.1476    132109.87   -33976.714    2617.3633   -36594.077    295.23295    245.54562 
   99350     138.1451   -1503.6798    132083.96   -33993.134    2609.0654     -36602.2    295.72812    244.76716 
   99400    139.04847   -1138.5252    132084.39   -34039.713    2626.1267    -36665.84    296.04799    246.36775 
   99450     139.6571    -1067.214    132022.35   -34019.831    2637.6216   -36657.452    296.19759    247.44614 
   99500    138.88633   -968.53518    132003.11   -34026.587    2623.0646   -36649.651     296.0382    246.08049 
   99550      138.631   -1225.9202     132079.8    -34023.93    2618.2422   -36642.172    296.44672    245.62808 
   99600    140.72104   -816.39425    132077.35   -34032.406    2657.7155   -36690.121    296.53416    249.33123 
   99650    139.34358    -1059.551    132226.11   -34042.063    2631.7003   -36673.764    296.96539    246.89064 
   99700    135.81934   -1053.9831    132224.68   -34065.364    2565.1401   -36630.504    297.51499    240.64635 
   99750    140.50263   -1150.9406    132266.29   -34050.158    2653.5906   -36703.748    298.00838    248.94425 
   99800     139.4884   -1341.9256    132279.87   -33990.303    2634.4355   -36624.738    298.04786    247.14723 
   99850    139.63035   -909.64852     132256.3    -33984.21    2637.1165   -36621.327    298.28682    247.39875 
   99900    140.63632   -1000.1303       132291   -33993.458    2656.1155   -36649.574    298.13407    249.18113 
   99950    138.42025   -1187.4511    132386.61   -34024.657     2614.262   -36638.919    298.24547    245.25468 
  100000    140.02741   -1022.8792    132390.73   -33988.008    2644.6155   -36632.624    298.35536    248.10226 
Loop time of 54.787 on 90 procs for 100000 steps with 6337 atoms

Performance: 788.509 ns/day, 0.030 hours/ns, 1825.252 timesteps/s
97.2% CPU use with 90 MPI tasks x no OpenMP threads

MPI task timing breakdown:
Section |  min time  |  avg time  |  max time  |%varavg| %total
---------------------------------------------------------------
Pair    | 6.7581     | 17.042     | 37.95      | 304.2 | 31.11
Neigh   | 0.55209    | 1.312      | 3.3577     |  83.8 |  2.39
Comm    | 5.9564     | 18.823     | 41.309     | 311.2 | 34.36
Output  | 0.14694    | 0.15008    | 0.15706    |   0.4 |  0.27
Modify  | 3.3432     | 16.68      | 38.755     | 377.4 | 30.45
Other   |            | 0.7801     |            |       |  1.42

Nlocal:    70.4111 ave 157 max 40 min
Histogram: 58 2 0 6 9 0 0 0 2 13
Nghost:    709.2 ave 1040 max 434 min
Histogram: 30 0 0 16 14 0 0 0 14 16
Neighs:    0 ave 0 max 0 min
Histogram: 90 0 0 0 0 0 0 0 0 0
FullNghs:  5673.36 ave 18759 max 1504 min
Histogram: 60 0 0 0 15 0 0 0 0 15

Total # of neighbors = 510602
Ave neighs/atom = 80.5747
Neighbor list builds = 6115
Dangerous builds = 0

write_data		${DIR}/data.eq-${NAME}-${TEMP}
write_data		run_1/data.eq-${NAME}-${TEMP}
write_data		run_1/data.eq-het_freeze_1-${TEMP}
write_data		run_1/data.eq-het_freeze_1-248
undump          1

reset_timestep  0

unfix           2
unfix           3
unfix           4


################################################
#######         Run Simulation         #########
################################################

log				${DIR}/log.run_${NAME}
log				run_1/log.run_${NAME}
log				run_1/log.run_het_freeze_1
