LAMMPS data file via write_data, version 16 Mar 2018, timestep = 100000

6337 atoms
2 atom types

0.0000000000000000e+00 4.9219999999999999e+01 xlo xhi
0.0000000000000000e+00 4.9019635930410494e+01 ylo yhi
2.5243256478340719e+00 5.7537674352163847e+01 zlo zhi

Masses

1 18.015
2 12.01

Atoms # atomic

2111 1 7.6135782153364451e-01 4.4285391259011240e+00 4.2668640792421311e+00 0 0 0
3482 1 4.8247461031992858e+00 3.0221621845446913e+00 5.5910317395692894e+00 0 1 0
1923 1 2.8735319938303188e+00 8.2473059673977218e+00 8.1111908689052488e+00 0 -1 0
4836 1 8.3741019703899919e+00 2.0693351483501066e+00 3.5335526114319724e+00 1 1 0
4856 1 6.8019623474718482e+00 7.1623000899835683e+00 6.5315737816616606e+00 1 0 1
335 1 2.4603133567109015e+00 7.0378737731047281e+00 5.5484721864189979e+00 1 0 0
5278 1 2.4255626881992733e+00 1.1123295052741879e+01 7.1944313726814775e+00 0 1 1
6317 1 5.6378109874549089e+00 8.4579729671920632e+00 8.6769114651122479e+00 1 0 1
6152 1 7.7974364721638372e+00 8.0525205321328794e+00 3.7013645480171755e+00 0 1 1
2877 1 3.7065385000216646e+00 3.9165939918992625e+00 3.1041816523926542e+00 0 1 1
3486 1 3.6250376332150975e+00 5.6015897659171392e+00 9.0333993629416689e+00 0 -1 1
6244 1 5.9979601991924749e+00 3.8829880622155017e+00 9.1172292710879077e+00 1 0 1
3111 1 4.5845912096105970e+00 1.1038630578465323e+01 5.5056977270396299e+00 0 0 1
6003 1 6.9940563146312931e+00 4.2639074265230521e+00 6.6984708213089732e+00 0 0 1
3274 1 1.9374737777679825e+00 1.8201484066633162e+00 8.4434207158191228e+00 1 0 0
2075 1 4.1689101881630055e+00 2.7733861233160972e-01 7.1717836945989637e+00 0 0 1
1541 1 7.0564168725934762e+00 7.8567935614953721e-01 5.8929904341384018e+00 1 1 1
1365 1 9.3104452774710431e+00 2.2321945384505932e+00 6.7792651127737100e+00 0 0 1
4881 1 2.6154846357398291e+00 4.4429193562019575e+00 6.6140328407646631e+00 1 0 1
2167 1 4.9993826939345398e+00 8.4293835083250119e+00 4.5051077655373728e+00 1 0 1
3450 1 9.2142086701382784e+00 1.1618082905389368e+01 7.0798673858804442e+00 -1 0 0
1494 1 2.7773688257349778e+00 7.2527529179282713e-01 4.4401215276464487e+00 1 1 1
3423 1 7.8177153487609585e+00 5.3426363000724235e+00 3.1506275140875140e+00 1 0 0
1287 1 4.4932352642315798e-01 1.1551319837991382e+01 5.2883451464877407e+00 0 0 1
3521 1 6.2069494909283829e-01 1.2097201706718113e+01 2.6267458520507510e+00 1 2 0
1278 1 2.8913963945287056e+00 6.5924218249203372e+00 2.5503665510674409e+00 1 0 1
202 1 3.5999449918790907e+00 1.8410723317456610e+00 1.0952276743460308e+01 1 1 0
4422 1 8.7715195989126453e+00 1.0892013694616006e+01 1.5752800339706329e+01 1 1 0
1515 1 2.4641687043586352e-01 7.8500641538213083e+00 1.2790240404932652e+01 1 1 1
5 1 7.4988279778211622e+00 2.8162192687788346e+00 1.1524944943945604e+01 -1 0 1
1397 1 6.4455512814759404e+00 5.4353381159562328e+00 1.2507347989981829e+01 0 0 0
3117 1 1.1246394735066576e+00 3.9754019232135915e+00 1.0369496629675021e+01 1 1 0
1622 1 3.3867412368781493e+00 7.3759813677186035e+00 1.1698454657978019e+01 0 2 1
3046 1 2.0193671004465421e+00 1.0784399671688815e+01 1.1509980834683848e+01 0 0 0
3449 1 2.2491806253078819e+00 4.4417040608057130e+00 1.4763992765480793e+01 1 0 0
1247 1 6.8421054093570346e+00 6.5578181508129676e+00 1.0211330131868063e+01 1 0 1
1429 1 2.9098353635432122e+00 7.2232904161533309e+00 1.4894147625221370e+01 0 0 0
129 1 8.5213882472682574e+00 8.8511840728765296e+00 1.3756516426919955e+01 1 1 1
495 1 4.0219880896608767e-01 1.0793940959575494e+01 1.3867311242310866e+01 0 0 1
157 1 5.5874308060085296e+00 9.2746912048678407e+00 1.1937466975836930e+01 0 1 0
6056 1 3.5264620411692738e+00 4.6321987145523549e+00 1.2173745372123934e+01 0 1 0
5091 1 5.9649560991703439e+00 1.1240083215891142e+01 9.9282208766271722e+00 1 1 0
1442 1 6.3917579051156919e+00 3.1012566660317864e-01 1.1896379538178005e+01 1 0 1
1713 1 4.3982726883987180e+00 1.0814583254528204e+01 1.3743354675331933e+01 0 0 0
1652 1 7.4225724001342117e+00 5.0737280070546795e+00 1.5701560943694336e+01 0 0 1
2844 1 1.1344634371506734e+00 8.8677722132661128e+00 1.0174638883078249e+01 0 0 1
3177 1 8.7392060738958932e+00 1.0780280015504472e+01 1.1475682458322082e+01 -1 1 0
6292 1 6.2069403806854639e-01 2.2603295762459319e+00 1.5774272062169729e+01 1 0 0
3574 1 6.0226800640707507e+00 7.6694489883852466e+00 1.4428969224339870e+01 0 0 0
1998 1 7.7703090086732756e+00 3.4556226921525912e-01 1.4450895421931735e+01 1 1 0
34 1 9.2034536247777918e+00 6.2831016430861233e+00 1.2745128850413998e+01 0 0 0
6322 1 3.4630545248469531e+00 1.2165397889302517e+01 9.5266909869006007e+00 1 0 0
2920 1 9.5952324834108467e+00 6.0711788986098991e+00 9.8001061609522004e+00 1 1 1
3462 1 2.0633620716949133e+00 9.5524859498797721e+00 1.6279543175051103e+01 0 0 1
4848 1 9.5805255715123998e+00 3.0951478739396370e+00 1.9551738148753167e+01 0 0 0
1692 1 9.8354934075525247e+00 8.8327119897978648e+00 2.1549118718004525e+01 0 0 0
4808 1 1.4998889092504852e+00 3.5255671313255545e+00 1.9558034605924835e+01 1 0 0
3341 1 6.8560763109222576e+00 2.4722879822030190e+00 1.7112444828339569e+01 0 1 1
2052 1 4.1965653192863153e+00 6.9212019478830582e+00 1.7719251511013805e+01 1 0 0
3503 1 3.0870629241460161e+00 3.0490373299651186e-01 1.9942488960195579e+01 1 0 0
4619 1 8.4095126914394633e+00 6.9528166077943840e+00 1.7472794249828340e+01 0 0 1
168 1 6.2685509861428690e+00 8.9304322095100037e+00 1.7153004211168835e+01 1 1 1
5101 1 2.6301602227084562e+00 1.6940840164172117e+00 1.7244338769837398e+01 1 1 0
88 1 1.5211345782235841e+00 5.8177892903004862e+00 1.7952533715075887e+01 0 0 0
352 1 7.7698945746115617e+00 1.0778556718520809e+01 1.8445630593230053e+01 0 0 1
294 1 3.4740081868953521e+00 1.6638332555321451e+00 2.2364399546541392e+01 -1 1 0
1424 1 2.3312216760800100e+00 8.2231517732229431e+00 2.1535921291955244e+01 1 0 0
4974 1 6.7455890323776027e+00 9.7493429520079804e+00 2.1277404035995229e+01 0 1 1
5013 1 7.1604305175220624e+00 1.7490963609696664e+00 1.9676030643070334e+01 1 0 0
1594 1 5.4414422037650301e+00 6.2256154754848492e+00 2.1337539439845056e+01 0 0 1
2907 1 4.6334463991907082e+00 8.3538239952035287e+00 2.0004793479428891e+01 0 1 1
5021 1 3.1843114291853341e+00 4.2125079099619063e+00 2.1423123034301572e+01 1 1 0
1971 1 8.1660646015969736e+00 6.9226839786557575e+00 2.0251675066249401e+01 0 1 0
5275 1 9.6944480058781348e+00 4.5472550078636722e+00 2.1725001186478071e+01 0 0 0
5112 1 2.1616677895760805e+00 1.0967573481898704e+01 2.1928897536085252e+01 1 0 1
4948 1 4.0408333608528357e+00 4.0042547892608757e+00 1.6878514493419914e+01 0 1 0
1815 1 4.3828716347650989e+00 1.1254276484496799e+01 1.6430301011888218e+01 0 0 0
4694 1 2.7851378903601953e-01 7.3840870779329943e+00 1.9561175047440145e+01 1 0 1
4599 1 1.6342666870389659e+00 1.2756210243412562e+00 2.4645367488672161e+01 0 0 1
640 2 4.9220000000000006e+00 8.5251540748539991e+00 2.6862951175117498e+01 0 0 0
685 2 7.3830000000000009e+00 8.5251540748539991e+00 2.6862951175117498e+01 0 0 0
3529 1 5.5669827352255821e+00 1.3061533562636196e+00 2.4109344541732373e+01 0 0 1
2874 1 7.9162496012410504e+00 5.6284866204075250e+00 2.4196960720014257e+01 0 -1 1
4976 1 2.0537316209269236e+00 4.4415154669192312e+00 2.3889702307055614e+01 1 1 0
169 1 2.5216695423754758e+00 7.2860010185532120e+00 2.4237585729425007e+01 2 0 0
345 1 4.7294144982250046e+00 1.1721625971033125e+01 2.3767780256666267e+01 0 1 0
3607 1 5.2683280434882462e+00 7.1222277810738461e+00 2.4067109239083532e+01 1 0 0
3527 1 1.3689653716222761e+00 1.0934281105133584e+01 2.4261004360063559e+01 0 0 0
638 2 4.9220000000000006e+00 1.1366872099805333e+01 2.6862951175117498e+01 0 0 0
681 2 6.1524999999999999e+00 1.0656442593567499e+01 2.6862951175117498e+01 0 0 0
31 1 6.4367925347329811e+00 9.7062636372731923e+00 2.4100814006806466e+01 0 0 1
1718 1 7.7450688859386974e+00 2.7244068563626302e+00 2.4233639406700878e+01 1 1 0
554 2 0.0000000000000000e+00 2.8417180249513345e+00 2.6862951175117498e+01 0 0 0
556 2 0.0000000000000000e+00 0.0000000000000000e+00 2.6862951175117498e+01 0 0 0
558 2 1.2305000000000001e+00 7.1042950623783474e-01 2.6862951175117498e+01 0 0 0
565 2 1.2305000000000001e+00 2.1312885187134998e+00 2.6862951175117498e+01 0 0 0
567 2 2.4610000000000003e+00 2.8417180249513345e+00 2.6862951175117498e+01 0 0 0
569 2 2.4610000000000003e+00 0.0000000000000000e+00 2.6862951175117498e+01 0 0 0
571 2 3.6915000000000004e+00 7.1042950623783474e-01 2.6862951175117498e+01 0 0 0
586 2 3.6914999999999996e+00 2.1312885187134998e+00 2.6862951175117498e+01 0 0 0
588 2 4.9220000000000006e+00 2.8417180249513332e+00 2.6862951175117498e+01 0 0 0
590 2 4.9220000000000006e+00 0.0000000000000000e+00 2.6862951175117498e+01 0 0 0
592 2 6.1524999999999999e+00 7.1042950623783407e-01 2.6862951175117498e+01 0 0 0
615 2 6.1524999999999999e+00 2.1312885187134989e+00 2.6862951175117498e+01 0 0 0
617 2 7.3829999999999991e+00 2.8417180249513345e+00 2.6862951175117498e+01 0 0 0
619 2 7.3829999999999991e+00 0.0000000000000000e+00 2.6862951175117498e+01 0 0 0
621 2 8.6134999999999984e+00 7.1042950623783407e-01 2.6862951175117498e+01 0 0 0
652 2 8.6134999999999984e+00 2.1312885187135002e+00 2.6862951175117498e+01 0 0 0
561 2 0.0000000000000000e+00 4.2625770374269996e+00 2.6862951175117498e+01 0 0 0
563 2 1.2305000000000001e+00 4.9730065436648339e+00 2.6862951175117498e+01 0 0 0
578 2 1.2305000000000001e+00 6.3938655561404980e+00 2.6862951175117498e+01 0 0 0
582 2 2.4610000000000003e+00 4.2625770374269996e+00 2.6862951175117498e+01 0 0 0
584 2 3.6914999999999996e+00 4.9730065436648339e+00 2.6862951175117498e+01 0 0 0
607 2 3.6914999999999996e+00 6.3938655561404980e+00 2.6862951175117498e+01 0 0 0
559 2 0.0000000000000000e+00 7.1042950623783341e+00 2.6862951175117498e+01 0 0 0
580 2 2.4610000000000003e+00 7.1042950623783341e+00 2.6862951175117498e+01 0 0 0
611 2 4.9220000000000006e+00 4.2625770374269978e+00 2.6862951175117498e+01 0 0 0
613 2 6.1524999999999999e+00 4.9730065436648339e+00 2.6862951175117498e+01 0 0 0
644 2 6.1524999999999999e+00 6.3938655561404980e+00 2.6862951175117498e+01 0 0 0
648 2 7.3829999999999991e+00 4.2625770374269996e+00 2.6862951175117498e+01 0 0 0
650 2 8.6135000000000002e+00 4.9730065436648339e+00 2.6862951175117498e+01 0 0 0
689 2 8.6135000000000002e+00 6.3938655561404980e+00 2.6862951175117498e+01 0 0 0
609 2 4.9220000000000006e+00 7.1042950623783341e+00 2.6862951175117498e+01 0 0 0
646 2 7.3830000000000009e+00 7.1042950623783341e+00 2.6862951175117498e+01 0 0 0
574 2 0.0000000000000000e+00 8.5251540748539991e+00 2.6862951175117498e+01 0 0 0
576 2 1.2305000000000001e+00 9.2355835810918343e+00 2.6862951175117498e+01 0 0 0
603 2 2.4610000000000003e+00 8.5251540748539991e+00 2.6862951175117498e+01 0 0 0
605 2 3.6915000000000004e+00 9.2355835810918343e+00 2.6862951175117498e+01 0 0 0
572 2 0.0000000000000000e+00 1.1366872099805333e+01 2.6862951175117498e+01 0 0 0
599 2 1.2305000000000001e+00 1.0656442593567498e+01 2.6862951175117498e+01 0 0 0
601 2 2.4610000000000003e+00 1.1366872099805333e+01 2.6862951175117498e+01 0 0 0
636 2 3.6914999999999996e+00 1.0656442593567499e+01 2.6862951175117498e+01 0 0 0
683 2 7.3829999999999991e+00 1.1366872099805333e+01 2.6862951175117498e+01 0 0 0
642 2 6.1524999999999999e+00 9.2355835810918343e+00 2.6862951175117498e+01 0 0 0
728 2 8.6134999999999984e+00 1.0656442593567498e+01 2.6862951175117498e+01 0 0 0
687 2 8.6134999999999984e+00 9.2355835810918343e+00 2.6862951175117498e+01 0 0 0
472 1 9.3931522723864216e+00 1.0377241443240770e+01 2.4056439596916473e+01 0 0 0
555 2 0.0000000000000000e+00 1.4208590124756650e+00 3.0030999999998993e+01 0 0 0
557 2 0.0000000000000000e+00 0.0000000000000000e+00 3.0030999999998993e+01 0 0 0
566 2 1.2305000000000001e+00 2.1312885187134998e+00 3.0030999999998993e+01 0 0 0
568 2 2.4610000000000003e+00 1.4208590124756650e+00 3.0030999999998993e+01 0 0 0
570 2 2.4610000000000003e+00 0.0000000000000000e+00 3.0030999999998993e+01 0 0 0
587 2 3.6914999999999996e+00 2.1312885187134998e+00 3.0030999999998993e+01 0 0 0
564 2 1.2305000000000001e+00 3.5521475311891644e+00 3.0030999999998993e+01 0 0 0
585 2 3.6914999999999996e+00 3.5521475311891644e+00 3.0030999999998993e+01 0 0 0
883 2 0.0000000000000000e+00 2.8417180249513345e+00 3.3199048824877607e+01 0 0 0
884 2 0.0000000000000000e+00 0.0000000000000000e+00 3.3199048824877607e+01 0 0 0
885 2 1.2305000000000001e+00 7.1042950623783474e-01 3.3199048824877607e+01 0 0 0
889 2 1.2305000000000001e+00 2.1312885187134998e+00 3.3199048824877607e+01 0 0 0
890 2 2.4610000000000003e+00 2.8417180249513345e+00 3.3199048824877607e+01 0 0 0
891 2 2.4610000000000003e+00 0.0000000000000000e+00 3.3199048824877607e+01 0 0 0
892 2 3.6915000000000004e+00 7.1042950623783474e-01 3.3199048824877607e+01 0 0 0
900 2 3.6914999999999996e+00 2.1312885187134998e+00 3.3199048824877607e+01 0 0 0
589 2 4.9220000000000006e+00 1.4208590124756650e+00 3.0030999999998993e+01 0 0 0
591 2 4.9220000000000006e+00 0.0000000000000000e+00 3.0030999999998993e+01 0 0 0
616 2 6.1524999999999999e+00 2.1312885187134989e+00 3.0030999999998993e+01 0 0 0
618 2 7.3829999999999991e+00 1.4208590124756659e+00 3.0030999999998993e+01 0 0 0
620 2 7.3829999999999991e+00 0.0000000000000000e+00 3.0030999999998993e+01 0 0 0
653 2 8.6134999999999984e+00 2.1312885187135002e+00 3.0030999999998993e+01 0 0 0
614 2 6.1524999999999999e+00 3.5521475311891644e+00 3.0030999999998993e+01 0 0 0
651 2 8.6134999999999984e+00 3.5521475311891657e+00 3.0030999999998993e+01 0 0 0
901 2 4.9220000000000006e+00 2.8417180249513332e+00 3.3199048824877607e+01 0 0 0
902 2 4.9220000000000006e+00 0.0000000000000000e+00 3.3199048824877607e+01 0 0 0
903 2 6.1524999999999999e+00 7.1042950623783407e-01 3.3199048824877607e+01 0 0 0
915 2 6.1524999999999999e+00 2.1312885187134989e+00 3.3199048824877607e+01 0 0 0
916 2 7.3829999999999991e+00 2.8417180249513345e+00 3.3199048824877607e+01 0 0 0
917 2 7.3829999999999991e+00 0.0000000000000000e+00 3.3199048824877607e+01 0 0 0
918 2 8.6134999999999984e+00 7.1042950623783407e-01 3.3199048824877607e+01 0 0 0
934 2 8.6134999999999984e+00 2.1312885187135002e+00 3.3199048824877607e+01 0 0 0
560 2 0.0000000000000000e+00 5.6834360499026637e+00 3.0030999999998993e+01 0 0 0
562 2 0.0000000000000000e+00 4.2625770374269996e+00 3.0030999999998993e+01 0 0 0
579 2 1.2305000000000001e+00 6.3938655561404980e+00 3.0030999999998993e+01 0 0 0
581 2 2.4610000000000003e+00 5.6834360499026637e+00 3.0030999999998993e+01 0 0 0
583 2 2.4610000000000003e+00 4.2625770374269996e+00 3.0030999999998993e+01 0 0 0
608 2 3.6914999999999996e+00 6.3938655561404980e+00 3.0030999999998993e+01 0 0 0
577 2 1.2305000000000001e+00 7.8147245686161639e+00 3.0030999999998993e+01 0 0 0
606 2 3.6914999999999996e+00 7.8147245686161639e+00 3.0030999999998993e+01 0 0 0
887 2 0.0000000000000000e+00 4.2625770374269996e+00 3.3199048824877607e+01 0 0 0
888 2 1.2305000000000001e+00 4.9730065436648339e+00 3.3199048824877607e+01 0 0 0
896 2 1.2305000000000001e+00 6.3938655561404980e+00 3.3199048824877607e+01 0 0 0
898 2 2.4610000000000003e+00 4.2625770374269996e+00 3.3199048824877607e+01 0 0 0
899 2 3.6914999999999996e+00 4.9730065436648339e+00 3.3199048824877607e+01 0 0 0
911 2 3.6914999999999996e+00 6.3938655561404980e+00 3.3199048824877607e+01 0 0 0
886 2 0.0000000000000000e+00 7.1042950623783341e+00 3.3199048824877607e+01 0 0 0
897 2 2.4610000000000003e+00 7.1042950623783341e+00 3.3199048824877607e+01 0 0 0
610 2 4.9220000000000006e+00 5.6834360499026637e+00 3.0030999999998993e+01 0 0 0
612 2 4.9220000000000006e+00 4.2625770374269978e+00 3.0030999999998993e+01 0 0 0
645 2 6.1524999999999999e+00 6.3938655561404980e+00 3.0030999999998993e+01 0 0 0
647 2 7.3829999999999991e+00 5.6834360499026637e+00 3.0030999999998993e+01 0 0 0
649 2 7.3829999999999991e+00 4.2625770374269996e+00 3.0030999999998993e+01 0 0 0
690 2 8.6135000000000002e+00 6.3938655561404980e+00 3.0030999999998993e+01 0 0 0
643 2 6.1524999999999999e+00 7.8147245686161639e+00 3.0030999999998993e+01 0 0 0
688 2 8.6135000000000002e+00 7.8147245686161639e+00 3.0030999999998993e+01 0 0 0
913 2 4.9220000000000006e+00 4.2625770374269978e+00 3.3199048824877607e+01 0 0 0
914 2 6.1524999999999999e+00 4.9730065436648339e+00 3.3199048824877607e+01 0 0 0
930 2 6.1524999999999999e+00 6.3938655561404980e+00 3.3199048824877607e+01 0 0 0
932 2 7.3829999999999991e+00 4.2625770374269996e+00 3.3199048824877607e+01 0 0 0
933 2 8.6135000000000002e+00 4.9730065436648339e+00 3.3199048824877607e+01 0 0 0
953 2 8.6135000000000002e+00 6.3938655561404980e+00 3.3199048824877607e+01 0 0 0
912 2 4.9220000000000006e+00 7.1042950623783341e+00 3.3199048824877607e+01 0 0 0
931 2 7.3830000000000009e+00 7.1042950623783341e+00 3.3199048824877607e+01 0 0 0
573 2 0.0000000000000000e+00 9.9460130873296642e+00 3.0030999999998993e+01 0 0 0
575 2 0.0000000000000000e+00 8.5251540748539991e+00 3.0030999999998993e+01 0 0 0
602 2 2.4610000000000003e+00 9.9460130873296642e+00 3.0030999999998993e+01 0 0 0
604 2 2.4610000000000003e+00 8.5251540748539991e+00 3.0030999999998993e+01 0 0 0
598 2 1.2305000000000001e+00 1.2077301606043163e+01 3.0030999999998993e+01 0 0 0
600 2 1.2305000000000001e+00 1.0656442593567498e+01 3.0030999999998993e+01 0 0 0
635 2 3.6914999999999996e+00 1.2077301606043163e+01 3.0030999999998993e+01 0 0 0
637 2 3.6914999999999996e+00 1.0656442593567499e+01 3.0030999999998993e+01 0 0 0
894 2 0.0000000000000000e+00 8.5251540748539991e+00 3.3199048824877607e+01 0 0 0
895 2 1.2305000000000001e+00 9.2355835810918343e+00 3.3199048824877607e+01 0 0 0
909 2 2.4610000000000003e+00 8.5251540748539991e+00 3.3199048824877607e+01 0 0 0
910 2 3.6915000000000004e+00 9.2355835810918343e+00 3.3199048824877607e+01 0 0 0
893 2 0.0000000000000000e+00 1.1366872099805333e+01 3.3199048824877607e+01 0 0 0
907 2 1.2305000000000001e+00 1.0656442593567498e+01 3.3199048824877607e+01 0 0 0
908 2 2.4610000000000003e+00 1.1366872099805333e+01 3.3199048824877607e+01 0 0 0
926 2 3.6914999999999996e+00 1.0656442593567499e+01 3.3199048824877607e+01 0 0 0
639 2 4.9220000000000006e+00 9.9460130873296642e+00 3.0030999999998993e+01 0 0 0
641 2 4.9220000000000006e+00 8.5251540748539991e+00 3.0030999999998993e+01 0 0 0
684 2 7.3830000000000009e+00 9.9460130873296642e+00 3.0030999999998993e+01 0 0 0
686 2 7.3830000000000009e+00 8.5251540748539991e+00 3.0030999999998993e+01 0 0 0
680 2 6.1524999999999999e+00 1.2077301606043163e+01 3.0030999999998993e+01 0 0 0
682 2 6.1524999999999999e+00 1.0656442593567499e+01 3.0030999999998993e+01 0 0 0
727 2 8.6135000000000002e+00 1.2077301606043163e+01 3.0030999999998993e+01 0 0 0
729 2 8.6134999999999984e+00 1.0656442593567498e+01 3.0030999999998993e+01 0 0 0
928 2 4.9220000000000006e+00 8.5251540748539991e+00 3.3199048824877607e+01 0 0 0
929 2 6.1524999999999999e+00 9.2355835810918343e+00 3.3199048824877607e+01 0 0 0
951 2 7.3830000000000009e+00 8.5251540748539991e+00 3.3199048824877607e+01 0 0 0
952 2 8.6134999999999984e+00 9.2355835810918343e+00 3.3199048824877607e+01 0 0 0
927 2 4.9220000000000006e+00 1.1366872099805333e+01 3.3199048824877607e+01 0 0 0
949 2 6.1524999999999999e+00 1.0656442593567499e+01 3.3199048824877607e+01 0 0 0
950 2 7.3829999999999991e+00 1.1366872099805333e+01 3.3199048824877607e+01 0 0 0
973 2 8.6134999999999984e+00 1.0656442593567498e+01 3.3199048824877607e+01 0 0 0
1939 1 2.9943955197638434e+00 1.0991373029558998e+01 3.5831097935256778e+01 0 1 -1
1694 1 5.7234797065458096e+00 2.6604840278757709e+00 3.5693235002248827e+01 1 0 -1
1369 1 8.7445259461080251e+00 9.3927963883903924e+00 3.5765647944556164e+01 0 1 0
1804 1 3.0565608493375103e+00 1.0466207279341526e+00 3.5732669360094562e+01 1 0 0
1861 1 4.5458177186791877e+00 5.4304843324004759e+00 3.5865156862155331e+01 0 0 -1
4843 1 1.5156844821344366e+00 4.1353809714442313e+00 3.5766669540972629e+01 0 0 -1
5261 1 9.0475873552846195e+00 6.4870216592134353e+00 3.6077283951607200e+01 0 0 0
131 1 2.7980787632340753e+00 8.1008309867948416e+00 3.5888111976451455e+01 0 0 -1
4875 1 7.8456282440009435e+00 6.1624807709047280e-01 3.5657719954813103e+01 1 0 0
4780 1 6.1927721212885301e+00 1.0862030150037169e+01 3.6029101624292139e+01 1 0 0
1803 1 8.1524498459090609e+00 3.3809354086145860e-01 3.8719421149111156e+01 0 0 -1
1273 1 1.3058033932434387e+00 4.1119610428723563e+00 4.2421694077909734e+01 1 0 0
4725 1 9.2981848912412151e+00 3.5220497307855045e+00 3.7457859162183595e+01 0 1 0
3204 1 6.3170016893333187e+00 2.4890290956291734e+00 3.8797540073387012e+01 0 1 0
514 1 2.8576353773508525e+00 5.3029035698591143e+00 3.8615508603153870e+01 0 0 0
2878 1 2.6640729573084565e+00 8.0467323931479517e-01 3.9904160671532424e+01 1 0 0
6118 1 2.1822095778163879e+00 9.3922837479921952e+00 4.1248635167592127e+01 1 0 -1
2958 1 6.2193316160424148e+00 3.5541657386674181e+00 4.1481605132522034e+01 -1 -1 0
2114 1 6.0003040449087024e+00 6.2519075714604302e+00 4.0058979042819885e+01 0 1 0
4465 1 3.9667819145686503e+00 8.0741858857601372e+00 3.8577583767727134e+01 0 0 0
1446 1 8.9594350640065841e+00 4.4225328318549861e+00 4.2424351251241163e+01 0 0 0
3736 1 7.8725216861342115e+00 8.3166776132734537e+00 4.0494040731822224e+01 1 0 0
2161 1 1.5367418679592295e+00 1.4181328377895386e+00 4.2035472629039901e+01 0 1 0
2096 1 3.4135497207350429e+00 2.5903450642274071e+00 3.7914275505838418e+01 0 1 0
535 1 6.0195558891834340e+00 1.0239233547460957e+01 3.8804450993445784e+01 0 0 0
3665 1 4.5862111643173549e+00 8.1792972718322066e+00 4.2023496371226599e+01 1 0 0
124 1 7.7023126675058515e+00 8.7650577966935277e+00 4.3276843342523449e+01 0 1 -1
3081 1 3.9077234373143956e+00 5.1832210207336447e+00 4.2611959072140436e+01 0 0 -1
4688 1 1.6194713575816462e+00 1.1611743115038756e+01 4.2982306752799985e+01 0 2 -1
5216 1 6.7447862433120793e+00 5.2046873719897295e+00 3.7550474245657583e+01 0 0 0
4990 1 1.8792928653446245e-01 6.3686439152269854e+00 3.8665390001982729e+01 0 1 -1
3699 1 6.4265034449180458e+00 1.6799913970260822e+00 4.3532917100289310e+01 1 0 0
5038 1 3.9653671177744130e+00 7.7236623643041580e-01 4.3685807376867160e+01 1 1 -1
2966 1 8.9617623838189822e+00 9.1708000432721697e+00 4.8071765637820491e+01 0 1 -1
1653 1 7.2848455954655948e+00 2.8823482553339246e+00 4.5841578598311770e+01 0 0 -1
1240 1 6.2105102132849410e-01 1.0217100511269962e+01 4.8279673989376818e+01 1 0 -1
4876 1 8.6610879376253769e-01 4.0180696754885457e+00 4.5207371538539036e+01 0 0 -1
5143 1 3.3836031427474609e+00 3.7714564155494230e+00 4.6753043518541702e+01 1 0 -1
2884 1 7.3598955396750929e+00 5.3223563728238341e+00 4.9603608278377848e+01 0 1 0
1616 1 5.0345629951109663e+00 4.9193496162361878e+00 4.5217486275016810e+01 1 0 0
3295 1 9.4875083575557291e+00 1.1353300148027342e+01 4.6395621868622342e+01 0 0 -1
6310 1 7.9212822641885632e+00 5.8973445220041159e+00 4.4526201998956665e+01 1 1 -1
6194 1 9.1388876925281561e+00 4.4480628875648573e+00 4.7497705721127247e+01 0 0 0
2002 1 5.4399096559648372e+00 9.2492195786187317e+00 5.0162292629952262e+01 1 0 -1
56 1 2.5019166810973759e+00 8.1740130775851565e+00 4.6997557044687696e+01 0 1 0
1532 1 1.2187177213482765e-01 6.5088151366201989e+00 4.6014387449692791e+01 0 0 0
3357 1 2.9200544460236646e+00 6.0691656414979211e-01 5.0581656888875074e+01 0 0 -1
4441 1 6.5653027604645020e+00 7.7993383933457814e+00 4.8126131909477991e+01 0 1 0
3613 1 4.0708373708630905e+00 1.1565764709370430e+00 4.6409697003970166e+01 1 0 -1
3155 1 2.9398297746091862e+00 1.0807112066698512e+01 4.5440581526648799e+01 0 1 0
262 1 3.2821889700086975e+00 7.5463465587403293e+00 4.9621550861157431e+01 0 0 -1
5250 1 4.8225327561363249e+00 1.2029541271336615e+01 4.9944925031974975e+01 1 1 0
3457 1 5.3439183049630827e+00 1.0008434251660596e+01 4.4092202065855830e+01 0 0 -1
526 1 6.5511497154841818e+00 1.0213141104871992e+00 4.7707113163220669e+01 1 1 0
4469 1 5.1421139337577175e+00 7.6659628333194458e+00 4.5937681927636419e+01 1 1 0
4814 1 3.7117720501585731e+00 4.7905724659628417e+00 4.9435183809805622e+01 1 0 -1
1331 1 7.6775377192061454e+00 1.2021764786376549e+01 4.4430184018786619e+01 0 1 0
4461 1 5.4996218161137156e+00 1.0668593778286746e+00 5.0319464964466690e+01 1 1 0
4493 1 1.7184414958525778e+00 3.3178080756466408e+00 5.0406116302319916e+01 0 1 0
4684 1 9.7962986999550559e+00 2.4182426531791212e+00 4.4446254092014698e+01 0 0 0
2941 1 1.4055845152877786e+00 1.0357397438255823e+01 5.5391384233195410e+01 0 1 0
402 1 5.9527544588985002e+00 5.1002624815986124e+00 5.4054406920584981e+01 1 0 -1
3520 1 2.4970464331955555e+00 2.4923601501131607e+00 5.4531274741420233e+01 1 0 -1
1850 1 6.5589700091947825e-02 9.5405840056765445e+00 5.2491381526458810e+01 1 1 -1
3011 1 4.3067520844145744e+00 9.2876895135144562e+00 5.6703582392373875e+01 1 1 0
5183 1 8.6456599196450590e+00 5.3877824995749724e-01 5.3070724211209324e+01 1 0 0
406 1 1.8077059982866792e+00 4.6393247236442319e+00 5.2909144194003062e+01 0 0 -1
3139 1 6.2570059140566539e+00 9.4924099312671437e+00 5.2828010246764165e+01 1 1 0
4471 1 3.5660045030832719e+00 6.2279577284881213e+00 5.4679013006972184e+01 0 0 0
2010 1 2.8835675531452840e+00 1.0601323556550954e+01 5.1863981367754562e+01 0 0 -1
4594 1 5.7474561877650556e+00 2.1148526264086418e+00 5.7200544093090230e+01 1 1 -1
3506 1 8.2167464190673911e+00 1.1105817010171277e+01 5.3404544315522742e+01 0 0 -1
2893 1 3.6058552508223460e+00 1.2228591446274747e+01 5.6696592113022319e+01 0 0 0
3373 1 1.5281403382419592e+00 2.3779408689363004e+00 5.6898585268608514e+01 1 1 -1
2902 1 5.4603622981263618e+00 2.3630571594152823e+00 5.4407136145326518e+01 0 1 -1
523 1 1.0676145657640179e+00 7.0379817322410620e-01 5.2782005663397456e+01 0 0 0
6335 1 8.5896285070483511e+00 7.3538650018303482e+00 5.5157308780491363e+01 0 0 0
497 1 8.0869254520027969e+00 4.1269414535739584e+00 5.5856276005997998e+01 0 0 0
3127 1 4.3725977041372388e-01 8.0107649385268456e+00 5.7162022565906284e+01 -1 0 -1
438 1 8.0906470547614262e-01 7.1566833218006094e+00 5.1093852850245042e+01 0 0 0
1750 1 3.8281256609046372e+00 8.9927034515528774e+00 5.3936801403283411e+01 0 0 -1
3493 1 7.1613049643025324e+00 9.4312678711485187e+00 5.6190304735379215e+01 1 1 -1
64 1 7.1147570361680064e+00 6.7788359260951632e+00 5.2359805596748245e+01 0 1 -1
1716 1 9.0104675768440607e+00 1.1480952932856187e+01 5.6511615568790248e+01 0 1 -1
1612 1 5.5859147593731873e+00 3.8905379600524230e+00 5.1110475212938624e+01 0 1 0
1349 1 7.6973469388185336e+00 2.3902314536214337e+01 3.9169491993385392e+00 0 -1 1
3289 1 4.6269817281620904e+00 1.9071802891712014e+01 3.6745961071399504e+00 1 0 1
5167 1 2.2130874776877150e+00 1.5172116475220431e+01 4.4956525013321027e+00 0 0 0
6189 1 6.5790501759171018e+00 1.4834556830938087e+01 3.7763204113233044e+00 1 0 1
297 1 4.1972536458099513e-01 1.7053192655827903e+01 7.5605570785155374e+00 -1 0 0
3397 1 4.5394036988810571e+00 2.1945186584902562e+01 6.6554118521661225e+00 1 0 0
5149 1 5.5712885280669697e+00 1.7224358791984333e+01 5.6068109875932706e+00 0 0 1
3293 1 5.4111981281649690e-01 1.6880585908558235e+01 2.7971745432863284e+00 -1 0 0
2917 1 8.8763794179338724e+00 1.5762870860631097e+01 5.1702345090193766e+00 -1 1 1
545 1 8.6780798498646003e+00 2.2259102161234054e+01 7.8720420299559786e+00 1 0 1
3138 1 6.7479314861068251e-01 1.9566765422460019e+01 6.5111843739423634e+00 0 0 1
4657 1 1.9045611242449290e+00 2.1803599419840033e+01 7.8494038416671597e+00 0 0 1
1533 1 6.3883869824210118e+00 2.1331051528690843e+01 4.2559844956841770e+00 0 0 0
6284 1 7.7691881170594517e+00 1.7982928799827029e+01 7.2061542584659373e+00 1 0 0
1931 1 5.9345751151906514e+00 2.3364980778571567e+01 8.6739165409456938e+00 0 0 1
2013 1 3.4009369639242668e+00 1.4987114917461355e+01 9.2835308124796718e+00 1 1 0
6252 1 7.5932929831460587e+00 1.5216193347917365e+01 7.8298556885899391e+00 0 1 1
3658 1 4.2511541576936436e+00 1.3214528603605771e+01 4.0853147734855337e+00 0 0 0
4533 1 3.2953869526766337e+00 1.6153682800457059e+01 7.0000468122974082e+00 -1 0 1
1654 1 8.5992790802514207e+00 2.0576883421504650e+01 5.5870006099510672e+00 1 0 0
1795 1 1.8429596631730958e+00 1.9240438411739685e+01 4.1197761399189750e+00 1 -1 1
2033 1 9.3372411087688645e-01 2.4469045228600145e+01 7.3931873223131488e+00 1 0 0
4743 1 6.6049657490267597e+00 1.2543293276429793e+01 7.2586283892208776e+00 1 0 1
141 1 5.2565862283633678e+00 1.3116379630985781e+01 1.3393276510980492e+01 0 0 0
1796 1 7.3462196391710544e+00 1.9190153662296282e+01 9.8166839746556356e+00 1 1 1
4929 1 5.6310868673581380e+00 2.0026113089822218e+01 1.3608739936594137e+01 -1 -1 1
4867 1 8.0824962268614584e+00 1.7938013106576069e+01 1.5164479186022502e+01 2 0 0
6153 1 3.3151253562480951e+00 1.6685437488890837e+01 1.1185198413154270e+01 1 0 1
4470 1 9.0473559253353084e+00 2.1385804707077053e+01 1.0816900336041181e+01 1 0 1
3461 1 8.2192835294390942e+00 2.3225761912565762e+01 1.5253105408538696e+01 2 0 1
2009 1 9.0365733531052417e+00 1.3352095696534050e+01 1.2219167510864606e+01 0 0 0
2837 1 5.8008627855521588e+00 1.7815693964696301e+01 1.1898565702256791e+01 0 0 1
1268 1 9.2588798190757995e+00 1.6956937353766762e+01 1.1081634660311080e+01 0 0 1
5097 1 4.2559959076953460e+00 2.2452445672893290e+01 1.2312311784809570e+01 0 0 0
1896 1 7.5409522387746408e+00 1.3151671011504870e+01 1.4679070272852298e+01 0 0 0
3389 1 4.3717800159067693e-01 1.3254611980226731e+01 1.1642226408380491e+01 1 0 1
3366 1 1.0635530116605605e+00 1.8319497176727513e+01 1.0395950346336832e+01 0 0 0
1992 1 1.8571114520231111e+00 2.3223226380036316e+01 1.3980848577453786e+01 1 1 0
4565 1 9.1017477760047356e+00 1.4853149051513403e+01 9.7348104248140075e+00 1 0 1
149 1 2.0316069300200552e+00 1.5805690302196313e+01 1.5492066836567282e+01 1 -1 0
1691 1 2.8079510585742797e+00 1.4722599739048469e+01 1.2954961623880836e+01 0 0 1
3395 1 8.2628257873077047e+00 2.0861595009375311e+01 1.3715040717637113e+01 0 0 0
1624 1 7.7975694578089716e-01 1.7490697782891655e+01 1.3276647193898471e+01 0 0 1
1903 1 6.1717432301354949e+00 1.3863043932966722e+01 1.0824713698872461e+01 1 1 0
506 1 7.4159527952190532e+00 1.5977506690250443e+01 1.3235827526167739e+01 0 -1 1