LAMMPS data file via write_data, version 16 Mar 2018, timestep = 6000000

6337 atoms
2 atom types

0.0000000000000000e+00 4.9219999999999999e+01 xlo xhi
0.0000000000000000e+00 4.9019635930410494e+01 ylo yhi
1.4345331579553502e+00 5.8627466842038388e+01 zlo zhi

Masses

1 18.015
2 12.01

Atoms # atomic

56 1 1.1138016690985422e+00 2.4155954411753711e+00 3.9832942781959231e+00 -1 2 1
4812 1 3.6442075784727597e+00 3.3482085988295660e+00 3.3051485250783510e+00 2 0 1
3380 1 8.1787159946180772e+00 3.2179285722130908e+00 3.4532542341316854e+00 0 0 0
2966 1 5.6479203595877774e+00 2.1705720477284021e+00 4.4892745228771007e+00 1 -1 0
1535 1 4.0848876141761918e+00 6.0772222666309377e+00 4.1421262013067679e+00 0 4 0
3232 1 1.9422374540108387e+00 7.8546586820104913e+00 3.5656283463990497e+00 -1 1 0
1820 1 8.3034800756665597e+00 5.7288078685645960e+00 4.1421598553701138e+00 1 -3 0
6057 1 6.3763309159164248e+00 7.0452841679211202e+00 3.0156157246244599e+00 -2 -1 1
6276 1 2.1861634732367712e+00 1.0436811700313012e+01 4.0977010159147440e+00 3 -2 1
4741 1 4.5575085645024256e+00 1.1457644725196159e+01 2.8963751075177404e+00 -1 2 0
2914 1 6.6563613665955188e+00 9.7445050331687586e+00 3.8888808371650971e+00 -2 -2 1
256 1 9.0284318944346786e+00 1.0917319822528023e+01 3.0248804375543994e+00 0 -4 0
46 1 1.1582388774032759e+00 2.6313861917048191e+00 6.7586627094398368e+00 0 6 0
4604 1 3.1325091871450432e+00 1.0697463043629480e+00 7.7578968697203958e+00 -3 2 1
4426 1 5.6903307871204101e+00 2.3018575080440753e+00 7.0770118570197429e+00 -2 0 1
3624 1 8.5594433157585588e+00 8.7452136867854211e+00 7.3597049004563715e+00 -1 -3 0
2944 1 3.8743938440908683e+00 6.4698712638393321e+00 6.8826117562691058e+00 0 2 1
3537 1 1.5210407018228174e+00 5.5583569274834677e+00 7.7345598698647589e+00 -2 -1 0
1533 1 8.3293054761600995e+00 6.0282957121279459e+00 6.9355114276609200e+00 0 2 0
6262 1 6.0656835201015813e+00 4.9864962764530256e+00 7.5652473816641033e+00 3 0 0
3081 1 1.8978432566996921e+00 1.0868791908640906e+01 6.5233096828137036e+00 2 4 0
1749 1 3.9081528861415675e+00 9.1829320962902798e+00 7.4341474093122608e+00 0 0 0
1893 1 6.3900610499730677e+00 1.0112071229864892e+01 6.5648657126769283e+00 1 -5 0
4710 1 8.0007678727708385e+00 9.7494708740651115e-01 8.2012053645260217e+00 0 0 0
3637 1 3.3447632876116571e+00 1.3467576596811235e+00 1.0619330588895062e+01 2 -2 1
121 1 4.1371632728271495e+00 4.1672977451437889e+00 1.1292570115486216e+01 3 -4 1
102 1 9.1184791462370001e+00 1.1461372279938027e+01 1.3554621989429466e+01 0 0 0
4496 1 7.8998549816621093e+00 6.6118985942492126e-01 1.0779776603891449e+01 3 0 1
1558 1 8.4510541254630152e+00 3.3954986623670829e+00 1.1436515958404476e+01 -1 5 1
1735 1 1.5412099342624850e+00 5.6420178540510122e+00 1.0592655617778432e+01 3 0 1
3655 1 1.8359849265240433e+00 8.2235221437334136e+00 1.1097951538161102e+01 1 0 0
4747 1 6.5300278324009611e+00 5.1392072747840007e+00 1.0411130787528439e+01 1 -1 0
4892 1 6.2435843613463984e+00 7.7154837960316343e+00 1.1199166464213915e+01 4 2 0
1277 1 4.1752566350539615e+00 9.3216050979262537e+00 1.0270836405526225e+01 4 0 1
4891 1 8.8502674332670050e-01 5.7546367698124945e-01 1.1419559096488999e+01 -1 1 0
4911 1 8.5031995533476739e+00 8.9596563136890985e+00 9.9558951104931452e+00 1 -2 0
1338 1 9.2668465317735347e+00 1.1284387307985675e+01 1.0791615250798619e+01 2 -4 1
3168 1 8.7467631432450355e-01 4.5909059048705897e-01 1.4179370589905730e+01 3 -1 1
4645 1 3.3791988873264494e+00 1.4485287723607818e+00 1.5030451261928045e+01 1 2 1
4791 1 7.8546203811875932e+00 1.4054006763585247e+00 1.4967522929104719e+01 2 -1 1
6309 1 8.9334600332110732e+00 8.9712023147862574e+00 1.4704825510167053e+01 0 1 1
74 1 6.3891143453789701e+00 7.8294737926409388e+00 1.4031970378725179e+01 1 1 0
5301 1 3.7344362320072837e+00 3.8985924116035209e+00 1.4070279182545377e+01 1 -3 1
4865 1 1.3096439614161548e+00 5.7136347292991161e+00 1.4601868513273086e+01 3 2 0
5079 1 8.1390545789277962e+00 4.0293072762045821e+00 1.4275017631824731e+01 -2 -1 0
5073 1 5.8731260169030985e+00 5.1215112750297704e+00 1.5077729622719422e+01 1 4 0
1264 1 4.3181356712812251e+00 9.4093666824513331e+00 1.4334885381646449e+01 1 -2 1
6227 1 1.8861287689606216e+00 8.2042299336119182e+00 1.3807081969571144e+01 -1 0 1
1645 1 4.7086531417772992e+00 1.1732804285703560e+01 1.0989897870386166e+01 0 2 1
2853 1 4.5648714868715317e+00 1.1957958342539577e+01 1.3610847478560562e+01 -1 -4 1
292 1 3.4752724299682520e+00 1.6270864059764716e+00 1.7691386226557569e+01 -1 -1 0
3606 1 1.3534473596014056e+00 3.0506203036085875e+00 1.8467430137915635e+01 -1 4 1
5994 1 7.7922311708221921e+00 1.3332275433088072e+00 1.7791392360949526e+01 0 0 1
1975 1 5.7134269693793103e+00 2.7944178719968771e+00 1.8685320955562513e+01 1 1 0
50 1 1.0878621163732543e+00 5.7392627711553672e+00 1.7432653797172922e+01 1 0 1
2111 1 3.2829093776971430e+00 7.1918861254815241e+00 1.8122468717274259e+01 2 2 0
498 1 5.4834775344907589e+00 5.4888678109785953e+00 1.7849023665584319e+01 0 0 1
3609 1 8.3224854504420716e+00 6.1770417649245664e+00 1.8472834148543498e+01 0 -4 0
1396 1 1.4338833218832294e+00 1.0782574440215361e+01 1.8200305109216963e+01 0 2 1
3362 1 3.7187156409466295e+00 9.7411473845252772e+00 1.7227656140683923e+01 2 3 0
3408 1 6.3112399209109169e+00 1.0228841605601957e+01 1.8040773036798939e+01 0 3 0
1479 1 8.8101844774081872e+00 8.6138874269505248e+00 1.7510122218169137e+01 3 2 1
484 1 8.0878401628419538e-01 2.4057565328316559e+00 2.1207627072217907e+01 1 3 1
5282 1 8.3714971936013587e+00 8.8457572174633921e+00 2.1418627297130161e+01 4 1 1
2167 1 5.6170963451955869e+00 2.1222025094695605e+00 2.1369732358631826e+01 -2 -1 1
2960 1 1.3496110671813086e+00 5.1211398899863569e+00 2.1370400292123762e+01 -2 1 1
6224 1 3.7698389812343542e+00 6.5276762388578522e+00 2.0874606519697242e+01 3 4 1
3231 1 5.9342162673999406e+00 4.9573100043209832e+00 2.1118286619545032e+01 0 0 0
1423 1 8.6028155655315217e+00 6.0340199364223803e+00 2.1039075693186202e+01 4 1 1
3321 1 1.3677644768375630e+00 1.0816136682951567e+01 2.1079300928602795e+01 -1 0 1
1676 1 3.6600232235254482e+00 9.1029923275331335e+00 2.1118593947807508e+01 -1 1 0
3478 1 6.0413385331402081e+00 1.0190574920424172e+01 2.0857368303596878e+01 -1 0 0
418 1 2.8482763012076782e+00 6.4399004987981567e-01 2.0858406350191323e+01 0 -2 0
1710 1 9.7906759487133996e+00 1.7467403589116308e+00 2.0932148370401116e+01 0 1 1
1461 1 7.4551523811343419e+00 1.4403155230696285e-01 2.1344450444354479e+01 -1 1 1
4882 1 9.6844615228495312e-01 2.1492029124133047e+00 2.4213306841674950e+01 2 7 0
17 1 5.5562351745179273e+00 2.0052767989806224e+00 2.4076573809671903e+01 -2 2 0
3638 1 6.0272015668216374e+00 4.6841515789753112e+00 2.4015403879641504e+01 -1 2 1
4880 1 4.0034642678453904e+00 6.3716557194184658e+00 2.3726174168066802e+01 1 0 0
3375 1 1.6893791036451045e+00 4.9059939660544991e+00 2.4258752443825408e+01 0 -3 0
4587 1 8.5691224275757687e+00 5.8156935983643594e+00 2.4040314653618896e+01 -1 1 1
76 1 1.6783737866098944e+00 1.0937866085712233e+01 2.3977417565394870e+01 2 2 0
4646 1 3.8565887353168473e+00 9.2699336167810280e+00 2.4061536305729014e+01 0 1 1
1510 1 8.6643327790425708e+00 8.7659401443237179e+00 2.4302723673782360e+01 0 1 1
6172 1 6.4312019152239825e+00 1.0519691874733796e+01 2.4351082067129536e+01 -2 -1 0
554 2 0.0000000000000000e+00 2.8417180249513345e+00 2.6737435608496789e+01 0 0 0
556 2 0.0000000000000000e+00 0.0000000000000000e+00 2.6737435608496789e+01 0 0 0
558 2 1.2305000000000001e+00 7.1042950623783474e-01 2.6737435608496789e+01 0 0 0
565 2 1.2305000000000001e+00 2.1312885187134998e+00 2.6737435608496789e+01 0 0 0
567 2 2.4610000000000003e+00 2.8417180249513345e+00 2.6737435608496789e+01 0 0 0
569 2 2.4610000000000003e+00 0.0000000000000000e+00 2.6737435608496789e+01 0 0 0
571 2 3.6915000000000004e+00 7.1042950623783474e-01 2.6737435608496789e+01 0 0 0
586 2 3.6914999999999996e+00 2.1312885187134998e+00 2.6737435608496789e+01 0 0 0
588 2 4.9220000000000006e+00 2.8417180249513332e+00 2.6737435608496789e+01 0 0 0
590 2 4.9220000000000006e+00 0.0000000000000000e+00 2.6737435608496789e+01 0 0 0
592 2 6.1524999999999999e+00 7.1042950623783407e-01 2.6737435608496789e+01 0 0 0
615 2 6.1524999999999999e+00 2.1312885187134989e+00 2.6737435608496789e+01 0 0 0
617 2 7.3829999999999991e+00 2.8417180249513345e+00 2.6737435608496789e+01 0 0 0
619 2 7.3829999999999991e+00 0.0000000000000000e+00 2.6737435608496789e+01 0 0 0
621 2 8.6134999999999984e+00 7.1042950623783407e-01 2.6737435608496789e+01 0 0 0
652 2 8.6134999999999984e+00 2.1312885187135002e+00 2.6737435608496789e+01 0 0 0
561 2 0.0000000000000000e+00 4.2625770374269996e+00 2.6737435608496789e+01 0 0 0
563 2 1.2305000000000001e+00 4.9730065436648339e+00 2.6737435608496789e+01 0 0 0
578 2 1.2305000000000001e+00 6.3938655561404980e+00 2.6737435608496789e+01 0 0 0
582 2 2.4610000000000003e+00 4.2625770374269996e+00 2.6737435608496789e+01 0 0 0
584 2 3.6914999999999996e+00 4.9730065436648339e+00 2.6737435608496789e+01 0 0 0
607 2 3.6914999999999996e+00 6.3938655561404980e+00 2.6737435608496789e+01 0 0 0
559 2 0.0000000000000000e+00 7.1042950623783341e+00 2.6737435608496789e+01 0 0 0
580 2 2.4610000000000003e+00 7.1042950623783341e+00 2.6737435608496789e+01 0 0 0
611 2 4.9220000000000006e+00 4.2625770374269978e+00 2.6737435608496789e+01 0 0 0
613 2 6.1524999999999999e+00 4.9730065436648339e+00 2.6737435608496789e+01 0 0 0
644 2 6.1524999999999999e+00 6.3938655561404980e+00 2.6737435608496789e+01 0 0 0
648 2 7.3829999999999991e+00 4.2625770374269996e+00 2.6737435608496789e+01 0 0 0
650 2 8.6135000000000002e+00 4.9730065436648339e+00 2.6737435608496789e+01 0 0 0
689 2 8.6135000000000002e+00 6.3938655561404980e+00 2.6737435608496789e+01 0 0 0
609 2 4.9220000000000006e+00 7.1042950623783341e+00 2.6737435608496789e+01 0 0 0
646 2 7.3830000000000009e+00 7.1042950623783341e+00 2.6737435608496789e+01 0 0 0
574 2 0.0000000000000000e+00 8.5251540748539991e+00 2.6737435608496789e+01 0 0 0
576 2 1.2305000000000001e+00 9.2355835810918343e+00 2.6737435608496789e+01 0 0 0
603 2 2.4610000000000003e+00 8.5251540748539991e+00 2.6737435608496789e+01 0 0 0
605 2 3.6915000000000004e+00 9.2355835810918343e+00 2.6737435608496789e+01 0 0 0
572 2 0.0000000000000000e+00 1.1366872099805333e+01 2.6737435608496789e+01 0 0 0
599 2 1.2305000000000001e+00 1.0656442593567498e+01 2.6737435608496789e+01 0 0 0
601 2 2.4610000000000003e+00 1.1366872099805333e+01 2.6737435608496789e+01 0 0 0
636 2 3.6914999999999996e+00 1.0656442593567499e+01 2.6737435608496789e+01 0 0 0
683 2 7.3829999999999991e+00 1.1366872099805333e+01 2.6737435608496789e+01 0 0 0
642 2 6.1524999999999999e+00 9.2355835810918343e+00 2.6737435608496789e+01 0 0 0
685 2 7.3830000000000009e+00 8.5251540748539991e+00 2.6737435608496789e+01 0 0 0
638 2 4.9220000000000006e+00 1.1366872099805333e+01 2.6737435608496789e+01 0 0 0
681 2 6.1524999999999999e+00 1.0656442593567499e+01 2.6737435608496789e+01 0 0 0
687 2 8.6134999999999984e+00 9.2355835810918343e+00 2.6737435608496789e+01 0 0 0
640 2 4.9220000000000006e+00 8.5251540748539991e+00 2.6737435608496789e+01 0 0 0
728 2 8.6134999999999984e+00 1.0656442593567498e+01 2.6737435608496789e+01 0 0 0
2050 1 3.2070292476222590e+00 5.3944768492190409e-01 2.3969300169586315e+01 1 2 0
3171 1 7.7310198448744414e+00 1.1528117228093220e-01 2.4038350018915313e+01 3 5 0
555 2 0.0000000000000000e+00 1.4208590124756650e+00 3.0030999999996915e+01 0 0 0
557 2 0.0000000000000000e+00 0.0000000000000000e+00 3.0030999999996915e+01 0 0 0
566 2 1.2305000000000001e+00 2.1312885187134998e+00 3.0030999999996915e+01 0 0 0
568 2 2.4610000000000003e+00 1.4208590124756650e+00 3.0030999999996915e+01 0 0 0
570 2 2.4610000000000003e+00 0.0000000000000000e+00 3.0030999999996915e+01 0 0 0
587 2 3.6914999999999996e+00 2.1312885187134998e+00 3.0030999999996915e+01 0 0 0
564 2 1.2305000000000001e+00 3.5521475311891644e+00 3.0030999999996915e+01 0 0 0
585 2 3.6914999999999996e+00 3.5521475311891644e+00 3.0030999999996915e+01 0 0 0
883 2 0.0000000000000000e+00 2.8417180249513345e+00 3.3324564391473643e+01 0 0 0
884 2 0.0000000000000000e+00 0.0000000000000000e+00 3.3324564391473643e+01 0 0 0
885 2 1.2305000000000001e+00 7.1042950623783474e-01 3.3324564391473643e+01 0 0 0
889 2 1.2305000000000001e+00 2.1312885187134998e+00 3.3324564391473643e+01 0 0 0
890 2 2.4610000000000003e+00 2.8417180249513345e+00 3.3324564391473643e+01 0 0 0
891 2 2.4610000000000003e+00 0.0000000000000000e+00 3.3324564391473643e+01 0 0 0
892 2 3.6915000000000004e+00 7.1042950623783474e-01 3.3324564391473643e+01 0 0 0
900 2 3.6914999999999996e+00 2.1312885187134998e+00 3.3324564391473643e+01 0 0 0
589 2 4.9220000000000006e+00 1.4208590124756650e+00 3.0030999999996915e+01 0 0 0
591 2 4.9220000000000006e+00 0.0000000000000000e+00 3.0030999999996915e+01 0 0 0
616 2 6.1524999999999999e+00 2.1312885187134989e+00 3.0030999999996915e+01 0 0 0
618 2 7.3829999999999991e+00 1.4208590124756659e+00 3.0030999999996915e+01 0 0 0
620 2 7.3829999999999991e+00 0.0000000000000000e+00 3.0030999999996915e+01 0 0 0
653 2 8.6134999999999984e+00 2.1312885187135002e+00 3.0030999999996915e+01 0 0 0
614 2 6.1524999999999999e+00 3.5521475311891644e+00 3.0030999999996915e+01 0 0 0
651 2 8.6134999999999984e+00 3.5521475311891657e+00 3.0030999999996915e+01 0 0 0
901 2 4.9220000000000006e+00 2.8417180249513332e+00 3.3324564391473643e+01 0 0 0
902 2 4.9220000000000006e+00 0.0000000000000000e+00 3.3324564391473643e+01 0 0 0
903 2 6.1524999999999999e+00 7.1042950623783407e-01 3.3324564391473643e+01 0 0 0
915 2 6.1524999999999999e+00 2.1312885187134989e+00 3.3324564391473643e+01 0 0 0
916 2 7.3829999999999991e+00 2.8417180249513345e+00 3.3324564391473643e+01 0 0 0
917 2 7.3829999999999991e+00 0.0000000000000000e+00 3.3324564391473643e+01 0 0 0
918 2 8.6134999999999984e+00 7.1042950623783407e-01 3.3324564391473643e+01 0 0 0
934 2 8.6134999999999984e+00 2.1312885187135002e+00 3.3324564391473643e+01 0 0 0
560 2 0.0000000000000000e+00 5.6834360499026637e+00 3.0030999999996915e+01 0 0 0
562 2 0.0000000000000000e+00 4.2625770374269996e+00 3.0030999999996915e+01 0 0 0
579 2 1.2305000000000001e+00 6.3938655561404980e+00 3.0030999999996915e+01 0 0 0
581 2 2.4610000000000003e+00 5.6834360499026637e+00 3.0030999999996915e+01 0 0 0
583 2 2.4610000000000003e+00 4.2625770374269996e+00 3.0030999999996915e+01 0 0 0
608 2 3.6914999999999996e+00 6.3938655561404980e+00 3.0030999999996915e+01 0 0 0
577 2 1.2305000000000001e+00 7.8147245686161639e+00 3.0030999999996915e+01 0 0 0
606 2 3.6914999999999996e+00 7.8147245686161639e+00 3.0030999999996915e+01 0 0 0
887 2 0.0000000000000000e+00 4.2625770374269996e+00 3.3324564391473643e+01 0 0 0
888 2 1.2305000000000001e+00 4.9730065436648339e+00 3.3324564391473643e+01 0 0 0
896 2 1.2305000000000001e+00 6.3938655561404980e+00 3.3324564391473643e+01 0 0 0
898 2 2.4610000000000003e+00 4.2625770374269996e+00 3.3324564391473643e+01 0 0 0
899 2 3.6914999999999996e+00 4.9730065436648339e+00 3.3324564391473643e+01 0 0 0
911 2 3.6914999999999996e+00 6.3938655561404980e+00 3.3324564391473643e+01 0 0 0
886 2 0.0000000000000000e+00 7.1042950623783341e+00 3.3324564391473643e+01 0 0 0
897 2 2.4610000000000003e+00 7.1042950623783341e+00 3.3324564391473643e+01 0 0 0
610 2 4.9220000000000006e+00 5.6834360499026637e+00 3.0030999999996915e+01 0 0 0
612 2 4.9220000000000006e+00 4.2625770374269978e+00 3.0030999999996915e+01 0 0 0
645 2 6.1524999999999999e+00 6.3938655561404980e+00 3.0030999999996915e+01 0 0 0
647 2 7.3829999999999991e+00 5.6834360499026637e+00 3.0030999999996915e+01 0 0 0
649 2 7.3829999999999991e+00 4.2625770374269996e+00 3.0030999999996915e+01 0 0 0
690 2 8.6135000000000002e+00 6.3938655561404980e+00 3.0030999999996915e+01 0 0 0
643 2 6.1524999999999999e+00 7.8147245686161639e+00 3.0030999999996915e+01 0 0 0
688 2 8.6135000000000002e+00 7.8147245686161639e+00 3.0030999999996915e+01 0 0 0
913 2 4.9220000000000006e+00 4.2625770374269978e+00 3.3324564391473643e+01 0 0 0
914 2 6.1524999999999999e+00 4.9730065436648339e+00 3.3324564391473643e+01 0 0 0
930 2 6.1524999999999999e+00 6.3938655561404980e+00 3.3324564391473643e+01 0 0 0
932 2 7.3829999999999991e+00 4.2625770374269996e+00 3.3324564391473643e+01 0 0 0
933 2 8.6135000000000002e+00 4.9730065436648339e+00 3.3324564391473643e+01 0 0 0
953 2 8.6135000000000002e+00 6.3938655561404980e+00 3.3324564391473643e+01 0 0 0
912 2 4.9220000000000006e+00 7.1042950623783341e+00 3.3324564391473643e+01 0 0 0
931 2 7.3830000000000009e+00 7.1042950623783341e+00 3.3324564391473643e+01 0 0 0
573 2 0.0000000000000000e+00 9.9460130873296642e+00 3.0030999999996915e+01 0 0 0
575 2 0.0000000000000000e+00 8.5251540748539991e+00 3.0030999999996915e+01 0 0 0
602 2 2.4610000000000003e+00 9.9460130873296642e+00 3.0030999999996915e+01 0 0 0
604 2 2.4610000000000003e+00 8.5251540748539991e+00 3.0030999999996915e+01 0 0 0
598 2 1.2305000000000001e+00 1.2077301606043163e+01 3.0030999999996915e+01 0 0 0
600 2 1.2305000000000001e+00 1.0656442593567498e+01 3.0030999999996915e+01 0 0 0
635 2 3.6914999999999996e+00 1.2077301606043163e+01 3.0030999999996915e+01 0 0 0
637 2 3.6914999999999996e+00 1.0656442593567499e+01 3.0030999999996915e+01 0 0 0
894 2 0.0000000000000000e+00 8.5251540748539991e+00 3.3324564391473643e+01 0 0 0
895 2 1.2305000000000001e+00 9.2355835810918343e+00 3.3324564391473643e+01 0 0 0
909 2 2.4610000000000003e+00 8.5251540748539991e+00 3.3324564391473643e+01 0 0 0
910 2 3.6915000000000004e+00 9.2355835810918343e+00 3.3324564391473643e+01 0 0 0
893 2 0.0000000000000000e+00 1.1366872099805333e+01 3.3324564391473643e+01 0 0 0
907 2 1.2305000000000001e+00 1.0656442593567498e+01 3.3324564391473643e+01 0 0 0
908 2 2.4610000000000003e+00 1.1366872099805333e+01 3.3324564391473643e+01 0 0 0
926 2 3.6914999999999996e+00 1.0656442593567499e+01 3.3324564391473643e+01 0 0 0
639 2 4.9220000000000006e+00 9.9460130873296642e+00 3.0030999999996915e+01 0 0 0
641 2 4.9220000000000006e+00 8.5251540748539991e+00 3.0030999999996915e+01 0 0 0
684 2 7.3830000000000009e+00 9.9460130873296642e+00 3.0030999999996915e+01 0 0 0
686 2 7.3830000000000009e+00 8.5251540748539991e+00 3.0030999999996915e+01 0 0 0
680 2 6.1524999999999999e+00 1.2077301606043163e+01 3.0030999999996915e+01 0 0 0
682 2 6.1524999999999999e+00 1.0656442593567499e+01 3.0030999999996915e+01 0 0 0
727 2 8.6135000000000002e+00 1.2077301606043163e+01 3.0030999999996915e+01 0 0 0
729 2 8.6134999999999984e+00 1.0656442593567498e+01 3.0030999999996915e+01 0 0 0
928 2 4.9220000000000006e+00 8.5251540748539991e+00 3.3324564391473643e+01 0 0 0
929 2 6.1524999999999999e+00 9.2355835810918343e+00 3.3324564391473643e+01 0 0 0
951 2 7.3830000000000009e+00 8.5251540748539991e+00 3.3324564391473643e+01 0 0 0
952 2 8.6134999999999984e+00 9.2355835810918343e+00 3.3324564391473643e+01 0 0 0
927 2 4.9220000000000006e+00 1.1366872099805333e+01 3.3324564391473643e+01 0 0 0
949 2 6.1524999999999999e+00 1.0656442593567499e+01 3.3324564391473643e+01 0 0 0
950 2 7.3829999999999991e+00 1.1366872099805333e+01 3.3324564391473643e+01 0 0 0
973 2 8.6134999999999984e+00 1.0656442593567498e+01 3.3324564391473643e+01 0 0 0
1829 1 3.9517346046660631e+00 2.2798295510930884e+00 3.6432760152464958e+01 -5 0 -1
4830 1 1.8381789917425251e+00 4.0776196207009354e+00 3.6050275312482484e+01 0 -1 -1
4606 1 8.4998745034528653e+00 1.4886796673269640e+00 3.6334177025490511e+01 -2 1 0
5179 1 6.5790688115359837e+00 3.4458599560062737e+00 3.5840198293286328e+01 1 -4 -1
1783 1 1.8837325426970462e+00 7.2573368056964185e+00 3.6373116598890199e+01 0 0 -1
3020 1 6.7146132337832540e+00 6.5874415069030290e+00 3.6076223117536387e+01 -4 0 0
5279 1 9.2233437583121543e+00 7.9632577478964617e+00 3.6014059392636220e+01 2 0 0
6336 1 4.2804508927489398e+00 8.5261759229075373e+00 3.6182130546035737e+01 -3 -1 -1
3601 1 4.6233976770860803e+00 1.1268542842660755e+01 3.5955624498772096e+01 0 0 -1
2901 1 8.9732844319849416e+00 1.0954091054711729e+01 3.6031249869547821e+01 -2 -2 0
8 1 3.6884278569720603e+00 1.9900158501646528e+00 3.8930666859963303e+01 -1 2 0
3000 1 1.1622746786536673e+00 1.0568169857446266e+00 3.9966949910378055e+01 -3 2 0
6257 1 8.0997423827431430e+00 1.3339099104499670e+00 3.9132645296779820e+01 -2 1 0
5325 1 5.5404968107191150e+00 2.8302770731473881e-01 3.9904098400799171e+01 -2 -2 0
106 1 3.9546714405129877e+00 4.3043066773416889e+00 3.9881918961090634e+01 -1 2 -1
5060 1 1.8108088483109754e+00 5.3632987707686359e+00 3.8551223838719409e+01 -1 3 -1
161 1 8.3881944616097304e+00 4.0099071914014459e+00 3.9826539762523566e+01 1 -1 -1
3065 1 6.1994089360835813e+00 5.1060904020192934e+00 3.8529495370578559e+01 2 -1 0
4975 1 6.4222762805219169e+00 7.9051280291326265e+00 3.9500664993042008e+01 1 1 -1
490 1 1.7533875654562658e+00 7.9731858197647592e+00 3.9954928772402546e+01 2 -3 0
6018 1 4.1275351785041394e+00 9.0665711096835864e+00 3.8801020805930044e+01 3 2 0
2088 1 1.6950596795341129e+00 8.6341962242980301e+00 4.2638198486502283e+01 0 4 0
242 1 8.7829626520620216e+00 9.1439152993755251e+00 3.8720728825422611e+01 -2 4 -1
389 1 6.3286485994171402e+00 1.0914730652348775e+01 4.3219836617059862e+01 2 -4 -1
2927 1 6.6746448700404570e-01 1.0220842168620781e+00 4.2487637098599336e+01 0 -3 0
5272 1 1.2682649239014856e+00 3.3370369462580545e+00 4.3754534279015836e+01 -1 2 -1
1615 1 5.7190590524255391e+00 3.5676172543905964e+00 4.3433364145381631e+01 0 2 0
1813 1 5.5828568627921156e+00 9.7512351995059632e-01 4.2577391975099793e+01 2 -2 -1
5088 1 3.5377327640353822e+00 4.8552077898315158e+00 4.2428243455996082e+01 3 1 -1
5059 1 4.1655476942792777e+00 7.5450729871652849e+00 4.3186376686854935e+01 1 1 -1
4578 1 6.7346511028978631e+00 8.3103021045673060e+00 4.2287250746427581e+01 3 0 0
1549 1 8.3150184106843898e+00 4.3410784992815099e+00 4.2522706401614336e+01 -1 -1 -1
1732 1 8.9966920975820006e+00 7.0304569354080373e+00 4.3381081046307763e+01 1 -2 -1
5323 1 1.7774021202789410e+00 1.1217237849544670e+01 4.3034543057270767e+01 -1 -4 0
1416 1 9.1297011228518219e+00 1.1782295358538708e+01 3.9778568831815498e+01 -4 -1 0
6029 1 8.8798363027106699e+00 1.1849382638340821e+01 4.2447175305668338e+01 -1 0 0
1767 1 4.2579064428489959e+00 1.1822475457469803e+01 3.9458192216774073e+01 -1 -2 0
228 1 4.0989792665137461e+00 1.2054134988451397e+01 4.2055316967094626e+01 -1 0 -1
1570 1 3.5696231253621349e+00 2.3003119221442381e+00 4.7454194014617464e+01 -2 0 0
3034 1 1.3190789380340542e+00 3.6899078901473730e+00 4.6539872343666843e+01 -1 -1 0
3468 1 7.9068088901641849e+00 2.0792708203842709e+00 4.7047224715506559e+01 1 1 0
1284 1 5.6638768383272877e+00 3.4550042347067951e+00 4.6213386750195760e+01 0 -2 -1
3184 1 1.3121067437344522e+00 6.5784175817055219e+00 4.6903670744283701e+01 1 1 0
5075 1 4.0152487642473433e+00 7.5111646838800921e+00 4.5902907595954964e+01 1 3 -1
5294 1 5.9647543336079751e+00 5.9081260685073067e+00 4.6948087848147679e+01 3 -2 0
4482 1 8.6457934225246369e+00 6.9408069076610399e+00 4.6169320298610607e+01 -1 4 0
1704 1 4.3930853250293938e+00 1.0161153119092987e+01 4.6508946459841248e+01 2 -1 -1
1867 1 2.0968889506182826e+00 1.1576659970913722e+01 4.5680617588439112e+01 1 3 -1
6230 1 9.2019186449625074e+00 9.6391389169885180e+00 4.6930922738031626e+01 0 1 -1
4608 1 6.9533163684394328e+00 1.0924065906040282e+01 4.5893448067657715e+01 -1 -4 0
1296 1 3.2866647901392980e+00 2.7073162048814665e+00 5.0131328568378841e+01 4 -1 0
3174 1 7.8040952323208201e-01 1.5962345730661627e+00 5.0917803529159144e+01 -2 0 -1
4597 1 8.2956934006173135e+00 2.3166080860035212e+00 4.9818215400669430e+01 -3 3 -1
5178 1 5.6830259944425272e+00 1.3191168077713646e+00 5.0649982850559226e+01 -1 -2 -1
6131 1 1.5459268383149403e+00 6.6228510660409006e+00 4.9507968043499709e+01 1 0 0
2 1 3.8332267625015106e+00 5.3705154920722569e+00 5.0744757481494567e+01 -1 2 -1
1912 1 6.1625757741906586e+00 6.2781088860255059e+00 4.9763167120881661e+01 2 -1 -1
5085 1 8.4322552597046929e+00 4.8490433543555458e+00 5.0761874730825724e+01 0 1 0
2041 1 4.6143599596869409e+00 1.0237042136522804e+01 4.9210955132398773e+01 1 0 -1
5990 1 1.9388065598629798e+00 9.2218075805950690e+00 5.0135840741646817e+01 -1 -1 0
3696 1 8.9432457365500948e+00 9.9281270226241514e+00 4.9598626910765077e+01 -1 -1 0
4697 1 6.6238458341581588e+00 8.8936163679899121e+00 5.0213769470506115e+01 1 2 -1
6101 1 1.2858333216944540e+00 1.8936936695640465e+00 5.3577940098886785e+01 1 1 -1
2932 1 3.1996815496568809e+00 1.2672186749318556e-01 5.4497750016566492e+01 -1 2 0
6275 1 5.4561906050539219e+00 1.3467854473032892e+00 5.3288599261149763e+01 -1 2 0
4443 1 1.1843639870388545e+00 4.6875604953438872e+00 5.3929160411420725e+01 3 1 -1
3602 1 3.6205802144222323e+00 5.8594466787304702e+00 5.3274353115931156e+01 1 -1 -1
1838 1 3.9118685705431226e+00 8.4701656926842919e+00 5.3823937029826538e+01 1 0 -1
6236 1 5.7260262229161532e+00 4.2035930598461162e+00 5.3970589068088543e+01 1 1 0
3365 1 8.4823565715049583e+00 5.1769753906131628e+00 5.3477556035740250e+01 2 1 0
129 1 8.7834076111322688e+00 7.9655486972872138e+00 5.4036627844932077e+01 0 0 0
4617 1 1.6855336518182145e+00 9.6368861637063841e+00 5.2727400409393866e+01 5 0 0
495 1 6.3880177801856837e+00 9.1767305634533045e+00 5.3055596650033415e+01 -1 -2 0
4622 1 6.6686396199028311e+00 1.1752853957360891e+01 5.3887111850682174e+01 -1 0 -1
3343 1 3.5355050589170549e+00 5.8416554242319851e-01 5.7154294753120411e+01 0 4 0
3010 1 3.6255261426841519e+00 3.1654317295286658e+00 5.7706151262404120e+01 3 1 0
2063 1 8.2225636337135093e+00 2.7390578918319850e+00 5.7994881757708100e+01 -2 4 0
502 1 1.5422214255319708e+00 4.6222348939490248e+00 5.6852162901672536e+01 2 1 0
4494 1 2.0431210962383530e+00 7.2119655553956354e+00 5.7788224178446463e+01 -1 3 -1
1772 1 5.9555585119346128e+00 4.2303816398858718e+00 5.6607590194509555e+01 3 1 0
3345 1 5.9205543025873828e+00 6.9788818251979414e+00 5.7483523993912634e+01 1 -2 -1
1357 1 4.1463082164305618e+00 1.1265237709141593e+01 5.7404095806671918e+01 1 2 -1
232 1 4.1174612887453383e+00 8.6863200974512598e+00 5.6593523168132599e+01 2 0 -1
215 1 8.7145206870477345e+00 1.0958264637768993e+01 5.7581588817279119e+01 2 -2 -1
4772 1 8.2096589841681116e+00 8.1519365564640314e+00 5.6811005427171402e+01 1 2 0
5014 1 7.9981812392799201e+00 2.0402799882368991e-01 5.7262341971098991e+01 7 1 -1
1776 1 1.9198919067616396e+00 1.2147086849911975e+01 5.3715253065298477e+01 4 -2 0
5137 1 6.4332565255794529e+00 1.2201211957704519e+01 5.6632958878857181e+01 1 0 -1
3113 1 7.6328091692779445e+00 1.2665226756111675e-01 5.4424727845910041e+01 -2 3 -1
1367 1 2.2491886822210598e+00 1.5061809825048510e+01 3.0142478639600121e+00 2 -1 1
6278 1 4.6738898289056987e+00 1.3972895944980111e+01 3.6990068038444908e+00 2 -3 0
6183 1 6.9605580160574325e+00 1.5160486852840355e+01 2.7355893678076559e+00 0 -2 1
3587 1 9.1084521196660493e+00 1.3689501914489847e+01 3.8170602166710141e+00 1 1 0
291 1 2.6792506372181779e+00 1.7962743545496188e+01 3.3377233093804159e+00 0 -1 0
3250 1 9.6104558358335463e+00 1.6483322714287446e+01 6.7699380714251234e+00 1 2 0
6039 1 5.1353627785073543e+00 1.9042062726803803e+01 2.3610593960242161e+00 -3 0 1
3029 1 7.6525860796803684e+00 1.7970666393152445e+01 3.3336321348832536e+00 -1 1 1
3417 1 7.0348618518221304e+00 1.2785405149765445e+01 7.2201761349705533e+00 3 -1 0
5110 1 7.4429490002073984e-01 2.1975286443738593e+01 2.9914588991316302e+00 1 -3 0
1395 1 3.0348233693789690e+00 2.2923309235942309e+01 2.0081033863447133e+00 3 -1 1
6140 1 5.3186362266363281e+00 2.1616545514533524e+01 2.9132618284540639e+00 3 -2 1
1498 1 7.4046130419515874e+00 2.2729680754578254e+01 1.8603726867225614e+00 1 0 1
1649 1 2.1615192696683589e+00 1.3335822062930628e+01 7.2538957154064247e+00 1 1 0
4817 1 4.8432047978768953e+00 1.4165949662704499e+01 6.4323071600915807e+00 -1 3 1
1421 1 9.5166266518945353e+00 1.3705733609099621e+01 6.5004960801926268e+00 2 0 1
1909 1 5.5323908405279110e-01 1.9275742559294567e+01 2.4242653788574700e+00 -2 -3 0
2889 1 3.0256860902825506e+00 1.8345322083409918e+01 6.0696400446581231e+00 -2 4 1
1965 1 4.8575041967747040e-01 2.2356592276082033e+01 5.7494369084999013e+00 0 1 0
3245 1 7.2120476739169561e+00 2.0484554453628206e+01 7.0412968571116101e+00 -7 0 0
3458 1 5.3857518050000293e+00 2.2082246650675522e+01 5.6917009446397984e+00 -1 4 0
1932 1 4.9698144639806161e+00 1.6841427393065750e+01 7.0399444346969693e+00 3 1 0
1377 1 7.3372793830989096e+00 1.7915613347994650e+01 6.0352436616575904e+00 1 0 1
99 1 2.7264748049784573e+00 2.0981985118414773e+01 6.5193101171614494e+00 3 1 1
3407 1 9.7582205688631358e+00 1.9266548381963094e+01 2.2828916937815187e+00 2 -2 0
3175 1 3.8946935952699485e-01 1.7319070313763756e+01 6.5492171212452313e+00 1 -1 1
5196 1 9.4014462468618163e+00 2.1671401830904923e+01 5.9880036594986823e+00 -2 -2 0
3304 1 9.7332514687493585e+00 2.1871490216137268e+01 3.0564826138633698e+00 0 2 1
5227 1 2.0983245620666344e+00 1.3006846671494552e+01 1.0096942348285822e+01 2 3 0
6186 1 2.7029991142454235e+00 1.6018087429232438e+01 1.0662697189513374e+01 -1 0 0
4824 1 6.9463315485207104e+00 1.5300447111628392e+01 1.0871122464302797e+01 2 2 1
1553 1 7.1227579227576898e+00 1.2789599652331809e+01 9.9957924668963791e+00 0 0 0
4837 1 8.3447046610354925e-01 1.9969093780431887e+01 1.0415497273732013e+01 2 0 0
3265 1 7.9715517319307807e+00 2.1074245039162093e+01 1.4138910050859652e+01 -1 1 1
1755 1 5.0677945240953761e+00 1.6992098419006869e+01 9.8001886682943464e+00 0 2 0
1283 1 5.4411793568645868e+00 1.9805118023748165e+01 1.0301737777608382e+01 0 -1 1
4549 1 9.6842119913642062e+00 1.6691099739477131e+01 9.8013275092246932e+00 0 -3 1
448 1 3.3251944318795315e+00 2.3910133942785208e+01 1.3186559167682388e+01 3 3 0
3692 1 3.4518369363382218e+00 2.3807102033685904e+01 1.0342011076892836e+01 0 -5 1
6165 1 3.2483838325554322e+00 2.1242238614229642e+01 9.2534192987432515e+00 2 -1 1
3397 1 7.8503984451747337e+00 2.0864622522131384e+01 9.7429986674728362e+00 -1 1 0
1907 1 7.9531147139789899e+00 2.3611483589167278e+01 1.0502958539442067e+01 0 2 1