
# Create simulation box and atoms

read_data data.ML_graphite_m1000atm_245K
  orthogonal box = (0 0 2.62195) to (49.22 49.0196 57.4401)
  5 by 4 by 8 MPI processor grid
  reading atoms ...
  6337 atoms
  reading velocities ...
  6337 velocities
group water type 1
3577 atoms in group water
group graphite type 2
2760 atoms in group graphite

# Define potential

pair_style sw
pair_coeff * * MLC_e.sw mW C


# Fix graphite atoms in place

fix 5 graphite setforce 0.0 0.0 0.0
velocity graphite set 0.0 0.0 0.0


# Equilibration of molecular water

# Add velocity/set timestep

velocity	    water create ${TEMP} ${SEED} rot yes dist gaussian
velocity	    water create 248 ${SEED} rot yes dist gaussian
velocity	    water create 248 19109 rot yes dist gaussian
timestep	    5.0

# Define output

compute			1 water msd
compute			3 water temp
thermo	    	50
thermo_style	custom step temp press vol etotal ke pe c_1[4] c_3

# Neighbor lists

neigh_modify    delay 0 every 1 check yes

# Set fixes

fix             1 water momentum 10 linear 1 1 1 rescale
fix             2 water nve
fix             3 water temp/csvr ${TEMP} ${TEMP} 500.0 ${SEED}
fix             3 water temp/csvr 248 ${TEMP} 500.0 ${SEED}
fix             3 water temp/csvr 248 248 500.0 ${SEED}
fix             3 water temp/csvr 248 248 500.0 19109
fix             4 water press/berendsen z ${PRES} ${PRES} 1000.0 modulus 20000
fix             4 water press/berendsen z -1000 ${PRES} 1000.0 modulus 20000
fix             4 water press/berendsen z -1000 -1000 1000.0 modulus 20000

# Run 0.5 ns equilibration

dump		    1 all atom 2000 ${DIR}/eq.${NAME}-${TEMP}.dump
dump		    1 all atom 2000 run_26/eq.${NAME}-${TEMP}.dump
dump		    1 all atom 2000 run_26/eq.het_freeze_26-${TEMP}.dump
dump		    1 all atom 2000 run_26/eq.het_freeze_26-248.dump

reset_timestep  0

run	            100000
Neighbor list info ...
  update every 1 steps, delay 0 steps, check yes
  max neighbors/atom: 2000, page size: 100000
  master list distance cutoff = 6.67472
  ghost atom cutoff = 6.67472
  binsize = 3.33736, bins = 15 15 17
  1 neighbor lists, perpetual/occasional/extra = 1 0 0
  (1) pair sw, perpetual
      attributes: full, newton on
      pair build: full/bin/atomonly
      stencil: full/bin/3d
      bin: standard
Per MPI rank memory allocation (min/avg/max) = 4.066 | 4.174 | 4.485 Mbytes
Step Temp Press Volume TotEng KinEng PotEng c_1[4] c_3 
       0     139.9697   -1056.0851     132262.2   -34085.323    2643.5254   -36728.848            0          248 
      50    141.26301   -925.37995    132393.75   -34086.975    2667.9515   -36754.926    0.5081754    250.29151 
     100    141.70167   -1156.0777    132516.55   -34108.678    2676.2361   -36784.915    0.7973269    251.06873 
     150    139.00142     -969.525    132507.85   -34123.169    2625.2381   -36748.407   0.98248217    246.28439 
     200    138.75685   -1373.1831    132510.95   -34156.961     2620.619    -36777.58    1.1364263    245.85106 
     250    139.40215   -1132.2728    132468.06   -34198.649    2632.8064   -36831.455    1.3006153     246.9944 
     300    136.97112   -1027.7943    132452.09    -34222.35    2586.8931   -36809.243    1.4350266    242.68709 
     350    138.24377   -1050.5196     132591.6   -34214.196    2610.9289   -36825.125     1.598705    244.94198 
     400    134.38122   -1022.2746    132647.93   -34251.903    2537.9792   -36789.882    1.7899837    238.09827 
     450    138.80458     -1038.47    132722.46   -34206.504    2621.5206   -36828.025    1.9355578    245.93564 
     500    137.12451   -1242.8571    132786.02   -34162.185    2589.7901   -36751.975    2.1013896    242.95887 
     550    138.97475   -992.92089    132789.36   -34137.283    2624.7345   -36762.018    2.2561518    246.23715 
     600    137.64466   -924.96314    132885.72   -34144.368    2599.6139   -36743.981    2.4469317    243.88048 
     650    138.12055   -1210.1782    132922.04   -34182.924    2608.6016   -36791.525    2.6121346    244.72365 
     700    136.26975    -1187.082    132906.29   -34122.355    2573.6467   -36696.002    2.7513573    241.44439 
     750    141.92211   -1485.5655    132881.81   -34070.795    2680.3995   -36751.194    2.9512352    251.45931 
     800    139.49766   -1130.4874    132774.14   -34066.548    2634.6104   -36701.159    3.1183533    247.16364 
     850     139.9411   -1302.2013    132679.48   -34085.455    2642.9853   -36728.441    3.3167313    247.94933 
     900    138.68827   -1042.1972    132616.86   -34097.087    2619.3238    -36716.41    3.4438024    245.72955 
     950     140.5184    -1127.367    132647.27   -34102.893    2653.8885   -36756.781    3.5481465     248.9722 
    1000     140.4158   -929.84929    132608.58   -34072.037    2651.9507   -36723.988    3.6861221    248.79041 
    1050      139.407   -1283.2887    132663.32   -34129.954    2632.8982   -36762.852    3.8426088    247.00301 
    1100    140.05425   -993.47199     132575.4   -34135.143    2645.1224   -36780.265    3.9976927    248.14982 
    1150    140.62415   -1160.4281    132594.31   -34088.504    2655.8857    -36744.39    4.1857429    249.15957 
    1200    139.09789    -1028.496    132596.81   -34115.595    2627.0601   -36742.655    4.3239209    246.45532 
    1250    139.21281   -1149.0994    132566.36   -34122.098    2629.2306   -36751.328    4.4513636    246.65894 
    1300    138.36233   -1494.0646    132561.21   -34108.739    2613.1681   -36721.907    4.5611103    245.15205 
    1350    138.55544   -1221.4971    132623.42   -34079.361    2616.8152   -36696.176    4.7325827     245.4942 
    1400    137.16021   -1069.4695    132725.38   -34064.242    2590.4644   -36654.706    4.9665999    243.02213 
    1450    138.94432   -1268.3794    132807.14   -34016.076    2624.1597   -36640.236    5.1356517    246.18323 
    1500     141.8536   -1355.2169     132800.9   -34017.826    2679.1056   -36696.931    5.2043901    251.33792 
    1550    140.95777   -1159.8627    132786.75    -34054.44    2662.1865   -36716.626    5.3450747    249.75067 
    1600    137.09418   -1126.0034    132788.65   -34082.425    2589.2172   -36671.642    5.4835718    242.90512 
    1650    138.46421   -1214.5898    132742.92   -34151.272    2615.0921   -36766.364    5.6389886    245.33255 
    1700    136.74437    -1299.797       132664   -34124.667    2582.6105   -36707.278     5.809067    242.28532 
    1750    137.08217   -1207.2447    132650.92   -34120.527    2588.9905   -36709.517    5.9739904    242.88385 
    1800    138.73408   -1417.0081    132582.08   -34145.672    2620.1891   -36765.861    6.0753313    245.81073 
    1850    137.19702   -1267.5654    132577.54   -34088.268    2591.1595   -36679.428    6.1565918    243.08734 
    1900    138.61139   -1108.3289    132611.38   -34079.595    2617.8718   -36697.466    6.3071423    245.59333 
    1950    140.29778   -1014.8829    132662.08   -34112.082    2649.7217   -36761.803    6.4506331     248.5813 
    2000    140.41306   -1323.5897    132636.24   -34054.028    2651.8989   -36705.927    6.5582803    248.78555 
    2050    138.09305   -1573.8653    132600.59   -34043.587    2608.0823    -36651.67    6.7301554    244.67493 
    2100    140.10025   -1090.3171    132563.89   -34047.162    2645.9912   -36693.154    6.8909634    248.23132 
    2150    140.15454   -1509.3303    132509.87    -34056.72    2647.0165   -36703.736    7.0320127    248.32751 
    2200    141.59391   -1309.2548    132483.71   -34055.893     2674.201   -36730.094    7.0923431     250.8778 
    2250    139.48758    -1182.472    132484.67   -34035.402    2634.4199   -36669.822    7.1554649    247.14578 
    2300    141.09844   -1132.0839    132403.05   -34053.968    2664.8434   -36718.811    7.2285842    249.99993 
    2350     139.3602   -1248.1741    132434.72   -34065.383    2632.0142   -36697.397     7.335197    246.92008 
    2400    139.85477   -1313.1633    132393.49   -34117.211    2641.3548   -36758.566    7.4415594    247.79637 
    2450    142.57287   -1141.4871    132286.19   -34075.321    2692.6901   -36768.011    7.5871477    252.61234 
    2500    138.32009   -1313.0106    132369.43    -34056.16    2612.3703    -36668.53    7.7936388    245.07721 
    2550    141.38929   -1053.0181    132484.88     -34087.6    2670.3364   -36757.936    7.9132573    250.51524 
    2600     139.6926   -839.69929    132629.79   -34042.957    2638.2921   -36681.249     8.049253    247.50904 
    2650    139.96634   -970.07461    132777.21   -34055.117     2643.462    -36698.58    8.1361079    247.99405 
    2700    140.40273   -1165.5258    132804.29   -34015.621     2651.704   -36667.325    8.3428612    248.76726 
    2750    144.72235   -1067.9742    132756.25   -33956.507     2733.286   -36689.793    8.5811353     256.4208 
    2800    138.90625   -1033.9288    132826.51   -33991.004    2623.4407   -36614.445    8.7179483    246.11577 
    2850    139.00826   -1268.3835    132782.25   -34018.486    2625.3673   -36643.854    8.9174516    246.29651 
    2900    140.11262   -1079.9411    132757.13   -33994.506    2646.2247   -36640.731    9.0679865    248.25323 
    2950    142.86044   -1041.7174    132774.37   -33992.913    2698.1211   -36691.034    9.2040083    253.12185 
    3000     139.6483   -1069.2985     132831.8   -33972.467    2637.4555   -36609.923    9.3201363    247.43055 
    3050     140.9111   -1277.8648     132905.2    -33977.83    2661.3051   -36639.136    9.4980637    249.66799 
    3100    140.91643   -1355.2456    132837.15   -33972.509    2661.4059   -36633.915    9.6198304    249.67744 
    3150    139.60682   -1251.2012    132852.72    -33972.01     2636.672   -36608.682    9.8423421    247.35705 
    3200    139.75257   -1167.4053     132857.9   -33945.643    2639.4247   -36585.068    10.015779     247.6153 
    3250    137.71828   -1340.6608    132809.02    -33985.85    2601.0043   -36586.854    10.206684    244.01092 
    3300    140.67951   -1417.6736    132764.05   -34006.175    2656.9312   -36663.107    10.371256    249.25765 
    3350    140.98681   -1214.6222     132755.6   -34014.515    2662.7351    -36677.25     10.45678    249.80214 
    3400    141.85451   -1052.8963    132734.65   -33960.964    2679.1229   -36640.087    10.600123    251.33954 
    3450    143.15566   -924.59333    132756.48    -33946.71    2703.6968   -36650.407    10.738243    253.64492 
    3500    141.74011   -1158.0744    132781.41   -33930.092    2676.9621   -36607.054    10.833924    251.13684 
    3550    145.01055   -953.90407    132868.68   -33917.173     2738.729   -36655.902     11.02393    256.93144 
    3600    141.20981   -1292.8347    132923.02    -33951.69    2666.9467   -36618.636    11.274947    250.19724 
    3650    144.22959    -1069.082    132944.62    -33933.57    2723.9795   -36657.549    11.358973    255.54773 
    3700    142.67889   -1136.2793    132961.06   -33925.319    2694.6924   -36620.011    11.529164    252.80018 
    3750    140.41786   -1140.4568    132969.93   -33992.183    2651.9896   -36644.173     11.70626    248.79406 
    3800    140.68936   -1075.7105    133042.01   -33982.379    2657.1172   -36639.496    11.823792     249.2751 
    3850    144.09371   -1084.8852    133001.44    -34009.37    2721.4132   -36730.783    12.007318    255.30697 
    3900    143.11136    -1118.866    133151.92   -34009.283    2702.8602   -36712.143    12.098626    253.56644 
    3950    138.65502   -1124.3005    133223.97   -34095.546     2618.696   -36714.242    12.248158    245.67065 
    4000    140.13015    -1123.382    133323.18   -34114.682    2646.5557   -36761.237    12.409326    248.28428 
    4050    137.15488   -1467.3835    133371.07   -34123.821    2590.3636   -36714.185    12.475133    243.01267 
    4100    141.02863   -1559.1053    133360.67   -34091.601    2663.5249   -36755.126    12.501195    249.87623 
    4150    141.23853   -1152.3665    133310.09   -34020.235    2667.4891   -36687.724    12.676782    250.24813 
    4200    138.97137   -1077.4792    133335.31   -34045.543    2624.6706   -36670.214    12.709203    246.23115 
    4250    139.30057   -1165.8786     133348.3   -34036.626    2630.8879   -36667.514    12.822955    246.81443 
    4300    139.85181   -1244.9223    133384.35   -34018.712     2641.299   -36660.011    13.019377    247.79113 
    4350    140.20417   -1484.1487    133321.92   -34029.333    2647.9538   -36677.286    13.123226    248.41545 
    4400    140.48215   -1274.7859     133149.9   -34030.063    2653.2038   -36683.267    13.196371    248.90797 
    4450    141.86543   -1275.3133    133162.31   -33997.881    2679.3289    -36677.21    13.174836    251.35887 
    4500    143.16089   -1358.4983    133148.44   -34030.113    2703.7956   -36733.909    13.169932     253.6542 
    4550    140.68196   -1171.1806    133197.25   -34078.083    2656.9775   -36735.061    13.431285      249.262 
    4600    140.22647   -1006.6513    133243.74   -34098.382    2648.3749   -36746.757    13.609669    248.45495 
    4650    141.56503   -1369.3696    133297.11   -34063.823    2673.6555   -36737.479    13.787043    250.82663 
    4700    138.77561   -1501.6673    133285.74    -34098.07    2620.9734   -36719.044    13.934182     245.8843 
    4750    142.41058   -1266.3883    133206.78   -34064.303     2689.625   -36753.928    14.156013    252.32479 
    4800    141.58109   -1352.2767    133155.56   -34054.168    2673.9589   -36728.127    14.389248    250.85509 
    4850      139.932   -1216.1308    133098.46    -34029.16    2642.8135   -36671.974    14.543859    247.93321 
    4900    140.68111   -1210.7594    133027.78    -34053.12    2656.9614   -36710.082    14.760963    249.26048 
    4950    139.56954   -1445.4304    132943.72   -33985.436    2635.9678   -36621.404    14.963429    247.29099 
    5000    143.28762   -1233.3704    132890.08   -34015.748    2706.1891   -36721.937    15.059465    253.87874 
    5050    140.40569   -1383.3706     132826.4   -34027.969    2651.7598   -36679.729    15.155628     248.7725 
    5100     142.0644   -1356.8673    132814.07   -34050.252    2683.0869   -36733.339     15.33626    251.71142 
    5150    138.49929   -1368.6829    132808.79    -34056.96    2615.7548   -36672.715    15.563706    245.39472 
    5200    139.44068   -1347.6786     132772.3   -34033.115    2633.5342   -36666.649    15.737497    247.06269 
    5250    139.49171   -1393.3138    132755.65   -34009.363     2634.498   -36643.861    15.723531     247.1531 
    5300    139.08958   -1493.2584    132750.29   -33995.647    2626.9032   -36622.551    15.828123     246.4406 
    5350    137.64043   -1253.2386    132776.07   -34038.752    2599.5339   -36638.286     15.86255    243.87297 
    5400     139.0198   -1275.1993    132809.46    -34049.38    2625.5853   -36674.965    16.021908    246.31697 
    5450    138.95538   -1116.9986    132854.78   -34061.891    2624.3686    -36686.26    16.163007    246.20282 
    5500    139.04249   -1346.9754     132869.1     -34068.7    2626.0138   -36694.714    16.378099    246.35716 
    5550     140.4446   -1185.8807    132899.75   -34020.113    2652.4946   -36672.607     16.46433    248.84143 
    5600    139.98256   -1291.3375    132902.19   -34022.509    2643.7683   -36666.278    16.438028    248.02278 
    5650    140.67469   -1427.9648     132902.6   -34008.246    2656.8401   -36665.086    16.558693    249.24911 
    5700    139.55229   -1289.5877    132823.93   -34060.562    2635.6421   -36696.205    16.700961    247.26043 
    5750    139.49515   -1419.0927    132781.69   -34092.909     2634.563   -36727.472    16.773729    247.15919 
    5800    135.97084   -1508.2081     132641.9   -34136.112    2568.0014   -36704.113    16.860265    240.91478 
    5850    138.96762   -1227.1431    132617.79   -34193.757    2624.5998   -36818.357    16.937654    246.22451 
    5900    137.48102   -1382.8497    132583.29   -34125.011    2596.5233   -36721.534    17.012489    243.59054 
    5950    136.96032   -1411.6779    132530.24    -34116.56     2586.689   -36703.249    17.295575    242.66794 
    6000    138.21652   -1372.5918     132469.6   -34201.408    2610.4143   -36811.822    17.562426    244.89371 
    6050    138.57101   -1234.6913    132405.09   -34150.182    2617.1093   -36767.292    17.728059    245.52179 
    6100    138.07849    -1165.275    132413.33   -34126.026    2607.8072   -36733.833    17.765215    244.64913 
    6150    139.67792   -1114.4034    132500.12   -34049.791    2638.0148   -36687.806     17.84725    247.48302 
    6200    138.33435   -964.07988    132415.29   -34063.914    2612.6395   -36676.553      18.0436    245.10246 
    6250    138.08359   -1100.7479     132426.8   -34053.607    2607.9036   -36661.511    18.136379    244.65817 
    6300    139.54781   -1125.4824    132515.17   -34030.656    2635.5575   -36666.213    18.206601     247.2525 
    6350    141.27142   -1289.9854    132519.63   -34052.851    2668.1104   -36720.961    18.413345    250.30641 
    6400    139.15438   -1167.5474    132463.91   -34044.171    2628.1269   -36672.298    18.644648     246.5554 
    6450    139.59118   -1096.1939    132478.06    -34031.88    2636.3766   -36668.256    18.778094    247.32934 
    6500    136.53477   -1316.4363    132545.47    -34145.46     2578.652   -36724.112    19.004649    241.91396 
    6550    139.54619   -1072.9552    132641.11   -34096.708    2635.5269   -36732.235    19.086334    247.24962 
    6600    139.47872   -1321.9636    132709.09    -34133.51    2634.2527   -36767.763    19.260788    247.13009 
    6650     141.4694   -1374.4888    132648.62   -34096.778    2671.8495   -36768.628       19.508    250.65719 
    6700    141.58275   -1470.7258    132490.28   -34116.765    2673.9902   -36790.755    19.733828    250.85803 
    6750    138.98605   -1296.3987    132442.79   -34149.528    2624.9479   -36774.476    19.934122    246.25716 
    6800     139.8585   -1354.1933    132408.09   -34151.532    2641.4254   -36792.957    20.113827    247.80299 
    6850    138.43033   -1251.2271    132374.97   -34191.114    2614.4523   -36805.566    20.332847    245.27253 
    6900    139.43482   -1497.1641    132334.03   -34150.544    2633.4235   -36783.968    20.527132    247.05229 
    6950    137.90641   -1443.7659     132264.7   -34176.174    2604.5573   -36780.731    20.648261    244.34424 
    7000    138.32227   -1132.5944    132254.83   -34158.526    2612.4114   -36770.937    20.731042    245.08107 
    7050    137.52905   -1164.3211    132267.71   -34098.694    2597.4304   -36696.124     20.81744    243.67564 
    7100    141.20744   -1401.7501    132167.81   -34142.531     2666.902   -36809.433    20.867576    250.19305 
    7150    139.40754   -1282.5514    132120.25   -34149.642    2632.9083    -36782.55    21.007882    247.00396 
    7200      139.757   -1211.7352    132147.87   -34148.864    2639.5083   -36788.372    21.079671    247.62314 
    7250    138.60431   -947.43061    132249.35   -34131.449    2617.7382   -36749.187    21.105562     245.5808 
    7300    140.26015   -981.81372    132262.29   -34101.261     2649.011   -36750.272    21.067204    248.51462 
    7350    137.32921    -1003.718    132328.56   -34115.859    2593.6562   -36709.515    21.249533    243.32156 
    7400    138.92585   -983.64261    132434.34   -34102.945    2623.8108   -36726.755    21.440206    246.15049 
    7450    140.21962   -939.42268     132601.5   -34054.147    2648.2456   -36702.392    21.502836    248.44281 
    7500    142.27677   -1400.2263    132606.62       -34057    2687.0977   -36744.098     21.64534    252.08769 
    7550    134.98341   -1193.8911    132551.16   -34062.936    2549.3524   -36612.288    21.886871    239.16524 
    7600    139.62681   -1227.7843     132487.3    -34122.93    2637.0496    -36759.98    22.181471    247.39248 
    7650     141.7719   -1219.7005    132445.72   -34140.318    2677.5626   -36817.881    22.243379    251.19317 
    7700    138.99273    -1258.402     132513.8   -34150.395    2625.0741   -36775.469    22.390055      246.269 
    7750    135.68684   -1234.8896    132510.32   -34132.485    2562.6377   -36695.123    22.523371    240.41159 
    7800    139.82264   -1061.4233     132494.5   -34085.106    2640.7481   -36725.854    22.590259    247.73945 
    7850    139.59957   -1001.9613    132570.16   -34042.258    2636.5351   -36678.793    22.709018    247.34421 
    7900     142.4252   -1250.6782    132470.92   -34051.694     2689.901   -36741.595    22.763084    252.35069 
    7950    138.86802   -1077.2593    132559.63   -34126.269    2622.7186   -36748.987    22.847382    246.04803 
    8000    137.87921   -1004.2948    132609.39   -34131.271    2604.0437   -36735.314     22.86427    244.29605 
    8050    136.72481   -1367.0678    132691.94   -34136.916    2582.2411   -36719.158    22.800845    242.25066 
    8100    141.48364   -1373.1466    132717.14   -34073.194    2672.1183   -36745.312    22.997448    250.68242 
    8150    138.61251   -984.70945    132707.37   -34104.656     2617.893   -36722.549    23.179762    245.59532 
    8200    139.78268   -1310.3976    132720.98   -34085.473    2639.9934   -36725.466    23.373379    247.66865 
    8250    138.17782   -1064.5934    132811.92   -34069.834    2609.6834   -36679.518     23.60486    244.82514 
    8300    137.87296   -957.68252    132892.29   -34050.626    2603.9256   -36654.552    23.868192    244.28497 
    8350    142.26011   -1495.6486    132873.92   -34016.342    2686.7831   -36703.125     23.88383    252.05818 
    8400    138.30944   -1119.7426    132851.15   -34040.877    2612.1691   -36653.046    24.031665    245.05834 
    8450    139.56479   -1232.5353    132880.05   -34024.319    2635.8782   -36660.197    24.150079    247.28258 
    8500    142.09677   -1040.4585    132880.13   -33971.275    2683.6981   -36654.973    24.345207    251.76877 
    8550    141.37453   -1388.8013    132962.21    -33964.73    2670.0576   -36634.788    24.472359    250.48909 
    8600    143.28333   -1509.8304    132895.45   -33978.385     2706.108   -36684.493    24.434558    253.87113 
    8650     141.5774   -1465.6026    132846.09   -33983.867    2673.8892   -36657.756    24.481318    250.84855 
    8700    143.34489   -1243.5759     132810.4    -33991.95    2707.2707   -36699.221    24.650474    253.98021 
    8750    139.07257   -1443.0815    132772.92    -34033.43    2626.5819   -36660.012    24.897361    246.41046 
    8800    141.85859   -1232.8588    132703.72    -33967.54    2679.1998    -36646.74    24.900671    251.34676 
    8850    137.44604   -1308.6185    132687.28   -34006.105    2595.8627   -36601.968    25.040657    243.52856 
    8900    142.75882    -1114.438    132697.45   -33967.619     2696.202   -36663.821    25.234235    252.94181 
    8950    143.20723   -1212.4095    132683.66    -33961.86    2704.6709   -36666.531    25.468192     253.7363 
    9000    140.35878   -1173.1541    132686.43   -33946.299    2650.8738   -36597.173    25.730881    248.68938 
    9050     138.8766   -900.63276    132713.35   -34001.397    2622.8808   -36624.278    25.967548    246.06324 
    9100    139.04524   -1256.9132    132837.61   -34021.205    2626.0657   -36647.271    26.121158    246.36203 
    9150    141.85161   -1073.1097    132869.19   -33988.818    2679.0681   -36667.886    26.362563     251.3344 
    9200    141.97388   -1280.0333    132888.83   -34010.265    2681.3772   -36691.642    26.477524    251.55103 
    9250    140.89459   -1229.2026    132769.07   -34035.039    2660.9934   -36696.032    26.648257    249.63874 
    9300    138.71885   -1248.3502    132720.91   -34057.124    2619.9014   -36677.025     26.90882    245.78373 
    9350    141.53556   -1251.5808    132746.87   -34008.171    2673.0989    -36681.27    27.208801    250.77441 
    9400    138.41362   -1140.1647    132785.88   -34015.826    2614.1367   -36629.963    27.303488    245.24292 
    9450    140.11558    -1124.494    132873.53   -33998.811    2646.2807   -36645.091     27.39298    248.25848 
    9500    142.69879   -1074.6701    132864.97   -33944.566    2695.0682   -36639.634    27.457078    252.83544 
    9550    143.95638   -1198.0406    132893.25   -33930.901    2718.8196    -36649.72    27.484266    255.06366 
    9600    142.88234   -887.53452     132939.3   -33920.529    2698.5348   -36619.064    27.688208    253.16066 
    9650    140.35528   -1074.7289    132989.61   -33931.985    2650.8077   -36582.792    27.749818    248.68318 
    9700    141.13471   -1054.3635    133122.42   -33939.918    2665.5283   -36605.447     27.68571    250.06418 
    9750    141.41876   -1229.2963    133135.62   -33923.882    2670.8931   -36594.775    27.768652    250.56747 
    9800    138.73324   -1129.0174    133060.79   -34000.347    2620.1732   -36620.521    27.904271    245.80923 
    9850    139.76844   -1425.5576    132941.81   -34070.267    2639.7245   -36709.991    28.027693    247.64342 
    9900    140.13884   -933.09605    132951.47   -34105.194    2646.7199   -36751.914    28.225274    248.29968 
    9950    141.92456   -1194.1687    133083.34   -34084.431    2680.4458   -36764.877    28.439091    251.46365 
   10000    138.83719    -1221.082    133079.15   -34116.502    2622.1364   -36738.639    28.543717     245.9934 
   10050    140.98421   -1216.9704    133044.84   -34131.954    2662.6859    -36794.64    28.628921    249.79753 
   10100    139.24565   -1243.8187    133071.36   -34143.721    2629.8508   -36773.572    28.904285    246.71712 
   10150    136.32808   -1207.5617    133082.11   -34176.677    2574.7483   -36751.425    28.949564    241.54774 
   10200    137.36218   -1142.8715    133121.26   -34177.271    2594.2787    -36771.55    29.095357    243.37996 
   10250    139.55187   -1227.7671    133130.61   -34111.242    2635.6342   -36746.876    29.083542     247.2597 
   10300    137.52402   -1411.8195    133091.26    -34106.64    2597.3353   -36703.975    29.109981    243.66671 
   10350    140.30063   -1100.2261    133066.66   -34077.235    2649.7755   -36727.011    29.229376    248.58635 
   10400      137.542    -1238.234    133165.83   -34061.868    2597.6749   -36659.543    29.387489    243.69857 
   10450     137.2274   -1334.2364    133116.61   -34105.914    2591.7333   -36697.647    29.611324    243.14117 
   10500    139.73798   -1267.7674    133072.61   -34034.885    2639.1491   -36674.034    29.659627    247.58944 
   10550    137.94548   -1262.9674     133123.3   -34057.647    2605.2953   -36662.942    29.835072    244.41347 
   10600    140.07777   -1198.3192    133250.27   -34034.872    2645.5665   -36680.439    29.977494    248.19149 
   10650    142.46539   -1104.7374    133339.01   -34036.759      2690.66    -36727.42    30.085576    252.42189 
   10700    141.70159   -1297.2469    133365.94   -33997.912    2676.2346   -36674.147    30.247085    251.06859 
   10750    141.07259   -1266.7945    133476.14   -34018.059    2664.3552   -36682.414    30.537356    249.95412 
   10800    138.07646   -1347.8779    133403.37   -34035.513     2607.769   -36643.282    30.749169    244.64554 
   10850    139.48121   -1529.8886    133357.42   -34045.497    2634.2997   -36679.796    30.799073    247.13449 
   10900    138.73523   -1390.8435    133312.63   -34044.167    2620.2107   -36664.378    30.819551    245.81275 
   10950    141.31051   -1426.2471     133224.3   -34019.817    2668.8485   -36688.665    30.934549    250.37567 
   11000    138.56936   -1166.0972       133179   -33990.154    2617.0781   -36607.232    31.078516    245.51886 
   11050    143.60534   -1260.4262     133218.1    -33957.72    2712.1896   -36669.909    31.278404    254.44167 
   11100    136.65057   -1127.3301    133200.27   -34004.517     2580.839   -36585.356    31.319772    242.11913 
   11150    140.16484   -974.27545    133312.57   -33986.598     2647.211   -36633.809    31.497594    248.34576 
   11200    140.84984   -1058.4622     133401.7   -33992.239    2660.1481   -36652.387    31.635132    249.55944 
   11250    141.68282   -1347.6994    133284.04   -33993.361    2675.8802   -36669.242    31.668296    251.03534 
   11300    142.80282   -1411.1717    133225.49    -33974.14    2697.0329   -36671.173    31.791779    253.01976 
   11350    141.72489    -1508.999    133199.91   -33993.654    2676.6747   -36670.329    32.010652    251.10987 
   11400    138.82267   -1201.0258    133198.06    -34017.98    2621.8622   -36639.842    32.153188    245.96769 
   11450    139.66436   -1210.0647     133239.8   -34003.995    2637.7588   -36641.753    32.329119    247.45901 
   11500    138.02097   -1295.2622    133233.58   -34057.558    2606.7209   -36664.279    32.477186    244.54722 
   11550    137.00765    -1509.853    133200.72   -34051.119     2587.583   -36638.702    32.676035    242.75181 
   11600    142.77042   -1431.6744    133096.38   -34022.736     2696.421   -36719.157    32.884255    252.96235 
   11650    143.42619   -1129.8501    133099.69   -33980.828    2708.8063   -36689.634    33.075937    254.12426 
   11700    140.28472   -1241.0709    133031.98   -34029.595    2649.4752    -36679.07    33.227122    248.55817 
   11750    137.74312   -1446.8975    132990.07   -34049.059    2601.4733   -36650.533    33.424972    244.05492 
   11800    143.00665   -1239.1656    132994.57   -33970.971    2700.8825   -36671.854    33.639488     253.3809 
   11850     141.5653   -1294.0452    132978.88   -33991.543    2673.6606   -36665.204    33.948787     250.8271 
   11900    139.25872   -1222.5608    132894.68   -34008.819    2630.0977   -36638.917    34.020789    246.74029 
   11950    140.28404   -1352.5683    132865.11   -34007.037    2649.4622     -36656.5    34.212567    248.55695 
   12000    139.79215   -1242.4223    132845.83   -34038.897    2640.1722    -36679.07    34.298479    247.68542 
   12050    142.72918   -1237.5997    132820.69   -33943.941    2695.6422   -36639.583    34.400261    252.88928 
   12100    139.51087   -1105.7098    132799.64    -33985.33    2634.8599   -36620.189    34.381844    247.18705 
   12150    141.77341   -1067.6898    132821.36    -34008.37    2677.5912   -36685.961    34.401187    251.19585 
   12200    139.11378      -948.11    132825.04   -34018.671    2627.3602   -36646.031    34.628014    246.48347 
   12250    140.83151   -997.77335     132784.2   -34025.712    2659.8019   -36685.514    34.833112    249.52697 
   12300    138.23142   -1089.7326    132810.79   -34021.478    2610.6957   -36632.173    35.200218    244.92011 
   12350    137.22802   -1094.5735    132695.58   -34019.294     2591.745   -36611.039     35.32111    243.14226 
   12400    137.71318   -1020.6759    132692.01   -34053.367     2600.908   -36654.275    35.491123    244.00188 
   12450    136.59871   -1104.7854    132750.73   -34004.938    2579.8595   -36584.797    35.703915    242.02724 
   12500    137.96253   -967.06022    132737.69   -33958.384    2605.6173   -36564.001    35.973354    244.44368 
   12550    140.09699   -1243.2052     132778.9   -33933.232    2645.9295   -36579.161    36.054409    248.22553 
   12600    138.31778   -1111.8136    132824.38   -33925.495    2612.3267   -36537.821    36.119121    245.07312 
   12650    143.34114   -1132.1578    132823.99    -33923.16    2707.1998    -36630.36    36.354619    253.97356 
   12700    140.10774   -1227.2919    132899.99   -33973.045    2646.1325   -36619.178    36.667204    248.24458 
   12750    139.70558   -1158.1547    132864.91   -33986.039    2638.5373   -36624.576    36.772895    247.53204 
   12800      136.557   -1224.4908    132867.51   -34025.273    2579.0718   -36604.345    36.990129    241.95334 
   12850    139.65756   -1183.1021    132831.74   -34037.159    2637.6303   -36674.789    37.313844    247.44695 
   12900    142.14774   -1099.4768    132808.75   -33989.286    2684.6608   -36673.946    37.616688    251.85908 
   12950    140.22788    -1339.734    132781.61   -34004.123    2648.4016   -36652.524    37.767933    248.45745 
   13000    140.70887   -1328.5045    132703.22   -34006.473    2657.4858   -36663.958    37.980492    249.30968 
   13050    139.29444   -1367.8763    132725.72   -33975.594    2630.7722   -36606.366     38.15042    246.80357 
   13100    141.14498   -1214.7243    132705.25   -33935.725    2665.7222   -36601.447    38.477047    250.08237 
   13150    142.21123   -1251.7528    132705.79   -33955.275      2685.86   -36641.135    38.584528    251.97158 
   13200    139.86273   -1006.9492    132792.17   -33954.201    2641.5052   -36595.706    38.645727    247.81047 
   13250     140.1854   -1025.0986    132844.26   -34006.569    2647.5993   -36654.169    38.967569    248.38218 
   13300    139.33117   -1121.8559    132819.69   -34016.238     2631.466   -36647.704    39.191566    246.86866 
   13350    141.13272   -1347.2199    132793.07   -33941.981    2665.4908   -36607.472    39.374732    250.06066 
   13400    144.40692   -1420.5978    132648.14   -33919.739    2727.3288   -36647.068    39.583142    255.86193 
   13450    140.99581   -1461.9867    132617.21   -33997.862    2662.9051   -36660.767    39.738007    249.81808 
   13500    138.80207   -1304.5628    132568.06   -33977.575    2621.4731   -36599.048    40.051584    245.93118 
   13550    139.80576   -1296.0535    132607.26   -33984.822    2640.4292   -36625.251    40.145687    247.70953 
   13600    141.07996    -1370.325    132584.02   -34019.227    2664.4944   -36683.721    40.131154    249.96719 
   13650    140.38679   -1150.4853       132603    -33998.05    2651.4029   -36649.453    40.187284    248.73902 
   13700    138.53677   -1385.9026    132668.88   -34000.566    2616.4626   -36617.029    40.440755    245.46112 
   13750    140.29691   -1285.8745    132664.53   -33971.251    2649.7053   -36620.956    40.654857    248.57975 
   13800    137.51631   -1439.9933    132652.38   -33945.708    2597.1897   -36542.897    40.713152    243.65306 
   13850    142.40282   -983.59924    132777.13   -33918.649    2689.4784   -36608.127    40.805717    252.31104 
   13900    142.28053   -1152.7747    132974.56   -33882.667    2687.1688   -36569.836    40.902469    252.09436 
   13950    141.71909    -1422.634     132937.5   -33905.329    2676.5651   -36581.894    41.132605    251.09959 
   14000    140.50908   -1327.7351    132874.59   -33895.106    2653.7125   -36548.819     41.41117    248.95569 
   14050    142.59639   -1281.4266    132725.72   -33921.254    2693.1343   -36614.388    41.426421    252.65401 
   14100    138.57738    -903.7525    132669.32   -33952.471    2617.2296     -36569.7    41.651974    245.53308 
   14150    137.72252   -1104.4792    132756.87   -33987.799    2601.0843   -36588.883    41.751253    244.01842 
   14200     140.0633   -1423.7165    132774.11   -34016.207    2645.2933     -36661.5    42.026636    248.16585 
   14250    140.12812   -1186.0735    132704.63   -34001.376    2646.5175   -36647.893    42.030685     248.2807 
   14300     139.7066   -1381.4472    132719.24     -34007.3    2638.5564   -36645.856    42.092634    247.53384 
   14350     141.3397   -1456.2763    132631.44   -33976.391    2669.3999   -36645.791    42.265719    250.42739 
   14400    140.67684    -1656.329    132525.21   -34008.927    2656.8809   -36665.808    42.479005    249.25293 
   14450    140.21964    -1109.095    132578.06   -33986.029    2648.2459   -36634.275    42.844982    248.44285 
   14500    141.41999   -1371.1606    132650.26   -34001.606    2670.9162   -36672.522    42.926048    250.56964 
   14550    140.51222   -1113.7991    132674.72   -33985.063    2653.7717   -36638.834    43.024567    248.96125 
   14600    141.85471   -1008.5684    132728.06   -33945.242    2679.1267   -36624.369    43.114584     251.3399 
   14650    140.85517   -1485.6091    132718.65   -33977.614    2660.2488   -36637.862    43.343492    249.56889 
   14700    139.50366    -1272.256    132688.84   -33979.268    2634.7237   -36613.992    43.571871    247.17428 
   14750    138.98209   -1253.9334    132707.27   -33974.899    2624.8731   -36599.772    43.821303    246.25014 
   14800    140.35664   -1231.0286    132757.88   -33979.505    2650.8334   -36630.338    43.859017    248.68559 
   14850     139.0875   -1281.1536    132706.58   -33990.288    2626.8639   -36617.152    43.899572    246.43691 
   14900    141.22794    -1112.332     132669.3   -34000.671    2667.2891    -36667.96     44.08908    250.22936 
   14950    139.75726     -1284.48    132742.41   -34007.579    2639.5132   -36647.092    44.125193     247.6236 
   15000    142.35311   -999.84657    132736.65   -34006.954    2688.5395   -36695.494     44.14446    252.22296 
   15050    142.10016   -1178.6182    132833.66   -33963.884    2683.7623   -36647.647     44.61831    251.77478 
   15100    141.48152   -1194.0988     132932.5   -33980.537    2672.0783   -36652.616    44.923471    250.67867 
   15150    139.61773   -1178.4909    132931.73   -33992.955     2636.878   -36629.833    45.127064    247.37637 
   15200    138.85036   -1147.3677    132946.35   -33980.071    2622.3852   -36602.456    45.179933    246.01675 
   15250    136.98025   -1219.0844    132970.33   -33999.646    2587.0655   -36586.711    45.317629    242.70326 
   15300      141.995   -1104.8584    132958.91   -33951.551    2681.7761   -36633.327    45.170683    251.58845 
   15350      142.201   -1125.6623    132961.88   -33951.445    2685.6667   -36637.111    45.174071    251.95345 
   15400     140.0454   -1244.2328    133066.25   -33987.053    2644.9551   -36632.008    45.337727    248.13412 
   15450    140.21902   -1226.0357    133027.97   -33996.629    2648.2342   -36644.863    45.285617    248.44175 
   15500      141.724   -1097.1126    133030.44   -34034.286    2676.6579   -36710.944    45.497194    251.10829 
   15550    138.55683   -1269.9246     133002.5    -34053.01    2616.8413   -36669.852    45.793106    245.49666 
   15600    140.60647   -1385.3107    132849.46   -34064.649    2655.5518   -36720.201    45.899942    249.12824 
   15650    140.49583   -1362.8037     132810.7   -34066.809    2653.4623   -36720.272    45.963363    248.93222 
   15700     140.5818   -1227.0837    132753.31   -34058.974    2655.0859    -36714.06    45.976502    249.08453 
   15750    139.14687   -1340.7233     132821.4   -34045.405    2627.9852   -36673.391    46.111223    246.54211 
   15800    138.45266   -1065.7022    132770.14   -34046.469    2614.8741   -36661.343    46.277775     245.3121 
   15850    139.38687   -1284.2861    132774.24   -34046.697    2632.5179   -36679.215    46.307739    246.96734 
   15900    141.05172   -1149.9404    132780.44   -34049.008     2663.961   -36712.969    46.483153    249.91714 
   15950    139.13344   -1275.7321    132864.01   -34047.857    2627.7315   -36675.589    46.602432     246.5183 
   16000    139.86195   -973.95899    132994.21   -34033.675    2641.4904   -36675.165    46.782819    247.80908 
   16050    140.37675   -1162.3002    133037.06   -34054.697    2651.2132    -36705.91    46.979704    248.72122 
   16100    137.12754   -1461.9975    133057.04   -34091.884    2589.8473   -36681.731    47.185046    242.96424 
   16150    137.10224   -1251.6286    133036.72   -34051.116    2589.3695   -36640.486    47.413655    242.91941 
   16200    137.84057   -1358.1081    133031.83   -34024.229    2603.3139   -36627.543    47.614277    244.22759 
   16250    137.84187   -1402.7072     132990.5   -34008.735    2603.3384   -36612.074    47.611052    244.22989 
   16300    139.31725   -1238.2249    132896.94    -34025.44    2631.2031   -36656.643    48.009848    246.84399 
   16350    137.59247   -1280.2242    132864.94   -34012.011    2598.6282   -36610.639    48.353934      243.788 
   16400    139.35247   -1589.5264    132774.49   -33978.988    2631.8682   -36610.856    48.521756    246.90638 
   16450    142.14306   -1219.6286    132731.18   -33962.695    2684.5725   -36647.268    48.524299    251.85079 
   16500    141.39414   -1270.7099    132747.57   -33932.867    2670.4281   -36603.295    48.836448    250.52385 
   16550    142.71256   -1242.0203    132728.13   -33915.404    2695.3283   -36610.732     49.34257    252.85984 
   16600    141.43523   -1144.2835    132692.48   -33938.665     2671.204   -36609.869    49.362877    250.59664 
   16650    140.54594   -1322.4091     132715.1   -33922.662    2654.4086   -36577.071    49.730039    249.02099 
   16700    141.18443   -1362.4192    132658.06   -33920.069    2666.4674   -36586.536    49.754234    250.15228 
   16750    139.94965    -1110.702    132616.76    -33919.46    2643.1468   -36562.607    49.975663    247.96448 
   16800     140.8186    -1064.681    132618.26   -33909.796    2659.5581   -36569.354    50.234763    249.50409 
   16850    141.91494   -1135.4195    132671.07   -33931.352    2680.2641   -36611.616    50.319901    251.44661 
   16900     141.2222   -1372.0454    132587.16   -33938.369    2667.1807    -36605.55    50.641766    250.21919 
   16950     141.8516   -1350.3279    132532.97     -33976.1    2679.0679   -36655.168    50.771639    251.33438 
   17000    141.26065   -1236.8619    132484.44   -33977.183    2667.9069    -36645.09    50.998588    250.28733 
   17050     138.8975   -1077.6493    132464.86   -33999.864    2623.2755    -36623.14    51.256324    246.10027 
   17100    140.01751   -1403.5586    132442.16   -34036.311    2644.4284    -36680.74     51.53661    248.08471 
   17150    138.70551   -993.38833    132476.95   -34042.667    2619.6494   -36662.317    51.643122    245.76009 
   17200    138.08614   -1322.5819    132448.97   -34107.576    2607.9518   -36715.528    51.712849    244.66269 
   17250    137.09528   -1012.7951    132468.51   -34043.286     2589.238   -36632.524    51.788882    242.90708 
   17300    138.93208   -1034.2874    132492.24   -34031.479    2623.9286   -36655.408    51.716441    246.16154 
   17350    141.40656   -1164.4361    132424.12   -34003.083    2670.6625   -36673.745    51.827219    250.54584 
   17400     138.5265   -894.13831     132470.2   -34014.921    2616.2685    -36631.19    51.994936    245.44292 
   17450    141.73908    -1167.891    132486.97   -33912.247    2676.9428   -36589.189    52.232987    251.13502 
   17500    148.76015   -1278.7698    132469.36   -33854.138    2809.5455   -36663.684    52.313267    263.57502 
   17550    144.15626   -1233.1568    132519.21   -33884.126    2722.5946   -36606.721    52.452957    255.41781 
   17600    141.29847    -1247.837    132511.21   -33950.928    2668.6212   -36619.549    52.546695    250.35434 
   17650      141.326   -1143.9279    132479.43   -34051.086    2669.1412   -36720.227     52.75118    250.40312 
   17700    143.25179   -1253.9341     132524.6   -33993.258    2705.5124    -36698.77    53.021961    253.81525 
   17750    140.04883   -1385.7552     132553.7   -34044.391      2645.02   -36689.411    53.236849    248.14022 
   17800    138.72816   -1140.6564     132620.9    -34102.71    2620.0772   -36722.787    53.571741    245.80022 
   17850    142.04154   -1085.9433     132676.6   -34067.922    2682.6551   -36750.577     53.90436    251.67091 
   17900     140.3796   -1478.5321    132660.32   -34046.626     2651.267   -36697.893    54.046348    248.72627 
   17950    142.08436   -1114.6762    132606.92   -34082.503    2683.4638   -36765.966    54.228072    251.74678 
   18000    139.59021   -1310.9664    132628.55   -34059.979    2636.3582   -36696.337    54.317187    247.32761 
   18050    140.99991   -1213.6853    132664.08   -34082.376    2662.9824   -36745.358    54.613453    249.82534 
   18100    139.73679   -1110.8129    132729.76   -34008.991    2639.1267   -36648.117    54.859329    247.58734 
   18150    137.61472   -1286.1104    132794.58    -34039.12    2599.0483   -36638.168    54.885508    243.82742 
   18200    138.07953   -1018.6438    132830.83   -34044.247    2607.8269   -36652.074    54.931069    244.65098 
   18250     143.2128   -1478.4709    132842.65   -34020.858    2704.7761   -36725.634    55.028697    253.74618 
   18300    141.31275   -1134.2211    132893.99   -33999.441    2668.8908   -36668.332    55.147638    250.37963 
   18350    139.56427   -1133.0215    132986.14    -34021.59    2635.8684   -36657.458    55.436561    247.28167 
   18400    141.40237   -1262.9285    132879.91   -34000.342    2670.5834   -36670.926    55.665819    250.53842 
   18450    140.91453   -1077.3108    132918.12   -34009.951    2661.3699   -36671.321    55.642312    249.67407 
   18500     138.5907   -1267.1328    132923.94   -34056.987    2617.4812   -36674.468    55.925978    245.55668 
   18550     140.9331   -1373.7473    132880.87   -34064.129    2661.7206   -36725.849    55.975456    249.70697 
   18600    137.29195   -1095.8283    132859.29    -34083.74    2592.9524   -36676.692    56.017841    243.25554 
   18650    138.10254   -1299.7468    132865.85   -34080.634    2608.2614   -36688.895    56.023899    244.69174 
   18700    137.73545    -1260.203    132852.74   -34102.203    2601.3285   -36703.532    56.283065    244.04133 
   18750     138.1268   -1433.8501    132914.43   -34112.056    2608.7197   -36720.775    56.521794    244.73473 
   18800    133.54795   -1081.4487    132830.93   -34186.095    2522.2417   -36708.336    56.583226    236.62187 
   18850    135.74095   -1127.5051    132794.74   -34188.197    2563.6597   -36751.857    56.419379    240.50746 
   18900    140.82997   -1238.9999    132785.09    -34144.32    2659.7728   -36804.093    56.669554    249.52423 
   18950    135.49598   -1353.3227    132714.43   -34151.418     2559.033   -36710.451    57.023379    240.07342 
   19000    137.45334   -1322.7862    132603.03   -34123.332    2596.0005   -36719.333    57.044809    243.54149 
   19050    138.05441   -1331.6726    132665.15   -34065.653    2607.3526   -36673.006    57.179699    244.60648 
   19100    138.91156   -1264.4015    132649.35   -34052.904     2623.541   -36676.445    57.421748    246.12518 
   19150    141.19527   -1088.9749    132639.42   -34013.089    2666.6722   -36679.761    57.569607    250.17149 
   19200    139.99461   -1015.7401    132616.45   -34025.648    2643.9959   -36669.644    57.546302    248.04413 
   19250    138.55305   -950.23872    132549.26   -34071.478    2616.7701   -36688.248    57.701267    245.48997 
   19300    141.00312   -1042.3625     132546.2   -34044.069     2663.043   -36707.112    57.753232    249.83102 
   19350    138.54873   -1244.2726    132610.46   -34079.614    2616.6884   -36696.302    57.920532    245.48231 
   19400    140.37754   -1154.3593    132576.31    -34036.78    2651.2281   -36688.008    58.154931    248.72262 
   19450    137.25107   -1059.9907    132620.21   -34076.963    2592.1803   -36669.144    58.170754     243.1831 
   19500    142.00313   -1251.7932    132641.75   -34090.035    2681.9297   -36771.965     58.44007    251.60286 
   19550    136.94879   -1545.6382    132635.41    -34083.52    2586.4713   -36669.992    58.623771    242.64752 
   19600    141.33624   -1187.0334    132622.55   -34028.285    2669.3346    -36697.62    58.657435    250.42126 
   19650    137.82549   -1166.8313    132607.93    -34097.92     2603.029   -36700.949    58.803106    244.20087 
   19700    139.73239   -1219.8367    132567.53   -34113.486    2639.0436    -36752.53    59.191429    247.57954 
   19750    138.37086   -1137.4091    132562.88   -34117.352    2613.3292   -36730.682    59.289998    245.16716 
   19800       137.94   -802.20533    132607.74   -34141.208    2605.1917     -36746.4     59.24297    244.40376 
   19850    137.96524   -1176.8881    132616.39    -34088.46    2605.6685   -36694.128    59.454718    244.44848 
   19900    140.17711   -1248.2494    132589.43   -34124.135    2647.4426   -36771.577    59.634448    248.36749 
   19950    137.05633   -1113.0897    132637.72   -34153.826    2588.5024   -36742.329    59.803711    242.83806 
   20000    137.25485   -1382.7271    132703.72   -34108.179    2592.2518   -36700.431    59.979856    243.18981 
   20050    139.70254   -1129.0487       132618   -34013.328    2638.4798   -36651.808     60.12836    247.52664 
   20100    143.14929   -1261.0379    132665.55   -34002.487    2703.5765   -36706.063    60.509507    253.63364 
   20150    141.53384   -1352.1576    132668.71   -34038.997    2673.0664   -36712.064     60.85259    250.77136 
   20200    139.45734   -1029.3135    132715.98     -34063.1    2633.8489   -36696.949     61.05369    247.09221 
   20250     138.5898   -1069.8009     132697.5   -34094.538    2617.4641   -36712.002    61.012717    245.55508 
   20300    137.86433   -952.33896    132733.63    -34082.14    2603.7625   -36685.903     61.10785    244.26968 
   20350    137.50632   -1286.4571    132713.79   -34115.837     2597.001   -36712.838    61.263221    243.63535 
   20400    140.76437   -1224.6084     132762.9    -34083.66    2658.5339   -36742.194    61.426198      249.408 
   20450    139.43285   -1193.3874    132786.29   -34068.975    2633.3864   -36702.361    61.346324    247.04882 
   20500    140.28876   -1267.2361    132805.97   -34071.362    2649.5515   -36720.914    61.354529    248.56533 
   20550    139.70237   -1207.6616    132854.21   -34061.262    2638.4766   -36699.739    61.437664    247.52634 
   20600    137.34081   -1258.3235    132927.89   -34087.397    2593.8751   -36681.272    61.758486     243.3421 
   20650    144.24426   -1246.2348    132948.72   -34062.132    2724.2566   -36786.389    61.863319    255.57372 
   20700    143.64574   -1216.5346    133046.74   -33996.768    2712.9526   -36709.721    62.210503    254.51325 
   20750    140.93706   -1151.1822    133042.53   -33975.257    2661.7955   -36637.053    62.191695    249.71399 
   20800    142.16069   -1159.6092     133062.2   -33958.861    2684.9055   -36643.767    62.525025    251.88203 
   20850    142.50509   -1121.6156    133074.37   -33963.596    2691.4099   -36655.006    62.478889    252.49224 
   20900    141.22973   -1142.2976    133066.08   -33964.093     2667.323   -36631.416    62.462138    250.23254 
   20950     140.8632   -1214.9301    133062.37   -34009.319    2660.4005    -36669.72    62.574577    249.58312 
   21000    140.44963   -1137.0517    133059.76   -34003.074    2652.5896   -36655.664    62.729528    248.85035 
   21050    137.06038   -1324.6488    132970.49   -34006.512    2588.5788   -36595.091    62.849014    242.84523 
   21100    141.49139   -1266.3183    132991.65   -33996.334    2672.2647   -36668.599     62.96326    250.69615 
   21150    138.33281   -1546.5029    132850.75    -33993.44    2612.6105   -36606.051    63.295052    245.09975 
   21200    141.43688   -1221.1413    132859.78   -33972.135    2671.2353   -36643.371    63.662255    250.59958 
   21250    137.20471   -1269.3674    132780.92   -33999.469    2591.3047   -36590.774    63.837633    243.10096 
   21300    138.44072   -1316.9881    132680.09   -33980.315    2614.6485   -36594.963    63.922894    245.29094 
   21350    137.63019   -1256.7344    132631.89   -34001.033    2599.3406   -36600.374    64.141691    243.85484 
   21400    139.43263   -1513.8576    132614.24   -33977.871    2633.3821   -36611.254    64.421187    247.04842 
   21450    139.60814   -1046.4215    132497.58   -34009.813     2636.697    -36646.51    64.310937     247.3594 
   21500    139.01092   -1290.4775    132482.35   -34054.075    2625.4176   -36679.492     64.35106    246.30123 
   21550    137.37103   -1483.5077    132363.42   -34012.136    2594.4459   -36606.582    64.460918    243.39564 
   21600     136.5844    -1319.763     132313.5   -34050.002    2579.5893   -36629.591    64.479226    242.00189 
   21650    137.22645   -1106.7754    132306.18   -34000.347    2591.7154   -36592.063    64.646525    243.13949 
   21700    139.29205   -1312.2838    132344.69    -33953.31     2630.727   -36584.037    64.713367    246.79933 
   21750    139.65597   -1330.5759    132304.35   -33923.574    2637.6002   -36561.174    64.867404    247.44413 
   21800    139.45363     -1021.31    132375.32   -33901.325    2633.7788   -36535.104    65.056505    247.08563 
   21850    139.11472   -1353.6589    132460.44   -33919.589     2627.378   -36546.967    65.352705    246.48515 
   21900    139.06059   -1012.9787    132429.85   -33964.571    2626.3557   -36590.927    65.595729    246.38924 
   21950    136.90828   -1265.7789    132397.29   -34016.271    2585.7063   -36601.977     65.70746    242.57575 
   22000    137.56002   -1017.4412    132329.48   -33982.824    2598.0152   -36580.839     65.98382     243.7305 
   22050    139.73152   -1358.1985    132342.96   -33996.525    2639.0272   -36635.552    66.341247      247.578 
   22100    137.94733   -1024.0638    132390.23   -33996.611    2605.3301   -36601.941    66.651517    244.41674 
   22150    137.20285   -1063.7918    132479.05   -33980.329    2591.2697   -36571.598    66.788083    243.09767 
   22200    141.01822   -1016.9583    132603.44   -33966.735    2663.3283   -36630.063    66.797075    249.85778 
   22250    139.63942   -1087.2525    132755.58   -33958.614    2637.2877   -36595.901    67.041371    247.41482 
   22300    138.46706   -1264.2826    132839.67   -33929.975    2615.1461   -36545.122    67.147672    245.33762 
   22350    141.14285   -1103.8685    132865.96   -33911.159    2665.6821   -36576.842    67.126364    250.07861 
   22400    143.28769   -939.86191    132943.22   -33879.695    2706.1905   -36585.886    67.339136    253.87887 
   22450    142.98471   -1106.9049    133075.66   -33839.356    2700.4682   -36539.824    67.616034    253.34204 
   22500    141.39385   -929.16036    133123.47   -33872.455    2670.4226   -36542.878    67.848676    250.52333 
   22550    140.35854   -1150.3097    133120.46   -33885.948    2650.8694   -36536.817    67.917125    248.68896 
   22600    140.77466   -1175.6577    133078.08   -33956.621    2658.7282    -36615.35    67.860542    249.42624 
   22650    138.20126   -1086.0496    133077.04   -33946.691    2610.1259   -36556.817    68.071112    244.86666 
   22700    139.23719   -1241.3329    133114.47   -33954.469    2629.6909    -36584.16    68.228869    246.70213 
   22750    138.08421   -1194.8483    133050.12    -33919.31    2607.9154   -36527.225    68.302522    244.65927 
   22800    143.85773   -1193.2571     133030.2   -33916.118    2716.9564   -36633.074    68.576999    254.88886 
   22850    139.96236   -1092.1618    133039.56   -33959.913    2643.3868     -36603.3    68.851962    247.98699 
   22900    140.28656   -1085.5671    133007.44    -33963.67    2649.5098    -36613.18    69.078791    248.56142 
   22950    141.66584   -1376.9229     132959.1   -33935.214    2675.5595   -36610.774    69.190769    251.00525 
   23000    139.84638    -1342.226    132907.96   -33928.072    2641.1965   -36569.269    69.251191    247.78151 
   23050    142.60724    -1291.253    132897.91   -33943.883    2693.3392   -36637.223    69.283089    252.67323 
   23100    142.77527   -993.80148    132941.21   -33967.784    2696.5127   -36664.297    69.504047    252.97096 
   23150     138.8244   -1142.9799     132951.6    -33993.05    2621.8948   -36614.945    69.609753    245.97074 
   23200    140.35073   -1120.7811    132931.24    -34033.61    2650.7217   -36684.331    69.762452    248.67512 
   23250    139.39835   -1111.2998    133030.09   -34014.073    2632.7347   -36646.807    69.644241    246.98768 
   23300    138.27099   -1318.3593    133027.78   -34019.809     2611.443   -36631.252    69.900184    244.99021 
   23350    139.24501   -1114.3579    132986.62    -34061.72    2629.8386   -36691.559    69.970345    246.71598 
   23400    137.69178   -966.33841    132960.08   -34071.647    2600.5037   -36672.151    69.857994    243.96396 
   23450    139.10926   -1227.6634    132949.42   -34086.827     2627.275   -36714.102     69.97056    246.47548 
   23500    137.95772   -1096.8869    132980.55   -34024.575    2605.5263   -36630.101    69.984518    244.43515 
   23550    141.08111   -1118.6495    133073.45   -34008.826    2664.5161   -36673.342    70.228847    249.96922 
   23600    140.58476   -1069.4124    133133.08    -33979.03    2655.1418   -36634.172    70.330191    249.08978 
   23650    139.72904   -1197.3369    133235.93    -33949.12    2638.9803   -36588.101    70.383085     247.5736 
   23700    140.01766   -1169.8747    133282.35   -33967.607    2644.4312   -36612.038    70.514004    248.08498 
   23750    141.07433   -934.66517    133370.37   -33991.763    2664.3879   -36656.151    70.572207     249.9572 
   23800    140.02227   -1217.9186    133436.91   -33952.522    2644.5184   -36597.041    70.441604    248.09315 
   23850    139.85906   -1352.4145    133456.36     -33958.7    2641.4359   -36600.136    70.574314    247.80397 
   23900     139.5309   -1350.0662    133403.01   -34004.693    2635.2381   -36639.931    70.666757    247.22253 
   23950     141.4155   -1396.0524    133375.68   -33947.357    2670.8315   -36618.188     70.75176     250.5617 
   24000    143.50664   -1202.6568    133393.16   -33919.514    2710.3256    -36629.84    70.774148     254.2668 
   24050    140.97509    -1408.865    133408.67   -33943.565    2662.5137   -36606.079    70.885105    249.78137 
   24100    140.33808   -1216.6938     133421.2   -33955.141    2650.4828   -36605.624    71.134409     248.6527 
   24150    142.34228   -1559.6159    133394.72   -33930.505    2688.3351    -36618.84    71.266267    252.20378 
   24200    141.50216   -1530.5843       133355   -33915.413    2672.4681   -36587.881    71.192743    250.71523 
   24250    139.21562   -1116.4878    133385.93   -33907.589    2629.2836   -36536.873    71.458635    246.66391 
   24300    140.69977   -1131.1765    133312.57   -33982.767    2657.3139   -36640.081    71.467324    249.29355 
   24350    136.74848    -1280.556    133296.08    -34003.02    2582.6881   -36585.708    71.687574     242.2926 
   24400    139.50445   -1269.0582    133354.18    -34013.08    2634.7386   -36647.819    71.837264    247.17567 
   24450    138.95336   -1397.1909    133345.12   -34016.533    2624.3305   -36640.863    72.168626    246.19924 
   24500    143.61877   -1128.9594    133419.44   -33958.656    2712.4433   -36671.099    72.211728    254.46547 
   24550    143.89873   -954.55851    133574.86   -33918.675    2717.7307   -36636.406    72.689087     254.9615 
   24600    140.95528   -1345.0274    133554.99   -33983.633    2662.1396   -36645.773    72.716328    249.74627 
   24650    143.12269   -1017.3511    133490.13   -33946.055    2703.0742    -36649.13    72.573894    253.58652 
   24700     140.8363   -1137.6117    133551.02   -33937.436    2659.8925   -36597.329    72.816925    249.53546 
   24750    141.65381   -1363.0223     133520.5   -33932.003    2675.3324   -36607.336    72.910034    250.98394 
   24800    140.32779   -1219.5309    133540.58   -33947.503    2650.2885   -36597.792    72.968161    248.63447 
   24850    142.40879    -1261.909     133618.2   -33954.374    2689.5912   -36643.965    73.274988    252.32162 
   24900    142.54725   -1246.2871    133657.36    -33964.22    2692.2062   -36656.426     73.36726    252.56694 
   24950    143.72978   -1266.9619    133562.66   -33963.785    2714.5398   -36678.325    73.736516    254.66215 
   25000    138.96449   -1123.3131    133570.32   -34025.656    2624.5408   -36650.197    73.961384    246.21897 
   25050    143.82216   -1184.6851    133574.49   -33958.983    2716.2846   -36675.268    74.046528    254.82584 
   25100    141.85229   -1323.6381    133571.77   -33966.404    2679.0808   -36645.485    74.227888     251.3356 
   25150    140.37737   -1130.7808    133580.71   -33967.942    2651.2249   -36619.166    74.258919    248.72232 
   25200    144.77028   -1312.0524     133628.4   -33910.719    2734.1913    -36644.91    74.595786    256.50574 
   25250    140.55051   -1054.9608    133582.75   -34004.737    2654.4949   -36659.232     74.73847    249.02909 
   25300    142.51055   -1389.1625    133550.65   -34030.296    2691.5131   -36721.809    75.167506    252.50192 
   25350    141.42141   -1221.7738    133513.38   -34007.141    2670.9431   -36678.084    75.453232    250.57216 
   25400    140.15237   -1358.0531    133521.85   -34064.834    2646.9754   -36711.809    75.410242    248.32366 
   25450    141.30069    -1466.349    133474.68    -34051.43    2668.6632   -36720.093    75.575991    250.35828 
   25500    140.96187   -1510.5041     133393.5   -34057.883     2662.264   -36720.147    75.894201    249.75794 
   25550    139.39663   -1275.0169    133352.92   -34110.091    2632.7022   -36742.794    76.028721    246.98463 
   25600    141.50633    -1317.813    133395.62   -34082.383    2672.5468   -36754.929    76.061576    250.72262 
   25650    142.06106   -1439.9256    133379.26   -34111.245    2683.0238   -36794.269    76.067757     251.7055 
   25700    137.71948   -1553.9155    133278.83   -34066.027    2601.0269   -36667.054    75.995023    244.01304 
   25750    136.57744   -1260.7922    133169.01   -34101.115    2579.4579   -36680.573    75.923981    241.98956 
   25800    140.53666   -825.18785    133214.97   -34126.659    2654.2333   -36780.893    75.934838    249.00454 
   25850     138.9907   -1413.8912    133230.32   -34063.478    2625.0357   -36688.513    76.176154     246.2654 
   25900    141.18931   -1176.6066    133271.51   -34027.464    2666.5595   -36694.024    76.273402    250.16092 
   25950    141.80915   -1309.9018    133263.86   -34020.219    2678.2661   -36698.485    76.226747    251.25916 
   26000    138.57322   -1151.9892    133192.75   -34047.666     2617.151   -36664.817     76.49652    245.52571 
   26050    139.54777   -1313.8982    133180.41   -34068.594    2635.5568    -36704.15    76.752514    247.25243 
   26100    138.30678   -1156.4289    133148.38   -34068.005    2612.1189   -36680.124    76.846864    245.05362 
   26150    137.53658   -1164.4349    133077.71   -34128.369    2597.5726   -36725.942    76.955034    243.68898 
   26200    133.47629   -1080.3366    133019.74   -34155.234    2520.8884   -36676.122    76.950179    236.49491 
   26250    140.05837   -1174.3082    133096.42   -34111.931    2645.2001   -36757.131    77.098952    248.15711 
   26300    142.43196   -1106.9464    133190.31   -34121.724    2690.0287   -36811.753     77.32904    252.36267 
   26350    139.62519   -1244.3882    133261.19   -34073.138    2637.0189   -36710.156    77.635739     247.3896 
   26400     139.5509   -1301.7799    133268.81   -34049.065    2635.6158   -36684.681    77.853481    247.25796 
   26450    139.35128   -1330.9797    133228.51   -34114.713    2631.8457   -36746.558    77.840902    246.90428 
   26500    140.56763    -1258.616    133215.93   -34078.749    2654.8182   -36733.567    77.996035    249.05942 
   26550    140.29915   -1168.7155    133300.17   -34102.716    2649.7477   -36752.464    78.203534    248.58373 
   26600    139.37681   -1219.4594    133295.24   -34080.503    2632.3279   -36712.831    78.655263    246.94951 
   26650    142.43032   -1169.0822    133253.39   -34006.767    2689.9979   -36696.765    78.617002    252.35977 
   26700    142.84493   -1161.6358    133228.41   -34024.513    2697.8282   -36722.342    78.732214    253.09437 
   26750    142.26596   -1279.3693    133257.98    -34065.18    2686.8936   -36752.074    78.863078    252.06855 
   26800    141.03355   -1011.5837    133225.44   -34090.471    2663.6179   -36754.089    78.832397    249.88495 
   26850    139.90403   -1012.9752    133205.41    -34098.83    2642.2853   -36741.116    78.779355    247.88365 
   26900    138.76432   -1092.8868     133178.6    -34149.11    2620.7602    -36769.87    79.104838     245.8643 
   26950    143.03546   -1018.8844    133220.08   -34094.736    2701.4266   -36796.163    79.272178    253.43195 
   27000    143.04966   -1230.4944    133239.93   -34095.672    2701.6949   -36797.366    79.608533    253.45711 
   27050    140.06122   -1225.0801     133252.6    -34088.87     2645.254   -36734.124    79.690502    248.16216 
   27100    139.72291   -1427.6449    133196.73   -34130.442    2638.8645   -36769.306    79.668067    247.56273 
   27150     138.1537   -1120.7049    133173.79   -34165.905    2609.2278   -36775.133    79.821521     244.7824 
   27200    137.65807   -1397.6487     133199.9     -34139.1    2599.8671   -36738.967    80.016667    243.90423 
   27250    138.06246   -1356.8027     133148.4   -34200.391    2607.5045   -36807.896    80.075479    244.62073 
   27300    138.65124   -1181.7827    133117.57   -34181.906    2618.6244   -36800.531    79.997026    245.66393 
   27350    140.18867   -1477.1964    133046.65   -34131.975    2647.6611   -36779.636    80.218975    248.38798 
   27400    138.52197   -1129.6227     132994.3   -34190.897     2616.183    -36807.08    80.190895     245.4349 
   27450     136.8656   -1121.3044    132954.08   -34171.738    2584.9002   -36756.638    80.278143    242.50013 
   27500    136.13102   -1193.7451    133015.04   -34178.834    2571.0266    -36749.86    80.376167    241.19859 
   27550    139.68762   -1036.9116    132975.41   -34146.558     2638.198   -36784.756    80.475315    247.50021 
   27600    135.29373   -1189.7738    132924.49   -34206.296    2555.2131   -36761.509    80.366138    239.71506 
   27650    137.95232   -1043.1216    132928.47   -34155.783    2605.4244   -36761.208     80.49357    244.42559 
   27700    138.64023   -928.55309    132938.64   -34125.713    2618.4165   -36744.129    80.818483    245.64443 
   27750    141.15738   -1095.1816    132974.13   -34086.639    2665.9566   -36752.595    80.914133    250.10436 
   27800    141.08467   -1067.0417    132986.38   -34082.133    2664.5832   -36746.716    81.097189    249.97552 
   27850    139.85832   -882.98034    133056.17   -34128.313    2641.4219   -36769.735    81.479524    247.80266 
   27900    139.25573   -899.21721    133135.21   -34153.611    2630.0412   -36783.653    81.533545    246.73498 
   27950    136.68696   -1160.5568    133234.05   -34177.957    2581.5263   -36759.484    81.527798    242.18361 
   28000    140.30538   -1196.5147    133266.53   -34167.854    2649.8653    -36817.72    81.680337    248.59477 
   28050    139.11938   -1243.8496    133187.53   -34171.828    2627.4659   -36799.294    81.771907    246.49339 
   28100    138.21453   -1134.8893    133124.47   -34202.362    2610.3767   -36812.739    81.848383    244.89018 
   28150    137.67049   -1250.4644    133162.89    -34199.68    2600.1017   -36799.782    82.058711    243.92624 
   28200    138.85427   -1477.8131    133135.04   -34193.526     2622.459   -36815.985    82.133672    246.02367 
   28250    140.05068   -1380.0506    132995.22   -34129.078    2645.0549   -36774.133     82.27996    248.14349 
   28300    140.51725   -1392.6823    132968.57   -34090.144    2653.8668    -36744.01     82.39938    248.97017 
   28350    140.73482   -1227.5432    132933.15   -34112.774    2657.9758    -36770.75    82.328858    249.35565 
   28400    139.56592   -1333.8275    132877.61   -34148.879    2635.8995   -36784.778     82.34704    247.28458 
   28450    139.58827   -1311.9739    132859.42   -34139.538    2636.3216   -36775.859    82.479983    247.32418 
   28500    137.94796   -1473.5114     132773.6   -34198.989     2605.342   -36804.331    82.382402    244.41786 
   28550    135.92146   -1284.7141    132653.43   -34160.808    2567.0687   -36727.877    82.319841    240.82728 
   28600    137.79945   -1340.3935    132660.61   -34124.854    2602.5373   -36727.391    82.348807    244.15473 
   28650     139.7002   -1442.0292    132514.72   -34115.339    2638.4356   -36753.775    82.633214     247.5225 
   28700    136.74514   -1208.0885     132453.3   -34117.208    2582.6251   -36699.833    82.816281    242.28669 
   28750    140.28175   -1166.3352    132462.94   -34079.671    2649.4189    -36729.09    82.697679     248.5529 
   28800    137.79027   -1209.7778    132453.14   -34107.033    2602.3639   -36709.397    82.913151    244.13847 
   28850    138.81561   -971.64887    132419.82   -34118.811    2621.7289    -36740.54    82.895048    245.95518 
   28900    140.95835   -1321.1454    132480.15   -34066.721    2662.1976   -36728.919    83.147638    249.75172 
   28950    139.91841   -1255.7841     132471.8   -34061.897    2642.5567   -36704.453    83.160512    247.90912 
   29000    139.24185   -1264.5782    132471.26   -34059.335     2629.779   -36689.114     83.30672    246.71039 
   29050    139.23997   -1098.3046    132421.15   -34095.832    2629.7435   -36725.575    83.460248    246.70706 
   29100    141.61203   -1321.5379    132442.28    -34046.73    2674.5432   -36721.273    83.614092     250.9099 
   29150     137.6976   -1102.4847    132418.87   -34055.675    2600.6136   -36656.289    83.846682    243.97427 
   29200     141.3701   -1234.0482     132420.4   -34071.367     2669.974   -36741.341    83.907169    250.48125 
   29250    140.72776   -1104.7979    132425.62   -34043.036    2657.8424   -36700.879    83.974086    249.34314 
   29300    139.28872    -900.5224    132528.93   -34035.922    2630.6643   -36666.586    84.323065    246.79344 
   29350    143.54065   -875.45405     132602.1   -34022.811    2710.9679   -36733.779    84.559345    254.32705 
   29400    141.39642   -1182.0338    132720.58   -34055.967    2670.4712   -36726.438    84.533115    250.52789 
   29450    141.84371   -1146.4954    132728.36   -34041.939    2678.9188   -36720.858    84.352698     251.3204 
   29500    140.71664   -981.38539    132797.42   -34036.981    2657.6325   -36694.613    84.322203    249.32344 
   29550    139.65412   -1318.8143     132839.3   -34004.403    2637.5654   -36641.968    84.510331    247.44086 
   29600    141.87028   -1141.1322    132791.04   -34066.114    2679.4206   -36745.535    84.583546    251.36748 
   29650    141.19266   -1055.4392    132721.93   -34019.691    2666.6228   -36686.314    84.907367    250.16686 
   29700    140.95686   -1150.0389    132680.62   -34053.416    2662.1695   -36715.585    85.245684    249.74908 
   29750    141.58528   -1240.4342    132675.35   -34106.177    2674.0379   -36780.215    85.280847     250.8625 
   29800    137.52172   -1080.1086    132653.96   -34104.708     2597.292       -36702    85.470036    243.66265 
   29850    140.33311   -1110.7733    132618.64   -34116.323    2650.3891   -36766.712    85.924064    248.64391 
   29900     135.9932   -889.76298    132664.26    -34161.53    2568.4238   -36729.954     86.27795     240.9544 
   29950     138.7891   -1191.4197    132747.57   -34143.751    2621.2282   -36764.979    86.437006     245.9082 
   30000    140.84533    -1329.461    132733.13   -34084.923    2660.0629   -36744.986    86.893107    249.55145 
   30050    137.74203   -1153.7726    132612.47   -34045.361    2601.4528   -36646.814    87.281806      244.053 
   30100    142.75208   -1263.2399    132594.15   -34015.288    2696.0747   -36711.363    87.278895    252.92986 
   30150    139.82213   -1309.7539    132505.02   -34030.924    2640.7384   -36671.662    87.235348    247.73853 
   30200    136.05781   -1078.8141     132429.9   -34096.492    2569.6438   -36666.136    87.193564    241.06886 
   30250    138.67799   -1386.4507    132417.95   -34118.725    2619.1297   -36737.855    87.527339    245.71134 
   30300    141.59167    -1178.587    132410.12   -34098.407    2674.1586   -36772.566    87.419337    250.87383 
   30350    137.71748   -1175.9766    132384.38   -34125.643    2600.9892   -36726.632    87.559384     244.0095 
   30400    140.30857   -993.79831    132471.34   -34111.642    2649.9256   -36761.567    87.606066    248.60042 
   30450    139.80116   -792.88331    132474.99     -34077.7    2640.3423   -36718.042    87.610796    247.70138 
   30500    137.91796   -1348.2212    132444.64    -34082.82    2604.7754   -36687.596    87.566155     244.3647 
   30550    141.60364   -783.56621    132461.36   -34073.612    2674.3848   -36747.997    87.661656    250.89504 
   30600    141.81474   -868.50967    132516.38   -34101.322    2678.3717   -36779.693    87.701283    251.26907 
   30650     140.2448   -970.07085    132629.02   -34120.451    2648.7211   -36769.172    88.175548    248.48742 
   30700     140.5414   -1361.4676     132618.9   -34078.134    2654.3228   -36732.457    88.289992    249.01294 
   30750    140.68521   -1318.5996    132586.79   -34121.756    2657.0389   -36778.794    88.443029    249.26776 
   30800    139.20232   -1082.5966    132548.53   -34061.735    2629.0325   -36690.768    88.571827    246.64036 
   30850    142.77829   -1259.1308    132619.21   -34041.443    2696.5697   -36738.013    88.816913     252.9763 
   30900    142.75534   -1275.0264    132619.83   -34007.993    2696.1363    -36704.13     89.07834    252.93564 
   30950    138.80645   -1229.0801    132569.58    -34004.11     2621.556   -36625.666     89.28689    245.93895 
   31000    143.38557   -1102.9651    132535.65   -33978.092     2708.039   -36686.131    89.484182    254.05229 
   31050    140.78542   -1086.8026    132534.22   -33979.351    2658.9314   -36638.283    89.838762     249.4453 
   31100    141.50024   -1070.5929    132479.21   -34010.597    2672.4319   -36683.029    89.995797    250.71183 
   31150    142.46139   -1038.6761    132551.91   -33958.411    2690.5846   -36648.996    90.313584    252.41482 
   31200    143.27273   -1088.0457    132618.69   -33906.642    2705.9078   -36612.549    90.561365    253.85235 
   31250      143.808   -1193.9274    132597.75   -33945.104    2716.0171   -36661.121    90.818493    254.80075 
   31300    140.64985   -1129.5604    132592.28   -33973.837     2656.371   -36630.208    90.886428     249.2051 
   31350    136.46089   -1193.7228    132596.26   -33983.589    2577.2566   -36560.845    91.128568    241.78305 
   31400    136.44777   -1505.6115    132617.95   -34041.868    2577.0088   -36618.877    91.367475     241.7598 
   31450    139.83591    -1252.835    132480.83   -34055.406    2640.9986   -36696.405    91.299619    247.76295 
   31500    138.69236   -1143.1853    132450.51   -34068.754    2619.4011   -36688.155    91.377644    245.73679 
   31550    137.03357   -1207.0985    132389.24   -34077.598    2588.0725   -36665.671    91.540314    242.79774 
   31600    143.24429    -989.7248    132536.01   -34019.868    2705.3708   -36725.239    91.558084    253.80196 
   31650     141.7098   -1073.2495    132682.52   -33956.408    2676.3898   -36632.798    91.771434    251.08314 
   31700     141.9981   -1087.5686    132826.95   -33974.164    2681.8347   -36655.998    92.173417    251.59395 
   31750     138.6219   -1168.9071    132918.82   -33986.139    2618.0703   -36604.209    92.103295    245.61195 
   31800    144.59858   -1249.2016    133015.57   -33970.134    2730.9484   -36701.082    92.471701    256.20151 
   31850    140.14272   -1133.3482    133102.94   -33998.771    2646.7932   -36645.565    92.583241    248.30657 
   31900    138.97741   -1251.6395    133060.07   -34039.692    2624.7846   -36664.476    92.737645    246.24185 
   31950    141.64377   -1165.3156    132999.22   -34062.455    2675.1427   -36737.598     92.98081    250.96615 
   32000    138.64905   -1323.0302    133021.86   -34059.067    2618.5832   -36677.651    93.287551    245.66007 
   32050    137.01795   -1119.7154    132998.12   -34048.226    2587.7776   -36636.004     93.28855    242.77006 
   32100    140.07475   -1081.8316     133057.6   -34057.076    2645.5095   -36702.586    93.421835    248.18614 
   32150    139.93608   -1213.3408    133021.76   -34059.257    2642.8906   -36702.147     93.67966    247.94044 
   32200    141.28523   -1038.4461    133038.02    -34017.56    2668.3712   -36685.931    93.947488    250.33088 
   32250    137.77033   -1167.6077    133052.03   -34077.994    2601.9872   -36679.982    94.069991    244.10313 
   32300    140.21716   -1242.4293    133064.96     -34043.2    2648.1991   -36691.399     94.47313    248.43846 
   32350    140.18568   -1267.3309    132971.67   -34020.029    2647.6045   -36667.633    94.860691    248.38268 
   32400    142.00039   -1433.2932    132863.62   -33995.655     2681.878   -36677.533    94.694031    251.59801 
   32450    139.75464   -1126.6621    132847.76   -34082.624    2639.4638   -36722.088    94.727045    247.61896 
   32500    138.73879   -1354.8828    132789.44   -34085.132     2620.278    -36705.41    94.793555    245.81906 
   32550    136.32645   -1127.0763    132844.84   -34092.378    2574.7176   -36667.095    95.133057    241.54485 
   32600    137.43028   -1142.3854    132960.86   -34076.409     2595.565   -36671.974    95.352141    243.50063 
   32650    141.02579   -1438.7551    132990.11   -34041.775    2663.4713   -36705.246    95.426242    249.87121 
   32700    140.84512   -1356.7116    132911.89    -34017.97    2660.0591   -36678.029     95.52712    249.55109 
   32750    136.90102   -1357.3448    132914.74   -33997.182    2585.5691   -36582.751    95.864401    242.56288 
   32800    140.41776   -1216.6535     132834.5   -34004.352    2651.9877    -36656.34    96.202344    248.79388 
   32850    140.16612   -1090.3677    132854.59     -34004.1    2647.2352   -36651.335    96.411132    248.34802 
   32900    137.12222   -1270.8376     132834.5   -34047.315    2589.7467   -36637.062    96.385005     242.9548 
   32950    142.10467   -1263.3747    132739.21   -34007.542    2683.8474   -36691.389    96.465762    251.78277 
   33000    137.95506   -1148.2587    132809.75   -34012.372    2605.4761   -36617.848    96.725892    244.43044 
   33050    137.49952   -1082.2052    132878.03   -34013.487    2596.8727    -36610.36    96.529316    243.62332 
   33100    140.50381   -1334.6294    132877.85    -34018.08    2653.6129   -36671.692    96.609232    248.94635 
   33150    138.80769   -1415.0845    132827.85   -33955.475    2621.5793   -36577.054    96.755528    245.94114 
   33200    140.94477   -1277.9211    132782.29   -33941.568    2661.9411    -36603.51    96.857938    249.72765 
   33250    142.03775   -1480.2917    132770.81   -33972.829    2682.5835   -36655.413     97.01829     251.6642 
   33300    139.39095   -1179.8169    132727.85   -33997.891     2632.595   -36630.486    97.256712    246.97457 
   33350    143.33569   -1154.7411    132769.16   -33960.212    2707.0969   -36667.309    97.646993     253.9639 
   33400    141.61275    -994.7465    132846.64   -33991.165    2674.5569   -36665.722    97.501947    250.91119 
   33450    141.66172   -1118.8476    132923.56   -33997.212    2675.4818   -36672.694     97.62291    250.99795 
   33500    140.82258   -1107.9525    132986.38   -34005.909    2659.6333   -36665.542    97.877938    249.51114 
   33550     141.4374   -1208.0767    133032.42   -33978.883     2671.245   -36650.128    97.981437    250.60049 
   33600    138.98461   -1290.0539    133011.48   -34035.021    2624.9207   -36659.942    98.317057    246.25461 
   33650    142.91116   -1188.8262       132950   -34033.839    2699.0792   -36732.918    98.085075    253.21173 
   33700     141.3836   -991.45588    132870.36     -34027.9    2670.2291   -36698.129    98.169585    250.50518 
   33750    141.11813   -1016.2626     132829.5   -34065.428    2665.2152   -36730.643    98.136517    250.03481 
   33800    141.83632   -1224.3498    132896.83   -34061.974    2678.7793   -36740.753    98.404823    251.30731 
   33850    140.48278   -1219.8647    132863.23   -34064.643    2653.2157   -36717.859    98.387679    248.90908 
   33900    143.19407   -1107.4597    132843.89    -34072.84    2704.4224   -36777.262    98.827064    253.71299 
   33950     136.5282   -1201.2165    132736.99   -34084.134    2578.5279   -36662.662    99.089477    241.90232 
[...]
   92000    138.75597   -1243.7791    132590.09   -34014.764    2620.6026   -36635.367    259.36708    245.84951 
   92050    141.29507   -1332.1002    132551.31   -34000.856    2668.5569   -36669.413    259.33152    250.34831 
   92100    142.13668   -1297.4427    132496.35   -34038.388    2684.4519    -36722.84    259.12511    251.83948 
   92150    138.08164   -1223.2728    132487.63   -34009.806    2607.8668   -36617.673    259.58053    244.65472 
   92200    141.32181   -1048.6349    132514.95    -34018.41     2669.062   -36687.472    259.92114    250.39569 
   92250    139.71508   -1210.2514    132447.38   -34008.358    2638.7166   -36647.075    260.21224    247.54886 
   92300    139.86803   -926.54323    132477.53   -34030.823    2641.6053   -36672.429    260.36092    247.81987 
   92350      140.018   -1052.1588    132418.87   -34019.971    2644.4377   -36664.408    260.38319    248.08559 
   92400    144.89246   -890.44434    132452.88   -33957.885    2736.4987   -36694.384    260.08229    256.72221 
   92450    140.61357   -797.90026    132550.65   -34003.161     2655.686   -36658.847    260.48557    249.14083 
   92500     138.3652   -1134.9942    132576.32    -34005.22    2613.2222   -36618.442     260.6811    245.15713 
   92550    143.32685   -995.01008    132579.63   -33969.954    2706.9299   -36676.884    261.13824    253.94824 
   92600    144.57242   -813.30058    132673.13   -33980.578    2730.4543   -36711.033    261.17152    256.15516 
   92650    141.30896    -1026.262    132767.33   -33993.012    2668.8192   -36661.831    261.37866    250.37291 
   92700    141.88707   -1054.4678    132847.27   -34032.866    2679.7377   -36712.603    261.65457    251.39723 
   92750     140.4168   -1507.3719    132799.81   -34030.569    2651.9695   -36682.539    261.97713    248.79218 
   92800    140.33025   -1124.0615    132762.17   -34026.041    2650.3349   -36676.376    261.61359    248.63883 
   92850    139.68967   -1208.3158    132780.37   -34058.219    2638.2367   -36696.456    261.82826    247.50385 
   92900    136.62163    -1331.821    132692.22   -34064.984    2580.2925   -36645.277    261.65446    242.06786 
   92950    138.83772   -1236.8214    132668.62   -34048.867    2622.1465   -36671.013    261.93116    245.99435 
   93000    141.84147   -1340.1162    132686.71   -34034.524    2678.8765     -36713.4    262.23588    251.31643 
   93050    140.00347   -1252.6044    132750.59   -34035.779    2644.1634   -36679.943     262.6482    248.05985 
   93100    138.71374   -1088.7661    132800.34    -34017.11    2619.8048   -36636.915    262.31791    245.77467 
   93150    141.53277   -1064.7746    132803.49   -33989.289    2673.0464   -36662.336    262.55608    250.76948 
   93200    139.92511   -1186.0429    132833.96   -34023.721    2642.6833   -36666.405    262.63569      247.921 
   93250    136.93063   -1136.1327    132879.36   -34061.176    2586.1283   -36647.305    262.75604    242.61534 
   93300    139.00744   -1326.2578    132898.57   -34068.646    2625.3518   -36693.998    263.17092    246.29505 
   93350    139.17916   -1106.9659    132883.84   -34093.373     2628.595   -36721.968    263.23114    246.59932 
   93400    139.68821   -1024.2123    132869.79    -34090.03    2638.2092   -36728.239    262.97342    247.50126 
   93450    137.46897    -934.8639    132883.02   -34052.631    2596.2956   -36648.926    263.26748    243.56918 
   93500    139.02491   -1285.2748    132936.41   -34055.124    2625.6818   -36680.806    264.12441    246.32601 
   93550     137.8659   -1365.3695     132867.8   -34099.604    2603.7923   -36703.396    264.35248    244.27247 
   93600    135.64736    -1189.617    132770.24    -34086.45     2561.892   -36648.342    264.64501    240.34163 
   93650    140.55399   -1044.4414    132809.92   -34049.845    2654.5606   -36704.406    264.52951    249.03525 
   93700    137.57338   -1506.8877    132812.71   -34045.545    2598.2675   -36643.812    264.31018    243.75417 
   93750    141.77138   -1004.0236    132772.04   -34066.471    2677.5528   -36744.023    264.61324    251.19225 
   93800    140.29399   -1274.3717    132784.35   -34080.878    2649.6502   -36730.528    264.01336    248.57459 
   93850    136.31622   -1371.7341    132804.89   -34095.111    2574.5244   -36669.635    264.51894    241.52673 
   93900    136.21228   -1177.9187    132766.81   -34157.095    2572.5612   -36729.656    264.75071    241.34256 
   93950    134.38688   -1154.3864    132742.05   -34170.784     2538.086    -36708.87    265.27182    238.10829 
   94000    139.75618   -1182.5001    132760.95   -34124.399    2639.4928   -36763.892    265.35497    247.62168 
   94050    140.06406   -1284.1301    132760.11   -34134.665    2645.3075   -36779.973    265.66863    248.16719 
   94100    138.92757   -1281.7944    132738.14   -34103.992    2623.8435   -36727.835    265.81025    246.15355 
   94150    138.42589   -1252.8072    132637.91   -34121.113    2614.3685   -36735.481    266.16864    245.26466 
   94200    139.66409    -1085.947     132614.8   -34100.557    2637.7537   -36738.311    265.80771    247.45853 
   94250    137.19495   -1101.8034    132701.49   -34071.551    2591.1205   -36662.672    266.29499    243.08367 
   94300    139.53077   -1548.7616    132767.63   -34060.385    2635.2356   -36695.621    266.39104     247.2223 
   94350    138.62256   -1287.2195    132791.46   -34047.002    2618.0828   -36665.085    266.49335    245.61313 
   94400    138.90178   -1261.6162     132825.4    -34020.49    2623.3562   -36643.846    266.21993    246.10784 
   94450    137.68747   -1301.5352    132826.36   -33973.849    2600.4223   -36574.271    266.56683    243.95632 
   94500    141.25565   -1282.7107    132782.69   -34005.079    2667.8125   -36672.891    267.03095    250.27847 
   94550    140.09795    -1279.865    132782.75   -34054.174    2645.9477   -36700.122    267.01456    248.22725 
   94600    139.85291   -1096.9537    132926.81   -34023.475    2641.3197   -36664.794    267.18639    247.79307 
   94650    141.16997   -1152.0769    133064.61   -34021.933    2666.1942   -36688.128    267.97432    250.12665 
   94700    139.85004   -1306.2991    133051.96   -34046.575    2641.2655    -36687.84    268.07161    247.78799 
   94750    140.21754   -1251.4316    132989.07    -33994.73    2648.2064   -36642.937    268.16049    248.43914 
   94800    141.23585   -974.57571    133089.07   -34001.235    2667.4385   -36668.673    268.04772    250.24338 
   94850    138.20718   -1345.8286    133194.78   -34043.972    2610.2377   -36654.209    268.42087    244.87714 
   94900    140.40675   -1334.2405    133143.58     -34060.5    2651.7798    -36712.28    268.19842    248.77438 
   94950     141.2846   -1025.4192    133211.27   -34098.359    2668.3593   -36766.718    268.20309    250.32977 
   95000    136.96114   -1063.9855    133254.73   -34086.318    2586.7046   -36673.023    268.54689    242.66941 
   95050    136.68268   -1023.7802     133214.3    -34096.02    2581.4456   -36677.466    268.69663    242.17603 
   95100    138.02045   -1284.8783    133244.91   -34110.857    2606.7111   -36717.568    269.17528     244.5463 
   95150    139.37198   -1187.8724    133212.63    -34103.62    2632.2367   -36735.857    269.53418    246.94095 
   95200    142.79231   -1244.2497    133174.06   -33983.792    2696.8344   -36680.627    269.22354    253.00114 
   95250    139.45558   -1042.5496    133184.52   -33966.282    2633.8156   -36600.097    269.40199    247.08908 
   95300    143.92735   -1132.9652    133215.09   -33921.357    2718.2712   -36639.628    269.58623    255.01221 
   95350    143.76912   -1398.7755     133239.8   -33953.993     2715.283   -36669.276    269.79547    254.73187 
   95400    140.69358   -1170.4779    133210.62   -34003.046    2657.1971   -36660.243    269.92873    249.28259 
   95450    140.08165   -966.45664    133181.85   -34062.614    2645.6398   -36708.254    269.76553    248.19836 
   95500    139.78973   -1459.7482    133161.37   -34064.073    2640.1264     -36704.2    270.08897    247.68112 
   95550    141.74008   -1065.9712    133088.49   -34042.622    2676.9617   -36719.584    269.92946    251.13679 
   95600    139.31704   -1085.5001    133202.37   -34043.642    2631.1991   -36674.842    270.23523    246.84361 
   95650    140.75001   -1333.0046    133170.05   -34061.908    2658.2628   -36720.171    270.66175    249.38258 
   95700    139.29445   -1234.1346     133135.6   -34021.877    2630.7725    -36652.65    270.79969     246.8036 
   95750    143.88584   -1279.0205    133179.08   -33978.987    2717.4874   -36696.474    271.02475    254.93868 
   95800    142.53576   -1246.6631    133088.29   -33950.337    2691.9891   -36642.326    270.95368    252.54658 
   95850    141.15455    -1265.938    132991.51   -33990.711    2665.9031   -36656.614    271.06845    250.09934 
   95900    142.47795   -1260.7639    132950.98   -34027.738    2690.8974   -36718.636    270.86408    252.44415 
   95950     139.4802   -1120.4469     132902.6   -34087.195    2634.2807   -36721.476    271.08093    247.13271 
   96000    137.86206   -1397.8461    132921.13   -34112.457    2603.7197   -36716.177    271.18379    244.26566 
   96050    139.04433    -1179.402     132886.9   -34150.945    2626.0485   -36776.994    270.96856    246.36042 
   96100    138.66536   -1264.4587    132854.28   -34130.541    2618.8912   -36749.432    271.25403    245.68896 
   96150    140.71896   -1327.0599     132759.8   -34145.868    2657.6763   -36803.544    271.26988    249.32755 
   96200    137.33517   -1342.6161    132674.25   -34183.189    2593.7687   -36776.958    271.60015    243.33212 
   96250    136.38562    -1098.407    132663.04   -34160.017     2575.835   -36735.852    271.66009    241.64969 
   96300    138.56067   -1133.7452    132777.36   -34120.765     2616.914   -36737.679    272.02541    245.50347 
   96350    140.33316   -1127.8528    132825.94   -34132.107    2650.3899   -36782.496    272.35067    248.64398 
   96400    140.65027   -1311.4911    132812.81   -34121.105    2656.3791   -36777.484    272.49838    249.20585 
   96450    140.20327   -928.14406    132834.76   -34136.975    2647.9369   -36784.912    272.51566    248.41385 
   96500    140.72518   -1109.0394    132831.47   -34103.022    2657.7938   -36760.816    272.39913    249.33858 
   96550    141.01971    -878.6814    132942.48   -34097.338    2663.3565   -36760.694    272.51186    249.86043 
   96600     139.3869   -891.16912    133072.26   -34130.504    2632.5185   -36763.022    272.88968    246.96739 
   96650    142.29034   -1032.9652     133187.6   -34090.436    2687.3541    -36777.79    273.15498    252.11175 
   96700    140.04126   -1171.0517    133169.09    -34139.65     2644.877   -36784.527    273.14375     248.1268 
   96750    138.27914   -1089.6639    133143.71   -34150.136    2611.5969   -36761.732      273.123    245.00465 
   96800    137.06597   -1423.4202     133106.8   -34156.636    2588.6845   -36745.321    272.93982    242.85515 
   96850    140.18256   -947.58409     133117.6   -34141.979    2647.5457   -36789.524    273.24288    248.37716 
   96900    142.31853   -1103.8024    133212.88   -34103.758    2687.8865   -36791.645    273.23814    252.16169 
   96950    139.75684    -1214.151    133162.96    -34112.38    2639.5053   -36751.885     272.9831    247.62285 
   97000    141.66595   -1191.1979    133137.42   -34123.829    2675.5616   -36799.391    272.65892    251.00544 
   97050    139.86639   -1140.6395    133156.75   -34155.698    2641.5744   -36797.272    272.35051    247.81696 
   97100    140.39444   -1347.9291    133091.08   -34124.826    2651.5473   -36776.374    272.42119    248.75257 
   97150    138.90464   -1076.9128     133089.2   -34115.456    2623.4103   -36738.866    272.61513    246.11292 
   97200    139.32018   -1273.6091    133103.05   -34102.238    2631.2584   -36733.496    272.83167    246.84918 
   97250    138.41236   -1159.7684    132994.84   -34098.585    2614.1128   -36712.698    273.00731    245.24068 
   97300    136.77182   -1229.3674    132995.95   -34149.692    2583.1289   -36732.821    273.10699    242.33396 
   97350    138.95407   -1246.5729    132999.99   -34123.296    2624.3438   -36747.639    273.29871    246.20049 
   97400     140.0084    -1074.382    133014.21     -34103.7    2644.2564   -36747.956    273.89622    248.06858 
   97450    138.85573    -1054.711    132943.03    -34116.93    2622.4866   -36739.417    273.55353    246.02626 
   97500    141.36835   -1188.1152    132998.29   -34105.116     2669.941   -36775.058    274.02395    250.47816 
   97550    137.90179   -1123.9804    132959.92    -34062.34    2604.4701    -36666.81    274.43307    244.33606 
   97600     141.8222    -1313.133    132964.15   -34036.729    2678.5126   -36715.241    274.60206    251.28229 
   97650    138.47734   -1007.0791    132932.32   -34017.469    2615.3402   -36632.809    274.22254    245.35582 
   97700    140.87861   -1182.1877    132969.74   -34009.684    2660.6915   -36670.376    273.86943    249.61042 
   97750    138.36846   -1350.3848     133020.8    -34017.91    2613.2837   -36631.193    274.29357     245.1629 
   97800    141.20952   -1241.8515    133023.52   -34039.359    2666.9412     -36706.3    274.35341    250.19673 
   97850    140.30817   -1215.3434    132979.03   -34052.929     2649.918   -36702.847    274.17136    248.59972 
   97900    140.27231   -1217.0597    132926.65   -34031.055    2649.2408   -36680.296    274.53958    248.53618 
   97950    139.46018   -1124.6794    132934.11   -34031.155    2633.9026   -36665.058    274.46341    247.09724 
   98000    142.52195   -1247.3536    132997.78   -34036.918    2691.7284   -36728.646    274.57048    252.52211 
   98050    139.73681   -1100.0254    132996.87   -34045.436     2639.127   -36684.563    274.53568    247.58737 
   98100    140.20473   -1175.3068    132938.92   -34063.534    2647.9643   -36711.499    274.77304    248.41643 
   98150    140.24652   -1086.1996    132783.81   -34026.339    2648.7536   -36675.093    274.75667    248.49048 
   98200    137.63636    -1142.931     132795.6   -34044.665     2599.457   -36644.122    274.60551    243.86576 
   98250    140.11086   -1098.0971    132792.04   -34050.836    2646.1915   -36697.028    274.74248    248.25012 
   98300    143.02495   -1277.3955    132722.36   -33984.721    2701.2282   -36685.949    274.81744    253.41333 
   98350    139.42569   -965.72927    132617.98   -34005.224    2633.2511   -36638.475    274.65945    247.03612 
   98400    140.56035   -1093.3675    132671.67   -34026.762    2654.6807   -36681.443    274.74989    249.04652 
   98450    141.21654   -1070.9689    132712.83   -34038.679    2667.0738   -36705.753    274.85268    250.20917 
   98500    141.00292   -1081.8923    132697.35   -34055.679    2663.0394   -36718.718    274.92677    249.83068 
   98550    139.23036   -1061.2051    132698.52   -34039.117    2629.5619   -36668.679    275.23917    246.69003 
   98600    143.38181   -1413.6292     132704.3   -34011.982     2707.968    -36719.95    275.76445    254.04562 
   98650    140.36066   -1383.1566    132688.18   -34005.607    2650.9093   -36656.516    275.89289    248.69272 
   98700    141.77687   -1075.1438     132699.2   -34035.875    2677.6565   -36713.531    276.22863    251.20198 
   98750    135.52204   -1081.3637    132779.84   -34088.713    2559.5252   -36648.238    276.66087    240.11959 
   98800    140.36371   -1086.5097    132785.31   -34108.777    2650.9669   -36759.744    276.57558    248.69812 
   98850    139.05915   -1027.6507    132824.64   -34070.927    2626.3284   -36697.255    277.04624    246.38668 
   98900    140.09241   -1079.7683    132906.65    -34104.55     2645.843   -36750.393    277.61622    248.21742 
   98950    138.68065   -1402.2019    132880.37   -34103.516      2619.18   -36722.696    277.68921    245.71605 
   99000    138.65869   -1458.5426    132841.32   -34116.963    2618.7652   -36735.729    277.60892    245.67714 
   99050    138.98546   -1236.4985    132857.23   -34118.584    2624.9367   -36743.521    277.58167    246.25611 
   99100    140.03298   -1049.2041    132865.96   -34106.596    2644.7205   -36751.317    277.93506    248.11212 
   99150    136.21781   -1071.3503    132934.54   -34075.021    2572.6657   -36647.687    278.19938    241.35236 
   99200    141.11167   -1011.8541    132958.61   -34067.286    2665.0933   -36732.379     278.1034    250.02337 
   99250    141.72818   -1234.0874    132835.93   -34060.319    2676.7369   -36737.056    277.81557     251.1157 
   99300     140.2573   -1126.4109    132696.21   -34065.863    2648.9572    -36714.82    278.16689    248.50958 
   99350     140.0117   -1275.8129    132658.69    -34063.86    2644.3186   -36708.178    278.88593    248.07441 
   99400    140.62318   -943.11244    132710.04   -34046.763    2655.8674   -36702.631    278.99142    249.15785 
   99450    138.92941   -1078.9554    132701.33   -34059.913    2623.8782   -36683.791    279.12506    246.15681 
   99500    138.58564   -1090.6845    132705.43   -34127.629    2617.3855   -36745.014     279.4239    245.54771 
   99550    141.76529   -1357.2822    132701.97   -34073.061    2677.4377   -36750.498    279.87114    251.18145 
   99600    139.40669   -1234.3291    132639.27   -34060.239    2632.8923   -36693.131    279.76632    247.00246 
   99650    140.71363   -1108.7136    132647.24   -34031.031    2657.5757   -36688.607    279.96539    249.31811 
   99700      138.578   -1050.0853    132734.82   -34089.367    2617.2413   -36706.608    279.91053    245.53418 
   99750    136.67273   -1316.2895    132821.75   -34125.762    2581.2576   -36707.019    280.24148     242.1584 
   99800     139.1604   -1128.3211    132868.26   -34123.442    2628.2408   -36751.682    280.30802    246.56608 
   99850    140.55645   -1358.5442    132901.98    -34085.12     2654.607   -36739.727     280.2847    249.03961 
   99900     139.9479   -1513.0842    132803.46    -34095.44    2643.1138   -36738.554    280.52302    247.96138 
   99950    139.33676   -1351.9999    132770.53    -34096.79    2631.5715   -36728.362    280.45457    246.87855 
  100000    138.98211    -1400.371    132733.26   -34068.174    2624.8735   -36693.047    280.88627    246.25019 
Loop time of 120.405 on 160 procs for 100000 steps with 6337 atoms

Performance: 358.790 ns/day, 0.067 hours/ns, 830.531 timesteps/s
98.0% CPU use with 160 MPI tasks x no OpenMP threads

MPI task timing breakdown:
Section |  min time  |  avg time  |  max time  |%varavg| %total
---------------------------------------------------------------
Pair    | 13.698     | 32.258     | 87.716     | 522.7 | 26.79
Neigh   | 0.36134    | 0.77578    | 2.6089     |  80.5 |  0.64
Comm    | 9.1507     | 33.449     | 91.52      | 556.4 | 27.78
Output  | 0.19256    | 0.19521    | 0.32905    |   2.4 |  0.16
Modify  | 8.5599     | 52.585     | 94.838     | 567.2 | 43.67
Other   |            | 1.143      |            |       |  0.95

Nlocal:    39.6063 ave 109 max 21 min
Histogram: 117 3 0 5 15 0 0 0 2 18
Nghost:    513.094 ave 870 max 334 min
Histogram: 80 0 0 40 0 0 0 0 8 32
Neighs:    0 ave 0 max 0 min
Histogram: 160 0 0 0 0 0 0 0 0 0
FullNghs:  3190.96 ave 13595 max 770 min
Histogram: 120 0 0 0 20 0 0 0 0 20

Total # of neighbors = 510554
Ave neighs/atom = 80.5671
Neighbor list builds = 6127
Dangerous builds = 0

write_data		${DIR}/data.eq-${NAME}-${TEMP}
write_data		run_26/data.eq-${NAME}-${TEMP}
write_data		run_26/data.eq-het_freeze_26-${TEMP}
write_data		run_26/data.eq-het_freeze_26-248
undump          1

reset_timestep  0

unfix           2
unfix           3
unfix           4


################################################
#######         Run Simulation         #########
################################################

log				${DIR}/log.run_${NAME}
log				run_26/log.run_${NAME}
log				run_26/log.run_het_freeze_26
