LAMMPS data file via write_data, version 16 Mar 2018, timestep = 8000000

4990 atoms
2 atom types

0.0000000000000000e+00 4.9219999999999999e+01 xlo xhi
0.0000000000000000e+00 4.9019635930410494e+01 ylo yhi
1.2544941050376366e+00 3.8745505894961227e+01 zlo zhi

Masses

1 18.015
2 12.01

Atoms # atomic

2993 1 1.4803157561269078e+00 3.6343555531355860e+00 2.9404582081171435e+00 -1 -2 1
2157 1 3.8879231440076132e+00 2.7071032457173549e+00 3.6732464742196562e+00 2 0 0
106 1 3.5391542862875021e+00 5.2551144581205502e+00 1.0362190488504464e+01 1 2 0
178 1 8.3073816872212518e+00 3.2614630272667751e+00 3.6507712663518008e+00 -1 -1 0
3876 1 8.9692440292423754e+00 8.3050036582391784e-01 2.9197692434940286e+00 -5 1 0
191 1 1.5138281931124637e+00 6.1134675755437859e+00 3.8216362364782444e+00 -8 4 0
2552 1 3.2778021824561576e+00 7.6744976920074306e+00 2.4270290360116560e+00 2 -2 1
2115 1 6.0828546847787059e+00 4.2192061399869161e+00 2.5054968817830368e+00 0 -1 2
980 1 5.6058631846037708e+00 6.5684036228351017e+00 3.4092417429711115e+00 0 2 0
3435 1 1.0530843235903987e+01 4.8124031685743907e+00 2.7523672224208489e+00 3 4 0
4525 1 9.8724530963634329e+00 7.2820236802155947e+00 3.6064927011514367e+00 1 -1 1
4623 1 2.4755806497310600e+00 1.0150053345237117e+01 3.8438620230797866e+00 4 1 1
2593 1 9.3565994741419658e+00 1.0105556063937899e+01 1.0165231250065247e+01 -2 -2 2
181 1 7.6544066682175940e+00 8.1528232892321384e+00 2.6579286648289737e+00 -2 0 0
4358 1 7.0120481794746929e+00 1.0705306929451790e+01 3.7895337053062801e+00 -2 -2 0
1397 1 4.5369546468049462e+00 1.1735321867129455e+01 3.1191398085500115e+00 -3 3 0
4323 1 1.1994625333502785e+01 9.1573197219064308e+00 2.7349001750899697e+00 -1 3 0
4380 1 1.1479530638608615e+01 1.1781424767936786e+01 3.8343213788029038e+00 0 -1 1
2178 1 1.8818769051328756e+00 1.3693221432273301e+00 7.1445862604378343e+00 0 0 0
1894 1 3.8420570584562084e+00 2.8328319205837809e+00 6.4086243093801452e+00 1 2 0
2708 1 1.6846924192174486e+00 1.1220650591723695e+00 1.0177437700856222e+01 1 1 -1
1205 1 6.2481941945729007e+00 1.7722543069342598e+00 7.0189442749132862e+00 2 -3 1
3466 1 1.3048751313762508e-02 1.1000834251324443e+01 2.9170818242030894e+00 4 3 0
435 1 1.0719642637436612e+01 2.2025475650046196e+00 9.9170042291138358e+00 3 4 1
1350 1 8.2446164044613468e+00 3.4065754283858358e+00 6.3741994729085141e+00 -1 3 1
4555 1 1.0876325295755068e+01 2.6829659063961508e+00 7.3021605636407312e+00 -4 0 1
884 1 1.3322317462186808e+00 6.3920960360433883e+00 6.4795711688738828e+00 -1 3 0
3815 1 3.4965194950943399e+00 5.2812880498945391e+00 7.5936441354022275e+00 0 -1 0
999 1 5.0064764031562570e+00 9.3602573000198870e+00 1.0133539449021656e+01 -2 0 0
362 1 5.3614927448000218e+00 6.7733632796943679e+00 6.2669419988431994e+00 3 -1 1
891 1 7.7273883816519069e+00 5.8566020970898132e+00 7.3600196219892897e+00 3 3 0
536 1 7.8967162998500466e+00 5.9801798145852185e+00 1.0179344746220256e+01 -1 -1 0
1333 1 9.8364473270661072e+00 7.5878147489228240e+00 6.3822731605743614e+00 -1 0 0
13 1 7.3538193863907040e+00 1.0904556719723457e+01 6.5562192595289073e+00 3 -3 1
35 1 1.1638824519206031e+01 1.1440989531227968e+01 6.5678168639775292e+00 3 -1 1
4662 1 4.5640187176200692e-01 8.6033640073424706e+00 1.0173281444069284e+01 -1 -4 1
3858 1 8.3860686048689304e-01 8.8187800413646897e+00 7.5214394113320617e+00 -2 1 1
4210 1 2.6922040039679684e+00 1.0602245097826927e+01 6.5443311274273590e+00 -2 -4 0
3700 1 5.3020191159729944e+00 9.3953384212351700e+00 7.3457846868631158e+00 -4 2 0
1263 1 9.4151260324144310e+00 1.0010971004561476e+01 7.4924516602234954e+00 -1 2 0
4664 1 6.1888410225030102e+00 1.8626189855198754e+00 9.8959666374269109e+00 1 0 2
1296 1 4.3695454579580364e+00 3.4875530655535525e-01 2.4035471544743983e+00 1 1 1
2575 1 1.2077536429265166e+01 6.3577701513817972e+00 9.9844775643846262e+00 -1 2 0
4582 1 1.1344773607905900e+01 6.4371630875409086e-03 3.7667169540399517e+00 -4 0 1
83 1 1.7767056147082141e+00 9.9732022285088873e-01 1.4434314730083679e+01 7 3 0
1735 1 1.7280025034582247e+00 3.7446086679830279e+00 1.1161142517920656e+01 4 -4 1
3470 1 4.4140142422285313e+00 1.1638875426554021e-01 1.3654317601470376e+01 0 -1 1
14 1 5.9307410298007071e+00 4.2696312437163915e+00 1.1070054524197934e+01 3 3 0
1321 1 6.5151948933361732e+00 1.5334256565195965e+00 1.4652132245849813e+01 -3 -1 1
1893 1 1.0772825629143773e+01 2.6313607539272064e+00 1.4569311323057926e+01 -3 0 0
3783 1 8.8457516322122078e+00 8.2350136364787063e-01 1.3748914756052965e+01 4 3 1
1807 1 8.6231561329852529e+00 7.5735945578716046e-01 1.0888175470436455e+01 6 1 0
450 1 1.1967946578769646e+00 3.7645842130866374e+00 1.4033223822795836e+01 1 4 1
2549 1 3.3456497982712339e+00 5.5576433440835160e+00 1.4365475534544018e+01 -1 -2 1
4191 1 2.8478440732161738e+00 7.8275953036660679e+00 1.1150480247449281e+01 -1 2 0
4205 1 1.2123239947606343e+01 9.1613324493375199e+00 1.3736422514873167e+01 3 -2 0
2724 1 5.7978149478279191e+00 4.2974672321880893e+00 1.3732250756199489e+01 -3 3 0
4535 1 8.0700835084105496e+00 6.0567344700316612e+00 1.4385650412349232e+01 1 -1 0
3831 1 1.0389624418153481e+01 5.0218639145888613e+00 1.3798112567219858e+01 -1 -2 0
535 1 2.6336237195152845e-01 9.6582432359843988e+00 1.4105739311689552e+01 1 2 1
2091 1 1.0266654439925922e+01 4.7838025039751075e+00 1.1059994383017894e+01 2 0 1
2873 1 2.6711756280258183e+00 8.4082583030048710e+00 1.4051511284850134e+01 -3 -1 0
1805 1 1.1648238248594804e+01 8.9694228031510761e+00 1.1121617207994888e+01 2 3 1
1337 1 7.2046802038394757e+00 8.5013968455371334e+00 1.1162670959751857e+01 -1 -4 0
285 2 9.8440000000000012e+00 8.5251540748539956e+00 1.6858998397055927e+01 0 0 0
3006 1 4.8362269577060504e+00 1.0213302984291877e+01 1.4409828004649759e+01 -4 3 1
2240 1 7.2876606234187227e+00 8.7334798093262016e+00 1.4111832203536430e+01 6 -1 1
262 2 8.6134999999999984e+00 9.2355835810918343e+00 1.6858998397055927e+01 0 0 0
380 1 4.2255766754374182e+00 2.8463727526316684e-01 1.0794299508797428e+01 2 -1 1
1288 1 9.3831103410903740e+00 1.0445312200992657e+01 1.4354440727511340e+01 -2 0 0
193 2 0.0000000000000000e+00 2.8417180249513345e+00 1.6858998397055927e+01 0 0 0
194 2 0.0000000000000000e+00 0.0000000000000000e+00 1.6858998397055927e+01 0 0 0
195 2 1.2305000000000001e+00 7.1042950623783474e-01 1.6858998397055927e+01 0 0 0
199 2 1.2305000000000001e+00 2.1312885187134998e+00 1.6858998397055927e+01 0 0 0
200 2 2.4610000000000003e+00 2.8417180249513345e+00 1.6858998397055927e+01 0 0 0
201 2 2.4610000000000003e+00 0.0000000000000000e+00 1.6858998397055927e+01 0 0 0
202 2 3.6915000000000004e+00 7.1042950623783474e-01 1.6858998397055927e+01 0 0 0
210 2 3.6914999999999996e+00 2.1312885187134998e+00 1.6858998397055927e+01 0 0 0
211 2 4.9220000000000006e+00 2.8417180249513332e+00 1.6858998397055927e+01 0 0 0
212 2 4.9220000000000006e+00 0.0000000000000000e+00 1.6858998397055927e+01 0 0 0
213 2 6.1524999999999999e+00 7.1042950623783407e-01 1.6858998397055927e+01 0 0 0
225 2 6.1524999999999999e+00 2.1312885187134989e+00 1.6858998397055927e+01 0 0 0
226 2 7.3829999999999991e+00 2.8417180249513345e+00 1.6858998397055927e+01 0 0 0
227 2 7.3829999999999991e+00 0.0000000000000000e+00 1.6858998397055927e+01 0 0 0
228 2 8.6134999999999984e+00 7.1042950623783407e-01 1.6858998397055927e+01 0 0 0
244 2 8.6134999999999984e+00 2.1312885187135002e+00 1.6858998397055927e+01 0 0 0
245 2 9.8440000000000012e+00 2.8417180249513332e+00 1.6858998397055927e+01 0 0 0
246 2 9.8440000000000012e+00 0.0000000000000000e+00 1.6858998397055927e+01 0 0 0
247 2 1.1074500000000002e+01 7.1042950623783330e-01 1.6858998397055927e+01 0 0 0
267 2 1.1074500000000002e+01 2.1312885187135002e+00 1.6858998397055927e+01 0 0 0
197 2 0.0000000000000000e+00 4.2625770374269996e+00 1.6858998397055927e+01 0 0 0
198 2 1.2305000000000001e+00 4.9730065436648339e+00 1.6858998397055927e+01 0 0 0
206 2 1.2305000000000001e+00 6.3938655561404980e+00 1.6858998397055927e+01 0 0 0
208 2 2.4610000000000003e+00 4.2625770374269996e+00 1.6858998397055927e+01 0 0 0
209 2 3.6914999999999996e+00 4.9730065436648339e+00 1.6858998397055927e+01 0 0 0
221 2 3.6914999999999996e+00 6.3938655561404980e+00 1.6858998397055927e+01 0 0 0
196 2 0.0000000000000000e+00 7.1042950623783341e+00 1.6858998397055927e+01 0 0 0
207 2 2.4610000000000003e+00 7.1042950623783341e+00 1.6858998397055927e+01 0 0 0
223 2 4.9220000000000006e+00 4.2625770374269978e+00 1.6858998397055927e+01 0 0 0
224 2 6.1524999999999999e+00 4.9730065436648339e+00 1.6858998397055927e+01 0 0 0
240 2 6.1524999999999999e+00 6.3938655561404980e+00 1.6858998397055927e+01 0 0 0
242 2 7.3829999999999991e+00 4.2625770374269996e+00 1.6858998397055927e+01 0 0 0
222 2 4.9220000000000006e+00 7.1042950623783341e+00 1.6858998397055927e+01 0 0 0
241 2 7.3830000000000009e+00 7.1042950623783341e+00 1.6858998397055927e+01 0 0 0
243 2 8.6135000000000002e+00 4.9730065436648339e+00 1.6858998397055927e+01 0 0 0
263 2 8.6135000000000002e+00 6.3938655561404980e+00 1.6858998397055927e+01 0 0 0
265 2 9.8440000000000012e+00 4.2625770374270004e+00 1.6858998397055927e+01 0 0 0
266 2 1.1074500000000002e+01 4.9730065436648339e+00 1.6858998397055927e+01 0 0 0
287 2 1.1074500000000002e+01 6.3938655561404980e+00 1.6858998397055927e+01 0 0 0
264 2 9.8440000000000012e+00 7.1042950623783341e+00 1.6858998397055927e+01 0 0 0
217 2 1.2305000000000001e+00 1.0656442593567498e+01 1.6858998397055927e+01 0 0 0
218 2 2.4610000000000003e+00 1.1366872099805333e+01 1.6858998397055927e+01 0 0 0
236 2 3.6914999999999996e+00 1.0656442593567499e+01 1.6858998397055927e+01 0 0 0
204 2 0.0000000000000000e+00 8.5251540748539991e+00 1.6858998397055927e+01 0 0 0
205 2 1.2305000000000001e+00 9.2355835810918343e+00 1.6858998397055927e+01 0 0 0
219 2 2.4610000000000003e+00 8.5251540748539991e+00 1.6858998397055927e+01 0 0 0
220 2 3.6915000000000004e+00 9.2355835810918343e+00 1.6858998397055927e+01 0 0 0
203 2 0.0000000000000000e+00 1.1366872099805333e+01 1.6858998397055927e+01 0 0 0
239 2 6.1524999999999999e+00 9.2355835810918343e+00 1.6858998397055927e+01 0 0 0
238 2 4.9220000000000006e+00 8.5251540748539991e+00 1.6858998397055927e+01 0 0 0
259 2 6.1524999999999999e+00 1.0656442593567499e+01 1.6858998397055927e+01 0 0 0
261 2 7.3830000000000009e+00 8.5251540748539991e+00 1.6858998397055927e+01 0 0 0
260 2 7.3829999999999991e+00 1.1366872099805333e+01 1.6858998397055927e+01 0 0 0
237 2 4.9220000000000006e+00 1.1366872099805333e+01 1.6858998397055927e+01 0 0 0
286 2 1.1074500000000002e+01 9.2355835810918343e+00 1.6858998397055927e+01 0 0 0
283 2 8.6134999999999984e+00 1.0656442593567498e+01 1.6858998397055927e+01 0 0 0
308 2 1.2304999999999998e+01 1.1366872099805333e+01 1.6858998397055927e+01 0 0 0
284 2 9.8440000000000012e+00 1.1366872099805333e+01 1.6858998397055927e+01 0 0 0
307 2 1.1074500000000002e+01 1.0656442593567498e+01 1.6858998397055927e+01 0 0 0
3767 1 3.5178866076569371e-01 1.1271095106925291e+01 1.1488908657285117e+01 0 0 0
3018 1 4.7570625725396729e+00 1.1747095547400079e+01 1.1465429802821076e+01 -1 3 0
549 2 0.0000000000000000e+00 1.4208590124756650e+00 2.0029302151571535e+01 0 0 0
550 2 0.0000000000000000e+00 0.0000000000000000e+00 2.0029302151571535e+01 0 0 0
554 2 1.2305000000000001e+00 2.1312885187134998e+00 2.0029302151571535e+01 0 0 0
555 2 2.4610000000000003e+00 1.4208590124756650e+00 2.0029302151571535e+01 0 0 0
556 2 2.4610000000000003e+00 0.0000000000000000e+00 2.0029302151571535e+01 0 0 0
564 2 3.6914999999999996e+00 2.1312885187134998e+00 2.0029302151571535e+01 0 0 0
710 2 0.0000000000000000e+00 2.8417180249513345e+00 2.3199605906104857e+01 0 0 0
711 2 0.0000000000000000e+00 0.0000000000000000e+00 2.3199605906104857e+01 0 0 0
712 2 1.2305000000000001e+00 7.1042950623783474e-01 2.3199605906104857e+01 0 0 0
716 2 1.2305000000000001e+00 2.1312885187134998e+00 2.3199605906104857e+01 0 0 0
717 2 2.4610000000000003e+00 2.8417180249513345e+00 2.3199605906104857e+01 0 0 0
718 2 2.4610000000000003e+00 0.0000000000000000e+00 2.3199605906104857e+01 0 0 0
719 2 3.6915000000000004e+00 7.1042950623783474e-01 2.3199605906104857e+01 0 0 0
727 2 3.6914999999999996e+00 2.1312885187134998e+00 2.3199605906104857e+01 0 0 0
553 2 1.2305000000000001e+00 3.5521475311891644e+00 2.0029302151571535e+01 0 0 0
563 2 3.6914999999999996e+00 3.5521475311891644e+00 2.0029302151571535e+01 0 0 0
565 2 4.9220000000000006e+00 1.4208590124756650e+00 2.0029302151571535e+01 0 0 0
566 2 4.9220000000000006e+00 0.0000000000000000e+00 2.0029302151571535e+01 0 0 0
578 2 6.1524999999999999e+00 2.1312885187134989e+00 2.0029302151571535e+01 0 0 0
579 2 7.3829999999999991e+00 1.4208590124756659e+00 2.0029302151571535e+01 0 0 0
580 2 7.3829999999999991e+00 0.0000000000000000e+00 2.0029302151571535e+01 0 0 0
728 2 4.9220000000000006e+00 2.8417180249513332e+00 2.3199605906104857e+01 0 0 0
729 2 4.9220000000000006e+00 0.0000000000000000e+00 2.3199605906104857e+01 0 0 0
730 2 6.1524999999999999e+00 7.1042950623783407e-01 2.3199605906104857e+01 0 0 0
742 2 6.1524999999999999e+00 2.1312885187134989e+00 2.3199605906104857e+01 0 0 0
743 2 7.3829999999999991e+00 2.8417180249513345e+00 2.3199605906104857e+01 0 0 0
744 2 7.3829999999999991e+00 0.0000000000000000e+00 2.3199605906104857e+01 0 0 0
577 2 6.1524999999999999e+00 3.5521475311891644e+00 2.0029302151571535e+01 0 0 0
596 2 8.6134999999999984e+00 2.1312885187135002e+00 2.0029302151571535e+01 0 0 0
597 2 9.8440000000000012e+00 1.4208590124756659e+00 2.0029302151571535e+01 0 0 0
598 2 9.8440000000000012e+00 0.0000000000000000e+00 2.0029302151571535e+01 0 0 0
618 2 1.1074500000000002e+01 2.1312885187135002e+00 2.0029302151571535e+01 0 0 0
745 2 8.6134999999999984e+00 7.1042950623783407e-01 2.3199605906104857e+01 0 0 0
761 2 8.6134999999999984e+00 2.1312885187135002e+00 2.3199605906104857e+01 0 0 0
762 2 9.8440000000000012e+00 2.8417180249513332e+00 2.3199605906104857e+01 0 0 0
763 2 9.8440000000000012e+00 0.0000000000000000e+00 2.3199605906104857e+01 0 0 0
764 2 1.1074500000000002e+01 7.1042950623783330e-01 2.3199605906104857e+01 0 0 0
784 2 1.1074500000000002e+01 2.1312885187135002e+00 2.3199605906104857e+01 0 0 0
595 2 8.6134999999999984e+00 3.5521475311891657e+00 2.0029302151571535e+01 0 0 0
617 2 1.1074500000000002e+01 3.5521475311891644e+00 2.0029302151571535e+01 0 0 0
551 2 0.0000000000000000e+00 5.6834360499026637e+00 2.0029302151571535e+01 0 0 0
552 2 0.0000000000000000e+00 4.2625770374269996e+00 2.0029302151571535e+01 0 0 0
560 2 1.2305000000000001e+00 6.3938655561404980e+00 2.0029302151571535e+01 0 0 0
561 2 2.4610000000000003e+00 5.6834360499026637e+00 2.0029302151571535e+01 0 0 0
562 2 2.4610000000000003e+00 4.2625770374269996e+00 2.0029302151571535e+01 0 0 0
574 2 3.6914999999999996e+00 6.3938655561404980e+00 2.0029302151571535e+01 0 0 0
714 2 0.0000000000000000e+00 4.2625770374269996e+00 2.3199605906104857e+01 0 0 0
715 2 1.2305000000000001e+00 4.9730065436648339e+00 2.3199605906104857e+01 0 0 0
723 2 1.2305000000000001e+00 6.3938655561404980e+00 2.3199605906104857e+01 0 0 0
725 2 2.4610000000000003e+00 4.2625770374269996e+00 2.3199605906104857e+01 0 0 0
726 2 3.6914999999999996e+00 4.9730065436648339e+00 2.3199605906104857e+01 0 0 0
738 2 3.6914999999999996e+00 6.3938655561404980e+00 2.3199605906104857e+01 0 0 0
559 2 1.2305000000000001e+00 7.8147245686161639e+00 2.0029302151571535e+01 0 0 0
573 2 3.6914999999999996e+00 7.8147245686161639e+00 2.0029302151571535e+01 0 0 0
713 2 0.0000000000000000e+00 7.1042950623783341e+00 2.3199605906104857e+01 0 0 0
724 2 2.4610000000000003e+00 7.1042950623783341e+00 2.3199605906104857e+01 0 0 0
575 2 4.9220000000000006e+00 5.6834360499026637e+00 2.0029302151571535e+01 0 0 0
576 2 4.9220000000000006e+00 4.2625770374269978e+00 2.0029302151571535e+01 0 0 0
592 2 6.1524999999999999e+00 6.3938655561404980e+00 2.0029302151571535e+01 0 0 0
593 2 7.3829999999999991e+00 5.6834360499026637e+00 2.0029302151571535e+01 0 0 0
594 2 7.3829999999999991e+00 4.2625770374269996e+00 2.0029302151571535e+01 0 0 0
740 2 4.9220000000000006e+00 4.2625770374269978e+00 2.3199605906104857e+01 0 0 0
741 2 6.1524999999999999e+00 4.9730065436648339e+00 2.3199605906104857e+01 0 0 0
757 2 6.1524999999999999e+00 6.3938655561404980e+00 2.3199605906104857e+01 0 0 0
759 2 7.3829999999999991e+00 4.2625770374269996e+00 2.3199605906104857e+01 0 0 0
591 2 6.1524999999999999e+00 7.8147245686161639e+00 2.0029302151571535e+01 0 0 0
739 2 4.9220000000000006e+00 7.1042950623783341e+00 2.3199605906104857e+01 0 0 0
758 2 7.3830000000000009e+00 7.1042950623783341e+00 2.3199605906104857e+01 0 0 0
614 2 8.6135000000000002e+00 6.3938655561404980e+00 2.0029302151571535e+01 0 0 0
615 2 9.8440000000000012e+00 5.6834360499026637e+00 2.0029302151571535e+01 0 0 0
616 2 9.8440000000000012e+00 4.2625770374270004e+00 2.0029302151571535e+01 0 0 0
637 2 1.1074500000000002e+01 6.3938655561404980e+00 2.0029302151571535e+01 0 0 0
760 2 8.6135000000000002e+00 4.9730065436648339e+00 2.3199605906104857e+01 0 0 0
780 2 8.6135000000000002e+00 6.3938655561404980e+00 2.3199605906104857e+01 0 0 0
782 2 9.8440000000000012e+00 4.2625770374270004e+00 2.3199605906104857e+01 0 0 0
783 2 1.1074500000000002e+01 4.9730065436648339e+00 2.3199605906104857e+01 0 0 0
804 2 1.1074500000000002e+01 6.3938655561404980e+00 2.3199605906104857e+01 0 0 0
613 2 8.6135000000000002e+00 7.8147245686161639e+00 2.0029302151571535e+01 0 0 0
636 2 1.1074500000000002e+01 7.8147245686161639e+00 2.0029302151571535e+01 0 0 0
781 2 9.8440000000000012e+00 7.1042950623783341e+00 2.3199605906104857e+01 0 0 0
557 2 0.0000000000000000e+00 9.9460130873296642e+00 2.0029302151571535e+01 0 0 0
558 2 0.0000000000000000e+00 8.5251540748539991e+00 2.0029302151571535e+01 0 0 0
571 2 2.4610000000000003e+00 9.9460130873296642e+00 2.0029302151571535e+01 0 0 0
572 2 2.4610000000000003e+00 8.5251540748539991e+00 2.0029302151571535e+01 0 0 0
721 2 0.0000000000000000e+00 8.5251540748539991e+00 2.3199605906104857e+01 0 0 0
722 2 1.2305000000000001e+00 9.2355835810918343e+00 2.3199605906104857e+01 0 0 0
736 2 2.4610000000000003e+00 8.5251540748539991e+00 2.3199605906104857e+01 0 0 0
737 2 3.6915000000000004e+00 9.2355835810918343e+00 2.3199605906104857e+01 0 0 0
569 2 1.2305000000000001e+00 1.2077301606043163e+01 2.0029302151571535e+01 0 0 0
570 2 1.2305000000000001e+00 1.0656442593567498e+01 2.0029302151571535e+01 0 0 0
587 2 3.6914999999999996e+00 1.2077301606043163e+01 2.0029302151571535e+01 0 0 0
588 2 3.6914999999999996e+00 1.0656442593567499e+01 2.0029302151571535e+01 0 0 0
720 2 0.0000000000000000e+00 1.1366872099805333e+01 2.3199605906104857e+01 0 0 0
734 2 1.2305000000000001e+00 1.0656442593567498e+01 2.3199605906104857e+01 0 0 0
735 2 2.4610000000000003e+00 1.1366872099805333e+01 2.3199605906104857e+01 0 0 0
753 2 3.6914999999999996e+00 1.0656442593567499e+01 2.3199605906104857e+01 0 0 0
589 2 4.9220000000000006e+00 9.9460130873296642e+00 2.0029302151571535e+01 0 0 0
590 2 4.9220000000000006e+00 8.5251540748539991e+00 2.0029302151571535e+01 0 0 0
611 2 7.3830000000000009e+00 9.9460130873296642e+00 2.0029302151571535e+01 0 0 0
612 2 7.3830000000000009e+00 8.5251540748539991e+00 2.0029302151571535e+01 0 0 0
755 2 4.9220000000000006e+00 8.5251540748539991e+00 2.3199605906104857e+01 0 0 0
756 2 6.1524999999999999e+00 9.2355835810918343e+00 2.3199605906104857e+01 0 0 0
778 2 7.3830000000000009e+00 8.5251540748539991e+00 2.3199605906104857e+01 0 0 0
609 2 6.1524999999999999e+00 1.2077301606043163e+01 2.0029302151571535e+01 0 0 0
610 2 6.1524999999999999e+00 1.0656442593567499e+01 2.0029302151571535e+01 0 0 0
754 2 4.9220000000000006e+00 1.1366872099805333e+01 2.3199605906104857e+01 0 0 0
776 2 6.1524999999999999e+00 1.0656442593567499e+01 2.3199605906104857e+01 0 0 0
777 2 7.3829999999999991e+00 1.1366872099805333e+01 2.3199605906104857e+01 0 0 0
634 2 9.8440000000000012e+00 9.9460130873296642e+00 2.0029302151571535e+01 0 0 0
635 2 9.8440000000000012e+00 8.5251540748539956e+00 2.0029302151571535e+01 0 0 0
779 2 8.6134999999999984e+00 9.2355835810918343e+00 2.3199605906104857e+01 0 0 0
802 2 9.8440000000000012e+00 8.5251540748539956e+00 2.3199605906104857e+01 0 0 0
803 2 1.1074500000000002e+01 9.2355835810918343e+00 2.3199605906104857e+01 0 0 0
632 2 8.6135000000000002e+00 1.2077301606043163e+01 2.0029302151571535e+01 0 0 0
633 2 8.6134999999999984e+00 1.0656442593567498e+01 2.0029302151571535e+01 0 0 0
655 2 1.1074500000000002e+01 1.2077301606043163e+01 2.0029302151571535e+01 0 0 0
656 2 1.1074500000000002e+01 1.0656442593567498e+01 2.0029302151571535e+01 0 0 0
800 2 8.6134999999999984e+00 1.0656442593567498e+01 2.3199605906104857e+01 0 0 0
801 2 9.8440000000000012e+00 1.1366872099805333e+01 2.3199605906104857e+01 0 0 0
824 2 1.1074500000000002e+01 1.0656442593567498e+01 2.3199605906104857e+01 0 0 0
825 2 1.2304999999999998e+01 1.1366872099805333e+01 2.3199605906104857e+01 0 0 0
3723 1 1.6957445290645687e+00 7.2431244555857688e-01 2.6141906231315126e+01 1 3 -1
2959 1 1.4654071234025643e+00 3.4381388797150914e+00 2.5406535599833283e+01 2 -1 0
1043 1 8.0576595075311701e+00 6.0773661597109774e+00 2.8742617233232465e+01 -3 2 -1
497 1 6.4457827155946044e+00 1.6758399204304897e+00 2.6216713046808977e+01 -1 5 0
475 1 3.6128169714708621e-03 1.1313731498695345e+01 2.5658717618007945e+01 1 -1 0
3417 1 1.0432684122299909e+01 2.1591649402506343e+00 2.6628133484764103e+01 2 -1 0
1755 1 8.8546431834975099e+00 4.4146426482947976e-01 2.5681984877889867e+01 1 -3 -2
4594 1 1.0649331780761591e+01 2.1912847713262438e+00 2.9298867266962166e+01 5 -3 1
2566 1 3.5379754986126324e+00 5.0144595987365017e+00 2.6266300442752460e+01 1 -2 0
892 1 3.1982014269683643e+00 7.5103223808484385e+00 2.5521231990008566e+01 -1 0 0
2170 1 6.6320784611294392e-01 8.4642542030304959e+00 2.6131327252202759e+01 3 -1 0
3809 1 5.8219782990872968e+00 4.0847663392897475e+00 2.5340934181649526e+01 -2 4 1
972 1 4.8848039815172442e+00 9.4984855269507680e+00 2.9052708291899560e+01 1 1 -1
4641 1 7.7414377238978700e+00 5.4887448212841479e+00 2.6122529360376276e+01 -2 0 0
2920 1 1.0209647165370017e+01 4.5401717966951169e+00 2.5443902922082554e+01 -4 1 1
4373 1 5.1570124286707815e+00 9.4090256636780207e+00 2.6171253381342581e+01 1 0 0
4644 1 4.3695819439597887e+00 1.1996946279866737e+01 2.5494025060690678e+01 1 2 0
3821 1 9.6290219391802268e+00 9.8545855236924549e+00 2.6402273667641467e+01 0 4 0
105 1 7.4961420226194173e+00 8.3001184001093655e+00 2.5672023260203364e+01 3 2 0
4692 1 3.5254625028225748e+00 5.1235520906330496e+00 2.8962039714449748e+01 3 0 0
925 1 1.1938881170896579e+01 9.0549955166096012e+00 2.5464391947774267e+01 2 -2 -1
2915 1 6.2346900642088876e+00 1.7864496227601363e+00 2.9007985703824641e+01 -5 2 -1
1834 1 9.4148570380465859e+00 9.6495240596431504e+00 2.9046096368362914e+01 -3 0 0
904 1 1.2167374154908375e+00 9.7614641622569698e-01 2.8935987998106551e+01 1 -2 -1
3053 1 3.8780620733500154e-01 8.6173347517070535e+00 2.9003181776648191e+01 -3 -2 0
4687 1 1.3787818051778218e+00 3.5075616024672982e+00 3.2543093078976142e+01 -3 -1 0
547 1 3.5943131577925893e+00 2.6673488387970714e+00 3.3723871171871480e+01 -1 -1 0
3474 1 1.2403714990470411e+00 3.5437123132556239e+00 2.9762356684218968e+01 2 2 -1
2729 1 1.1457652205330643e+01 1.1956994453976069e+01 3.6514624175183812e+01 0 -1 -1
4324 1 8.1088710322389090e+00 3.1955789249214552e+00 3.3423262338287842e+01 -2 -2 0
2896 1 5.5760443365753636e+00 4.3806216351505816e+00 3.2602673297704065e+01 4 -1 -1
1291 1 3.4963557851326915e-01 1.1032029272757441e+01 3.7717745284694907e+01 -2 0 0
1332 1 8.6629346157737093e+00 5.9982590567517247e-01 3.3127425892972227e+01 2 -1 0
2629 1 8.5839324237430130e+00 7.9569080655233826e-01 3.0133919467721821e+01 -2 3 0
3029 1 2.9490921690534919e+00 7.5786550555168439e+00 2.9866646579928521e+01 -2 0 -1
1871 1 2.8692227183584800e+00 7.7572802895450748e+00 3.2824349740885509e+01 0 0 -1
2581 1 8.6888359309438667e-01 6.0219356134218742e+00 3.3704841460056670e+01 1 0 -2
4658 1 5.9429195662644974e+00 4.4898893434252445e+00 2.9975308711092854e+01 -1 1 0
1331 1 5.2535963689984415e+00 6.8958913625627041e+00 3.3550501896716042e+01 1 -2 0
1363 1 7.6550186913905955e+00 8.1922364306823567e+00 3.2694484977995316e+01 -3 1 0
955 1 7.4605844602596845e+00 8.3427268717572360e+00 2.9827025761824551e+01 3 -1 -1
2226 1 9.9832733593321130e+00 4.7317890958880779e+00 3.2345958837932464e+01 0 3 0
3747 1 1.0321072517244776e+01 4.8902136387418791e+00 2.9625646580250237e+01 2 2 0
2131 1 9.9662156227493259e+00 7.1436111518400969e+00 3.3528690461583906e+01 -1 -2 0
2626 1 2.6781064532983270e+00 1.0212101328525723e+01 3.4022865951945391e+01 1 0 0
3055 1 4.9814263771207878e+00 1.1674042463672729e+01 3.7690282685830830e+01 1 -2 0
996 1 7.8685212418607628e+00 7.8211641078822103e+00 3.7379926925731645e+01 1 -4 -2
1366 1 4.6668574799153459e+00 1.1783463691061904e+01 3.3013049930177459e+01 -1 -3 0
2636 1 4.3227561949469209e+00 1.1905480926179875e+01 3.0302866734005487e+01 3 1 -1
2066 1 7.0837411377128046e+00 1.0881904081113113e+01 3.3623052252678164e+01 -1 1 -1
1208 1 1.1922748510864421e+01 9.0324244775477105e+00 3.2807733366698024e+01 4 0 -1
2670 1 1.1421428380047617e+01 1.1733652058905545e+01 3.3809469216912099e+01 -1 -4 0
2893 1 4.8054595980751325e-01 1.1062891847170109e+01 3.2803269131815512e+01 1 -3 -1
2721 1 3.6123628594067414e-01 1.1119889081055575e+01 3.0198389487163045e+01 -3 4 0
358 1 3.5898269280247979e+00 2.6598436473256624e+00 3.6697154697083626e+01 3 -1 -1
4604 1 1.3200726967619942e+00 3.5961008100840646e+00 3.7670429209841267e+01 0 -3 0
88 1 8.3584805369667432e+00 3.1333722276951113e+00 3.6375863060796895e+01 2 -5 -1
101 1 6.9355422440028365e+00 1.0666313902919976e+01 3.6418846081240837e+01 1 5 -1
3807 1 8.8022683578074279e+00 7.6880695582179492e-01 3.7526515254403535e+01 1 -1 -1
1239 1 1.2797034899203843e+00 6.0991849074051334e+00 3.6521900273608644e+01 -6 -3 -1
1339 1 3.1961563444746877e+00 7.8834224130807087e+00 3.7216563855268049e+01 -1 1 -1
1749 1 5.9133183050269640e+00 4.0296845408928919e+00 3.7219329084227567e+01 4 2 0
42 1 5.5784157285733400e+00 6.7294090868191407e+00 3.6220316174120605e+01 5 4 1
2044 1 1.0432229484724978e+01 4.8805987877104711e+00 3.7369304865072976e+01 0 1 -1
446 1 1.0428427375810950e+01 7.2941240678637751e+00 3.6221286826369401e+01 2 0 0
2704 1 1.1758218259913120e+01 8.8622246523745591e+00 3.0109620866450484e+01 5 5 -1
378 1 2.7734849133958965e+00 1.0510537049519804e+01 3.6792910734214637e+01 0 1 -1
3380 1 4.0841722711284767e+00 2.3335532631573058e-01 3.7302352297162329e+01 3 -2 -1
3032 1 1.1833089048133122e+01 9.5032466094350418e+00 3.7465821802838811e+01 -1 0 0
367 1 4.2427377763449332e+00 1.5928564616322669e-01 3.2469646512006761e+01 1 1 -1
443 1 8.7404386394568636e+00 1.2122016773692277e+01 3.0022169352392250e+01 -2 -2 0
3012 1 3.8256672676928805e+00 1.8473066208203776e-01 2.9578157170323959e+01 -3 6 0
2093 1 9.1394882601437484e+00 1.2192116091442223e+01 3.2602308019103802e+01 -1 1 0
2617 1 1.9076853459969536e+00 1.4903587555530596e+01 2.8186507511778278e+00 -3 -3 0
2207 1 4.2361803554523663e+00 1.4038412273731698e+01 4.1911385754666011e+00 2 -4 1
953 1 6.3106382454960652e+00 1.5502505146487927e+01 3.0453310313774939e+00 2 -1 1
4626 1 8.7573336761964082e+00 1.4763020101128896e+01 3.9342432645216334e+00 3 2 1
2584 1 3.0145683679824469e+00 2.4139874273049102e+01 9.8348335859048426e+00 -1 1 1
22 1 1.4831238207953141e+00 1.7291079021610500e+01 4.0134549501340082e+00 -1 2 1
971 1 3.5639558826799029e+00 1.8786152502041904e+01 2.9236101176414313e+00 5 0 1
1727 1 6.0643813545034186e+00 1.8332335782336010e+01 3.4349364307445693e+00 6 0 1
2992 1 8.1355822111265557e+00 1.9998103165313484e+01 2.6311455339112371e+00 1 1 0
1710 1 1.0840508861994516e+01 1.6374844298152546e+01 2.6327632216237418e+00 1 5 0
3867 1 1.0348584180301291e+01 1.8844673042031175e+01 3.4669971437662546e+00 2 3 1
4224 1 3.1684922304330407e+00 2.1265311249146290e+01 3.7633308868928887e+00 -2 0 0
4342 1 7.3870315640258977e-01 2.2372916168222975e+01 2.5501960499128513e+00 1 3 0
3771 1 5.3324075498437731e+00 2.2853474134806980e+01 2.9706695182552068e+00 4 -3 0
4313 1 8.1068271589787404e+00 2.2358648578175011e+01 3.8896797842387154e+00 -1 -3 0
4682 1 9.9273085528540559e+00 2.4130318729806795e+01 2.8399674951996872e+00 0 2 1
1374 1 1.0682451419463064e+01 2.0971220788921194e+01 1.0145708521290386e+01 1 1 0
2899 1 1.1116975382860852e+00 2.0153889956841152e+01 1.0469879394500982e+01 3 -3 0
3736 1 2.0931961863780049e+00 1.2956262458426473e+01 7.9486344873582837e+00 2 0 0
355 1 1.2299379776023743e+01 2.3055738227232780e+01 3.9983011133794006e+00 -2 0 1
1745 1 4.3445085585106211e+00 1.4098331301573477e+01 6.9441977432724427e+00 2 -3 1
933 1 7.1516970660104713e+00 1.3317397315249559e+01 7.8263385952748878e+00 0 2 0
162 1 9.1435651115622605e+00 1.4827597444194412e+01 6.4814082149784227e+00 1 6 1
1705 1 1.1537221446861789e+01 1.4194998934374906e+01 7.2213181025934761e+00 -3 3 1
2637 1 1.0268796413593710e+01 2.1314831095851954e+01 7.5072973353874772e+00 7 1 1
4683 1 2.8837313888929899e+00 2.4281707473384621e+01 7.1510260282510378e+00 2 -2 0
4215 1 1.6211474011021330e+00 1.7390705277016917e+01 6.5954829098284886e+00 -3 5 0
99 1 9.8435589075570940e-01 1.9916674308670764e+01 7.4926340576371011e+00 -5 2 0
3056 1 4.0251701633132395e+00 1.6865551964258920e+01 7.5903740087106577e+00 3 -4 1
1714 1 9.1030594395980291e+00 1.2407516186547609e+01 2.7629839312453517e+00 -1 0 0
962 1 6.0884905485645318e+00 1.8188636737372025e+01 6.1248551286971393e+00 0 3 0
387 1 8.5504401645219161e+00 1.7422772190518337e+01 7.4760458638197580e+00 5 -5 1
2616 1 1.0556370876136921e+01 1.8948500418887814e+01 6.3763301517095528e+00 -4 0 1
2986 1 8.6984909970191708e+00 1.7564168273629981e+01 1.0339675431204569e+01 2 2 1
3003 1 1.1283932362078133e+01 1.4112210816719646e+01 1.0065215116855198e+01 -1 0 1
4631 1 3.2453170588949534e+00 2.1573917561901855e+01 6.3927433105106433e+00 -3 3 1
4298 1 6.6612837166119023e+00 1.3513232203495111e+01 1.0384990630812894e+01 1 2 0