LAMMPS data file via write_data, version 16 Mar 2018, timestep = 100000

4990 atoms
2 atom types

0.0000000000000000e+00 4.9219999999999999e+01 xlo xhi
0.0000000000000000e+00 4.9019635930410494e+01 ylo yhi
2.0848209552572889e+00 3.7915179044745017e+01 zlo zhi

Masses

1 18.015
2 12.01

Atoms # atomic

4553 1 4.5623150684363036e+00 2.1673758362537616e+00 6.4801359488174652e+00 0 1 1
2060 1 1.3941124214311635e+00 2.7087642862214634e+00 3.4332257863028985e+00 1 0 1
4279 1 1.6229020419799605e+00 1.0753378061106920e+01 1.0545670804753261e+01 1 0 1
3441 1 1.1813772002116028e+01 1.4840470852533290e+00 4.5354840567144921e+00 1 0 0
518 1 1.1467096172203846e+01 9.3427454094332489e+00 8.9709713545475083e+00 1 0 1
3788 1 8.9613294752056891e+00 1.0003488992735837e+01 7.9191798602652854e+00 2 0 1
4313 1 5.5912798136646664e+00 7.4973040970850207e+00 3.3542472298976227e+00 0 -1 0
3498 1 2.9770906256657517e+00 5.0952856729916096e+00 3.1744196422845459e+00 0 0 0
1812 1 5.9799641595658581e+00 9.3407412958503910e-01 4.3841570373981824e+00 1 -1 0
459 1 4.9448962358071018e+00 4.7857666167522597e+00 5.1289464134792695e+00 1 0 1
2672 1 7.6642881541660071e+00 5.3773277846674716e+00 4.4011817405261553e+00 1 1 0
3854 1 1.1291805962229986e+01 7.8247559766266317e+00 6.5756398333400305e+00 1 1 0
1871 1 7.2486848246497013e+00 9.3260700398352121e+00 4.7032542450096031e+00 1 1 0
357 1 1.1208200967680554e+01 3.8924720252065588e+00 4.4485907537666609e+00 0 0 0
2128 1 3.2025871808769910e+00 9.1845026990127874e+00 3.9132486545666016e+00 2 1 1
3861 1 6.9245042677510582e-01 1.0368341644581520e+01 3.0113148844580442e+00 1 0 1
1211 1 6.6471243446370911e+00 5.7214537903129283e+00 8.0219006660845391e+00 -1 1 2
1702 1 4.1667940280749027e+00 1.1714413199716887e+01 3.6010318340910690e+00 0 1 0
3405 1 1.1282976409558032e+01 1.1519622687074289e+01 2.9956774339290919e+00 0 0 1
2082 1 1.8095442514746534e+00 1.4158989387474969e+00 7.2759883942403594e+00 1 0 1
3462 1 1.1107236668535256e+00 2.9391023780708814e+00 9.2916479044108087e+00 0 0 0
876 1 9.4104517021989906e+00 1.1497191006115530e+01 5.2588648007237406e+00 0 0 0
1382 1 6.2533057046236742e+00 3.1252434753597464e+00 8.2080675150396196e+00 -1 0 0
3817 1 1.1596833697475239e+01 2.2208321580914636e+00 8.7628158034156307e+00 -1 1 1
3491 1 9.2663214368220839e+00 8.3184616817435195e+00 3.0076173943062918e+00 0 1 1
1754 1 1.7727662031967668e+00 5.5518302344247727e+00 9.1496988734592168e+00 0 1 1
3428 1 1.2082956054584804e+01 8.8240798718554121e+00 2.6958194232620372e+00 0 0 1
521 1 3.9600898952700017e+00 6.2752830205903125e+00 7.1904334433725587e+00 1 0 0
2883 1 9.1411192561376993e+00 3.9689697603982541e+00 8.9332223571350795e+00 0 1 1
1832 1 1.1083427878309493e+01 4.8623454379022624e+00 6.9854319468949297e+00 1 0 0
3393 1 8.4062179228892742e+00 7.2953408927658812e+00 6.4190830814233184e+00 1 1 0
3398 1 1.7573620980167493e+00 1.0880549524460729e+01 7.8720151652525479e+00 0 0 0
1371 1 3.4011337854804196e+00 9.0004475078700708e+00 6.9131690196203488e+00 0 1 1
3880 1 9.7570948113739835e+00 4.6860609935158365e-02 8.7790942421523539e+00 1 0 0
1225 1 6.1153984790775935e+00 9.7226208700557741e+00 7.2830526972983911e+00 0 1 0
2613 1 9.0977206607616878e+00 3.9068323929330480e+00 2.2673849761215834e+00 0 0 0
3059 1 1.2882655921537514e+00 6.9990128550961419e+00 4.4148891332279794e+00 1 1 0
3395 1 8.2593490603010338e+00 1.7328366581254748e-01 6.2112928987327107e+00 0 0 2
914 1 4.7480656825930945e+00 3.3317744153351740e+00 1.0756190430202114e+01 1 2 1
2694 1 6.1831439282090797e+00 8.3939977306258289e+00 9.7795009405062174e+00 1 0 1
985 1 3.5015145097860223e-01 7.0641473768936844e+00 7.2686086605782005e+00 -1 1 0
3713 1 2.6212197890960578e+00 1.6147374499897325e+00 1.0990400692506995e+01 2 0 0
2079 1 7.0229472558673809e+00 1.7277966129310645e+00 1.1173027369926915e+01 0 0 1
4260 1 2.1637565083987798e+00 3.7538579853522367e+00 1.4510197242988204e+01 1 1 0
4657 1 9.8948776190129948e+00 4.2517737982812935e+00 1.4650679237163429e+01 0 1 1
2564 1 1.5486890530726498e+00 1.1401689797726662e+00 1.3496390181598526e+01 0 0 0
4619 1 4.9971696155182386e+00 3.6955366647288712e+00 1.3944839522361434e+01 0 0 1
284 2 9.8440000000000012e+00 1.1366872099805333e+01 1.6998128169383619e+01 0 0 0
2936 1 5.4796488811227277e+00 1.1213541071614191e+01 1.4549492789956204e+01 0 1 1
1324 1 1.0089557057982459e+01 1.1935933546040204e+01 1.4434598290122967e+01 1 1 0
2965 1 9.7122112645583893e+00 2.9186587849871932e+00 1.2206133619752698e+01 1 -1 1
1322 1 1.1157812712576295e+01 7.7904983556112164e+00 1.1407697131358200e+01 1 -1 1
1390 1 1.2234839032756671e+01 9.6597365568503957e+00 1.4586530161836791e+01 1 0 1
877 1 1.2012029969040698e+00 8.2930768119877847e+00 1.4838586934314293e+01 1 1 0
512 1 3.7296935450880375e-01 5.8370351471536299e+00 1.3801111381375692e+01 1 0 1
956 1 6.2090610358806586e+00 6.0535691450964357e+00 1.4305630162657677e+01 -1 0 0
4615 1 3.9925675658289390e+00 7.6482794170451873e+00 1.3430471574893488e+01 -1 0 1
147 1 6.4948986885669155e+00 6.0173030605797706e+00 1.1286865199141193e+01 0 0 0
307 2 1.1074500000000002e+01 1.0656442593567498e+01 1.6998128169383619e+01 0 0 0
3465 1 8.7804046746579640e+00 7.2357610649561810e+00 1.4233941151760130e+01 1 0 0
24 1 9.3462947317406968e+00 5.7478032593573349e+00 1.1513200471567167e+01 1 1 -1
82 1 1.1555381270438529e+01 6.9990771088210488e+00 1.4393306204288114e+01 0 1 -1
283 2 8.6134999999999984e+00 1.0656442593567498e+01 1.6998128169383619e+01 0 0 0
4271 1 4.0676350634231628e+00 9.9731786996274767e+00 1.1619423122220169e+01 0 1 0
450 1 8.4411189454594613e+00 1.2029966084355512e+00 1.4472242019403186e+01 1 0 1
4530 1 8.5889518447630966e+00 9.5029789383795400e+00 1.1164860602451020e+01 1 0 0
2638 1 8.1119269483717833e+00 9.9650003298501630e+00 1.4112481682545697e+01 0 0 0
308 2 1.2304999999999998e+01 1.1366872099805333e+01 1.6998128169383619e+01 0 0 0
286 2 1.1074500000000002e+01 9.2355835810918343e+00 1.6998128169383619e+01 0 0 0
239 2 6.1524999999999999e+00 9.2355835810918343e+00 1.6998128169383619e+01 0 0 0
262 2 8.6134999999999984e+00 9.2355835810918343e+00 1.6998128169383619e+01 0 0 0
285 2 9.8440000000000012e+00 8.5251540748539956e+00 1.6998128169383619e+01 0 0 0
133 1 2.5552667035382828e+00 1.0816623650046354e+01 1.4168510361190075e+01 0 0 0
193 2 0.0000000000000000e+00 2.8417180249513345e+00 1.6998128169383619e+01 0 0 0
194 2 0.0000000000000000e+00 0.0000000000000000e+00 1.6998128169383619e+01 0 0 0
195 2 1.2305000000000001e+00 7.1042950623783474e-01 1.6998128169383619e+01 0 0 0
199 2 1.2305000000000001e+00 2.1312885187134998e+00 1.6998128169383619e+01 0 0 0
200 2 2.4610000000000003e+00 2.8417180249513345e+00 1.6998128169383619e+01 0 0 0
201 2 2.4610000000000003e+00 0.0000000000000000e+00 1.6998128169383619e+01 0 0 0
202 2 3.6915000000000004e+00 7.1042950623783474e-01 1.6998128169383619e+01 0 0 0
210 2 3.6914999999999996e+00 2.1312885187134998e+00 1.6998128169383619e+01 0 0 0
211 2 4.9220000000000006e+00 2.8417180249513332e+00 1.6998128169383619e+01 0 0 0
212 2 4.9220000000000006e+00 0.0000000000000000e+00 1.6998128169383619e+01 0 0 0
213 2 6.1524999999999999e+00 7.1042950623783407e-01 1.6998128169383619e+01 0 0 0
225 2 6.1524999999999999e+00 2.1312885187134989e+00 1.6998128169383619e+01 0 0 0
226 2 7.3829999999999991e+00 2.8417180249513345e+00 1.6998128169383619e+01 0 0 0
227 2 7.3829999999999991e+00 0.0000000000000000e+00 1.6998128169383619e+01 0 0 0
228 2 8.6134999999999984e+00 7.1042950623783407e-01 1.6998128169383619e+01 0 0 0
244 2 8.6134999999999984e+00 2.1312885187135002e+00 1.6998128169383619e+01 0 0 0
245 2 9.8440000000000012e+00 2.8417180249513332e+00 1.6998128169383619e+01 0 0 0
246 2 9.8440000000000012e+00 0.0000000000000000e+00 1.6998128169383619e+01 0 0 0
247 2 1.1074500000000002e+01 7.1042950623783330e-01 1.6998128169383619e+01 0 0 0
267 2 1.1074500000000002e+01 2.1312885187135002e+00 1.6998128169383619e+01 0 0 0
197 2 0.0000000000000000e+00 4.2625770374269996e+00 1.6998128169383619e+01 0 0 0
198 2 1.2305000000000001e+00 4.9730065436648339e+00 1.6998128169383619e+01 0 0 0
206 2 1.2305000000000001e+00 6.3938655561404980e+00 1.6998128169383619e+01 0 0 0
208 2 2.4610000000000003e+00 4.2625770374269996e+00 1.6998128169383619e+01 0 0 0
209 2 3.6914999999999996e+00 4.9730065436648339e+00 1.6998128169383619e+01 0 0 0
221 2 3.6914999999999996e+00 6.3938655561404980e+00 1.6998128169383619e+01 0 0 0
196 2 0.0000000000000000e+00 7.1042950623783341e+00 1.6998128169383619e+01 0 0 0
207 2 2.4610000000000003e+00 7.1042950623783341e+00 1.6998128169383619e+01 0 0 0
223 2 4.9220000000000006e+00 4.2625770374269978e+00 1.6998128169383619e+01 0 0 0
224 2 6.1524999999999999e+00 4.9730065436648339e+00 1.6998128169383619e+01 0 0 0
240 2 6.1524999999999999e+00 6.3938655561404980e+00 1.6998128169383619e+01 0 0 0
242 2 7.3829999999999991e+00 4.2625770374269996e+00 1.6998128169383619e+01 0 0 0
222 2 4.9220000000000006e+00 7.1042950623783341e+00 1.6998128169383619e+01 0 0 0
241 2 7.3830000000000009e+00 7.1042950623783341e+00 1.6998128169383619e+01 0 0 0
243 2 8.6135000000000002e+00 4.9730065436648339e+00 1.6998128169383619e+01 0 0 0
263 2 8.6135000000000002e+00 6.3938655561404980e+00 1.6998128169383619e+01 0 0 0
265 2 9.8440000000000012e+00 4.2625770374270004e+00 1.6998128169383619e+01 0 0 0
266 2 1.1074500000000002e+01 4.9730065436648339e+00 1.6998128169383619e+01 0 0 0
287 2 1.1074500000000002e+01 6.3938655561404980e+00 1.6998128169383619e+01 0 0 0
264 2 9.8440000000000012e+00 7.1042950623783341e+00 1.6998128169383619e+01 0 0 0
204 2 0.0000000000000000e+00 8.5251540748539991e+00 1.6998128169383619e+01 0 0 0
205 2 1.2305000000000001e+00 9.2355835810918343e+00 1.6998128169383619e+01 0 0 0
219 2 2.4610000000000003e+00 8.5251540748539991e+00 1.6998128169383619e+01 0 0 0
220 2 3.6915000000000004e+00 9.2355835810918343e+00 1.6998128169383619e+01 0 0 0
203 2 0.0000000000000000e+00 1.1366872099805333e+01 1.6998128169383619e+01 0 0 0
217 2 1.2305000000000001e+00 1.0656442593567498e+01 1.6998128169383619e+01 0 0 0
218 2 2.4610000000000003e+00 1.1366872099805333e+01 1.6998128169383619e+01 0 0 0
236 2 3.6914999999999996e+00 1.0656442593567499e+01 1.6998128169383619e+01 0 0 0
261 2 7.3830000000000009e+00 8.5251540748539991e+00 1.6998128169383619e+01 0 0 0
260 2 7.3829999999999991e+00 1.1366872099805333e+01 1.6998128169383619e+01 0 0 0
259 2 6.1524999999999999e+00 1.0656442593567499e+01 1.6998128169383619e+01 0 0 0
238 2 4.9220000000000006e+00 8.5251540748539991e+00 1.6998128169383619e+01 0 0 0
237 2 4.9220000000000006e+00 1.1366872099805333e+01 1.6998128169383619e+01 0 0 0
1724 1 1.1645835933404792e+01 1.0848067521777404e+01 1.1900758425755974e+01 1 1 1
2900 1 3.1505500993661233e+00 5.6823876082328457e+00 1.1722970919420042e+01 1 0 0
1302 1 6.2301020708399797e+00 1.1585144292367106e+01 1.1522796184693805e+01 0 -1 0
2673 1 5.8976669617730657e+00 9.8578517745469962e-01 1.3766410739646419e+01 0 1 0
549 2 0.0000000000000000e+00 1.4208590124756650e+00 2.0028004221110574e+01 0 0 0
550 2 0.0000000000000000e+00 0.0000000000000000e+00 2.0028004221110574e+01 0 0 0
554 2 1.2305000000000001e+00 2.1312885187134998e+00 2.0028004221110574e+01 0 0 0
555 2 2.4610000000000003e+00 1.4208590124756650e+00 2.0028004221110574e+01 0 0 0
556 2 2.4610000000000003e+00 0.0000000000000000e+00 2.0028004221110574e+01 0 0 0
564 2 3.6914999999999996e+00 2.1312885187134998e+00 2.0028004221110574e+01 0 0 0
710 2 0.0000000000000000e+00 2.8417180249513345e+00 2.3057880272838752e+01 0 0 0
711 2 0.0000000000000000e+00 0.0000000000000000e+00 2.3057880272838752e+01 0 0 0
712 2 1.2305000000000001e+00 7.1042950623783474e-01 2.3057880272838752e+01 0 0 0
716 2 1.2305000000000001e+00 2.1312885187134998e+00 2.3057880272838752e+01 0 0 0
717 2 2.4610000000000003e+00 2.8417180249513345e+00 2.3057880272838752e+01 0 0 0
718 2 2.4610000000000003e+00 0.0000000000000000e+00 2.3057880272838752e+01 0 0 0
719 2 3.6915000000000004e+00 7.1042950623783474e-01 2.3057880272838752e+01 0 0 0
727 2 3.6914999999999996e+00 2.1312885187134998e+00 2.3057880272838752e+01 0 0 0
553 2 1.2305000000000001e+00 3.5521475311891644e+00 2.0028004221110574e+01 0 0 0
563 2 3.6914999999999996e+00 3.5521475311891644e+00 2.0028004221110574e+01 0 0 0
565 2 4.9220000000000006e+00 1.4208590124756650e+00 2.0028004221110574e+01 0 0 0
566 2 4.9220000000000006e+00 0.0000000000000000e+00 2.0028004221110574e+01 0 0 0
578 2 6.1524999999999999e+00 2.1312885187134989e+00 2.0028004221110574e+01 0 0 0
579 2 7.3829999999999991e+00 1.4208590124756659e+00 2.0028004221110574e+01 0 0 0
580 2 7.3829999999999991e+00 0.0000000000000000e+00 2.0028004221110574e+01 0 0 0
728 2 4.9220000000000006e+00 2.8417180249513332e+00 2.3057880272838752e+01 0 0 0
729 2 4.9220000000000006e+00 0.0000000000000000e+00 2.3057880272838752e+01 0 0 0
730 2 6.1524999999999999e+00 7.1042950623783407e-01 2.3057880272838752e+01 0 0 0
742 2 6.1524999999999999e+00 2.1312885187134989e+00 2.3057880272838752e+01 0 0 0
743 2 7.3829999999999991e+00 2.8417180249513345e+00 2.3057880272838752e+01 0 0 0
744 2 7.3829999999999991e+00 0.0000000000000000e+00 2.3057880272838752e+01 0 0 0
577 2 6.1524999999999999e+00 3.5521475311891644e+00 2.0028004221110574e+01 0 0 0
596 2 8.6134999999999984e+00 2.1312885187135002e+00 2.0028004221110574e+01 0 0 0
597 2 9.8440000000000012e+00 1.4208590124756659e+00 2.0028004221110574e+01 0 0 0
598 2 9.8440000000000012e+00 0.0000000000000000e+00 2.0028004221110574e+01 0 0 0
618 2 1.1074500000000002e+01 2.1312885187135002e+00 2.0028004221110574e+01 0 0 0
745 2 8.6134999999999984e+00 7.1042950623783407e-01 2.3057880272838752e+01 0 0 0
761 2 8.6134999999999984e+00 2.1312885187135002e+00 2.3057880272838752e+01 0 0 0
762 2 9.8440000000000012e+00 2.8417180249513332e+00 2.3057880272838752e+01 0 0 0
763 2 9.8440000000000012e+00 0.0000000000000000e+00 2.3057880272838752e+01 0 0 0
764 2 1.1074500000000002e+01 7.1042950623783330e-01 2.3057880272838752e+01 0 0 0
784 2 1.1074500000000002e+01 2.1312885187135002e+00 2.3057880272838752e+01 0 0 0
595 2 8.6134999999999984e+00 3.5521475311891657e+00 2.0028004221110574e+01 0 0 0
617 2 1.1074500000000002e+01 3.5521475311891644e+00 2.0028004221110574e+01 0 0 0
551 2 0.0000000000000000e+00 5.6834360499026637e+00 2.0028004221110574e+01 0 0 0
552 2 0.0000000000000000e+00 4.2625770374269996e+00 2.0028004221110574e+01 0 0 0
560 2 1.2305000000000001e+00 6.3938655561404980e+00 2.0028004221110574e+01 0 0 0
561 2 2.4610000000000003e+00 5.6834360499026637e+00 2.0028004221110574e+01 0 0 0
562 2 2.4610000000000003e+00 4.2625770374269996e+00 2.0028004221110574e+01 0 0 0
574 2 3.6914999999999996e+00 6.3938655561404980e+00 2.0028004221110574e+01 0 0 0
714 2 0.0000000000000000e+00 4.2625770374269996e+00 2.3057880272838752e+01 0 0 0
715 2 1.2305000000000001e+00 4.9730065436648339e+00 2.3057880272838752e+01 0 0 0
723 2 1.2305000000000001e+00 6.3938655561404980e+00 2.3057880272838752e+01 0 0 0
725 2 2.4610000000000003e+00 4.2625770374269996e+00 2.3057880272838752e+01 0 0 0
726 2 3.6914999999999996e+00 4.9730065436648339e+00 2.3057880272838752e+01 0 0 0
738 2 3.6914999999999996e+00 6.3938655561404980e+00 2.3057880272838752e+01 0 0 0
559 2 1.2305000000000001e+00 7.8147245686161639e+00 2.0028004221110574e+01 0 0 0
573 2 3.6914999999999996e+00 7.8147245686161639e+00 2.0028004221110574e+01 0 0 0
713 2 0.0000000000000000e+00 7.1042950623783341e+00 2.3057880272838752e+01 0 0 0
724 2 2.4610000000000003e+00 7.1042950623783341e+00 2.3057880272838752e+01 0 0 0
575 2 4.9220000000000006e+00 5.6834360499026637e+00 2.0028004221110574e+01 0 0 0
576 2 4.9220000000000006e+00 4.2625770374269978e+00 2.0028004221110574e+01 0 0 0
592 2 6.1524999999999999e+00 6.3938655561404980e+00 2.0028004221110574e+01 0 0 0
593 2 7.3829999999999991e+00 5.6834360499026637e+00 2.0028004221110574e+01 0 0 0
594 2 7.3829999999999991e+00 4.2625770374269996e+00 2.0028004221110574e+01 0 0 0
740 2 4.9220000000000006e+00 4.2625770374269978e+00 2.3057880272838752e+01 0 0 0
741 2 6.1524999999999999e+00 4.9730065436648339e+00 2.3057880272838752e+01 0 0 0
757 2 6.1524999999999999e+00 6.3938655561404980e+00 2.3057880272838752e+01 0 0 0
759 2 7.3829999999999991e+00 4.2625770374269996e+00 2.3057880272838752e+01 0 0 0
591 2 6.1524999999999999e+00 7.8147245686161639e+00 2.0028004221110574e+01 0 0 0
739 2 4.9220000000000006e+00 7.1042950623783341e+00 2.3057880272838752e+01 0 0 0
758 2 7.3830000000000009e+00 7.1042950623783341e+00 2.3057880272838752e+01 0 0 0
614 2 8.6135000000000002e+00 6.3938655561404980e+00 2.0028004221110574e+01 0 0 0
615 2 9.8440000000000012e+00 5.6834360499026637e+00 2.0028004221110574e+01 0 0 0
616 2 9.8440000000000012e+00 4.2625770374270004e+00 2.0028004221110574e+01 0 0 0
637 2 1.1074500000000002e+01 6.3938655561404980e+00 2.0028004221110574e+01 0 0 0
760 2 8.6135000000000002e+00 4.9730065436648339e+00 2.3057880272838752e+01 0 0 0
780 2 8.6135000000000002e+00 6.3938655561404980e+00 2.3057880272838752e+01 0 0 0
782 2 9.8440000000000012e+00 4.2625770374270004e+00 2.3057880272838752e+01 0 0 0
783 2 1.1074500000000002e+01 4.9730065436648339e+00 2.3057880272838752e+01 0 0 0
804 2 1.1074500000000002e+01 6.3938655561404980e+00 2.3057880272838752e+01 0 0 0
613 2 8.6135000000000002e+00 7.8147245686161639e+00 2.0028004221110574e+01 0 0 0
636 2 1.1074500000000002e+01 7.8147245686161639e+00 2.0028004221110574e+01 0 0 0
781 2 9.8440000000000012e+00 7.1042950623783341e+00 2.3057880272838752e+01 0 0 0
557 2 0.0000000000000000e+00 9.9460130873296642e+00 2.0028004221110574e+01 0 0 0
558 2 0.0000000000000000e+00 8.5251540748539991e+00 2.0028004221110574e+01 0 0 0
571 2 2.4610000000000003e+00 9.9460130873296642e+00 2.0028004221110574e+01 0 0 0
572 2 2.4610000000000003e+00 8.5251540748539991e+00 2.0028004221110574e+01 0 0 0
721 2 0.0000000000000000e+00 8.5251540748539991e+00 2.3057880272838752e+01 0 0 0
722 2 1.2305000000000001e+00 9.2355835810918343e+00 2.3057880272838752e+01 0 0 0
736 2 2.4610000000000003e+00 8.5251540748539991e+00 2.3057880272838752e+01 0 0 0
737 2 3.6915000000000004e+00 9.2355835810918343e+00 2.3057880272838752e+01 0 0 0
569 2 1.2305000000000001e+00 1.2077301606043163e+01 2.0028004221110574e+01 0 0 0
570 2 1.2305000000000001e+00 1.0656442593567498e+01 2.0028004221110574e+01 0 0 0
587 2 3.6914999999999996e+00 1.2077301606043163e+01 2.0028004221110574e+01 0 0 0
588 2 3.6914999999999996e+00 1.0656442593567499e+01 2.0028004221110574e+01 0 0 0
720 2 0.0000000000000000e+00 1.1366872099805333e+01 2.3057880272838752e+01 0 0 0
734 2 1.2305000000000001e+00 1.0656442593567498e+01 2.3057880272838752e+01 0 0 0
735 2 2.4610000000000003e+00 1.1366872099805333e+01 2.3057880272838752e+01 0 0 0
753 2 3.6914999999999996e+00 1.0656442593567499e+01 2.3057880272838752e+01 0 0 0
589 2 4.9220000000000006e+00 9.9460130873296642e+00 2.0028004221110574e+01 0 0 0
590 2 4.9220000000000006e+00 8.5251540748539991e+00 2.0028004221110574e+01 0 0 0
611 2 7.3830000000000009e+00 9.9460130873296642e+00 2.0028004221110574e+01 0 0 0
612 2 7.3830000000000009e+00 8.5251540748539991e+00 2.0028004221110574e+01 0 0 0
755 2 4.9220000000000006e+00 8.5251540748539991e+00 2.3057880272838752e+01 0 0 0
756 2 6.1524999999999999e+00 9.2355835810918343e+00 2.3057880272838752e+01 0 0 0
778 2 7.3830000000000009e+00 8.5251540748539991e+00 2.3057880272838752e+01 0 0 0
609 2 6.1524999999999999e+00 1.2077301606043163e+01 2.0028004221110574e+01 0 0 0
610 2 6.1524999999999999e+00 1.0656442593567499e+01 2.0028004221110574e+01 0 0 0
754 2 4.9220000000000006e+00 1.1366872099805333e+01 2.3057880272838752e+01 0 0 0
776 2 6.1524999999999999e+00 1.0656442593567499e+01 2.3057880272838752e+01 0 0 0
777 2 7.3829999999999991e+00 1.1366872099805333e+01 2.3057880272838752e+01 0 0 0
634 2 9.8440000000000012e+00 9.9460130873296642e+00 2.0028004221110574e+01 0 0 0
635 2 9.8440000000000012e+00 8.5251540748539956e+00 2.0028004221110574e+01 0 0 0
779 2 8.6134999999999984e+00 9.2355835810918343e+00 2.3057880272838752e+01 0 0 0
802 2 9.8440000000000012e+00 8.5251540748539956e+00 2.3057880272838752e+01 0 0 0
803 2 1.1074500000000002e+01 9.2355835810918343e+00 2.3057880272838752e+01 0 0 0
632 2 8.6135000000000002e+00 1.2077301606043163e+01 2.0028004221110574e+01 0 0 0
633 2 8.6134999999999984e+00 1.0656442593567498e+01 2.0028004221110574e+01 0 0 0
655 2 1.1074500000000002e+01 1.2077301606043163e+01 2.0028004221110574e+01 0 0 0
656 2 1.1074500000000002e+01 1.0656442593567498e+01 2.0028004221110574e+01 0 0 0
800 2 8.6134999999999984e+00 1.0656442593567498e+01 2.3057880272838752e+01 0 0 0
801 2 9.8440000000000012e+00 1.1366872099805333e+01 2.3057880272838752e+01 0 0 0
824 2 1.1074500000000002e+01 1.0656442593567498e+01 2.3057880272838752e+01 0 0 0
825 2 1.2304999999999998e+01 1.1366872099805333e+01 2.3057880272838752e+01 0 0 0
2199 1 2.9242850625187695e+00 2.7899148112247851e+00 2.5524817389189504e+01 0 1 0
2881 1 8.1604315223354593e+00 9.0351919506760794e+00 2.6222843757084739e+01 1 0 0
930 1 1.0489561214985832e+01 7.4417908131011536e+00 2.5760319033615286e+01 2 1 -1
3858 1 5.7671958880706757e+00 2.2311465868945515e+00 2.5757474626074519e+01 0 0 0
4672 1 7.9908573106451319e+00 2.8561778046331887e-01 2.5424157263676637e+01 1 1 0
1857 1 1.0052473601569098e+01 3.2716510708251447e+00 2.6224282080628882e+01 0 0 0
1797 1 1.1059056153042848e+01 6.1155071233550706e-01 2.5489038527440066e+01 1 2 0
374 1 1.2642424151757268e+00 8.6756390821711467e+00 2.8380611615051688e+01 0 0 0
1328 1 6.8271315265129484e-01 4.1900755032122685e+00 2.5822708058137160e+01 0 1 0
1782 1 2.0291033850261426e+00 8.4480520999159552e+00 2.5722877113438020e+01 0 0 -1
3733 1 9.0897323772470244e+00 1.1877014957746107e+01 2.5515565227744705e+01 2 0 0
2939 1 4.7205997095243353e+00 6.5084255796213828e+00 2.5923533752707012e+01 0 1 -1
531 1 1.1246032539734538e+01 1.2130815688747635e+01 2.8223955994393705e+01 0 1 0
2210 1 5.1303808266602342e+00 9.0498489311598256e+00 2.6525390582498311e+01 0 1 -1
3414 1 2.0749684929120589e+00 9.2506014877409823e-02 2.5304953302490084e+01 -1 1 0
1221 1 4.7760982772434835e+00 2.0342281448483708e+00 2.8339768733741717e+01 0 0 0
4358 1 3.5525910731046939e+00 1.0960011198241254e+01 2.8949839180049551e+01 0 -1 -1
905 1 6.9841081314618769e+00 4.7092580245441331e+00 2.5513547005331805e+01 2 1 0
3533 1 1.2038427409688101e+01 1.1750151087409678e+01 2.5570068645640166e+01 0 1 0
96 1 4.1901848928706470e-01 1.1109198002540388e+01 2.5611115595429396e+01 -1 1 0
3444 1 1.2118337229424862e+01 4.8466494914581624e+00 2.6021326057708791e+01 0 1 -1
390 1 3.4525289212000314e+00 1.1292038089884336e+01 2.5680871381008782e+01 0 0 0
870 1 1.0662621778244537e+01 7.0299801133192119e+00 2.8347096281468634e+01 0 2 0
2873 1 7.2359663013666986e-01 1.1842600136247345e+01 2.8576603250347951e+01 0 -1 -1
3758 1 1.1136092749730782e+01 1.1005784481398733e+00 2.8312830014573805e+01 1 0 0
4189 1 1.2031317159680123e+01 9.5271840178280023e+00 2.8752546631721838e+01 1 1 0
181 1 3.7832053349422754e+00 6.1288579655575797e+00 2.8784307516996591e+01 0 0 -1
2140 1 8.2024508903759070e+00 4.5709951946971117e+00 2.8546891264007328e+01 1 -1 0
1842 1 1.2278671578536734e+01 4.4559188211154757e+00 2.8776533066796006e+01 0 1 -1
2581 1 7.6753203352528621e+00 7.8486423508087659e+00 2.8843327253214305e+01 0 1 -2
4608 1 2.1420131963647924e+00 2.5055085102544457e+00 2.9921224290241067e+01 0 0 0
3018 1 1.1894720582675941e+01 5.4864622634100186e+00 3.5901215907017175e+01 0 1 -1
1794 1 7.5178344575261082e+00 2.5974574152414927e+00 3.3376978776839366e+01 0 0 -1
4694 1 5.2335247305991439e+00 3.8180408894029680e+00 3.2466852949546372e+01 0 1 1
1727 1 1.1884952252487771e+01 9.0299305150562308e+00 3.5616941646636235e+01 0 0 0
4521 1 9.9296991481219052e+00 3.1914211618581136e+00 3.5094559000501278e+01 1 1 -1
4599 1 1.0197999522972975e+01 3.3477695893949213e+00 3.0061670213431636e+01 0 1 0
3038 1 1.1412370168217249e+01 9.6279298561717663e+00 3.1850664160674384e+01 0 0 -1
3408 1 2.7911665006568152e+00 2.4558875380840508e+00 3.2772128973408172e+01 1 0 -1
53 1 1.3078034233865232e+00 6.0119116851870089e+00 3.0131847688186337e+01 1 0 -1
2921 1 3.1239878368372920e+00 7.6219854679345707e+00 3.1857773320789168e+01 0 0 -1
3528 1 5.0258634365069961e+00 6.3471660519624278e+00 3.3218981486414791e+01 0 1 -1
4587 1 9.4633129417141877e+00 5.0880660170465584e+00 3.2560154805773422e+01 1 0 0
2641 1 1.1484677500979718e+01 6.7664954662696752e+00 3.3046095045826696e+01 1 1 -1
3717 1 5.5979274503170995e-01 9.5956621310029124e+00 3.6259850848716582e+01 0 1 -1
3696 1 1.5812362176089942e+00 9.6530556374847958e+00 3.2766440271459956e+01 0 0 -1
3767 1 6.0837726401746259e+00 9.2518079094420429e+00 3.2398969686779282e+01 0 1 -1
50 1 5.1441549297047082e+00 9.4264217471198339e+00 3.5448951418771756e+01 1 -1 0
2046 1 1.5993439677535104e+00 1.4412586942533150e+00 3.6821137823111712e+01 1 1 0
1274 1 3.1764464340107175e+00 3.1412102100573844e+00 3.5445939217829022e+01 0 0 0
2695 1 5.6402934265179949e+00 1.7014519525300169e+00 3.5362577456320224e+01 0 1 -1
1226 1 1.7210766516773487e-01 7.0434112361087875e+00 3.3404626759554390e+01 1 0 -1
4270 1 8.9698512492505966e-01 4.4016143778160242e+00 3.2387576367508871e+01 1 0 -1
3865 1 1.1975348602779210e+01 3.0547155544398739e+00 3.2838689616731784e+01 1 1 -1
2554 1 5.7970533455877291e+00 4.3319155469646997e+00 2.9702044167456950e+01 1 2 0
2932 1 3.3330554208356040e+00 5.8361193374040310e+00 3.6157907728518566e+01 0 1 1
3724 1 8.0362074129537628e+00 7.6338494530462047e+00 3.4344049065723070e+01 0 1 -1
368 1 5.6800257525164870e+00 6.8937398917388233e+00 3.6334318451731392e+01 -1 0 0
1811 1 9.3937144846407286e+00 6.3129336740188462e+00 3.6755903400424785e+01 0 1 -1
4659 1 7.2938215423807389e+00 6.2390464062321120e+00 3.1384096693701675e+01 0 -1 -1
541 1 2.8564868702282826e+00 1.0880810283831423e+01 3.5001117581366529e+01 0 0 -1
493 1 4.9620162263271288e+00 8.5862281264038476e+00 2.9552848497904748e+01 1 0 0
1248 1 8.5522275052869272e+00 1.0070139010563159e+01 3.0992813542994988e+01 1 0 0
7 1 9.5282044639911714e+00 9.9749117785272929e+00 3.4962730158185579e+01 0 0 -1
4531 1 6.3349733401818371e+00 1.1324611951427791e+01 3.7477271349835362e+01 1 1 0
1762 1 7.5329226069364763e-01 6.8052408403804376e+00 3.6115800176748323e+01 1 0 0
3697 1 8.0416866552719153e+00 3.0154741465965407e-02 3.2274645871265534e+01 1 2 -1
2600 1 3.8156612110167405e+00 1.1609274726947030e+01 3.1607867164239803e+01 0 -1 -1
3521 1 6.7600990081295800e+00 3.4644615544194540e-01 2.9435183944414224e+01 0 0 -1
1712 1 1.0579496867302208e+01 1.2237040402218319e+01 3.3334077700112914e+01 0 1 -1
1353 1 1.0822736061847658e+01 4.7108287596403053e-01 3.5704831847262582e+01 2 0 -1
4547 1 8.9126425713804043e+00 1.0745852010282288e+01 3.7546113459150732e+01 1 1 -1
4604 1 7.1130763924499929e+00 1.9506165191638285e+00 3.7789025682392520e+01 2 1 0
2561 1 3.8857399306608849e+00 1.6022245967120639e+01 7.7764289855642561e+00 1 1 1
2952 1 1.0138900609998128e+01 1.2566030870702875e+01 7.9763357375337351e+00 1 1 0
2179 1 3.1071596588790960e+00 1.5749304347516020e+01 3.7187838283053338e+00 0 0 1
4605 1 3.1555017129404415e+00 1.3909661714588767e+01 5.7449788695461068e+00 0 1 0
108 1 6.6069092235776719e+00 1.5619108845091977e+01 3.6672355914811421e+00 0 0 0
3015 1 1.1480463074252169e+01 1.8846232838488298e+01 7.4225276163103224e+00 1 0 1
988 1 1.0417691370918357e+01 1.6474718687391764e+01 5.8126610648289070e+00 -1 0 0
3020 1 9.2465885296445087e+00 1.6392722545152836e+01 3.2289673559269430e+00 0 1 1
3844 1 1.1953174522194411e+01 1.8615072021559456e+01 4.3283269045729238e+00 1 -1 0
125 1 1.1821448899306120e+01 2.1953448462461107e+01 7.7458283521958613e+00 2 1 0
2689 1 5.7129115098469558e+00 1.7169201298546170e+01 5.7322400725057978e+00 0 0 0
1817 1 6.6213564340549196e+00 1.9730489434448728e+01 5.1123442848215435e+00 1 0 1
2598 1 8.4214459694605139e+00 1.9372546895446476e+01 2.9018464939584798e+00 0 1 1
5 1 1.0841933417460822e+01 2.1132026742230167e+01 3.6830142949515823e+00 0 0 0
1356 1 5.9962371650327038e+00 1.9376412414802068e+01 9.8042399520189321e+00 1 1 0
4568 1 4.1068665446520713e-01 1.7902432351434896e+01 4.3818667241909459e+00 1 -1 1
2647 1 6.8246031305227746e+00 1.2839865165689442e+01 4.4430885827109527e+00 1 1 0
2993 1 4.7644316647010134e+00 2.1717812392700782e+01 4.5479300509876062e+00 0 -1 1
2892 1 6.1212867195381397e+00 2.3585989992218238e+01 3.1174650070708747e+00 1 1 0
4618 1 4.5979608825866283e+00 2.2855749685560109e+01 6.9307883343296783e+00 0 0 1
3802 1 7.8369314599119777e+00 2.0626026576231705e+01 7.3463973948059342e+00 0 0 1
1326 1 9.7377040151063277e+00 2.2071656722153136e+01 6.0127525068253842e+00 1 0 0
2630 1 5.7664341814153242e-01 1.3472202798334138e+01 6.7604736857477521e+00 0 0 0
1397 1 1.1939718417505610e+01 1.4213759223338227e+01 6.4122896716320774e+00 -1 0 0
3055 1 2.3663446528028911e+00 1.3457682227082049e+01 2.1780641915126706e+00 0 0 1
92 1 1.1415352953945533e+01 1.3654784504003771e+01 1.0740701366803757e+01 1 1 0
2164 1 7.6814858325153761e+00 1.3932304121633567e+01 8.0703174387238263e+00 0 0 1
174 1 1.6948177012031165e+00 1.9241055827788955e+01 7.0109205401138546e+00 0 0 1
4622 1 1.9863106370638541e+00 1.7134207776954675e+01 9.4267116241464812e+00 0 0 2
1270 1 6.9423187813899911e+00 2.3074973367229685e+01 8.4275582602135906e+00 -1 0 1
2223 1 3.3513457794511949e+00 1.8775294045183884e+01 4.3052974157267938e+00 1 0 0
2183 1 1.2078132199691350e+01 2.3858891091839425e+01 3.7969821699815585e+00 0 -1 1
3537 1 1.1232495602023780e+01 2.1644798067959950e+01 1.0438233985864505e+01 0 1 1
4621 1 2.5285184675434165e+00 2.1333370308208618e+01 8.4485770473247737e+00 1 1 0
2984 1 5.6455681596381027e+00 1.5330573528458000e+01 9.8273666222523204e+00 0 1 1
3751 1 7.8970442464334782e+00 1.6490059767644418e+01 7.1551064174676817e+00 2 1 1
4227 1 9.2109062758528353e+00 1.8935784852936969e+01 9.1731375073151931e+00 0 -1 0
4601 1 7.6898843598256414e+00 2.3807155770272463e+01 5.6898855006012479e+00 1 0 1
4591 1 1.7343436592893893e+00 2.1183706795665856e+01 4.2811358180802888e+00 0 1 1
3778 1 5.7037496208592220e+00 1.2767379967163020e+01 6.9419122545824496e+00 1 1 0