LAMMPS data file via write_data, version 16 Mar 2018, timestep = 100000

6337 atoms
2 atom types

0.0000000000000000e+00 4.9219999999999999e+01 xlo xhi
0.0000000000000000e+00 4.9019635930410494e+01 ylo yhi
2.3925893320441958e+00 5.7669410667952299e+01 zlo zhi

Masses

1 18.015
2 12.01

Atoms # atomic

5065 1 1.7334271631701410e+00 3.2631430237636128e+00 6.7373817037862107e+00 1 0 1
3095 1 1.6563227860532101e+00 1.9500505915055961e+00 4.2323887150977058e+00 1 1 1
1547 1 6.9963363354896515e+00 2.5317168331264361e+00 6.3689136983170487e+00 1 0 0
3357 1 6.3146854803190067e+00 1.2509124808864350e+01 3.9089387491979046e+00 0 0 0
3286 1 8.5678243133154801e+00 5.8123974730826689e-01 7.6508982658573492e+00 0 0 1
4907 1 2.1862096416495613e+00 6.0346474941935107e+00 3.3282228137576513e+00 0 0 0
2877 1 1.8008067765941962e+00 6.3420519510474112e+00 6.0164547481541923e+00 0 1 1
1264 1 4.5354942669936831e+00 8.2208406972417549e+00 2.8088186585112962e+00 0 0 1
5232 1 7.6538341853486536e+00 4.2489251839258593e+00 4.2396024666100471e+00 1 1 1
1863 1 5.9232526229189491e+00 1.5478813495152892e+01 1.0030144401655658e+01 2 0 0
5230 1 8.1573015485370366e+00 6.9032563507420086e+00 5.1802859708551088e+00 1 1 1
2165 1 2.8187612757200093e+00 1.4022103445204376e+01 3.1385347757936657e+00 1 1 1
105 1 8.9694553519492786e+00 1.0416126008634500e+01 8.0289155980100890e+00 1 0 0
6082 1 2.4992751767441992e+00 1.0799649738379317e+01 6.3648505274178984e+00 0 0 1
5053 1 9.7662194556001691e-01 1.5977021068052789e+01 2.8668549302804709e+00 0 1 0
4457 1 5.7346131784751835e+00 8.2878146294686079e+00 5.3598863787360465e+00 0 1 1
3693 1 3.9046406415558126e+00 7.8631791131235440e-01 3.4616176110621990e+00 0 1 1
3130 1 2.6862670039063334e+00 1.3819374947593491e+01 6.1636977677326596e+00 -1 1 1
4902 1 4.1361086557343523e+00 5.1359051832846516e+00 1.1483138991299837e+01 1 1 1
1957 1 9.0063569377898158e+00 1.5818799057561188e+01 4.5635313314724213e+00 0 1 0
1968 1 7.4398306074280605e+00 1.3949522944870626e+01 6.0374045937529601e+00 0 1 0
5234 1 2.9790367540173164e+00 1.4018367461679995e+01 9.3638118170829756e+00 1 0 0
1663 1 1.2527367638114848e+00 4.7858549884456565e+00 1.1383595891496894e+01 0 1 0
1757 1 5.5466732281994071e+00 5.6970531641655031e-01 1.0533385053662064e+01 0 0 0
73 1 8.0231900346249336e+00 4.3152151026218943e+00 1.0607318366078870e+01 0 0 0
5233 1 4.5644950725923623e+00 3.3597696878299730e+00 7.1123636991235912e+00 1 1 1
3260 1 3.9434132062573681e+00 1.0806081966859482e+01 3.8605220858166929e+00 1 1 1
382 1 1.0543243778593527e+00 3.6565980839712614e-01 1.0719714838940236e+01 0 0 0
3238 1 4.8632192150512310e+00 5.4059963108438005e+00 8.7786800275496972e+00 0 1 0
4849 1 7.9835418776287881e+00 1.3845975991487810e+01 8.8064069427464791e+00 0 0 0
1785 1 4.0060475753667797e+00 7.6004572854023120e+00 7.3309856642067741e+00 1 1 0
3089 1 6.9198988981429710e-01 1.0100743083680028e+01 1.0110844405153355e+01 0 0 1
3418 1 3.4166813414903938e+00 9.5600015815770760e+00 8.8737651492507172e+00 1 1 0
3349 1 5.1026622553961731e+00 1.5049999454336476e+01 7.2778660941387843e+00 0 0 0
1830 1 6.2415875139701633e+00 1.0880875205898613e+01 6.6933436275432543e+00 0 1 1
4536 1 7.0843559944090462e+00 1.1430847153276524e+01 9.8950896747486503e+00 0 2 1
142 1 7.1942010646710948e+00 8.5386347770960285e+00 1.0322760366181303e+01 0 1 0
1299 1 4.9193656560680683e+00 1.1887595955631747e+01 8.6920000824436237e+00 1 0 0
3001 1 6.3136457437416400e+00 2.1505612966178067e-01 5.0334976408570080e+00 0 1 0
5164 1 4.3908796410331901e+00 6.5733054700252846e-01 8.0845233224682662e+00 1 0 0
343 1 9.0379150871188793e-02 1.5220994742294403e+01 5.6770168055395374e+00 0 1 0
4971 1 7.5952782658742670e+00 6.3746956380744919e+00 8.5210105515545109e+00 1 0 1
1690 1 1.5406951183520456e+00 7.9439071998429056e-01 7.9882586758794361e+00 0 2 0
5088 1 6.3991215139448898e-01 5.4234730256119850e+00 8.4193678030035866e+00 1 0 0
3072 1 5.3531748921996165e+00 1.4840749155484193e+01 2.6354311350613626e+00 1 0 1
6249 1 4.2574249628061500e-01 1.2847432731328867e+01 9.7608448865054811e+00 1 0 1
31 1 6.5272784490218783e-02 9.8095777142859983e+00 5.5878702949361063e+00 0 0 1
5026 1 4.6794590406427421e+00 1.7286263378937381e+00 1.5313852315680034e+01 0 1 0
1983 1 2.4831998050837223e+00 2.6044102625245871e+00 1.6712036012645136e+01 1 1 0
4667 1 1.2430802111417658e+00 4.9820527292886074e-01 1.8618463461122566e+01 0 1 1
4549 1 6.1549018579113648e+00 1.3269842384652779e+00 1.7650397689681519e+01 0 0 1
2 1 4.1060658048363918e-01 7.8076587133879709e+00 1.8503403784580570e+01 1 0 0
3216 1 8.3451472542312395e+00 1.5756966762537045e+01 1.7171298413636364e+01 0 0 0
4930 1 9.3370343803822422e+00 1.4596352485618443e+01 1.9608957922577297e+01 1 0 0
2855 1 3.1527201502567395e+00 5.3808497916608777e+00 1.5756738798594805e+01 0 1 1
4818 1 6.2791871821969707e+00 7.3053834029947851e+00 1.4309925673626077e+01 0 0 1
1715 1 1.0167876949375447e+00 6.3256799689218965e+00 1.3846918732830545e+01 1 0 1
6327 1 2.0945904204315262e+00 8.8890593555754887e+00 1.4566486162572287e+01 1 1 1
296 1 6.6892306536800881e+00 1.3218358615940071e+01 1.9504447881977352e+01 0 -1 1
1380 1 5.0280910435713162e+00 3.6461277418779448e+00 1.9261644172028440e+01 1 1 1
5969 1 8.7244426374576740e+00 4.7907631998869675e+00 1.4723566507470220e+01 0 1 0
3492 1 7.6833367912547050e+00 1.3191183635991173e+00 1.3572511408520578e+01 1 1 0
1903 1 4.5376815335522993e+00 8.3112966507780381e+00 1.6276765142573101e+01 1 1 0
3494 1 4.9128098327203054e+00 1.0997334916374253e+01 1.5906125932056622e+01 0 0 0
1783 1 6.2310581353082348e+00 1.3484309567268976e+01 1.2230356231781881e+01 0 0 0
6003 1 8.8635599893538899e+00 9.0377942614568489e+00 1.4714345863465127e+01 0 0 1
408 1 7.8924224424639604e+00 1.0591623927365331e+01 1.6639356574646779e+01 0 0 0
1755 1 6.1792224925194308e+00 3.0557587750838171e+00 1.2052883226584562e+01 0 1 0
3028 1 9.1092679294712102e+00 2.8857733239723160e+00 2.0419901377583670e+01 0 1 1
3138 1 2.9671400171739455e+00 1.4477031104512260e+01 1.8031814699130116e+01 0 0 1
1679 1 2.2975759202081458e+00 1.1707848438917130e+01 1.7386782444957284e+01 0 1 1
189 1 1.1957755726322092e+00 1.2898614337862410e+01 1.3939758548606164e+01 1 0 0
1703 1 5.3972114619372391e+00 1.3607279404994989e+01 1.6938078373160884e+01 -1 1 0
4665 1 9.1099104061347713e+00 1.1343404937929691e+01 1.9283520132122494e+01 0 0 1
6286 1 9.4626362353169533e+00 8.8119929353054101e+00 1.1839941905439920e+01 1 0 1
3491 1 3.3338604080215113e+00 7.6838896745937753e+00 1.9201462394951779e+01 1 0 1
6045 1 9.7643220786641667e+00 7.0223266159382325e+00 1.6171572219081014e+01 0 1 1
3269 1 5.6338544746750845e+00 6.3546910904792400e+00 2.0285781891002266e+01 0 0 1
17 1 2.4161823622291205e+00 5.0763329889964046e+00 1.8818257250984651e+01 -1 1 0
2031 1 8.6269565021030346e+00 4.7367036172741706e-01 1.6558778998488119e+01 0 1 0
352 1 8.4743083722157788e+00 1.3160701765662449e+01 1.5148980792269725e+01 0 0 1
5086 1 5.4943478433852577e-01 1.0508331956112499e+01 1.9097485801949176e+01 1 0 0
3512 1 7.8375476268295774e+00 3.8932300825658595e+00 1.8250900187035505e+01 1 0 0
146 1 5.7998833204458373e+00 4.5129551474116427e+00 1.4406732144602991e+01 0 0 0
4903 1 5.0755645664760065e+00 7.6779771050761410e+00 1.1860268149250626e+01 1 1 1
3109 1 6.4362945943409162e+00 8.7254189656034047e+00 1.8636748463113527e+01 0 1 1
1965 1 3.0991615488491084e+00 9.6683657701824171e+00 1.2179026669472737e+01 0 1 0
5050 1 8.9356709565304477e+00 1.3806456368380099e+01 1.1737786605124491e+01 1 0 0
6294 1 8.3905586392796785e+00 6.6551630824937105e+00 1.8441469196032095e+01 1 0 1
506 1 3.8716707794483591e+00 1.2037148452765958e+01 1.3425612253591614e+01 0 -1 1
337 1 2.3551765915734721e-01 1.1120765853727876e+01 1.5417444539910180e+01 0 0 0
1873 1 2.2064680907649667e+00 1.4962778836704485e+01 1.5367117568904410e+01 1 0 1
4917 1 6.4733969966737899e+00 1.5419452468764918e+01 1.4543352979079325e+01 1 0 0
361 1 5.7186776763904790e-01 1.7408996363530798e+00 1.4658186856552179e+01 0 0 0
5190 1 2.9113859042900292e+00 1.0254980327668530e+01 2.0815317577066519e+01 0 1 0
1572 1 1.8227026056364439e+00 4.0418237969670852e+00 2.4209193490524314e+01 -1 1 1
726 2 8.6135000000000002e+00 1.3498160618518835e+01 2.6847778600087359e+01 0 0 0
1736 1 4.0020812768357290e+00 2.2296218340191265e+00 2.4174705987402998e+01 1 1 0
679 2 6.1524999999999990e+00 1.3498160618518829e+01 2.6847778600087359e+01 0 0 0
3479 1 6.8394217862533333e+00 2.2689918400185638e+00 2.2175672997839314e+01 0 0 0
5106 1 2.9919318064409954e+00 1.4363835155238752e+01 2.4010245780118048e+01 1 0 0
3036 1 7.0747125657771759e-01 1.2539956852699838e+00 2.1737348734146053e+01 0 1 1
380 1 2.7670659130238136e+00 7.0176717333816958e+00 2.4000530343896081e+01 1 0 0
5149 1 8.8632505950258729e+00 4.3416400751025295e+00 2.4489317250259841e+01 0 0 1
3607 1 5.9768819212977453e+00 4.4763786491051851e+00 2.4271105279782248e+01 1 0 0
5004 1 5.3234410169160205e+00 6.7173433402785800e+00 2.3098426745193564e+01 0 1 1
1920 1 2.6312383081607145e+00 9.8992410439104557e+00 2.3537654256180225e+01 1 1 0
3449 1 5.3841843310268134e+00 1.0606705488452558e+01 2.4142431098328370e+01 1 0 0
5213 1 9.3456827900079311e+00 1.5520495844758980e+01 2.3870438727112155e+01 0 1 0
4915 1 9.7004643654201743e+00 6.7711942621345784e+00 2.3679821480252976e+01 0 0 0
40 1 7.2071698062862373e+00 8.4448501709407360e+00 2.4084741104557878e+01 -1 1 0
2874 1 8.4631532242291758e+00 9.9154521304601140e+00 2.1821220835319057e+01 0 -1 1
1815 1 9.5965409414040206e+00 3.2412452723610130e-01 2.1642802103036260e+01 0 0 0
5137 1 6.2004019174668006e+00 1.5294334308498925e+01 2.1219477791749156e+01 0 -1 0
675 2 4.9220000000000006e+00 1.5629449137232333e+01 2.6847778600087359e+01 0 0 0
1554 1 5.7398083991693838e+00 1.1186595509151349e+01 2.1486641801701193e+01 0 0 0
5032 1 1.5861480083370734e+00 3.8852609302043968e+00 2.1375101680226543e+01 1 1 0
4948 1 1.2806605417984034e+00 7.1022571285122469e+00 2.1548120158620346e+01 0 1 0
1856 1 5.4089300926557335e+00 1.3282095399322483e+01 2.4570378119532037e+01 1 0 0
2037 1 3.5408804082676317e+00 1.4353284949586101e+01 2.1235408041951217e+01 1 0 0
554 2 0.0000000000000000e+00 2.8417180249513345e+00 2.6847778600087359e+01 0 0 0
556 2 0.0000000000000000e+00 0.0000000000000000e+00 2.6847778600087359e+01 0 0 0
558 2 1.2305000000000001e+00 7.1042950623783474e-01 2.6847778600087359e+01 0 0 0
565 2 1.2305000000000001e+00 2.1312885187134998e+00 2.6847778600087359e+01 0 0 0
567 2 2.4610000000000003e+00 2.8417180249513345e+00 2.6847778600087359e+01 0 0 0
569 2 2.4610000000000003e+00 0.0000000000000000e+00 2.6847778600087359e+01 0 0 0
571 2 3.6915000000000004e+00 7.1042950623783474e-01 2.6847778600087359e+01 0 0 0
586 2 3.6914999999999996e+00 2.1312885187134998e+00 2.6847778600087359e+01 0 0 0
588 2 4.9220000000000006e+00 2.8417180249513332e+00 2.6847778600087359e+01 0 0 0
590 2 4.9220000000000006e+00 0.0000000000000000e+00 2.6847778600087359e+01 0 0 0
592 2 6.1524999999999999e+00 7.1042950623783407e-01 2.6847778600087359e+01 0 0 0
615 2 6.1524999999999999e+00 2.1312885187134989e+00 2.6847778600087359e+01 0 0 0
617 2 7.3829999999999991e+00 2.8417180249513345e+00 2.6847778600087359e+01 0 0 0
619 2 7.3829999999999991e+00 0.0000000000000000e+00 2.6847778600087359e+01 0 0 0
621 2 8.6134999999999984e+00 7.1042950623783407e-01 2.6847778600087359e+01 0 0 0
652 2 8.6134999999999984e+00 2.1312885187135002e+00 2.6847778600087359e+01 0 0 0
561 2 0.0000000000000000e+00 4.2625770374269996e+00 2.6847778600087359e+01 0 0 0
563 2 1.2305000000000001e+00 4.9730065436648339e+00 2.6847778600087359e+01 0 0 0
578 2 1.2305000000000001e+00 6.3938655561404980e+00 2.6847778600087359e+01 0 0 0
582 2 2.4610000000000003e+00 4.2625770374269996e+00 2.6847778600087359e+01 0 0 0
584 2 3.6914999999999996e+00 4.9730065436648339e+00 2.6847778600087359e+01 0 0 0
607 2 3.6914999999999996e+00 6.3938655561404980e+00 2.6847778600087359e+01 0 0 0
559 2 0.0000000000000000e+00 7.1042950623783341e+00 2.6847778600087359e+01 0 0 0
580 2 2.4610000000000003e+00 7.1042950623783341e+00 2.6847778600087359e+01 0 0 0
611 2 4.9220000000000006e+00 4.2625770374269978e+00 2.6847778600087359e+01 0 0 0
613 2 6.1524999999999999e+00 4.9730065436648339e+00 2.6847778600087359e+01 0 0 0
644 2 6.1524999999999999e+00 6.3938655561404980e+00 2.6847778600087359e+01 0 0 0
648 2 7.3829999999999991e+00 4.2625770374269996e+00 2.6847778600087359e+01 0 0 0
650 2 8.6135000000000002e+00 4.9730065436648339e+00 2.6847778600087359e+01 0 0 0
689 2 8.6135000000000002e+00 6.3938655561404980e+00 2.6847778600087359e+01 0 0 0
609 2 4.9220000000000006e+00 7.1042950623783341e+00 2.6847778600087359e+01 0 0 0
646 2 7.3830000000000009e+00 7.1042950623783341e+00 2.6847778600087359e+01 0 0 0
574 2 0.0000000000000000e+00 8.5251540748539991e+00 2.6847778600087359e+01 0 0 0
576 2 1.2305000000000001e+00 9.2355835810918343e+00 2.6847778600087359e+01 0 0 0
603 2 2.4610000000000003e+00 8.5251540748539991e+00 2.6847778600087359e+01 0 0 0
605 2 3.6915000000000004e+00 9.2355835810918343e+00 2.6847778600087359e+01 0 0 0
572 2 0.0000000000000000e+00 1.1366872099805333e+01 2.6847778600087359e+01 0 0 0
599 2 1.2305000000000001e+00 1.0656442593567498e+01 2.6847778600087359e+01 0 0 0
601 2 2.4610000000000003e+00 1.1366872099805333e+01 2.6847778600087359e+01 0 0 0
636 2 3.6914999999999996e+00 1.0656442593567499e+01 2.6847778600087359e+01 0 0 0
640 2 4.9220000000000006e+00 8.5251540748539991e+00 2.6847778600087359e+01 0 0 0
642 2 6.1524999999999999e+00 9.2355835810918343e+00 2.6847778600087359e+01 0 0 0
685 2 7.3830000000000009e+00 8.5251540748539991e+00 2.6847778600087359e+01 0 0 0
687 2 8.6134999999999984e+00 9.2355835810918343e+00 2.6847778600087359e+01 0 0 0
638 2 4.9220000000000006e+00 1.1366872099805333e+01 2.6847778600087359e+01 0 0 0
681 2 6.1524999999999999e+00 1.0656442593567499e+01 2.6847778600087359e+01 0 0 0
683 2 7.3829999999999991e+00 1.1366872099805333e+01 2.6847778600087359e+01 0 0 0
728 2 8.6134999999999984e+00 1.0656442593567498e+01 2.6847778600087359e+01 0 0 0
628 2 1.2305000000000001e+00 1.4919019630994494e+01 2.6847778600087359e+01 0 0 0
630 2 2.4610000000000003e+00 1.5629449137232328e+01 2.6847778600087359e+01 0 0 0
673 2 3.6915000000000004e+00 1.4919019630994494e+01 2.6847778600087359e+01 0 0 0
595 2 0.0000000000000000e+00 1.2787731112280996e+01 2.6847778600087359e+01 0 0 0
597 2 1.2305000000000001e+00 1.3498160618518829e+01 2.6847778600087359e+01 0 0 0
632 2 2.4610000000000003e+00 1.2787731112280996e+01 2.6847778600087359e+01 0 0 0
634 2 3.6915000000000004e+00 1.3498160618518829e+01 2.6847778600087359e+01 0 0 0
593 2 0.0000000000000000e+00 1.5629449137232333e+01 2.6847778600087359e+01 0 0 0
767 2 8.6135000000000002e+00 1.4919019630994494e+01 2.6847778600087359e+01 0 0 0
724 2 7.3829999999999991e+00 1.2787731112280996e+01 2.6847778600087359e+01 0 0 0
722 2 7.3829999999999991e+00 1.5629449137232333e+01 2.6847778600087359e+01 0 0 0
720 2 6.1524999999999990e+00 1.4919019630994494e+01 2.6847778600087359e+01 0 0 0
677 2 4.9220000000000006e+00 1.2787731112280996e+01 2.6847778600087359e+01 0 0 0
3650 1 6.5776788664387844e+00 1.6104865329814018e+01 2.4114552559746475e+01 0 0 0
3487 1 7.6381425387995261e+00 7.3443186628604373e-01 2.4380297889320186e+01 0 0 0
1650 1 4.0312562196152673e+00 2.1469676906837694e+00 2.1206783667981373e+01 0 0 1
4973 1 9.4676452230160937e+00 1.0710679964708119e+01 2.4363621533551694e+01 0 0 1
518 1 9.5147657134291930e-01 1.2821349140068378e+01 2.1578323230726379e+01 1 0 0
271 1 2.2647463762206965e-01 1.2927228458584619e+01 2.4498810469218697e+01 0 0 0
555 2 0.0000000000000000e+00 1.4208590124756650e+00 3.0030999999998279e+01 0 0 0
557 2 0.0000000000000000e+00 0.0000000000000000e+00 3.0030999999998279e+01 0 0 0
566 2 1.2305000000000001e+00 2.1312885187134998e+00 3.0030999999998279e+01 0 0 0
568 2 2.4610000000000003e+00 1.4208590124756650e+00 3.0030999999998279e+01 0 0 0
570 2 2.4610000000000003e+00 0.0000000000000000e+00 3.0030999999998279e+01 0 0 0
587 2 3.6914999999999996e+00 2.1312885187134998e+00 3.0030999999998279e+01 0 0 0
564 2 1.2305000000000001e+00 3.5521475311891644e+00 3.0030999999998279e+01 0 0 0
585 2 3.6914999999999996e+00 3.5521475311891644e+00 3.0030999999998279e+01 0 0 0
883 2 0.0000000000000000e+00 2.8417180249513345e+00 3.3214221399908354e+01 0 0 0
884 2 0.0000000000000000e+00 0.0000000000000000e+00 3.3214221399908354e+01 0 0 0
885 2 1.2305000000000001e+00 7.1042950623783474e-01 3.3214221399908354e+01 0 0 0
889 2 1.2305000000000001e+00 2.1312885187134998e+00 3.3214221399908354e+01 0 0 0
890 2 2.4610000000000003e+00 2.8417180249513345e+00 3.3214221399908354e+01 0 0 0
891 2 2.4610000000000003e+00 0.0000000000000000e+00 3.3214221399908354e+01 0 0 0
892 2 3.6915000000000004e+00 7.1042950623783474e-01 3.3214221399908354e+01 0 0 0
900 2 3.6914999999999996e+00 2.1312885187134998e+00 3.3214221399908354e+01 0 0 0
589 2 4.9220000000000006e+00 1.4208590124756650e+00 3.0030999999998279e+01 0 0 0
591 2 4.9220000000000006e+00 0.0000000000000000e+00 3.0030999999998279e+01 0 0 0
616 2 6.1524999999999999e+00 2.1312885187134989e+00 3.0030999999998279e+01 0 0 0
618 2 7.3829999999999991e+00 1.4208590124756659e+00 3.0030999999998279e+01 0 0 0
620 2 7.3829999999999991e+00 0.0000000000000000e+00 3.0030999999998279e+01 0 0 0
653 2 8.6134999999999984e+00 2.1312885187135002e+00 3.0030999999998279e+01 0 0 0
614 2 6.1524999999999999e+00 3.5521475311891644e+00 3.0030999999998279e+01 0 0 0
651 2 8.6134999999999984e+00 3.5521475311891657e+00 3.0030999999998279e+01 0 0 0
901 2 4.9220000000000006e+00 2.8417180249513332e+00 3.3214221399908354e+01 0 0 0
902 2 4.9220000000000006e+00 0.0000000000000000e+00 3.3214221399908354e+01 0 0 0
903 2 6.1524999999999999e+00 7.1042950623783407e-01 3.3214221399908354e+01 0 0 0
915 2 6.1524999999999999e+00 2.1312885187134989e+00 3.3214221399908354e+01 0 0 0
916 2 7.3829999999999991e+00 2.8417180249513345e+00 3.3214221399908354e+01 0 0 0
917 2 7.3829999999999991e+00 0.0000000000000000e+00 3.3214221399908354e+01 0 0 0
918 2 8.6134999999999984e+00 7.1042950623783407e-01 3.3214221399908354e+01 0 0 0
934 2 8.6134999999999984e+00 2.1312885187135002e+00 3.3214221399908354e+01 0 0 0
560 2 0.0000000000000000e+00 5.6834360499026637e+00 3.0030999999998279e+01 0 0 0
562 2 0.0000000000000000e+00 4.2625770374269996e+00 3.0030999999998279e+01 0 0 0
579 2 1.2305000000000001e+00 6.3938655561404980e+00 3.0030999999998279e+01 0 0 0
581 2 2.4610000000000003e+00 5.6834360499026637e+00 3.0030999999998279e+01 0 0 0
583 2 2.4610000000000003e+00 4.2625770374269996e+00 3.0030999999998279e+01 0 0 0
608 2 3.6914999999999996e+00 6.3938655561404980e+00 3.0030999999998279e+01 0 0 0
577 2 1.2305000000000001e+00 7.8147245686161639e+00 3.0030999999998279e+01 0 0 0
606 2 3.6914999999999996e+00 7.8147245686161639e+00 3.0030999999998279e+01 0 0 0
887 2 0.0000000000000000e+00 4.2625770374269996e+00 3.3214221399908354e+01 0 0 0
888 2 1.2305000000000001e+00 4.9730065436648339e+00 3.3214221399908354e+01 0 0 0
896 2 1.2305000000000001e+00 6.3938655561404980e+00 3.3214221399908354e+01 0 0 0
898 2 2.4610000000000003e+00 4.2625770374269996e+00 3.3214221399908354e+01 0 0 0
899 2 3.6914999999999996e+00 4.9730065436648339e+00 3.3214221399908354e+01 0 0 0
911 2 3.6914999999999996e+00 6.3938655561404980e+00 3.3214221399908354e+01 0 0 0
886 2 0.0000000000000000e+00 7.1042950623783341e+00 3.3214221399908354e+01 0 0 0
897 2 2.4610000000000003e+00 7.1042950623783341e+00 3.3214221399908354e+01 0 0 0
610 2 4.9220000000000006e+00 5.6834360499026637e+00 3.0030999999998279e+01 0 0 0
612 2 4.9220000000000006e+00 4.2625770374269978e+00 3.0030999999998279e+01 0 0 0
645 2 6.1524999999999999e+00 6.3938655561404980e+00 3.0030999999998279e+01 0 0 0
647 2 7.3829999999999991e+00 5.6834360499026637e+00 3.0030999999998279e+01 0 0 0
649 2 7.3829999999999991e+00 4.2625770374269996e+00 3.0030999999998279e+01 0 0 0
690 2 8.6135000000000002e+00 6.3938655561404980e+00 3.0030999999998279e+01 0 0 0
643 2 6.1524999999999999e+00 7.8147245686161639e+00 3.0030999999998279e+01 0 0 0
688 2 8.6135000000000002e+00 7.8147245686161639e+00 3.0030999999998279e+01 0 0 0
913 2 4.9220000000000006e+00 4.2625770374269978e+00 3.3214221399908354e+01 0 0 0
914 2 6.1524999999999999e+00 4.9730065436648339e+00 3.3214221399908354e+01 0 0 0
930 2 6.1524999999999999e+00 6.3938655561404980e+00 3.3214221399908354e+01 0 0 0
932 2 7.3829999999999991e+00 4.2625770374269996e+00 3.3214221399908354e+01 0 0 0
933 2 8.6135000000000002e+00 4.9730065436648339e+00 3.3214221399908354e+01 0 0 0
953 2 8.6135000000000002e+00 6.3938655561404980e+00 3.3214221399908354e+01 0 0 0
912 2 4.9220000000000006e+00 7.1042950623783341e+00 3.3214221399908354e+01 0 0 0
931 2 7.3830000000000009e+00 7.1042950623783341e+00 3.3214221399908354e+01 0 0 0
573 2 0.0000000000000000e+00 9.9460130873296642e+00 3.0030999999998279e+01 0 0 0
575 2 0.0000000000000000e+00 8.5251540748539991e+00 3.0030999999998279e+01 0 0 0
602 2 2.4610000000000003e+00 9.9460130873296642e+00 3.0030999999998279e+01 0 0 0
604 2 2.4610000000000003e+00 8.5251540748539991e+00 3.0030999999998279e+01 0 0 0
598 2 1.2305000000000001e+00 1.2077301606043163e+01 3.0030999999998279e+01 0 0 0
600 2 1.2305000000000001e+00 1.0656442593567498e+01 3.0030999999998279e+01 0 0 0
635 2 3.6914999999999996e+00 1.2077301606043163e+01 3.0030999999998279e+01 0 0 0
637 2 3.6914999999999996e+00 1.0656442593567499e+01 3.0030999999998279e+01 0 0 0
894 2 0.0000000000000000e+00 8.5251540748539991e+00 3.3214221399908354e+01 0 0 0
895 2 1.2305000000000001e+00 9.2355835810918343e+00 3.3214221399908354e+01 0 0 0
909 2 2.4610000000000003e+00 8.5251540748539991e+00 3.3214221399908354e+01 0 0 0
910 2 3.6915000000000004e+00 9.2355835810918343e+00 3.3214221399908354e+01 0 0 0
893 2 0.0000000000000000e+00 1.1366872099805333e+01 3.3214221399908354e+01 0 0 0
907 2 1.2305000000000001e+00 1.0656442593567498e+01 3.3214221399908354e+01 0 0 0
908 2 2.4610000000000003e+00 1.1366872099805333e+01 3.3214221399908354e+01 0 0 0
926 2 3.6914999999999996e+00 1.0656442593567499e+01 3.3214221399908354e+01 0 0 0
639 2 4.9220000000000006e+00 9.9460130873296642e+00 3.0030999999998279e+01 0 0 0
641 2 4.9220000000000006e+00 8.5251540748539991e+00 3.0030999999998279e+01 0 0 0
684 2 7.3830000000000009e+00 9.9460130873296642e+00 3.0030999999998279e+01 0 0 0
686 2 7.3830000000000009e+00 8.5251540748539991e+00 3.0030999999998279e+01 0 0 0
680 2 6.1524999999999999e+00 1.2077301606043163e+01 3.0030999999998279e+01 0 0 0
682 2 6.1524999999999999e+00 1.0656442593567499e+01 3.0030999999998279e+01 0 0 0
727 2 8.6135000000000002e+00 1.2077301606043163e+01 3.0030999999998279e+01 0 0 0
729 2 8.6134999999999984e+00 1.0656442593567498e+01 3.0030999999998279e+01 0 0 0
928 2 4.9220000000000006e+00 8.5251540748539991e+00 3.3214221399908354e+01 0 0 0
929 2 6.1524999999999999e+00 9.2355835810918343e+00 3.3214221399908354e+01 0 0 0
951 2 7.3830000000000009e+00 8.5251540748539991e+00 3.3214221399908354e+01 0 0 0
952 2 8.6134999999999984e+00 9.2355835810918343e+00 3.3214221399908354e+01 0 0 0
927 2 4.9220000000000006e+00 1.1366872099805333e+01 3.3214221399908354e+01 0 0 0
949 2 6.1524999999999999e+00 1.0656442593567499e+01 3.3214221399908354e+01 0 0 0
950 2 7.3829999999999991e+00 1.1366872099805333e+01 3.3214221399908354e+01 0 0 0
973 2 8.6134999999999984e+00 1.0656442593567498e+01 3.3214221399908354e+01 0 0 0
596 2 0.0000000000000000e+00 1.2787731112280996e+01 3.0030999999998279e+01 0 0 0
633 2 2.4610000000000003e+00 1.2787731112280996e+01 3.0030999999998279e+01 0 0 0
594 2 0.0000000000000000e+00 1.4208590124756663e+01 3.0030999999998279e+01 0 0 0
629 2 1.2305000000000001e+00 1.4919019630994494e+01 3.0030999999998279e+01 0 0 0
631 2 2.4610000000000003e+00 1.4208590124756663e+01 3.0030999999998279e+01 0 0 0
674 2 3.6915000000000004e+00 1.4919019630994494e+01 3.0030999999998279e+01 0 0 0
905 2 0.0000000000000000e+00 1.2787731112280996e+01 3.3214221399908354e+01 0 0 0
906 2 1.2305000000000001e+00 1.3498160618518829e+01 3.3214221399908354e+01 0 0 0
924 2 2.4610000000000003e+00 1.2787731112280996e+01 3.3214221399908354e+01 0 0 0
925 2 3.6915000000000004e+00 1.3498160618518829e+01 3.3214221399908354e+01 0 0 0
904 2 0.0000000000000000e+00 1.5629449137232333e+01 3.3214221399908354e+01 0 0 0
922 2 1.2305000000000001e+00 1.4919019630994494e+01 3.3214221399908354e+01 0 0 0
923 2 2.4610000000000003e+00 1.5629449137232328e+01 3.3214221399908354e+01 0 0 0
945 2 3.6915000000000004e+00 1.4919019630994494e+01 3.3214221399908354e+01 0 0 0
678 2 4.9220000000000006e+00 1.2787731112280996e+01 3.0030999999998279e+01 0 0 0
725 2 7.3829999999999991e+00 1.2787731112280996e+01 3.0030999999998279e+01 0 0 0
676 2 4.9220000000000006e+00 1.4208590124756663e+01 3.0030999999998279e+01 0 0 0
721 2 6.1524999999999990e+00 1.4919019630994494e+01 3.0030999999998279e+01 0 0 0
723 2 7.3830000000000009e+00 1.4208590124756663e+01 3.0030999999998279e+01 0 0 0
768 2 8.6135000000000002e+00 1.4919019630994494e+01 3.0030999999998279e+01 0 0 0
947 2 4.9220000000000006e+00 1.2787731112280996e+01 3.3214221399908354e+01 0 0 0
948 2 6.1524999999999990e+00 1.3498160618518829e+01 3.3214221399908354e+01 0 0 0
971 2 7.3829999999999991e+00 1.2787731112280996e+01 3.3214221399908354e+01 0 0 0
972 2 8.6135000000000002e+00 1.3498160618518835e+01 3.3214221399908354e+01 0 0 0
946 2 4.9220000000000006e+00 1.5629449137232333e+01 3.3214221399908354e+01 0 0 0
969 2 6.1524999999999990e+00 1.4919019630994494e+01 3.3214221399908354e+01 0 0 0
970 2 7.3829999999999991e+00 1.5629449137232333e+01 3.3214221399908354e+01 0 0 0
993 2 8.6135000000000002e+00 1.4919019630994494e+01 3.3214221399908354e+01 0 0 0
39 1 1.2374631142826897e+00 8.3100186812826915e-01 3.5795340568482366e+01 1 0 0
2893 1 2.5230446714271970e+00 1.1805392371675048e+01 3.7910967793492006e+01 0 0 0
5238 1 1.8557474959794040e+00 3.6014897495094029e+00 3.6463711004526353e+01 1 0 0
68 1 7.8440058921276652e+00 8.4608781005683422e+00 3.5734655155008383e+01 0 0 0
2930 1 5.8901360729001055e+00 2.0859482552526112e+00 3.6655302110077876e+01 1 1 0
2925 1 8.5060385860721102e+00 2.7326010110221444e+00 3.5566966047142124e+01 1 1 -1
5183 1 4.1562587240451352e+00 1.4244509607078369e+01 3.5397104399981330e+01 1 0 0
1532 1 3.1954417346577846e+00 1.4672572118027325e+01 3.8361953640641161e+01 0 0 0
3000 1 6.1177380564447770e+00 1.4448684334802502e+01 3.9222021273425312e+01 1 1 0
6039 1 5.6357625791407395e+00 6.8550176055413070e+00 3.6765387829789518e+01 0 0 0
1921 1 4.4391739963611601e+00 4.1630490684155426e+00 3.5905925827000232e+01 0 1 -1
1251 1 2.0297954380526959e+00 1.6045456852050567e+01 3.5796906097829634e+01 0 1 0
1538 1 9.1886955312187020e+00 1.2962500523799722e+01 3.5810804462997417e+01 0 0 -1
4597 1 1.8893953679481271e-01 5.3274237353472600e+00 3.5383007918121400e+01 0 1 -1
4829 1 6.8858279084492064e+00 1.4648645269517710e+01 3.6364951364282696e+01 1 1 -1
59 1 1.4921532051595188e+00 7.5711227657257929e+00 3.6390002674071887e+01 1 0 -1
3634 1 3.9931511360938146e+00 8.6118043973818139e+00 3.5753276611616585e+01 1 0 0
4679 1 4.4846078296672607e+00 1.1404691258981137e+01 3.6123690556203890e+01 1 1 0
1764 1 7.2309651729852016e+00 1.0437919268908951e+01 3.8766853675579313e+01 1 0 0
5249 1 7.1696637794294800e+00 1.1020758183021270e+01 3.6238194821694321e+01 1 0 -1
4469 1 1.4618938741530130e+00 4.2210807424853725e+00 3.8999570221496711e+01 1 1 0
3062 1 1.7277486880327153e-01 1.1652112115934518e+01 3.6522312001264055e+01 0 0 0
3521 1 1.4912371402579450e+00 7.1890517746308573e+00 3.9205921872872011e+01 1 2 -1
490 1 9.0458499993749992e+00 1.3903225796305245e+01 3.9051210714409400e+01 0 0 0
2145 1 8.4272337737038061e-01 1.4744997477749939e+01 4.0268696890146956e+01 1 0 0
2975 1 2.5824095548631681e-01 2.0050180144295826e+00 4.0204945005113402e+01 0 1 0
6181 1 2.9455629627157793e+00 7.2060485063580004e-01 4.0295873659392356e+01 1 0 0
3270 1 7.2496687740036601e+00 1.4910906043693921e+00 4.1332916100743958e+01 1 0 -1
4583 1 4.1329927675522695e+00 5.0023859390826084e+00 4.2913517990011229e+01 0 1 0
6098 1 4.3147962811246536e+00 2.8627047816978139e+00 4.8324718153646955e+01 -1 0 0
1932 1 3.4979843384332541e+00 7.6900262864755193e+00 4.3585113554358550e+01 0 1 -1
1516 1 4.1267519632533238e+00 4.6024348354623053e+00 4.0161569967767910e+01 0 0 -1
4600 1 6.5038274912783471e+00 4.5926027356270955e+00 4.4284195555555222e+01 1 1 0
1678 1 8.1808257257971260e+00 6.3411490245120801e+00 4.2612815244912952e+01 0 1 -1
1579 1 1.0055975503043497e+00 7.7062994116110213e+00 4.4307775216534203e+01 0 0 -1
4732 1 3.3530078435374540e+00 8.5479341875035892e+00 4.0873539995563966e+01 0 1 -1
4894 1 2.7740697478723537e+00 1.1302952365624627e+01 4.0563335428240222e+01 1 1 0
2984 1 7.3047540753524682e+00 1.0222396085655390e+01 4.2517130476028107e+01 1 1 0
545 1 5.9275659868509489e-01 2.7647075828311518e-01 4.7498415805773483e+01 1 0 0
1502 1 5.7310730232429012e+00 1.1964642668647274e+01 4.0502577188042729e+01 0 1 -1
471 1 9.2726330208692751e+00 8.4626568423322421e+00 4.3788677251741866e+01 0 0 0
6173 1 4.1366717601310716e+00 1.4038631204912161e+01 4.4110147410488359e+01 1 1 0
1631 1 4.4484537006738663e+00 1.3409505032692703e+01 4.6873188454442804e+01 1 0 0
1544 1 8.6787306308615086e-02 1.0336017390188028e+00 4.3209832362705697e+01 0 1 0
3711 1 8.1326635448376745e+00 1.2453678445423970e+01 4.7327993401009557e+01 0 1 0
2857 1 7.6247328155840091e+00 1.6010890870829169e+01 4.6517275727758282e+01 1 0 0
4547 1 8.0641586887905401e+00 1.2875432942435177e+01 4.1918562416535586e+01 1 0 0
1832 1 6.1152751096201836e+00 1.5156853990182020e+01 4.2033682180292956e+01 1 0 -1
268 1 5.3007182622957183e+00 2.1134622673138423e+00 3.9468692297109577e+01 1 0 0
2915 1 5.7918064185247191e+00 1.0931730017354544e+01 4.6959284013591777e+01 1 1 -1
4769 1 3.8510406759066229e+00 1.4746128987576079e+00 4.4540170770130821e+01 0 0 0
1292 1 9.5825937677242230e+00 2.7573129111303607e+00 4.0696669038597491e+01 1 1 0
4977 1 6.5859109479349600e+00 1.6521437773690000e+00 4.3998205813965384e+01 1 1 -1