LAMMPS data file via write_data, version 16 Mar 2018, timestep = 6000000

6337 atoms
2 atom types

0.0000000000000000e+00 4.9219999999999999e+01 xlo xhi
0.0000000000000000e+00 4.9019635930410494e+01 ylo yhi
1.5710331443441028e+00 5.8490966855646029e+01 zlo zhi

Masses

1 18.015
2 12.01

Atoms # atomic

1937 1 3.9665845895429084e+00 2.5421605628801243e+00 3.5116440168307723e+00 2 1 0
6294 1 1.3786183018118188e+00 8.9780539002471893e-01 3.0497031735876785e+00 3 2 1
306 1 8.4274383820234373e+00 2.3566628590013150e+00 3.1846242071249735e+00 2 1 0
1376 1 5.9693822447907960e+00 8.1255395460034452e-01 2.3273901182199901e+00 4 2 1
490 1 8.2290229338970988e+00 2.5286830666617490e+00 5.8384403062460883e+00 3 1 1
6119 1 1.3420575515098032e+00 6.2211735805663633e+00 3.3878856465351168e+00 1 1 0
2159 1 3.5147228948742248e+00 4.9808188814658632e+00 2.5626356176034371e+00 3 2 1
4974 1 9.5288784097738066e-01 6.1447227253574290e+00 6.0738222820351950e+00 -1 3 1
3016 1 7.9940974202335902e+00 5.0002545364558237e+00 2.3792815103922877e+00 1 0 1
200 1 5.8691735531762248e+00 6.5704592074553183e+00 3.4892816086219183e+00 -3 3 0
1303 1 5.9444432460223444e+00 5.8826946885179012e+00 6.4873517341123828e+00 -3 2 1
3232 1 1.5195427571264062e+00 8.7420169032245081e+00 2.1916091465235668e+00 -1 1 0
392 1 3.8236203920298020e+00 1.0205236769349330e+01 3.1962279775136371e+00 0 1 1
1965 1 3.8407475597759011e+00 1.0075351519327347e+01 5.8281952990695363e+00 1 -1 0
2921 1 7.9725208938973413e+00 1.0346723904019573e+01 3.4753779020822089e+00 2 0 1
1824 1 6.0275844092712791e+00 8.8904579343380288e+00 2.3788934161452486e+00 2 2 0
2095 1 8.2615859245470009e+00 1.0384874231894088e+01 6.1538184832715661e+00 -1 -1 0
3601 1 1.3956444497511671e+00 1.4420031274414535e+01 2.8091129418636909e+00 1 1 0
3721 1 1.5964800476200076e+00 1.4275270242523581e+01 5.7020898912930518e+00 -1 3 1
5011 1 3.8032404483810121e+00 1.2964524562782772e+01 2.0664989140313090e+00 2 0 0
5220 1 5.9606673427879473e+00 1.4395246513841474e+01 2.7548664622836774e+00 -1 -3 0
4731 1 5.9357240030282599e+00 1.4188060075402699e+01 5.5445024798147635e+00 1 1 1
477 1 8.2437494192840077e+00 1.3191120154916005e+01 2.1506783265677898e+00 1 -1 0
6135 1 3.9923130199604344e+00 2.4148165111450886e+00 6.1870182240214380e+00 1 -1 1
3568 1 1.2704328197234112e+00 3.8309534206531537e+00 9.8443423865629764e+00 -1 -2 0
6176 1 1.3507238453697994e+00 3.2994440460570158e+00 6.9368989048176326e+00 2 1 1
493 1 8.1900920414438314e+00 1.3124389854341260e+01 1.0700408028894591e+01 1 -1 1
1282 1 7.7850594392306416e+00 1.5425107206051548e+01 9.4963873590165822e+00 1 1 1
285 1 6.1408443897514093e+00 3.4564823624426739e+00 7.1275009211927634e+00 3 -5 0
176 1 6.0639571622381832e+00 4.2254091298476295e+00 9.7831400767694934e+00 1 -2 0
6057 1 8.1118765771274308e+00 1.5621007241742840e+01 6.6796015309438665e+00 2 0 1
3574 1 3.5365598305138111e+00 4.9987043054408637e+00 1.0778540036874016e+01 -2 0 0
3622 1 3.5989888666668883e+00 7.4386162678623267e+00 6.9486328464050491e+00 1 0 1
5998 1 3.6839726032673679e+00 7.7839517902874054e+00 9.8264302293368804e+00 -1 -2 1
3104 1 3.9200949757326704e+00 1.5674558696377742e+01 6.4544700509208175e+00 1 0 1
2859 1 8.1752581872362313e+00 7.6134859779280557e+00 7.0090675435487020e+00 -1 0 1
6056 1 8.2099080779586071e+00 7.9509682283777696e+00 9.5994109643805405e+00 2 3 0
4601 1 1.5421311129530715e+00 9.4189857615120314e+00 1.0271050887914088e+01 -1 2 1
2136 1 1.3583997356439796e+00 1.1660418019301085e+01 6.8302634713506247e+00 0 3 1
1939 1 1.4580791834450995e+00 1.2077190527571350e+01 9.5319464869210577e+00 1 2 0
2127 1 5.9756195814088446e+00 9.0422829403665279e+00 1.0507342667325391e+01 1 -1 1
2044 1 6.1256404465938257e+00 1.1518622539372075e+01 6.8225795728645764e+00 0 0 0
6085 1 6.1143685732853870e+00 1.1786007147997180e+01 9.4010983818052569e+00 0 1 1
5229 1 3.6903014597243864e+00 1.5965039476381905e+01 9.3036074456259250e+00 0 -1 1
5063 1 3.9287027593146444e+00 1.3287273996197994e+01 9.9729971992449684e+00 -1 3 0
4903 1 5.9307238948030996e+00 1.5822708545496231e+00 1.0666085065416015e+01 0 5 1
4967 1 8.3244200916511080e+00 5.3140092063996311e+00 1.0636683271167051e+01 0 5 0
257 1 1.2192557774890467e+00 1.4131154825053258e+00 1.0901315799059461e+01 0 2 0
5077 1 8.3313878605143525e+00 4.1590023422410964e-02 6.8685514584053022e+00 2 1 0
2031 1 8.1380730460844273e+00 7.9282247661850005e-02 9.8493277500425780e+00 2 1 0
2072 1 3.6044533105425334e+00 1.9864659256209968e-01 9.9352018189238045e+00 2 1 0
6118 1 1.3798335018265755e+00 1.4775162024476045e+00 1.3715659328578981e+01 4 2 0
545 1 3.2602358672419562e+00 1.5762389000808456e+01 1.3818331653057184e+01 2 0 1
280 1 6.0385067980907063e+00 1.5810355092416277e+00 1.3557879552304716e+01 -1 -2 1
4886 1 5.5297451988466060e+00 4.2395964601965117e+00 1.4380243989941057e+01 1 -1 0
4595 1 7.8456299886365182e+00 1.5917970527344346e+01 1.3785560503362467e+01 1 -2 0
1594 1 8.4787131600880394e-01 4.0888073653255175e+00 1.4705447940188078e+01 1 1 1
3422 1 3.2330945892176466e+00 5.0800268621968012e+00 1.3432824722828656e+01 -1 4 0
3135 1 3.4562210206648110e+00 7.9551888925921803e+00 1.3938140343840406e+01 -1 3 1
1620 1 6.2057697302194565e+00 1.5008742786816986e+01 1.7375596322677602e+01 -2 -1 0
4914 1 7.6685123112559932e+00 5.4995811029744379e+00 1.3335549481797658e+01 1 3 0
5041 1 8.1350215725003281e+00 7.9325192467495844e+00 1.4521211524539570e+01 2 0 0
3098 1 1.4247856339932987e+00 9.6308155688429711e+00 1.3223542970546047e+01 3 -1 0
3386 1 1.3729480172206008e+00 1.2276096933849761e+01 1.4026564628191895e+01 1 -1 0
1329 1 5.7690765968723179e+00 9.1703630331434205e+00 1.3316569021576161e+01 -3 2 1
5000 1 5.8394240329920883e+00 1.1929940359814175e+01 1.3960250432809682e+01 -2 -3 0
4539 1 3.6840313260396926e+00 1.3297814702719682e+01 1.2743450271142690e+01 3 0 1
5190 1 8.1566631101620128e+00 3.1822568140709794e-02 1.4577431860656837e+01 -1 1 0
3141 1 8.1329309455149232e+00 1.3176114176287617e+01 1.3410930281312719e+01 1 2 0
1392 1 8.1913562899406998e+00 2.3880867537736639e-01 1.7483224286094000e+01 0 -2 1
6106 1 3.8373555939549360e+00 3.0171840560967440e+00 1.8099879821699304e+01 1 0 1
1309 1 3.5830138475430209e+00 3.9542009663475025e-01 1.7173368530889469e+01 2 1 1
486 1 8.5031175725858521e+00 1.1593091894517423e+01 2.0255720380117040e+01 2 1 1
3454 1 8.3628201297348195e+00 3.0260059462805358e+00 1.8228170478827920e+01 3 4 0
5310 1 6.1454566854288188e+00 4.2912670974279479e+00 1.7151551732058916e+01 -1 1 1
6234 1 1.3346294879919554e+00 4.0773933938006417e+00 1.7429492964447455e+01 2 5 0
1863 1 1.2211574511644798e+00 6.8880038354090605e+00 1.7850440722346942e+01 1 0 0
504 1 5.9350587089001499e+00 6.9381839630642288e+00 1.8240896749177207e+01 6 2 0
4814 1 1.4477199711920350e+00 1.2310975453692706e+01 1.6657770609920057e+01 -1 2 0
6225 1 3.6740098890776056e+00 7.9632673604722175e+00 1.6803307205578825e+01 -1 3 1
1336 1 3.4819873420813710e+00 1.0651098357330889e+01 1.7575526157897283e+01 -2 3 0
5263 1 8.0494004807654047e+00 8.1259147547938646e+00 1.7232266240443209e+01 -4 1 1
3685 1 8.2585098485984698e+00 1.0814188157010156e+01 1.7482382057953107e+01 -1 0 1
1475 1 5.9132811971446610e+00 1.2060926309122497e+01 1.6690395988119825e+01 2 0 1
6153 1 1.4649022198402992e+00 1.5046564573966199e+01 1.7689492523347759e+01 0 1 1
3435 1 8.3677403362687777e+00 1.5984609446536350e+01 1.6370352923456501e+01 3 -1 0
6044 1 1.4586485870586117e+00 1.5073826350042204e+01 2.0317037234266671e+01 0 1 1
1250 1 5.9629751281370611e+00 1.5224635635915186e+01 2.0332976618019028e+01 0 0 1
345 1 3.6891839435589100e+00 1.1029053197223302e+01 2.0445434986867468e+01 1 2 0
416 1 3.8606691295929969e+00 1.5896031647700552e+01 1.6659575670031387e+01 -1 -2 0
371 1 1.5378056026174749e+00 7.3793272160677210e+00 2.0348855570853683e+01 -1 1 0
2865 1 3.6211496244041901e+00 3.4176787919780951e+00 2.4162435971663609e+01 2 -3 1
1944 1 1.3689401238976806e+00 1.9256456810310616e+00 2.4180176174934651e+01 1 -1 0
3059 1 1.2887434457784128e+00 1.7892863895871798e+00 2.1464903762106314e+01 3 -1 1
474 1 6.4578543596780014e+00 7.4043524985836440e+00 2.1103479448264483e+01 -1 0 0
1832 1 6.0070048514618106e+00 1.7966799340395301e+00 2.4459322428220350e+01 0 0 0
6026 1 8.7376038369833537e+00 3.1740253052373921e+00 2.4305301187394956e+01 0 0 1
517 1 6.1219787843791424e+00 1.9075463165701902e+00 2.1779393326830888e+01 0 4 1
767 2 8.6135000000000002e+00 1.4919019630994494e+01 2.6753156833696011e+01 0 0 0
2822 1 3.8467125200158421e+00 5.9355845284822992e+00 2.0901351513199543e+01 1 -2 1
6061 1 1.2813769191792994e+00 7.4078456706874229e+00 2.3740434152020345e+01 -2 3 1
3040 1 3.9579449173648529e+00 6.2588127493064531e+00 2.3908267698515068e+01 1 0 1
1687 1 3.8026640932885249e+00 3.2215924239912699e+00 2.1075165404418030e+01 2 0 1
4676 1 8.8151794452581367e+00 5.9463107908740716e+00 2.3891838575600520e+01 1 -1 0
2018 1 6.4194064983428776e+00 7.5143839325778350e+00 2.3901317681591049e+01 3 0 0
6298 1 8.8297269502422875e+00 6.0418924231770790e+00 2.1111441058008563e+01 1 -2 1
720 2 6.1524999999999990e+00 1.4919019630994494e+01 2.6753156833696011e+01 0 0 0
5099 1 1.5091755005817185e+00 9.9505102360737379e+00 2.1428712342641770e+01 0 0 0
3083 1 1.7423840879047092e+00 1.0163818109957356e+01 2.4402482092313811e+01 -1 1 1
479 1 3.9720377159240421e+00 1.1950560581333644e+01 2.3932374636728657e+01 2 0 0
6109 1 8.3660360697320311e+00 1.1384145822386674e+01 2.4116522628401164e+01 3 -3 1
4807 1 5.9220260069106763e+00 1.0261883857547478e+01 2.3575608577627804e+01 1 -1 1
5982 1 6.2800740835945597e+00 1.0467902467051159e+01 2.0919021438005931e+01 -1 -2 1
2100 1 3.6475715836636469e+00 1.4570378857663865e+01 2.3817259442592999e+01 0 0 1
93 1 1.1161106236075420e+00 1.5469428141739630e+01 2.4452826924287724e+01 0 -3 0
1484 1 3.7086991502194033e+00 1.3681665814293382e+01 2.1045206051271165e+01 3 2 0
4957 1 8.5163604143588145e+00 1.4092997003745726e+01 2.1152981228771264e+01 2 3 1
2051 1 6.1005290304229804e+00 1.5744617543437627e+01 2.4246729098785003e+01 1 -1 0
3087 1 8.4658532292763837e+00 1.4353060730217265e+01 2.3840627092370170e+01 0 1 0
554 2 0.0000000000000000e+00 2.8417180249513345e+00 2.6753156833696011e+01 0 0 0
556 2 0.0000000000000000e+00 0.0000000000000000e+00 2.6753156833696011e+01 0 0 0
558 2 1.2305000000000001e+00 7.1042950623783474e-01 2.6753156833696011e+01 0 0 0
565 2 1.2305000000000001e+00 2.1312885187134998e+00 2.6753156833696011e+01 0 0 0
567 2 2.4610000000000003e+00 2.8417180249513345e+00 2.6753156833696011e+01 0 0 0
569 2 2.4610000000000003e+00 0.0000000000000000e+00 2.6753156833696011e+01 0 0 0
571 2 3.6915000000000004e+00 7.1042950623783474e-01 2.6753156833696011e+01 0 0 0
586 2 3.6914999999999996e+00 2.1312885187134998e+00 2.6753156833696011e+01 0 0 0
588 2 4.9220000000000006e+00 2.8417180249513332e+00 2.6753156833696011e+01 0 0 0
590 2 4.9220000000000006e+00 0.0000000000000000e+00 2.6753156833696011e+01 0 0 0
592 2 6.1524999999999999e+00 7.1042950623783407e-01 2.6753156833696011e+01 0 0 0
615 2 6.1524999999999999e+00 2.1312885187134989e+00 2.6753156833696011e+01 0 0 0
617 2 7.3829999999999991e+00 2.8417180249513345e+00 2.6753156833696011e+01 0 0 0
619 2 7.3829999999999991e+00 0.0000000000000000e+00 2.6753156833696011e+01 0 0 0
621 2 8.6134999999999984e+00 7.1042950623783407e-01 2.6753156833696011e+01 0 0 0
652 2 8.6134999999999984e+00 2.1312885187135002e+00 2.6753156833696011e+01 0 0 0
561 2 0.0000000000000000e+00 4.2625770374269996e+00 2.6753156833696011e+01 0 0 0
563 2 1.2305000000000001e+00 4.9730065436648339e+00 2.6753156833696011e+01 0 0 0
578 2 1.2305000000000001e+00 6.3938655561404980e+00 2.6753156833696011e+01 0 0 0
582 2 2.4610000000000003e+00 4.2625770374269996e+00 2.6753156833696011e+01 0 0 0
584 2 3.6914999999999996e+00 4.9730065436648339e+00 2.6753156833696011e+01 0 0 0
607 2 3.6914999999999996e+00 6.3938655561404980e+00 2.6753156833696011e+01 0 0 0
559 2 0.0000000000000000e+00 7.1042950623783341e+00 2.6753156833696011e+01 0 0 0
580 2 2.4610000000000003e+00 7.1042950623783341e+00 2.6753156833696011e+01 0 0 0
611 2 4.9220000000000006e+00 4.2625770374269978e+00 2.6753156833696011e+01 0 0 0
613 2 6.1524999999999999e+00 4.9730065436648339e+00 2.6753156833696011e+01 0 0 0
644 2 6.1524999999999999e+00 6.3938655561404980e+00 2.6753156833696011e+01 0 0 0
648 2 7.3829999999999991e+00 4.2625770374269996e+00 2.6753156833696011e+01 0 0 0
650 2 8.6135000000000002e+00 4.9730065436648339e+00 2.6753156833696011e+01 0 0 0
689 2 8.6135000000000002e+00 6.3938655561404980e+00 2.6753156833696011e+01 0 0 0
609 2 4.9220000000000006e+00 7.1042950623783341e+00 2.6753156833696011e+01 0 0 0
646 2 7.3830000000000009e+00 7.1042950623783341e+00 2.6753156833696011e+01 0 0 0
574 2 0.0000000000000000e+00 8.5251540748539991e+00 2.6753156833696011e+01 0 0 0
576 2 1.2305000000000001e+00 9.2355835810918343e+00 2.6753156833696011e+01 0 0 0
603 2 2.4610000000000003e+00 8.5251540748539991e+00 2.6753156833696011e+01 0 0 0
605 2 3.6915000000000004e+00 9.2355835810918343e+00 2.6753156833696011e+01 0 0 0
572 2 0.0000000000000000e+00 1.1366872099805333e+01 2.6753156833696011e+01 0 0 0
599 2 1.2305000000000001e+00 1.0656442593567498e+01 2.6753156833696011e+01 0 0 0
601 2 2.4610000000000003e+00 1.1366872099805333e+01 2.6753156833696011e+01 0 0 0
636 2 3.6914999999999996e+00 1.0656442593567499e+01 2.6753156833696011e+01 0 0 0
640 2 4.9220000000000006e+00 8.5251540748539991e+00 2.6753156833696011e+01 0 0 0
642 2 6.1524999999999999e+00 9.2355835810918343e+00 2.6753156833696011e+01 0 0 0
685 2 7.3830000000000009e+00 8.5251540748539991e+00 2.6753156833696011e+01 0 0 0
687 2 8.6134999999999984e+00 9.2355835810918343e+00 2.6753156833696011e+01 0 0 0
638 2 4.9220000000000006e+00 1.1366872099805333e+01 2.6753156833696011e+01 0 0 0
681 2 6.1524999999999999e+00 1.0656442593567499e+01 2.6753156833696011e+01 0 0 0
683 2 7.3829999999999991e+00 1.1366872099805333e+01 2.6753156833696011e+01 0 0 0
728 2 8.6134999999999984e+00 1.0656442593567498e+01 2.6753156833696011e+01 0 0 0
628 2 1.2305000000000001e+00 1.4919019630994494e+01 2.6753156833696011e+01 0 0 0
630 2 2.4610000000000003e+00 1.5629449137232328e+01 2.6753156833696011e+01 0 0 0
634 2 3.6915000000000004e+00 1.3498160618518829e+01 2.6753156833696011e+01 0 0 0
673 2 3.6915000000000004e+00 1.4919019630994494e+01 2.6753156833696011e+01 0 0 0
593 2 0.0000000000000000e+00 1.5629449137232333e+01 2.6753156833696011e+01 0 0 0
597 2 1.2305000000000001e+00 1.3498160618518829e+01 2.6753156833696011e+01 0 0 0
632 2 2.4610000000000003e+00 1.2787731112280996e+01 2.6753156833696011e+01 0 0 0
595 2 0.0000000000000000e+00 1.2787731112280996e+01 2.6753156833696011e+01 0 0 0
724 2 7.3829999999999991e+00 1.2787731112280996e+01 2.6753156833696011e+01 0 0 0
679 2 6.1524999999999990e+00 1.3498160618518829e+01 2.6753156833696011e+01 0 0 0
675 2 4.9220000000000006e+00 1.5629449137232333e+01 2.6753156833696011e+01 0 0 0
722 2 7.3829999999999991e+00 1.5629449137232333e+01 2.6753156833696011e+01 0 0 0
726 2 8.6135000000000002e+00 1.3498160618518835e+01 2.6753156833696011e+01 0 0 0
677 2 4.9220000000000006e+00 1.2787731112280996e+01 2.6753156833696011e+01 0 0 0
3375 1 8.7327208587393361e+00 3.3287572768573965e+00 2.1010550323212868e+01 1 1 0
555 2 0.0000000000000000e+00 1.4208590124756650e+00 3.0030999999995103e+01 0 0 0
557 2 0.0000000000000000e+00 0.0000000000000000e+00 3.0030999999995103e+01 0 0 0
566 2 1.2305000000000001e+00 2.1312885187134998e+00 3.0030999999995103e+01 0 0 0
568 2 2.4610000000000003e+00 1.4208590124756650e+00 3.0030999999995103e+01 0 0 0
570 2 2.4610000000000003e+00 0.0000000000000000e+00 3.0030999999995103e+01 0 0 0
587 2 3.6914999999999996e+00 2.1312885187134998e+00 3.0030999999995103e+01 0 0 0
564 2 1.2305000000000001e+00 3.5521475311891644e+00 3.0030999999995103e+01 0 0 0
585 2 3.6914999999999996e+00 3.5521475311891644e+00 3.0030999999995103e+01 0 0 0
883 2 0.0000000000000000e+00 2.8417180249513345e+00 3.3308843166312300e+01 0 0 0
884 2 0.0000000000000000e+00 0.0000000000000000e+00 3.3308843166312300e+01 0 0 0
885 2 1.2305000000000001e+00 7.1042950623783474e-01 3.3308843166312300e+01 0 0 0
889 2 1.2305000000000001e+00 2.1312885187134998e+00 3.3308843166312300e+01 0 0 0
890 2 2.4610000000000003e+00 2.8417180249513345e+00 3.3308843166312300e+01 0 0 0
891 2 2.4610000000000003e+00 0.0000000000000000e+00 3.3308843166312300e+01 0 0 0
892 2 3.6915000000000004e+00 7.1042950623783474e-01 3.3308843166312300e+01 0 0 0
900 2 3.6914999999999996e+00 2.1312885187134998e+00 3.3308843166312300e+01 0 0 0
589 2 4.9220000000000006e+00 1.4208590124756650e+00 3.0030999999995103e+01 0 0 0
591 2 4.9220000000000006e+00 0.0000000000000000e+00 3.0030999999995103e+01 0 0 0
616 2 6.1524999999999999e+00 2.1312885187134989e+00 3.0030999999995103e+01 0 0 0
618 2 7.3829999999999991e+00 1.4208590124756659e+00 3.0030999999995103e+01 0 0 0
620 2 7.3829999999999991e+00 0.0000000000000000e+00 3.0030999999995103e+01 0 0 0
653 2 8.6134999999999984e+00 2.1312885187135002e+00 3.0030999999995103e+01 0 0 0
614 2 6.1524999999999999e+00 3.5521475311891644e+00 3.0030999999995103e+01 0 0 0
651 2 8.6134999999999984e+00 3.5521475311891657e+00 3.0030999999995103e+01 0 0 0
901 2 4.9220000000000006e+00 2.8417180249513332e+00 3.3308843166312300e+01 0 0 0
902 2 4.9220000000000006e+00 0.0000000000000000e+00 3.3308843166312300e+01 0 0 0
903 2 6.1524999999999999e+00 7.1042950623783407e-01 3.3308843166312300e+01 0 0 0
915 2 6.1524999999999999e+00 2.1312885187134989e+00 3.3308843166312300e+01 0 0 0
916 2 7.3829999999999991e+00 2.8417180249513345e+00 3.3308843166312300e+01 0 0 0
917 2 7.3829999999999991e+00 0.0000000000000000e+00 3.3308843166312300e+01 0 0 0
918 2 8.6134999999999984e+00 7.1042950623783407e-01 3.3308843166312300e+01 0 0 0
934 2 8.6134999999999984e+00 2.1312885187135002e+00 3.3308843166312300e+01 0 0 0
560 2 0.0000000000000000e+00 5.6834360499026637e+00 3.0030999999995103e+01 0 0 0
562 2 0.0000000000000000e+00 4.2625770374269996e+00 3.0030999999995103e+01 0 0 0
579 2 1.2305000000000001e+00 6.3938655561404980e+00 3.0030999999995103e+01 0 0 0
581 2 2.4610000000000003e+00 5.6834360499026637e+00 3.0030999999995103e+01 0 0 0
583 2 2.4610000000000003e+00 4.2625770374269996e+00 3.0030999999995103e+01 0 0 0
608 2 3.6914999999999996e+00 6.3938655561404980e+00 3.0030999999995103e+01 0 0 0
577 2 1.2305000000000001e+00 7.8147245686161639e+00 3.0030999999995103e+01 0 0 0
606 2 3.6914999999999996e+00 7.8147245686161639e+00 3.0030999999995103e+01 0 0 0
887 2 0.0000000000000000e+00 4.2625770374269996e+00 3.3308843166312300e+01 0 0 0
888 2 1.2305000000000001e+00 4.9730065436648339e+00 3.3308843166312300e+01 0 0 0
896 2 1.2305000000000001e+00 6.3938655561404980e+00 3.3308843166312300e+01 0 0 0
898 2 2.4610000000000003e+00 4.2625770374269996e+00 3.3308843166312300e+01 0 0 0
899 2 3.6914999999999996e+00 4.9730065436648339e+00 3.3308843166312300e+01 0 0 0
911 2 3.6914999999999996e+00 6.3938655561404980e+00 3.3308843166312300e+01 0 0 0
886 2 0.0000000000000000e+00 7.1042950623783341e+00 3.3308843166312300e+01 0 0 0
897 2 2.4610000000000003e+00 7.1042950623783341e+00 3.3308843166312300e+01 0 0 0
610 2 4.9220000000000006e+00 5.6834360499026637e+00 3.0030999999995103e+01 0 0 0
612 2 4.9220000000000006e+00 4.2625770374269978e+00 3.0030999999995103e+01 0 0 0
645 2 6.1524999999999999e+00 6.3938655561404980e+00 3.0030999999995103e+01 0 0 0
647 2 7.3829999999999991e+00 5.6834360499026637e+00 3.0030999999995103e+01 0 0 0
649 2 7.3829999999999991e+00 4.2625770374269996e+00 3.0030999999995103e+01 0 0 0
690 2 8.6135000000000002e+00 6.3938655561404980e+00 3.0030999999995103e+01 0 0 0
643 2 6.1524999999999999e+00 7.8147245686161639e+00 3.0030999999995103e+01 0 0 0
688 2 8.6135000000000002e+00 7.8147245686161639e+00 3.0030999999995103e+01 0 0 0
913 2 4.9220000000000006e+00 4.2625770374269978e+00 3.3308843166312300e+01 0 0 0
914 2 6.1524999999999999e+00 4.9730065436648339e+00 3.3308843166312300e+01 0 0 0
930 2 6.1524999999999999e+00 6.3938655561404980e+00 3.3308843166312300e+01 0 0 0
932 2 7.3829999999999991e+00 4.2625770374269996e+00 3.3308843166312300e+01 0 0 0
933 2 8.6135000000000002e+00 4.9730065436648339e+00 3.3308843166312300e+01 0 0 0
953 2 8.6135000000000002e+00 6.3938655561404980e+00 3.3308843166312300e+01 0 0 0
912 2 4.9220000000000006e+00 7.1042950623783341e+00 3.3308843166312300e+01 0 0 0
931 2 7.3830000000000009e+00 7.1042950623783341e+00 3.3308843166312300e+01 0 0 0
573 2 0.0000000000000000e+00 9.9460130873296642e+00 3.0030999999995103e+01 0 0 0
575 2 0.0000000000000000e+00 8.5251540748539991e+00 3.0030999999995103e+01 0 0 0
602 2 2.4610000000000003e+00 9.9460130873296642e+00 3.0030999999995103e+01 0 0 0
604 2 2.4610000000000003e+00 8.5251540748539991e+00 3.0030999999995103e+01 0 0 0
598 2 1.2305000000000001e+00 1.2077301606043163e+01 3.0030999999995103e+01 0 0 0
600 2 1.2305000000000001e+00 1.0656442593567498e+01 3.0030999999995103e+01 0 0 0
635 2 3.6914999999999996e+00 1.2077301606043163e+01 3.0030999999995103e+01 0 0 0
637 2 3.6914999999999996e+00 1.0656442593567499e+01 3.0030999999995103e+01 0 0 0
894 2 0.0000000000000000e+00 8.5251540748539991e+00 3.3308843166312300e+01 0 0 0
895 2 1.2305000000000001e+00 9.2355835810918343e+00 3.3308843166312300e+01 0 0 0
909 2 2.4610000000000003e+00 8.5251540748539991e+00 3.3308843166312300e+01 0 0 0
910 2 3.6915000000000004e+00 9.2355835810918343e+00 3.3308843166312300e+01 0 0 0
893 2 0.0000000000000000e+00 1.1366872099805333e+01 3.3308843166312300e+01 0 0 0
907 2 1.2305000000000001e+00 1.0656442593567498e+01 3.3308843166312300e+01 0 0 0
908 2 2.4610000000000003e+00 1.1366872099805333e+01 3.3308843166312300e+01 0 0 0
926 2 3.6914999999999996e+00 1.0656442593567499e+01 3.3308843166312300e+01 0 0 0
639 2 4.9220000000000006e+00 9.9460130873296642e+00 3.0030999999995103e+01 0 0 0
641 2 4.9220000000000006e+00 8.5251540748539991e+00 3.0030999999995103e+01 0 0 0
684 2 7.3830000000000009e+00 9.9460130873296642e+00 3.0030999999995103e+01 0 0 0
686 2 7.3830000000000009e+00 8.5251540748539991e+00 3.0030999999995103e+01 0 0 0
680 2 6.1524999999999999e+00 1.2077301606043163e+01 3.0030999999995103e+01 0 0 0
682 2 6.1524999999999999e+00 1.0656442593567499e+01 3.0030999999995103e+01 0 0 0
727 2 8.6135000000000002e+00 1.2077301606043163e+01 3.0030999999995103e+01 0 0 0
729 2 8.6134999999999984e+00 1.0656442593567498e+01 3.0030999999995103e+01 0 0 0
928 2 4.9220000000000006e+00 8.5251540748539991e+00 3.3308843166312300e+01 0 0 0
929 2 6.1524999999999999e+00 9.2355835810918343e+00 3.3308843166312300e+01 0 0 0
951 2 7.3830000000000009e+00 8.5251540748539991e+00 3.3308843166312300e+01 0 0 0
952 2 8.6134999999999984e+00 9.2355835810918343e+00 3.3308843166312300e+01 0 0 0
927 2 4.9220000000000006e+00 1.1366872099805333e+01 3.3308843166312300e+01 0 0 0
949 2 6.1524999999999999e+00 1.0656442593567499e+01 3.3308843166312300e+01 0 0 0
950 2 7.3829999999999991e+00 1.1366872099805333e+01 3.3308843166312300e+01 0 0 0
973 2 8.6134999999999984e+00 1.0656442593567498e+01 3.3308843166312300e+01 0 0 0
596 2 0.0000000000000000e+00 1.2787731112280996e+01 3.0030999999995103e+01 0 0 0
633 2 2.4610000000000003e+00 1.2787731112280996e+01 3.0030999999995103e+01 0 0 0
594 2 0.0000000000000000e+00 1.4208590124756663e+01 3.0030999999995103e+01 0 0 0
629 2 1.2305000000000001e+00 1.4919019630994494e+01 3.0030999999995103e+01 0 0 0
631 2 2.4610000000000003e+00 1.4208590124756663e+01 3.0030999999995103e+01 0 0 0
674 2 3.6915000000000004e+00 1.4919019630994494e+01 3.0030999999995103e+01 0 0 0
905 2 0.0000000000000000e+00 1.2787731112280996e+01 3.3308843166312300e+01 0 0 0
906 2 1.2305000000000001e+00 1.3498160618518829e+01 3.3308843166312300e+01 0 0 0
924 2 2.4610000000000003e+00 1.2787731112280996e+01 3.3308843166312300e+01 0 0 0
925 2 3.6915000000000004e+00 1.3498160618518829e+01 3.3308843166312300e+01 0 0 0
904 2 0.0000000000000000e+00 1.5629449137232333e+01 3.3308843166312300e+01 0 0 0
922 2 1.2305000000000001e+00 1.4919019630994494e+01 3.3308843166312300e+01 0 0 0
923 2 2.4610000000000003e+00 1.5629449137232328e+01 3.3308843166312300e+01 0 0 0
945 2 3.6915000000000004e+00 1.4919019630994494e+01 3.3308843166312300e+01 0 0 0
678 2 4.9220000000000006e+00 1.2787731112280996e+01 3.0030999999995103e+01 0 0 0
725 2 7.3829999999999991e+00 1.2787731112280996e+01 3.0030999999995103e+01 0 0 0
676 2 4.9220000000000006e+00 1.4208590124756663e+01 3.0030999999995103e+01 0 0 0
721 2 6.1524999999999990e+00 1.4919019630994494e+01 3.0030999999995103e+01 0 0 0
723 2 7.3830000000000009e+00 1.4208590124756663e+01 3.0030999999995103e+01 0 0 0
768 2 8.6135000000000002e+00 1.4919019630994494e+01 3.0030999999995103e+01 0 0 0
947 2 4.9220000000000006e+00 1.2787731112280996e+01 3.3308843166312300e+01 0 0 0
948 2 6.1524999999999990e+00 1.3498160618518829e+01 3.3308843166312300e+01 0 0 0
971 2 7.3829999999999991e+00 1.2787731112280996e+01 3.3308843166312300e+01 0 0 0
972 2 8.6135000000000002e+00 1.3498160618518835e+01 3.3308843166312300e+01 0 0 0
946 2 4.9220000000000006e+00 1.5629449137232333e+01 3.3308843166312300e+01 0 0 0
969 2 6.1524999999999990e+00 1.4919019630994494e+01 3.3308843166312300e+01 0 0 0
970 2 7.3829999999999991e+00 1.5629449137232333e+01 3.3308843166312300e+01 0 0 0
993 2 8.6135000000000002e+00 1.4919019630994494e+01 3.3308843166312300e+01 0 0 0
5002 1 3.0570079579610216e+00 1.7249522845898577e+00 3.5870985231011886e+01 0 0 -1
3681 1 3.0106982641842284e+00 1.7340354801753459e+00 3.8807510117270780e+01 0 2 0
6125 1 5.5125196094409041e+00 2.5903317831116740e-01 3.8678735431107455e+01 2 -2 0
4741 1 6.7296062980706060e+00 1.3522794110094326e+01 3.8092812840654915e+01 0 0 -1
4562 1 6.1553880892437496e-01 5.9930493249340602e+00 3.6116700935892808e+01 2 0 0
1983 1 7.9229381655195441e+00 1.8067253663179690e+00 3.5838533971435908e+01 1 0 -1
1567 1 7.8073569211965461e+00 1.4329371300941780e+00 3.8854077856271132e+01 1 4 0
6310 1 7.7721379452735082e+00 4.1253315489793740e+00 3.8775649931304017e+01 1 -1 -1
4488 1 1.9449580525979169e+00 1.3205824216610111e+01 3.7387993369314032e+01 -2 -2 0
6174 1 2.7913249653904448e+00 4.6157196301786172e+00 3.8893270490420932e+01 3 -1 0
1640 1 2.8657589779914958e+00 4.5224809233879455e+00 3.5689708828053455e+01 1 -1 0
4884 1 9.6431164449738613e+00 1.3076486244862759e+01 3.8241612439678335e+01 -1 -2 -1
5109 1 5.4535777408480355e+00 3.3839164884410777e-01 3.5800511595520064e+01 1 1 -1
1435 1 5.3607495853909493e+00 5.7697733259311859e+00 3.5885967792749753e+01 -2 -2 0
6218 1 7.9154906192307246e+00 4.6639258995682722e+00 3.6045128970924523e+01 0 1 0
5103 1 8.8103888696476265e+00 8.3788018178505368e+00 3.9332068700080285e+01 3 -2 -1
4647 1 8.8260304569553032e+00 8.9269193231780406e+00 3.5907205701221500e+01 1 -1 0
35 1 2.1359937119125306e-02 1.1571346933484891e+01 3.5790321863932135e+01 0 0 0
3500 1 6.2718508886373154e+00 8.2030417479907900e+00 3.8458433446495363e+01 -1 1 -1
3271 1 1.0872798370973156e+00 8.8337115006563138e+00 3.6481045339768343e+01 1 2 -1
1767 1 3.6942550447170044e+00 1.0086139182324402e+01 3.5699291035073514e+01 3 1 0
2961 1 6.1611118893124370e+00 8.5575363089769887e+00 3.5636328876811191e+01 0 1 0
5085 1 4.5372379879105500e+00 1.2808900482273312e+01 3.6403478903078138e+01 1 -1 0
5025 1 5.3471695594518707e+00 5.4751621390575815e+00 3.8710601516187708e+01 1 1 -1
6198 1 1.3835387873685536e+00 1.5793764374291854e+01 3.6282039186203349e+01 3 0 0
6100 1 1.2897613218042353e-01 6.1598842174905788e-01 3.5997679296224248e+01 2 1 0
5182 1 5.1782178740464813e-01 6.2277045104664086e-01 3.9118649521492401e+01 0 2 -1
1308 1 2.3006650582468078e+00 2.1562652710989219e+00 4.2550690402037119e+01 -2 4 0
3022 1 4.2833937088258569e+00 9.2873039581797390e-01 4.1540993712041256e+01 4 0 -1
4768 1 6.2459219660088756e+00 2.5937118661150218e+00 4.2699934807573513e+01 1 0 0
2875 1 8.4095574647572331e+00 1.3098781223858205e+00 4.1478641401439390e+01 1 1 -1
3073 1 2.1947549404596098e+00 4.9433633511907225e+00 4.1607272618193463e+01 0 1 0
2151 1 4.4336992710493908e+00 6.5766865966604362e+00 4.2144734399874864e+01 3 2 0
2878 1 6.6680746019126014e+00 4.8922032364272789e+00 4.1429357162485346e+01 1 -6 0
2082 1 8.7960586084158354e+00 6.1078142695744120e+00 4.2664195257240166e+01 1 -3 -1
1850 1 3.7847412555137692e+00 8.8755742882933202e+00 4.0555679971036554e+01 1 -1 -1
3624 1 1.6855881660457313e+00 1.0998173333009882e+01 4.4537454230576486e+01 0 3 -1
4593 1 1.9147613056966035e+00 1.0643466916743115e+01 4.1788963903577383e+01 -2 1 0
4525 1 6.0242374418627724e+00 1.0045878099283737e+01 4.1770550362821112e+01 4 0 0
1341 1 8.4601654919507414e+00 8.7998501829250309e+00 4.1996240062059115e+01 -1 1 0
263 1 6.1503724466420255e+00 1.0504392489923022e+01 4.4491029868864032e+01 1 2 -1
3273 1 3.6109536417443824e+00 1.4376453453148605e+01 4.1160086416323750e+01 -3 -1 0
2154 1 3.6807130748721577e+00 1.4583935095483469e+01 4.4063834209836216e+01 1 -2 0
1666 1 1.3368116277972728e+00 1.6201730600032576e+01 4.7429860344250116e+01 -3 0 0
1343 1 8.0897645437716967e+00 1.4365518367150214e+01 4.1719393926031699e+01 -1 0 0
4445 1 5.9148279422750454e+00 1.2704006900820801e+01 4.0701615488129505e+01 0 1 0
267 1 8.1751369340276909e+00 1.4733812968696380e+01 4.4403733181971106e+01 0 0 -1
3109 1 1.9347603982342694e+00 2.6536502135079627e+00 4.5334061612115690e+01 2 0 0
4500 1 4.0468261191573740e+00 4.2460354481272278e+00 4.6264277915805508e+01 0 0 0
4774 1 5.9784717495243118e+00 2.5577347628586029e+00 4.5421361439512367e+01 0 -3 -1
3093 1 8.2663744263103052e+00 4.1732505787402676e+00 4.5866946768806869e+01 -1 3 0
329 1 1.4881576979258861e+00 8.3034352457574556e+00 4.8224505229703823e+01 2 -2 -1
3184 1 4.0845497002382096e+00 6.7141311562382686e+00 4.4823807137758592e+01 0 1 0
3319 1 1.8764989058965011e+00 8.3938526073817705e+00 4.5466867361208259e+01 0 -2 0
3457 1 1.4726055441523398e+00 1.2991645242807834e+01 4.0243789104066749e+01 1 1 -1
6266 1 8.4743172113319769e+00 6.9306370513827407e+00 4.5367708715558010e+01 1 0 0
4499 1 6.1648337257646677e+00 8.0163838368964235e+00 4.5956241828725055e+01 1 2 0