
# Create simulation box and atoms

read_data data.graphite_substrate_500
  orthogonal box = (0 0 -0.518223) to (49.22 49.0196 60.5802)
  4 by 2 by 5 MPI processor grid
  reading atoms ...
  6750 atoms
  reading velocities ...
  6750 velocities
group water type 1
3990 atoms in group water
group graphite type 2
2760 atoms in group graphite

# Define potential

pair_style sw
pair_coeff * * mWC.sw mW C
Reading potential file mWC.sw with DATE: 2019-02-27


# Fix graphite atoms in place

fix 5 graphite setforce 0.0 0.0 0.0
velocity graphite set 0.0 0.0 0.0


# Equilibration of molecular water

# Add velocity/set timestep

velocity	    water create ${TEMP} ${SEED} rot yes dist gaussian
velocity	    water create 225 ${SEED} rot yes dist gaussian
velocity	    water create 225 25161 rot yes dist gaussian
timestep	    5.0

# Define output

compute			1 water msd
compute			3 water temp
thermo	    	50
thermo_style	custom step temp press vol etotal ke pe c_1[4] c_3

# Neighbor lists

neigh_modify    delay 0 every 1 check yes

# Set fixes

fix             1 water momentum 10 linear 1 1 1 rescale
fix             2 water nve
fix             3 water temp/csvr ${TEMP} ${TEMP} 500.0 ${SEED}
fix             3 water temp/csvr 225 ${TEMP} 500.0 ${SEED}
fix             3 water temp/csvr 225 225 500.0 ${SEED}
fix             3 water temp/csvr 225 225 500.0 25161
fix             4 water press/berendsen iso ${PRES} ${PRES} 1000.0 modulus 20000
fix             4 water press/berendsen iso -500 ${PRES} 1000.0 modulus 20000
fix             4 water press/berendsen iso -500 -500 1000.0 modulus 20000

# Run 0.5 ns equilibration

dump		    1 all atom 2000 ${DIR}/eq.${NAME}-${TEMP}.dump
dump		    1 all atom 2000 run_8/eq.${NAME}-${TEMP}.dump
dump		    1 all atom 2000 run_8/eq.het_freeze_8-${TEMP}.dump
dump		    1 all atom 2000 run_8/eq.het_freeze_8-225.dump

reset_timestep  0

run	            100000
Neighbor list info ...
  update every 1 steps, delay 0 steps, check yes
  max neighbors/atom: 2000, page size: 100000
  master list distance cutoff = 7.76
  ghost atom cutoff = 7.76
  binsize = 3.88, bins = 13 13 16
  1 neighbor lists, perpetual/occasional/extra = 1 0 0
  (1) pair sw, perpetual
      attributes: full, newton on
      pair build: full/bin/atomonly
      stencil: full/bin/3d
      bin: standard
Per MPI rank memory allocation (min/avg/max) = 4.108 | 4.218 | 4.541 Mbytes
Step Temp Press Volume TotEng KinEng PotEng c_1[4] c_3 
       0    132.98637   -1273.0418    147415.06    -35990.25    2675.3515   -38665.602            0          225 
      50     175.5636   -1160.1591    146013.13   -36403.383    3531.8984   -39935.281   0.87753672    297.03653 
     100    168.64881   -994.22668    145220.61   -36826.863    3392.7903   -40219.654    1.9113368    285.33739 
     150    161.42384   -875.10996    144533.15   -37162.237     3247.442   -40409.679    2.7596884    273.11344 
     200    156.58421   -923.23657    143961.91   -37448.345    3150.0809   -40598.426    3.5479534    264.92526 
     250    152.47329   -771.34104    143396.99   -37686.068    3067.3795   -40753.447    4.3471249    257.96998 
     300    151.47408   -844.08621    142699.49   -37942.203    3047.2778    -40989.48    5.1405476    256.27941 
     350    151.26765   -830.51004     142281.6   -38069.032    3043.1251   -41112.157    5.8413341    255.93016 
     400    145.74897    -767.4409    141618.19   -38248.855     2932.103   -41180.958     6.474268    246.59308 
     450    147.06217   -523.89049    141414.75   -38382.697    2958.5213   -41341.218    6.9910221    248.81489 
     500    145.08074   -538.75934    141146.52   -38553.205    2918.6599   -41471.865    7.5008905     245.4625 
     550    140.13897   -627.42835    141131.82   -38669.448    2819.2438   -41488.691    7.9801418     237.1015 
     600    139.91991   -473.98478    140971.99   -38730.441    2814.8369   -41545.277    8.4021705    236.73087 
     650    141.95235   -479.63889    141053.48   -38795.602    2855.7245   -41651.326    8.7973116    240.16956 
     700    138.60098   -545.32489    141088.86    -38872.58    2788.3034   -41660.883    9.2369475    234.49937 
     750    139.50019   -569.74755    141082.65   -38896.511    2806.3933   -41702.904    9.6523093    236.02076 
     800    137.28487   -515.32327    141029.96   -38952.599    2761.8266   -41714.426    9.9605178    232.27265 
     850    135.24156   -583.90522    140902.38   -39046.093    2720.7204   -41766.814    10.348403    228.81557 
     900      133.676   -538.87252    140787.72   -39076.169    2689.2253   -41765.394    10.699476     226.1668 
     950    136.18617   -624.74587       140702   -39107.457    2739.7234    -41847.18    10.999318    230.41374 
    1000    136.31076   -374.75972    140738.01   -39094.142      2742.23   -41836.372    11.300404    230.62455 
    1050    134.86026   -379.61618    140908.09   -39106.459    2713.0495   -41819.509    11.534131    228.17044 
    1100    132.79884   -531.37047    140916.26   -39120.682    2671.5788   -41792.261     11.76171    224.68271 
    1150      136.165   -416.82069    140955.91   -39107.294    2739.2977   -41846.592    12.032613    230.37794 
    1200    138.96693   -552.30887    141078.16   -39089.321    2795.6655   -41884.986    12.336036    235.11854 
    1250    137.26444   -639.56673    141015.95   -39128.335    2761.4155    -41889.75    12.731504    232.23807 
    1300    135.75686   -430.64435    141011.71   -39158.447    2731.0868   -41889.534    13.131123     229.6874 
    1350    135.48223   -523.67095    141201.14   -39181.254     2725.562   -41906.816    13.333806    229.22275 
    1400    132.22749    -563.2197    141081.95   -39302.257    2660.0848   -41962.342    13.542994    223.71605 
    1450    131.92097   -571.99762    141119.92   -39364.995    2653.9184   -42018.914    13.828245    223.19745 
    1500     131.8034   -542.77829    141044.76   -39368.009    2651.5533   -42019.562     14.12591    222.99854 
    1550     132.3163   -623.75595    141065.71   -39336.626    2661.8715   -41998.498    14.415363    223.86632 
    1600    131.30295    -488.4006    140896.74   -39362.629    2641.4854   -42004.114    14.739984    222.15182 
    1650    134.50449   -425.59501    141026.88   -39328.583    2705.8924   -42034.476    14.978926    227.56852 
    1700    132.79317   -473.84391    141102.52   -39327.592    2671.4648   -41999.057    15.187822    224.67312 
    1750    131.97807   -400.25642    141148.54   -39347.803    2655.0671    -42002.87    15.429603    223.29405 
    1800    133.26489   -589.36176    141219.21   -39364.083    2680.9547   -42045.038    15.658962    225.47123 
    1850    132.04183   -311.34985    141332.72     -39364.4    2656.3498   -42020.749    15.982207    223.40193 
    1900    132.48885   -562.26903     141290.8    -39348.72    2665.3428   -42014.062    16.402439    224.15825 
    1950    134.93529   -436.92825    141272.77   -39326.508    2714.5589   -42041.066    16.584037    228.29738 
    2000    134.09748   -485.80623    141271.01   -39300.326    2697.7042   -41998.031    16.860345    226.87989 
    2050      134.349    -541.3457    141246.59   -39302.542    2702.7643   -42005.306    17.062061    227.30544 
    2100    134.01183   -469.74375    141185.13   -39314.717    2695.9813   -42010.698    17.380808    226.73499 
    2150    134.01284   -535.99469     141156.2   -39361.984    2696.0016   -42057.985    17.611607    226.73669 
    2200    132.89217   -561.67705    141235.13   -39418.015    2673.4564   -42091.471    17.826801    224.84062 
    2250    132.49393   -359.17987    141338.74   -39379.679    2665.4449   -42045.124    17.975178    224.16684 
    2300    134.46417   -446.04095    141410.76   -39371.309    2705.0811    -42076.39    18.111076    227.50029 
    2350    135.86542   -494.63097    141510.69   -39395.269    2733.2709    -42128.54    18.336372    229.87108 
    2400    133.24439   -715.77647     141611.4   -39385.496    2680.5423   -42066.038    18.571606    225.43655 
    2450    135.89018   -685.60319    141318.25   -39393.324    2733.7689   -42127.093    18.836681    229.91297 
    2500    133.33412   -558.86417    141179.75   -39372.579    2682.3474   -42054.927    18.998067    225.58836 
    2550    131.41836   -514.23468    141175.83   -39426.053    2643.8072   -42069.861     19.20521    222.34709 
    2600    133.53985   -422.18227    141208.04    -39364.54    2686.4862   -42051.026    19.391259    225.93644 
    2650    133.92491   -361.30971    141097.52   -39371.582    2694.2327   -42065.815    19.618414    226.58793 
    2700    132.46885   -446.27671    141221.21   -39381.724    2664.9403   -42046.664    19.875895     224.1244 
    2750    132.20386   -522.33631    141178.38   -39420.044    2659.6094   -42079.653    20.049363    223.67607 
    2800    134.83638   -463.23847    141103.59   -39368.756    2712.5692   -42081.325    20.310522    228.13004 
    2850    135.63092   -611.38492    141086.46   -39358.462    2728.5533   -42087.015    20.658323    229.47433 
    2900    134.27348   -457.13545    140956.67   -39361.136     2701.245   -42062.381    20.931959    227.17767 
    2950    134.55687   -521.59042    141096.85   -39350.478    2706.9461   -42057.424    21.074789    227.65714 
    3000    133.37707   -453.17773    141071.44   -39359.245    2683.2115   -42042.456    21.355532    225.66103 
    3050    132.93922   -420.14706       141301   -39401.652    2674.4031   -42076.055    21.465883    224.92023 
    3100    131.66307    -537.7197    141299.44    -39416.08    2648.7301    -42064.81    21.719198    222.76111 
    3150    134.66389   -423.10832    141258.99   -39360.129    2709.0991   -42069.228    21.868075    227.83821 
    3200     134.1111   -479.13933     141291.8   -39363.846    2697.9783   -42061.825    21.990534    226.90294 
    3250    134.28318   -361.37588    141495.83   -39366.644    2701.4401   -42068.084    22.379121    227.19408 
    3300    136.52342   -512.72616    141538.88   -39374.457    2746.5081   -42120.965    22.771818    230.98435 
    3350    133.29672   -372.65765    141536.96   -39435.998     2681.595   -42117.593    22.972766    225.52508 
    3400    132.46581   -493.13482    141572.07   -39463.239    2664.8792   -42128.118    23.263388    224.11926 
    3450    133.46754   -604.04673     141509.5   -39429.694    2685.0316   -42114.726    23.598506     225.8141 
    3500    136.07725   -445.78124    141542.76   -39421.179    2737.5324   -42158.711    23.810989    230.22948 
    3550      133.596   -484.61822    141774.22   -39433.424    2687.6157    -42121.04     24.01259    226.03143 
    3600    134.15818   -510.42314    141826.79   -39440.816    2698.9254   -42139.741     24.29035    226.98258 
    3650    133.20509   -507.44593    141710.04   -39494.069    2679.7517   -42173.821    24.418552    225.37006 
    3700    133.24189   -530.47946    141772.05   -39438.269    2680.4921   -42118.761    24.701262    225.43232 
    3750    134.46005   -541.89983    141876.68   -39424.318    2704.9983   -42129.316    24.912241    227.49333 
    3800    132.99249    -514.0229    141800.67   -39482.548    2675.4746   -42158.023     25.01917    225.01035 
    3850    132.68186   -560.78944       141715   -39461.647    2669.2256   -42130.872    25.368173     224.4848 
    3900     135.0786   -517.84654     141593.1   -39470.435     2717.442   -42187.877    25.663717    228.53985 
    3950    135.44137   -274.81436     141797.1   -39471.799    2724.7399   -42196.539    25.885358    229.15362 
    4000    134.97582   -453.08757    141940.93   -39475.208    2715.3742   -42190.582    26.124003    228.36595 
    4050    137.62126   -452.21798     141991.9   -39463.899    2768.5938   -42232.493     26.26028    232.84178 
    4100    135.77243   -484.68928    142010.08   -39437.084    2731.4001   -42168.484    26.360678    229.71375 
    4150    136.10639   -627.19614    141901.84   -39455.214    2738.1185   -42193.332    26.449351    230.27877 
    4200    131.97114   -411.94181    141857.55   -39491.869    2654.9276   -42146.797     26.70029    223.28233 
    4250    136.16103   -610.58097    141940.52   -39460.186    2739.2177   -42199.404    26.852814    230.37122 
    4300    135.61536   -419.72365    141913.77   -39430.816    2728.2402   -42159.057     27.09969    229.44799 
    4350    137.28891   -324.67778    142009.59   -39441.725     2761.908   -42203.633    27.348768    232.27949 
    4400    136.22398   -353.04561    141967.73   -39471.323    2740.4841   -42211.807    27.591822    230.47772 
    4450    134.73702   -583.15272    142077.79   -39455.227    2710.5702   -42165.797    27.834886    227.96192 
    4500    135.43084   -459.49806    142002.37   -39491.338    2724.5282   -42215.866    28.072463    229.13581 
    4550    134.49764   -505.37117    141997.13   -39454.043    2705.7545   -42159.798    28.270555    227.55693 
    4600    133.21047   -417.91706    141921.45   -39458.264      2679.86   -42138.124    28.559068    225.37916 
    4650    134.08021   -531.34118    141980.56   -39455.186     2697.357   -42152.543     28.78107    226.85068 
    4700    134.78994   -444.01693    141963.35   -39487.903    2711.6349   -42199.537     29.05166    228.05147 
    4750    133.41525   -477.93825    142023.26   -39509.448    2683.9796   -42193.427    29.384232    225.72563 
    4800    130.26957   -509.30336    142064.42   -39520.868    2620.6965   -42141.564    29.575989    220.40345 
    4850     133.7271   -439.98328    142050.41   -39517.353    2690.2532   -42207.606    29.764595    226.25325 
    4900     133.3221   -542.11564    142148.39   -39520.792    2682.1056   -42202.898    29.902601    225.56802 
    4950     132.3979   -567.34357    142095.06   -39552.403     2663.513   -42215.916    30.091301    224.00436 
    5000    133.45987   -552.85503    142089.37   -39584.484    2684.8773   -42269.361    30.358226    225.80113 
    5050     132.8618   -707.20137    141956.51    -39581.38    2672.8456   -42254.226    30.760275    224.78924 
    5100    134.48026    -519.2742    141850.91   -39562.997    2705.4048   -42268.401    31.099476    227.52751 
    5150    135.12994   -654.73449    141886.48   -39574.769    2718.4749   -42293.244    31.383127    228.62672 
    5200    133.98743   -490.82298    141861.68   -39578.886    2695.4904   -42274.376    31.468343     226.6937 
    5250     133.9344   -540.81711    141835.99   -39615.909    2694.4235   -42310.332    31.548545    226.60397 
    5300    132.22006   -349.22029    141936.45    -39567.34    2659.9354   -42227.276     31.59501    223.70349 
    5350    135.63671   -495.06721    142059.35   -39557.996    2728.6698   -42286.665    31.635494    229.48412 
    5400    134.16034   -428.14335    142163.28   -39541.758     2698.969   -42240.727    31.825645    226.98625 
    5450    132.91253    -506.1215    142155.23   -39513.538    2673.8661   -42187.404    31.857598    224.87507 
    5500    132.66757   -498.12507    142059.34    -39556.71    2668.9381   -42225.648    32.011715    224.46062 
    5550    130.83085   -491.82131     142079.1   -39595.985     2631.988   -42227.973    32.136074    221.35307 
    5600    133.08982   -689.87462    141904.41   -39550.267    2677.4326     -42227.7    32.148599    225.17502 
    5650    133.28261   -423.88673    141841.66   -39553.426    2681.3112   -42234.737    32.303296    225.50121 
    5700    134.54501   -552.08556    141877.45   -39546.151    2706.7076   -42252.858     32.45598    227.63708 
    5750    130.94716   -517.07879    141908.33   -39612.745    2634.3277   -42247.072    32.614362    221.54985 
    5800    136.12933   -673.74793    141877.76   -39638.603      2738.58   -42377.183    32.813259    230.31758 
    5850    130.15746   -577.30438    141830.41   -39632.539     2618.441    -42250.98    33.028907    220.21376 
    5900    132.58298   -288.73694    141759.68   -39593.468    2667.2364   -42260.704    33.294372    224.31751 
    5950    132.47831     -472.045    141791.96   -39660.594    2665.1307   -42325.724    33.562854    224.14042 
    6000    133.73138   -290.90937     142005.4   -39636.729    2690.3394   -42327.068    33.729495    226.26049 
    6050    130.77247   -437.46956     142063.1   -39610.924    2630.8134   -42241.738    34.148563     221.2543 
    6100    132.82823   -586.09904    141998.73   -39610.726    2672.1702   -42282.896    34.543881    224.73244 
    6150      131.736   -528.78643    141978.52   -39624.617    2650.1972   -42274.815    34.823582    222.88449 
    6200     130.7853   -466.85333    142081.58   -39570.605    2631.0716   -42201.677    34.935171    221.27601 
    6250    131.39614   -763.31143    141996.07    -39599.29    2643.3601    -42242.65    35.141929    222.30949 
    6300    134.97934   -430.55798    142123.87   -39570.744    2715.4451   -42286.189    35.385375    228.37191 
    6350    134.33682   -441.46006    142262.93   -39586.431    2702.5192    -42288.95    35.406713    227.28483 
    6400     134.0779    -469.1396    142300.12   -39589.823    2697.3104   -42287.134    35.319898    226.84676 
    6450    130.36297   -642.86067    142058.02   -39583.252    2622.5754   -42205.828    35.614517    220.56147 
    6500    134.24267   -490.79718    141947.04   -39584.097    2700.6252   -42284.722    35.874365    227.12554 
    6550    133.27338    -438.4225    142091.04   -39579.779    2681.1254   -42260.904    36.201785    225.48559 
    6600    134.26112   -505.81573    142206.05   -39563.159    2700.9964   -42264.155    36.400422    227.15676 
    6650    133.80228   -495.94996    142090.29   -39557.483    2691.7656   -42249.248    36.546468    226.38044 
    6700    133.00385   -512.80427    142063.53   -39584.934    2675.7032   -42260.637    36.722044    225.02958 
    6750    131.68408    -510.3801    141966.11   -39628.687    2649.1527    -42277.84    37.055513    222.79665 
    6800    134.04212    -522.4717    141825.83   -39633.391    2696.5906   -42329.981    37.341489    226.78622 
    6850    131.18102   -334.57959    141950.21   -39594.112    2639.0324   -42233.144    37.492201    221.94552 
    6900    129.50412   -553.72111    141815.62   -39594.536    2605.2974   -42199.834    37.719062    219.10837 
    6950    132.13081   -523.83288    141762.76   -39610.429    2658.1399   -42268.569    37.858562    223.55248 
    7000    132.82166   -466.00895    141777.26   -39595.088    2672.0379   -42267.126    37.871146    224.72132 
    7050    132.11784   -550.24466    141768.61   -39576.147    2657.8789   -42234.025    37.915619    223.53053 
    7100    133.25731   -260.50597       141815   -39574.009    2680.8023   -42254.811    37.985317    225.45841 
    7150    133.04192    -536.3766    141908.75   -39540.778     2676.469   -42217.247    38.324952    225.09398 
    7200    134.21168   -469.47907    141872.63   -39539.053    2700.0017   -42239.055    38.427608     227.0731 
    7250    136.37142   -658.40347    141828.78    -39561.06    2743.4502    -42304.51    38.445006    230.72717 
    7300    133.07306   -593.33184       141698   -39574.815    2677.0955   -42251.911    38.518498    225.14667 
    7350    133.84194   -407.78786    141897.22   -39582.685    2692.5635   -42275.248    38.558837    226.44755 
    7400    132.61523    -533.4455    141971.96    -39577.12    2667.8852   -42245.006    38.792072    224.37207 
    7450    132.44303   -492.99605    141995.82   -39531.924    2664.4209   -42196.345    38.898005    224.08072 
    7500    132.72467   -461.94605    141913.27   -39503.524    2670.0869   -42173.611    39.010708    224.55723 
    7550    131.65322   -596.92699    141841.68    -39539.86     2648.532   -42188.392    39.089893    222.74445 
    7600    133.60656   -479.90831    141797.85   -39479.988    2687.8282   -42167.817    39.315996     226.0493 
    7650    134.83145   -376.98786    141867.53   -39502.311    2712.4699    -42214.78    39.423474    228.12169 
    7700    132.50634   -481.32558     141958.8   -39548.469    2665.6945   -42214.163    39.481316    224.18784 
    7750    132.76096   -417.98557    141961.53   -39581.038    2670.8169   -42251.855    39.793818    224.61863 
    7800    131.34597   -569.78955     141899.8   -39601.524    2642.3508   -42243.875    39.944841     222.2246 
    7850    132.16792   -340.79891    141903.04   -39584.057    2658.8864   -42242.943    40.204486    223.61527 
    7900    131.91514   -502.73298    141985.83   -39651.936    2653.8012   -42305.737    40.458346    223.18759 
    7950    132.17115   -398.36675    142027.42   -39654.449    2658.9514   -42313.401     40.82714    223.62073 
    8000    131.36624   -356.00608    142216.78   -39679.587    2642.7586   -42322.346    41.246334     222.2589 
    8050    132.40454   -497.09676    142431.03   -39647.298    2663.6467   -42310.945    41.414259    224.01561 
    8100    128.91171   -524.06745    142388.14   -39637.521    2593.3798   -42230.901    41.556946    218.10608 
    8150    131.13556   -672.30521    142201.05    -39601.98     2638.118   -42240.098    41.771891    221.86862 
    8200    132.09131   -458.24275    142154.01   -39610.631    2657.3452   -42267.977    41.947548    223.48564 
    8250    131.73473   -329.21543    142129.89   -39645.428    2650.1718     -42295.6    41.877373    222.88236 
    8300    130.42318   -580.46795    142292.32   -39663.105    2623.7866   -42286.892     42.14154    220.66334 
    8350    133.10908   -514.64389    142169.07   -39712.615    2677.8203   -42390.436    42.362181    225.20762 
    8400    133.06409   -416.24038    142263.12    -39675.96    2676.9152   -42352.875     42.73815     225.1315 
    8450    133.69436   -415.60532    142467.35    -39606.11    2689.5946   -42295.705    42.856334    226.19786 
    8500    131.79802   -504.89215    142488.01   -39649.685     2651.445    -42301.13    43.078382    222.98943 
    8550    134.62533   -461.24075    142650.79   -39589.237    2708.3233   -42297.561     43.34716    227.77296 
    8600    134.54573   -582.89771    142743.82   -39598.411     2706.722   -42305.133    43.515207    227.63829 
    8650    134.64166   -648.71723    142618.89   -39595.497    2708.6519   -42304.149    43.806326    227.80059 
    8700    134.01309    -659.7907    142465.09   -39588.938    2696.0067   -42284.945    44.003561    226.73712 
    8750    132.65284   -527.62796     142268.4   -39615.701    2668.6418   -42284.343    44.289145     224.4357 
    8800    135.01517   -355.62084     142228.6   -39572.713     2716.166   -42288.879    44.623106    228.43254 
    8850    134.62073    -506.0433    142416.91   -39553.171    2708.2307   -42261.402    44.929519    227.76517 
    8900    132.86648   -558.93907     142478.7   -39605.489    2672.9396   -42278.429    45.172834    224.79716 
    8950    131.46427   -541.82865    142633.16    -39636.01    2644.7308   -42280.741     45.39337    222.42476 
    9000    129.40431   -498.63558    142592.34   -39691.861    2603.2895   -42295.151    45.507508     218.9395 
    9050    131.45979   -514.99298    142599.41   -39725.843    2644.6406   -42370.483    45.657825    222.41718 
    9100    128.94644   -531.21527    142545.08   -39722.388    2594.0783   -42316.466      45.7941    218.16483 
    9150    130.53551    -331.9125    142493.84   -39678.138    2626.0465   -42304.184    46.191275    220.85339 
    9200    134.93061   -386.04384    142554.72   -39685.154    2714.4647   -42399.619    46.540401    228.28946 
    9250    130.71544   -537.72663    142652.19   -39729.529    2629.6662   -42359.195      46.6076    221.15781 
    9300    132.70047    -402.2386    142620.41   -39785.508       2669.6   -42455.108     46.72649    224.51629 
    9350    130.97751   -427.22361     142748.4   -39810.605    2634.9384   -42445.543    46.868755    221.60121 
    9400    131.99631   -406.11717    142891.67    -39782.42    2655.4341   -42437.854     46.99465    223.32492 
    9450    130.37133   -543.77367    142914.35   -39772.427    2622.7436    -42395.17    47.286692    220.57562 
    9500    130.92444   -650.44386    142693.01   -39776.179    2633.8708   -42410.049    47.311261    221.51143 
    9550    130.27481      -467.36    142777.18   -39778.451    2620.8018   -42399.253    47.510846    220.41231 
    9600    131.31653   -475.62121    142721.41   -39798.835    2641.7587   -42440.594    47.534336     222.1748 
    9650    130.46458   -380.48191    142830.69   -39767.236    2624.6194   -42391.855    47.536347    220.73337 
    9700    134.74323   -538.87958    142840.76   -39736.578    2710.6952   -42447.273    47.528868    227.97244 
    9750    133.69127   -603.59749    142809.79   -39699.071    2689.5323   -42388.603    47.853966    226.19262 
    9800     132.2113   -516.95096    142660.97   -39717.899     2659.759   -42377.658    48.114328    223.68865 
    9850    131.70801   -477.74339    142590.17   -39755.461    2649.6341   -42405.095    48.221413    222.83714 
    9900    134.42682   -431.69278    142611.54   -39756.137    2704.3298   -42460.467    48.347342    227.43711 
    9950    133.00429   -450.54241    142741.85   -39710.121    2675.7121   -42385.833    48.658315    225.03032 
   10000    135.48142   -511.18524    142825.97   -39699.462    2725.5456   -42425.008     48.95956    229.22138 
   10050    131.48935   -510.81844    142868.28   -39711.521    2645.2352   -42356.756    49.120851    222.46718 
   10100    136.38967   -271.86012    142770.36   -39701.007    2743.8173   -42444.824      49.2797    230.75805 
   10150    133.40431   -551.82329    142744.68   -39691.256    2683.7596   -42375.015    49.422665    225.70712 
   10200    133.05206   -318.07687    142813.57   -39696.956    2676.6731   -42373.629    49.572102    225.11114 
   10250    134.58516   -640.28569    142611.87   -39649.326    2707.5152   -42356.841    49.693808      227.705 
   10300    133.73495   -489.17179    142681.99   -39648.895    2690.4111   -42339.306    50.026063    226.26652 
   10350    136.16399   -574.85187    142687.51   -39685.903    2739.2772    -42425.18    50.133234    230.37622 
   10400    138.90789   -366.32218       142682    -39614.32    2794.4776   -42408.797    50.329053    235.01863 
   10450    136.56069   -571.10785    142718.91   -39643.919    2747.2579   -42391.177    50.426704     231.0474 
   10500    132.98955   -431.38253    142635.57   -39645.029    2675.4155   -42320.445    50.667063    225.00538 
   10550     133.4007   -353.07319    142758.41   -39716.383    2683.6869    -42400.07    51.144922    225.70101 
   10600     134.7203   -758.89169    142667.25   -39670.524    2710.2339   -42380.758    51.341642    227.93365 
   10650    134.63174   -492.49356    142457.82   -39700.327    2708.4522   -42408.779     51.70666     227.7838 
   10700    133.68739   -573.23612    142424.63   -39735.702    2689.4544   -42425.156    52.022041    226.18606 
   10750    132.61697   -478.17749     142352.5   -39743.273    2667.9202   -42411.193     52.33406    224.37502 
   10800    132.81604   -591.03088    142312.49   -39787.331     2671.925   -42459.256    52.891624    224.71182 
   10850    132.16576   -315.38016    142410.28   -39759.185     2658.843   -42418.028    53.149906    223.61161 
   10900    130.01341    -467.3663    142540.65   -39752.756     2615.543   -42368.299    53.296164    219.97004 
   10950    133.41727   -369.62869    142715.99   -39733.572    2684.0202   -42417.592    53.383534    225.72904 
   11000    130.55883   -535.85935    142624.88   -39735.983    2626.5156   -42362.499    53.378395    220.89284 
   11050    133.06457   -470.37655    142493.48   -39712.739    2676.9248   -42389.664    53.542575    225.13231 
   11100    133.90377   -684.32673    142644.38   -39666.502    2693.8074   -42360.309    53.606503    226.55216 
   11150      132.778    -506.9951    142669.45   -39674.823    2671.1596   -42345.982    53.605051    224.64746 
   11200     134.8343   -465.19075    142664.23   -39613.588    2712.5272   -42326.116    53.647366    228.12652 
   11250    133.36369   -530.77097    142671.05   -39606.079    2682.9423   -42289.022    53.710734    225.63839 
   11300    133.96171   -513.72956    142599.92   -39633.668    2694.9729   -42328.641    53.799448    226.65018 
   11350    134.17648   -645.20204    142525.95   -39649.635    2699.2935   -42348.929    54.031813    227.01355 
   11400    130.28442   -573.91212    142337.43   -39675.553    2620.9952   -42296.548    54.049184    220.42857 
   11450     130.9547   -628.05571    142301.02   -39690.599    2634.4795   -42325.079    54.263658    221.56262 
   11500    133.64024   -536.11271    142264.47   -39685.507    2688.5058   -42374.013    54.428513    226.10628 
   11550    131.10673   -498.38194    142200.46   -39690.992    2637.5379    -42328.53    54.591283    221.81983 
   11600    131.81602   -592.00663    142234.43   -39708.105     2651.807   -42359.912    54.950387    223.01988 
   11650    131.91947    -325.0081    142374.24   -39667.514    2653.8882   -42321.402    54.939585    223.19491 
   11700     131.7583   -547.88971    142309.23   -39704.431    2650.6458   -42355.077    55.061704    222.92222 
   11750    133.40302   -465.95156    142265.18    -39652.72    2683.7335   -42336.453    55.102617    225.70493 
   11800    134.26829   -357.36563    142401.48   -39625.875    2701.1406   -42327.016    55.362856    227.16889 
   11850    134.81773    -556.0065    142509.55   -39630.518     2712.194   -42342.712    55.543134    228.09849 
   11900    132.59373   -481.43023    142488.11   -39663.822    2667.4527   -42331.274    55.703483     224.3357 
   11950    133.87107   -499.18661    142486.59   -39610.401    2693.1495    -42303.55    55.863153    226.49683 
   12000    133.59347   -478.26691    142585.52   -39674.642     2687.565   -42362.207    56.038559    226.02716 
   12050    134.25997   -501.37029    142423.99   -39638.793    2700.9732   -42339.767      55.9644    227.15481 
   12100    131.50683   -500.40758    142550.36   -39637.994    2645.5869    -42283.58     56.10195    222.49676 
   12150    132.17768   -435.32766    142620.94   -39676.474    2659.0827   -42335.557    56.223081    223.63177 
   12200    134.62544   -538.87294    142525.42   -39663.283    2708.3255   -42371.608    56.191392    227.77315 
   12250    133.65347   -407.46995    142466.89   -39654.073     2688.772   -42342.845    56.281014    226.12868 
   12300    134.15894   -435.47821    142566.16   -39676.068    2698.9408   -42375.009    56.430055    226.98388 
   12350    133.43151   -550.60029    142597.22   -39701.708    2684.3067   -42386.014     56.69621    225.75314 
   12400    132.00364   -658.22679    142503.75   -39748.642    2655.5815   -42404.224    56.887985    223.33732 
   12450    131.01548   -445.67925    142476.96   -39717.423    2635.7022   -42353.125    57.065247    221.66545 
   12500    132.26098    -507.6252    142401.42   -39744.562    2660.7586   -42405.321    57.104883    223.77272 
   12550    132.94364   -512.31115    142382.59   -39724.364    2674.4919   -42398.856    57.466403     224.9277 
   12600    135.64209   -444.31688    142281.56   -39705.936    2728.7781   -42434.714     57.63338    229.49323 
   12650    137.34914    -460.7023    142335.91   -39672.789    2763.1196   -42435.909    57.767044    232.38139 
   12700    132.09914   -523.15219    142397.31    -39716.98    2657.5027   -42374.483    57.854972    223.49889 
   12750    131.59063   -458.55023    142241.07   -39717.288    2647.2727    -42364.56    58.069679    222.63854 
   12800    131.82047   -406.77632    142312.27   -39740.749    2651.8966   -42392.645    58.402648    223.02741 
   12850    132.35958   -549.55465    142258.96   -39775.675    2662.7422   -42438.417    58.632965    223.93954 
   12900    131.53363   -638.55442    142292.88    -39762.89    2646.1262   -42409.016    58.721535    222.54211 
   12950    133.52802   -532.09755    142327.15   -39714.487    2686.2481   -42400.735    58.764034    225.91642 
   13000    130.40924   -450.94921    142178.98   -39767.346    2623.5062   -42390.852    58.681014    220.63975 
   13050    132.36838   -481.38919     142249.2   -39715.093    2662.9192   -42378.012    58.713848    223.95443 
   13100    130.90539   -567.84652    142168.59   -39768.471    2633.4876   -42401.959    58.936644    221.47919 
   13150    132.79446   -465.61888    142307.45   -39788.487    2671.4909   -42459.978     58.94485    224.67532 
   13200    132.99462   -474.39334    142281.62   -39814.452    2675.5175    -42489.97    59.160939    225.01396 
   13250    134.02171   -542.05076    142238.02   -39754.263    2696.1801   -42450.444    59.355027    226.75171 
   13300    131.59054   -636.96448    142124.41   -39758.403    2647.2709   -42405.674    59.597128    222.63839 
   13350    132.81779    -594.7572    142036.17   -39744.721    2671.9603   -42416.682     59.45636    224.71479 
   13400    132.31295   -545.14532     141916.3   -39750.154    2661.8041   -42411.958    59.619653    223.86065 
   13450    130.97416   -313.35366    142068.34   -39757.353     2634.871   -42392.224     59.83045    221.59554 
   13500    130.85404   -392.56627    142179.64   -39737.442    2632.4544   -42369.896    59.852718    221.39231 
   13550      131.211   -506.95597    142206.63   -39726.978    2639.6355   -42366.614    60.061965    221.99625 
   13600    134.57595   -354.52125    142333.16   -39677.443      2707.33   -42384.773    60.267095    227.68943 
   13650    133.91641    -510.0642    142431.32   -39670.991    2694.0617   -42365.052    60.630739    226.57354 
   13700    130.74549   -574.69031    142461.84   -39690.684    2630.2708   -42320.955    60.807428    221.20866 
   13750    133.86395   -365.98614    142589.97   -39657.355    2693.0062   -42350.361     60.86427    226.48478 
   13800    132.83073   -466.53829    142672.69   -39687.358    2672.2204   -42359.578    61.084899    224.73667 
   13850    132.60647   -625.07944       142523   -39663.897     2667.709   -42331.605    61.213421    224.35725 
   13900    130.73574   -540.49499    142490.13   -39750.203    2630.0746   -42380.278    61.337666    221.19216 
   13950    130.35928   -411.74854    142454.39   -39735.823     2622.501   -42358.324    61.501358    220.55521 
   14000    133.11097   -575.59599    142386.13   -39693.358    2677.8582   -42371.216    61.638344    225.21081 
   14050    132.47745   -556.77053    142342.65   -39697.728    2665.1134   -42362.842    61.771239    224.13896 
   14100    133.66247   -560.15064    142341.21   -39678.926     2688.953   -42367.879    61.954169     226.1439 
   14150    133.52789   -314.99921    142392.94   -39677.353    2686.2456   -42363.598    62.175134     225.9162 
   14200    131.02833   -539.19865    142378.01   -39689.395    2635.9608   -42325.355    62.420539    221.68719 
   14250     131.7249    -431.1188    142356.78   -39750.188    2649.9741   -42400.162    62.620108    222.86573 
   14300    130.96321   -485.81538    142521.52   -39756.967    2634.6507   -42391.618    62.895013    221.57701 
   14350     131.2275   -560.36748    142498.47   -39747.197    2639.9674   -42387.164    63.200294    222.02416 
   14400    132.54667   -434.35022    142407.87   -39709.516    2666.5058   -42376.022     63.05795    224.25607 
   14450    131.07047   -378.82245    142557.81    -39656.71    2636.8084   -42293.518    63.020975    221.75848 
   14500    134.48939   -586.99254    142598.94   -39610.081    2705.5885   -42315.669    63.209761    227.54296 
   14550    136.13602   -480.23525    142686.17   -39646.508    2738.7146   -42385.223    63.290578     230.3289 
   14600    131.18507   -673.08164    142460.46   -39662.685    2639.1139   -42301.799    63.612141    221.95237 
   14650    132.53163   -638.89592    142300.84   -39661.957    2666.2034    -42328.16     63.71901    224.23064 
   14700    131.72106   -591.46575    142145.96   -39675.653    2649.8967    -42325.55    63.893582    222.85922 
   14750    132.39302   -410.20571    142178.26   -39709.387    2663.4148   -42372.802    64.052377     223.9961 
   14800    132.16475   -589.63654    142195.57   -39742.384    2658.8227   -42401.207    64.137889    223.60991 
   14850     132.6628   -518.53441     142207.5   -39715.852    2668.8422   -42384.694    64.178076    224.45256 
   14900    133.75807   -483.08653    142155.36   -39721.452    2690.8762   -42412.328    64.423693    226.30564 
   14950    128.42603    -503.4161    142139.17   -39754.051     2583.609    -42337.66    64.739397    217.28435 
   15000    134.48769   -476.23398    142162.64   -39684.587    2705.5545   -42390.141    64.612555     227.5401 
   15050    133.77607   -571.79699    142066.41   -39676.405    2691.2383   -42367.644    65.058449    226.33609 
   15100     130.4567   -515.75909    141994.99   -39763.973    2624.4609   -42388.434     65.40236    220.72004 
   15150    132.69499   -570.60171     142113.6   -39722.469    2669.4898   -42391.959    65.636953    224.50702 
   15200    131.89402   -405.81924       142116   -39768.358    2653.3763   -42421.735     65.78929    223.15186 
   15250    133.11335   -465.88323       142046    -39795.76     2677.906   -42473.666    66.015118    225.21484 
   15300    133.59872   -508.29336    142165.74   -39746.689    2687.6704   -42434.359    66.197186    226.03603 
   15350    129.01016     -660.116    142114.57   -39738.301    2595.3602   -42333.661    66.405853    218.27264 
   15400    131.88166   -549.47043    141920.36   -39748.212    2653.1276    -42401.34     66.57561    223.13094 
   15450    130.34894   -535.57571    141862.71    -39769.51    2622.2932   -42391.803    66.826413    220.53774 
   15500    130.18977    -496.7358    141771.53   -39781.728    2619.0909   -42400.819    66.938993    220.26842 
   15550    132.16038   -470.71917    141649.85   -39783.687    2658.7348   -42442.422    67.163581    223.60252 
   15600    134.09266    -355.7583    141856.23   -39751.123    2697.6074    -42448.73    67.396293    226.87174 
   15650    132.01576   -588.76214    141883.08   -39741.578    2655.8253   -42397.403    67.480465    223.35782 
   15700    129.81661   -552.29024    141833.44   -39766.051     2611.584   -42377.635    67.541916    219.63708 
   15750    133.75422   -589.39672     141793.3   -39734.553    2690.7987   -42425.352    67.610643    226.29912 
   15800     132.3485    -420.8892    141732.65   -39698.358    2662.5192   -42360.877    67.625282    223.92079 
   15850    132.67657   -386.94142    141748.18   -39680.756    2669.1192   -42349.875    67.917551    224.47585 
   15900    130.90011   -407.24335    141797.21   -39701.681    2633.3813   -42335.062    67.884591    221.47026 
   15950    134.29004   -521.51849    141878.01   -39637.222    2701.5782   -42338.801    68.027404    227.20569 
   16000     131.9263   -545.14319    141917.45   -39667.054    2654.0257   -42321.079    68.339858    223.20647 
   16050    131.10351   -584.73641    141881.01   -39617.114    2637.4731   -42254.587    68.620068    221.81438 
   16100    132.17172   -471.62503     141777.5   -39637.393    2658.9628   -42296.356    68.742987    223.62169 
   16150     132.4594   -459.47035    141670.58   -39642.754    2664.7503   -42307.504    68.945947    224.10843 
   16200    133.55499   -438.93657    141765.74   -39651.551    2686.7907   -42338.342    69.062103    225.96205 
   16250    132.25985   -309.93845    141902.71   -39672.426    2660.7357   -42333.162    69.287707    223.77079 
   16300    132.21351    -719.2715    142009.28   -39726.659    2659.8035   -42386.463    69.414128    223.69239 
   16350    131.13117   -558.20732    141888.72   -39687.538    2638.0296   -42325.567    69.566299    221.86119 
   16400    130.33181   -571.22223    141865.81   -39649.038    2621.9486   -42270.986    69.608533    220.50875 
   16450    131.49049    -373.2009    141833.79   -39622.683    2645.2583   -42267.941    69.716689    222.46912 
   16500    130.29603   -339.31586    141987.33   -39593.735    2621.2286   -42214.964    69.798172     220.4482 
   16550    134.80556    -406.0375    142211.73   -39568.138    2711.9491   -42280.088    70.064315    228.07789 
   16600    133.41712   -490.04509    142210.74   -39576.552    2684.0172    -42260.57    70.342282    225.72879 
   16650    131.78588    -341.4859    142240.74   -39594.321    2651.2007   -42245.521    70.536827    222.96889 
   16700    132.96288   -382.66653    142331.55   -39563.329    2674.8791   -42238.208    70.925129    224.96027 
   16750     130.9617   -572.94755    142304.35   -39586.995    2634.6202   -42221.615    71.259626    221.57445 
   16800    132.02438   -456.11252    142329.82   -39604.833    2655.9987   -42260.831    71.521689    223.37241 
   16850     130.6394   -684.47833    142111.56   -39646.138    2628.1364   -42274.275    71.640464    221.02915 
   16900    129.67746   -585.12125    141952.09   -39648.117    2608.7847   -42256.902    71.653296    219.40165 
   16950    132.10697    -464.7526    142028.85    -39623.05    2657.6603    -42280.71    71.643948    223.51215 
   17000    132.50585    -446.1468    142024.56   -39582.716    2665.6848   -42248.401    71.980054    224.18702 
   17050    130.34388   -485.18957    142177.73   -39629.459    2622.1913   -42251.651    72.268847    220.52916 
   17100     133.2699    -516.5565     142229.4   -39592.257    2681.0554   -42273.312    72.496057     225.4797 
   17150    131.02875   -542.26238    142056.62   -39618.117    2635.9692   -42254.086    72.468778    221.68791 
   17200    131.78139   -563.13794    142028.08   -39616.698    2651.1105   -42267.809    72.484992     222.9613 
   17250    131.76741    -291.8429    142084.47   -39569.979    2650.8291   -42220.808    72.774238    222.93764 
   17300    132.55367   -483.39439    142259.15   -39523.624    2666.6466    -42190.27    73.246418    224.26791 
   17350    134.47751   -473.31021    142309.04   -39511.262    2705.3496   -42216.612    73.551257    227.52287 
   17400     133.6784   -489.59619     142233.8   -39509.927    2689.2734     -42199.2    73.777375    226.17085 
   17450    134.02092   -639.85799    142166.79   -39581.755    2696.1641   -42277.919    73.856243    226.75036 
   17500    132.99642   -537.66055    142144.21   -39568.828    2675.5538   -42244.381    74.092872    225.01701 
   17550    132.18272   -543.53893    142135.07   -39552.728    2659.1842   -42211.912    74.260778    223.64031 
   17600      132.103   -460.92416    142096.89    -39549.03    2657.5804    -42206.61    74.692094    223.50543 
   17650    132.10136   -490.95089    142149.85   -39520.156    2657.5474   -42177.703    74.830208    223.50265 
   17700    131.39454   -499.02017    142097.83   -39534.184    2643.3279   -42177.512    75.317732    222.30678 
   17750    131.75913   -545.20128    142140.13   -39564.906    2650.6625   -42215.568    75.564489    222.92363 
   17800    131.10075   -528.08393    142210.05   -39547.337    2637.4177   -42184.755    75.814881    221.80972 
   17850    130.48091   -396.76085    142206.76   -39513.894     2624.948   -42138.842    75.998517      220.761 
   17900    133.69975   -546.80755    142171.06   -39537.301     2689.703   -42227.004    76.221348    226.20697 
   17950    133.47844   -614.81154    141983.76   -39532.892    2685.2508   -42218.143    76.573365    225.83254 
   18000    134.67763   -419.03477    141928.53   -39547.643    2709.3755   -42257.019    76.751481    227.86145 
   18050    131.24746   -626.17875    141970.71    -39580.75    2640.3691   -42221.119    77.047459    222.05794 
   18100    132.91157   -487.82458    141762.97   -39588.498    2673.8468   -42262.345    77.241762    224.87345 
   18150    132.54853   -576.94329    141711.38   -39562.309    2666.5434   -42228.852    77.585247    224.25923 
   18200    131.38353   -551.01753    141526.84    -39569.73    2643.1064   -42212.837    77.872585    222.28815 
   18250    134.32652   -529.20132    141448.71   -39534.621     2702.312   -42236.933    78.357821     227.2674 
   18300    134.88515   -547.30919    141419.18   -39522.146    2713.5503   -42235.696    78.608829    228.21256 
   18350    135.90323   -465.59945    141538.84   -39506.665    2734.0315   -42240.697    78.884831    229.93505 
   18400    131.77141   -526.60235    141685.78   -39539.557    2650.9096   -42190.467    79.344234    222.94441 
   18450     131.7751   -521.69995    141731.48   -39553.641    2650.9839   -42204.624     79.72245    222.95066 
   18500    132.22359   -556.08431    141726.72   -39571.757    2660.0064   -42231.763    79.860053    223.70946 
   18550    131.45559   -433.56425    141684.56   -39576.853    2644.5561   -42221.409    80.087987    222.41007 
   18600    134.31178   -504.79812    141859.02   -39535.414    2702.0154    -42237.43    80.347708    227.24246 
   18650    131.84637   -523.25275    141855.78   -39502.201    2652.4177   -42154.618     80.48505    223.07124 
   18700    131.56657   -549.66772    141833.86   -39545.579    2646.7888   -42192.367    80.715329    222.59784 
   18750     136.3552   -529.62685    141861.02   -39524.126     2743.124    -42267.25     81.07088    230.69973 
   18800    132.29422   -395.82551    141876.96   -39549.386    2661.4272   -42210.813    81.289904    223.82895 
   18850    132.65793   -484.63231    141925.25   -39504.584    2668.7441   -42173.328    81.367271    224.44431 
   18900    131.99673   -410.11336    141841.18   -39504.452    2655.4426   -42159.895    81.623792    223.32563 
   18950    130.95441   -485.37653    141899.49   -39567.079    2634.4736   -42201.552    81.670924    221.56212 
   19000    135.89711   -527.00103    141883.69   -39502.298    2733.9083   -42236.206    81.972246    229.92469 
   19050    133.50116   -514.46829    141982.81   -39513.811    2685.7078   -42199.519    82.105201    225.87097 
   19100    132.07912   -437.55841     141958.4   -39530.243       2657.1   -42187.343    82.320324    223.46502 
   19150    134.44393   -704.62887    142076.95   -39511.112     2704.674   -42215.786    82.576815    227.46605 
   19200    131.77419   -469.30027    141989.26   -39507.905    2650.9656   -42158.871    82.692265    222.94912 
   19250     134.6431   -514.44307     141939.7   -39518.513    2708.6809   -42227.194    82.774225    227.80304 
   19300    132.51427   -491.25356    141910.36   -39520.492    2665.8542   -42186.346    82.845504    224.20126 
   19350    134.37443   -494.34821    141931.04   -39538.774    2703.2758    -42242.05    83.162728    227.34846 
   19400    134.06851   -687.88985    141932.25   -39566.734    2697.1215   -42263.856    83.639739    226.83088 
   19450    135.69363   -342.85259     141869.9   -39494.856    2729.8148    -42224.67    83.735139    229.58042 
   19500    135.21233   -652.82792    141992.62   -39502.719    2720.1322   -42222.851    83.637833    228.76611 
   19550      132.489   -519.08073    142052.31   -39515.244    2665.3457   -42180.589     83.58216     224.1585 
   19600    131.35947   -640.07539    141887.04   -39521.922    2642.6225   -42164.544    83.641776    222.24745 
   19650    132.47074   -587.41068     141771.6   -39554.348    2664.9783   -42219.326    83.788613     224.1276 
   19700    130.06707   -366.86881    141760.81   -39597.014    2616.6226   -42213.637    83.948535    220.06083 
   19750    134.63129   -566.00786    141761.98   -39595.673    2708.4433   -42304.116    84.040648    227.78305 
   19800    130.61194   -519.15691    141631.97   -39581.708     2627.584   -42209.292    84.330368    220.98269 
   19850    132.58514   -470.12831    141655.51   -39585.595    2667.2799   -42252.875    84.427728    224.32117 
   19900    131.53579   -460.86432    141716.04   -39561.458    2646.1696   -42207.627    84.905801    222.54576 
   19950     134.1108   -402.35127    141562.81   -39557.843    2697.9722   -42255.815    85.435607    226.90242 
   20000    131.91949   -339.31518    141740.54   -39555.546    2653.8887   -42209.435    85.613297    223.19495 
   20050     133.8313   -494.96048     141786.5   -39541.772    2692.3494   -42234.122    85.636593    226.42954 
   20100    133.61878   -595.86956    141789.44   -39557.276    2688.0742    -42245.35    85.426054    226.06999 
   20150    132.50193   -472.69309    141725.96    -39588.87    2665.6058   -42254.476    85.680108    224.18037 
   20200    135.54251   -445.51912     141907.4    -39560.04    2726.7747   -42286.815    85.906418    229.32474 
   20250    135.29156   -621.52263    141836.01   -39613.151    2721.7261   -42334.877    86.209092    228.90015 
   20300    128.92005   -324.27377    141899.64   -39630.577    2593.5475   -42224.125    86.592387    218.12019 
   20350    132.33261   -616.58382    141833.09   -39595.006    2662.1995   -42257.205    86.847603     223.8939 
   20400     131.7841   -467.58421    141833.44   -39606.559     2651.165   -42257.724    87.043695    222.96588 
   20450    132.10921   -735.29578    141842.85   -39553.416    2657.7054   -42211.122    87.450276    223.51594 
   20500    132.68688   -599.95278    141675.46   -39551.214    2669.3267   -42220.541    87.597978     224.4933 
   20550    133.50244   -522.68002    141671.48   -39560.954    2685.7335   -42246.688    87.970465    225.87314 
   20600     131.6549   -601.36343    141620.49   -39554.219    2648.5658   -42202.785    88.295512    222.74729 
   20650    134.10831   -560.29206    141637.67   -39528.969    2697.9221   -42226.891    88.439751    226.89821 
   20700     134.1447   -577.99839    141622.59   -39492.185    2698.6543   -42190.839     88.58961    226.95979 
   20750    134.43237   -482.86055    141587.24   -39521.279    2704.4415   -42225.721    88.945302     227.4465 
   20800    131.37953   -570.50161    141523.95    -39491.86     2643.026   -42134.886    89.134949    222.28139 
   20850    133.04037   -476.68207    141424.49   -39490.557    2676.4379   -42166.995    89.402494    225.09136 
   20900    134.64697   -546.29766     141399.6   -39493.229    2708.7586   -42201.987    89.362713    227.80957 
   20950    135.20198    -489.9135    141288.02   -39466.928    2719.9241   -42186.852    89.686737     228.7486 
   21000    134.62295   -431.09572    141426.33    -39466.55    2708.2755   -42174.825    90.009076    227.76894 
   21050    133.36104   -525.31628    141445.14   -39495.756    2682.8891   -42178.645    90.382926    225.63391 
   21100    133.96171   -542.04357     141515.7    -39468.27    2694.9729   -42163.243    90.696013    226.65018 
   21150    130.46977   -586.72863     141453.6   -39537.597    2624.7239   -42162.321    90.802553    220.74216 
   21200    134.82449   -466.08779    141435.92   -39502.231      2712.33   -42214.561    90.831526    228.10993 
   21250    130.86016   -288.30348    141624.55   -39541.619    2632.5776   -42174.197    90.797865    221.40266 
   21300    136.16468    -408.5298    141825.63     -39459.4    2739.2912   -42198.691    91.101531     230.3774 
   21350    129.13947    -629.1632    141870.78   -39524.574    2597.9616   -42122.536    91.093479    218.49142 
   21400     132.1061    -566.7062    141815.42   -39504.802    2657.6428   -42162.444    91.471916    223.51068 
   21450     131.4601   -404.77455    141773.35   -39484.362    2644.6469   -42129.009    91.792012     222.4177 
   21500    130.70332    -576.4653    141668.71   -39533.971    2629.4223   -42163.393    92.116145     221.1373 
   21550    133.36077   -426.41615    141542.39    -39459.39    2682.8835   -42142.273    92.439384    225.63345 
   21600    133.48002   -327.42291    141816.93   -39474.075    2685.2825   -42159.358    92.877656    225.83521 
   21650    134.97086   -410.43179     141958.1   -39473.018    2715.2745   -42188.292    93.222393    228.35757 
   21700    135.02298   -500.44047    141985.05   -39488.859    2716.3231   -42205.182    93.662418    228.44575 
   21750    134.85196   -685.24342    142032.69   -39526.495    2712.8825   -42239.377    93.931678    228.15639 
   21800    133.08616   -589.52699    141981.39   -39510.679    2677.3591   -42188.038    94.395564    225.16884 
   21850    132.80677   -464.96858    141984.57   -39552.726    2671.7385   -42224.465    94.531531    224.69614 
   21900    132.40269   -413.50471    142154.91   -39569.103    2663.6094   -42232.712    94.954282    224.01247 
   21950    133.36316   -538.79691    142189.66    -39536.01    2682.9317   -42218.942    95.131152     225.6375 
   22000    134.60233   -579.31492    142209.04   -39484.499    2707.8606    -42192.36    95.525786    227.73405 
   22050    132.14274    -213.8025    142251.59   -39482.098    2658.3799   -42140.478    96.026527    223.57267 
   22100    135.23844   -560.80724    142289.95   -39530.727    2720.6575   -42251.384    96.493176    228.81028 
   22150    135.98103   -482.60964    142208.55   -39527.144    2735.5965   -42262.741    96.785643    230.06667 
   22200    135.15047   -565.65747    142108.88   -39499.596    2718.8878   -42218.484    97.038931    228.66145 
   22250    134.52833   -395.96573    142141.11   -39496.908    2706.3719    -42203.28    97.093974    227.60885 
   22300     133.6382   -630.46675    142213.29   -39532.133    2688.4648   -42220.598     97.41858    226.10284 
   22350    133.30903   -442.61302    142240.64   -39544.544    2681.8426   -42226.387    97.540011     225.5459 
   22400    134.65009   -269.50476    142281.67   -39566.969    2708.8215   -42275.791    97.782717    227.81486 
   22450    131.23965   -511.33702    142385.92   -39606.361     2640.212   -42246.573    98.089888    222.04472 
   22500    132.27227   -524.49547     142245.3   -39609.834    2660.9857    -42270.82    98.426136    223.79182 
   22550    129.86003   -546.56897    142089.42   -39648.181    2612.4574   -42260.639    98.562679    219.71054 
   22600     135.1723   -468.86136    141997.01   -39624.228    2719.3269   -42343.555    98.810225    228.69838 
   22650    134.67296   -385.78682    142073.22   -39674.676    2709.2816   -42383.957    99.107901    227.85355 
   22700    133.90229   -573.07951    142277.68   -39656.819    2693.7776   -42350.596    99.268292    226.54966 
   22750    134.13164   -559.71079    142280.12   -39653.004    2698.3915   -42351.396    99.583664    226.93768 
   22800     132.0718   -484.68497    142339.81   -39686.599    2656.9528   -42343.552    99.910297    223.45265 
   22850     130.9344   -525.01845    142072.87   -39729.423    2634.0711   -42363.494     100.1586    221.52827 
   22900    131.15391   -449.68194    142157.75   -39728.999    2638.4871   -42367.486    100.40998    221.89966 
   22950      131.214   -625.12702    142299.08   -39752.894    2639.6959    -42392.59    100.63168    222.00132 
   23000    131.47473    -411.0174     142246.3   -39727.516    2644.9412   -42372.457    100.61097    222.44246 
   23050    132.65524    -436.8155    142345.59   -39640.733      2668.69   -42309.423    101.11137    224.43975 
   23100    133.20473   -530.69348    142297.86   -39679.243    2679.7444   -42358.988    101.37449    225.36944 
   23150    131.79458   -516.20041    142208.03   -39677.657    2651.3758   -42329.033    101.50246    222.98361 
   23200     132.9387   -311.71523     142188.8   -39643.812    2674.3925   -42318.205    101.60955    224.91934 
   23250    135.98823    -391.0528    142290.52   -39620.805    2735.7415   -42356.546    101.57286    230.07886 
   23300    133.19823   -572.04475    142239.84   -39652.353    2679.6136   -42331.967    101.90249    225.35845 
   23350    134.18479   -463.93796    142168.94   -39632.338    2699.4607   -42331.799    102.41785    227.02761 
   23400    135.25506   -720.12062     142097.1   -39599.213     2720.992   -42320.205    102.62993    228.83841 
   23450    134.18604   -452.92105    142039.26   -39635.221     2699.486   -42334.707    102.58224    227.02973 
   23500    133.75223   -411.24918    142108.44   -39643.885    2690.7587   -42334.644     102.7107    226.29576 
   23550    134.03015   -467.43341    142247.12   -39684.769    2696.3498   -42381.119    102.95704    226.76598 
   23600    133.66197   -602.85435     142183.1   -39652.584    2688.9429   -42341.527     103.2523    226.14305 
   23650    132.67179   -458.56938     142087.8    -39671.59    2669.0229   -42340.613    103.47195    224.46776 
   23700    135.76498   -618.99077    142054.13   -39631.174    2731.2502   -42362.425    103.60817    229.70114 
   23750    130.49692   -523.79846    142027.68   -39641.562    2625.2702   -42266.832    103.64068     220.7881 
   23800    134.25395   -487.39187    141909.12   -39611.722    2700.8522   -42312.575    103.61288    227.14463 
   23850     133.9023   -536.10292    141884.46   -39596.605    2693.7777   -42290.382    103.94208    226.54966 
   23900    134.39091   -558.78961    141908.22   -39590.971    2703.6073   -42294.578    104.15739    227.37634 
   23950    135.19694    -452.6462    141875.15   -39592.178    2719.8226       -42312    104.04859    228.74007 
   24000    135.21955   -621.34243    141846.19   -39610.159    2720.2776   -42330.437    104.46084    228.77833 
   24050    135.23624   -485.49902    141925.48   -39584.615    2720.6133   -42305.228    104.72648    228.80656 
   24100    133.93609    -465.0047    141990.79   -39583.814    2694.4575   -42278.272    105.07949    226.60683 
   24150     133.7903   -652.47868    142016.12   -39556.321    2691.5247   -42247.845    105.34782    226.36018 
   24200    135.29362   -502.05787    141937.74   -39499.913    2721.7676   -42221.681    105.75173    228.90364 
   24250    133.19373   -498.77257    141935.83   -39534.888    2679.5232   -42214.411    105.99692    225.35084 
   24300    133.36165   -635.78229    141953.73    -39562.25    2682.9012   -42245.151    106.08187    225.63494 
   24350    133.03565   -442.77582    141980.91   -39552.647     2676.343    -42228.99    106.08844    225.08338 
   24400    132.14666   -383.67537    141984.51   -39621.994    2658.4587   -42280.452     106.0512    223.57929 
   24450    132.88178   -336.33536    142152.16   -39592.432    2673.2474   -42265.679    106.38261    224.82304 
   24500    136.18615   -655.87519    142260.71   -39586.067    2739.7231    -42325.79    106.62005    230.41372 
   24550    134.53571    -471.0036    142395.84   -39514.464    2706.5205   -42220.984    106.71773    227.62134 
   24600    135.73734   -319.90984    142330.85   -39477.662    2730.6941   -42208.356    106.89844    229.65437 
   24650    135.91449    -446.8293    142398.83   -39502.078    2734.2579   -42236.335    107.07636    229.95409 
   24700    135.38279   -595.17546    142423.29   -39503.752    2723.5615   -42227.313    107.27462    229.05451 
   24750    136.31792   -420.44256    142445.63   -39505.463     2742.374   -42247.837    107.67367    230.63666 
   24800    135.40196   -517.79731    142518.31   -39531.224    2723.9471   -42255.171    107.69126    229.08694 
   24850    136.62031     -394.611    142649.16   -39531.378    2748.4573   -42279.835    107.86989    231.14827 
   24900    135.31803   -494.36852    142619.18   -39505.672    2722.2588   -42227.931    107.97503    228.94495 
   24950    131.41756   -638.98798    142433.34   -39541.095    2643.7911   -42184.886    108.18059    222.34573 
   25000    134.68523   -505.95765    142345.53   -39529.725    2709.5284   -42239.254    108.14515    227.87432 
   25050      133.834   -579.69105    142392.08   -39558.936    2692.4037    -42251.34    108.41657    226.43411 
   25100    133.87209     -531.478    142263.01   -39542.933      2693.17   -42236.103    108.64774    226.49855 
   25150    133.15131   -512.04896    142290.84   -39579.038    2678.6698   -42257.708    108.79963    225.27907 
   25200    135.46091   -451.20461    142404.69   -39543.231    2725.1331   -42268.365    109.24807    229.18668 
   25250    132.98187   -496.71028    142424.82   -39568.304    2675.2611   -42243.565    109.69807     224.9924 
   25300    132.65126   -550.14813    142362.49   -39568.229      2668.61   -42236.839    109.65026    224.43303 
   25350    134.18893   -555.80473    142477.71   -39574.217    2699.5441   -42273.761    109.78923    227.03462 
   25400    132.27969    -422.5965    142625.35   -39625.642    2661.1349   -42286.777    109.82232    223.80436 
   25450    134.20897   -417.19206    142672.16   -39619.472    2699.9472   -42319.419    109.97261    227.06852 
   25500    135.07681   -563.61581    142598.41   -39601.292    2717.4059   -42318.698    109.86791    228.53682 
   25550    135.91807   -499.73725    142513.47   -39577.302      2734.33   -42311.632    110.00678    229.96015 
   25600     133.8288   -510.22773    142457.75   -39582.913    2692.2991   -42275.212    110.07791    226.42531 
   25650    130.50352   -518.28309    142371.97   -39574.953    2625.4028   -42200.356    109.78261    220.79926 
   25700     129.9581   -602.59745    142271.91    -39659.54    2614.4304   -42273.971    109.77453    219.87647 
   25750    131.19638   -462.32825    142105.89   -39674.089    2639.3415    -42313.43    109.73228    221.97152 
   25800    130.94429   -590.99098       142161   -39708.763    2634.2701   -42343.033    109.76839    221.54501 
   25850    131.04363   -533.96223    142111.59   -39668.179    2636.2685   -42304.448    110.20165    221.71307 
   25900    131.24262   -480.99431    142080.24   -39653.535    2640.2718   -42293.807    110.45283    222.04975 
   25950    134.33086   -410.31046    142073.06   -39640.869    2702.3993   -42343.268    110.67656    227.27475 
   26000    133.01798   -581.19249    142027.76   -39609.311    2675.9874   -42285.298    110.89055    225.05348 
   26050    133.00271   -543.73473     141740.8   -39608.613    2675.6802   -42284.293     111.0598    225.02764 
   26100    132.18334   -442.36679    141960.76   -39580.397    2659.1966   -42239.594    111.21985    223.64135 
   26150    135.68326   -572.82001    142038.57    -39530.46    2729.6062   -42260.066    111.02902    229.56288 
   26200    134.81972   -418.37818    142120.31   -39556.577    2712.2339   -42268.811    111.03874    228.10185 
   26250    134.35622    -710.2394     141883.8   -39576.303    2702.9095   -42279.213    111.25892    227.31765 
   26300    134.73725   -566.19195    141676.75   -39584.073    2710.5748   -42294.648    111.25524    227.96232 
   26350    134.12848   -355.15932    141666.68   -39627.498     2698.328   -42325.826    111.37083    226.93235 
   26400    133.78857   -522.36363     141660.1   -39632.945    2691.4897   -42324.435    111.36575    226.35724 
   26450    134.48854   -486.63831    141702.56    -39640.27    2705.5716   -42345.841     111.5734    227.54154 
   26500    135.62676   -463.41631    141887.22   -39647.262    2728.4696   -42375.732    111.57492    229.46729 
   26550    131.92041    -586.8025    141956.56   -39682.541    2653.9071   -42336.448     111.8479     223.1965 
   26600    135.78864   -469.12921    141929.25   -39662.662    2731.7262   -42394.388    112.31254    229.74117 
   26650    132.79186   -502.23533    141928.43   -39692.814    2671.4386   -42364.252    112.70641    224.67092 
   26700    132.52668   -451.17745    141988.49   -39660.145    2666.1039   -42326.249     112.8635    224.22226 
   26750    131.49605    -548.9075    141943.21   -39660.532    2645.3701   -42305.902    113.22349    222.47853 
   26800    133.50728   -428.96916    142022.37   -39608.938     2685.831   -42294.769    113.59902    225.88133 
   26850    131.29446   -462.91819    142012.62   -39616.678    2641.3145   -42257.993    113.87733    222.13745 
   26900    134.12547   -598.77919    142081.25   -39627.106    2698.2674   -42325.373     113.9533    226.92725 
   26950    133.59316   -484.63951    141925.12    -39636.76    2687.5587   -42324.319    113.95376    226.02663 
   27000    132.12678   -444.40991    141912.55   -39643.033    2658.0588   -42301.092    113.75066    223.54566 
   27050    134.79869   -769.54668    141957.57   -39651.112    2711.8109   -42362.923    114.09052    228.06627 
   27100    135.07354   -552.77465    141823.63   -39628.242    2717.3403   -42345.583    114.62871     228.5313 
   27150    133.15201   -466.87957    141904.17   -39656.278    2678.6839   -42334.962    114.77451    225.28025 
   27200    134.87466    -418.9351    142001.57    -39622.84    2713.3393   -42336.179    115.00735    228.19481 
   27250    135.27411    -555.1811    141987.31   -39703.208    2721.3751   -42424.583    115.17193    228.87063 
   27300    131.94354   -599.15669    141898.57    -39707.73    2654.3724   -42362.102    115.24068    223.23563 
   27350    133.45842   -277.63517    142037.31   -39673.517     2684.848   -42358.365    115.68992    225.79866 
   27400    136.07331   -657.36389    142180.71   -39713.566     2737.453   -42451.019    115.91648     230.2228 
   27450    132.97097   -601.01202    142055.65   -39730.583    2675.0417   -42405.625     116.0235    224.97394 
   27500    132.86638   -473.72799    141941.65   -39738.987    2672.9376   -42411.924    116.15219    224.79698 
   27550    133.97344   -350.05499    141979.79   -39698.772    2695.2089   -42393.981    116.22079    226.67003 
   27600    133.77041   -383.75986    142021.39   -39709.906    2691.1245    -42401.03    116.43662    226.32652 
   27650    134.48162   -530.00964    142188.81   -39714.884    2705.4322   -42420.316    116.52122    227.52982 
   27700    133.25995   -411.39213    142264.89   -39720.741    2680.8554   -42401.596    116.88185    225.46288 
   27750    134.52246   -556.07109    142124.14   -39682.914    2706.2538   -42389.168    117.16516    227.59892 
   27800    132.19242   -601.83823     142058.6   -39673.005    2659.3794   -42332.385    117.20601    223.65672 
   27850    134.22832   -505.02173    141999.26   -39697.874    2700.3364   -42398.211    117.21474    227.10125 
   27900    134.11183   -332.44321    142104.45   -39698.427    2697.9929    -42396.42    117.49456    226.90417 
   27950    135.16047   -619.24964    142126.07   -39704.357    2719.0889   -42423.446    117.87951    228.67836 
   28000    134.21114   -354.74363    142101.26   -39676.451    2699.9908   -42376.442    118.29372    227.07219 
   28050    132.21882   -607.31412    142232.72   -39726.812    2659.9104   -42386.723    118.80467    223.70139 
   28100    132.98278   -442.23951    142203.82   -39749.505    2675.2793   -42424.784    119.21235    224.99393 
   28150    131.51434   -486.22894    142254.09   -39789.572    2645.7381    -42435.31    119.19474    222.50947 
   28200    131.11182   -699.65085    142111.56    -39811.34    2637.6404    -42448.98    119.11144    221.82845 
   28250    130.30183   -496.87565    141911.35   -39804.224    2621.3454   -42425.569    119.15879    220.45802 
   28300    133.68392   -497.73586    142003.63   -39744.297    2689.3845   -42433.681    119.38707    226.18019 
   28350    133.12785    -637.4346    141925.26   -39759.988    2678.1979   -42438.186    119.42894    225.23938 
   28400    134.08135   -552.85392    141927.85   -39755.897    2697.3799   -42453.277    119.79386    226.85261 
   28450    133.16154    -438.5437     141942.1   -39759.068    2678.8755   -42437.944    120.02299    225.29637 
   28500    133.48625   -587.12191    142021.27   -39769.819     2685.408   -42455.227    120.11169    225.84576 
   28550    135.17837   -522.04277    141973.81   -39811.929    2719.4492   -42531.379    120.11965    228.70866 
   28600    132.37741   -381.34751    141982.04   -39804.414    2663.1008   -42467.514    120.23151     223.9697 
   28650     130.9873   -496.45507    142006.24   -39774.413    2635.1353   -42409.548    120.50022    221.61777 
   28700      130.996   -458.48127    142023.51   -39757.435    2635.3104   -42392.745     120.6537    221.63249 
   28750    129.83646   -461.61815    141962.02   -39737.116    2611.9833   -42349.099    121.15749    219.67066 
   28800    131.98731   -329.97753     141959.9     -39754.8    2655.2529   -42410.053    121.17484    223.30968 
   28850    133.40547   -500.07798    142149.49   -39715.136    2683.7828   -42398.919    121.23169    225.70908 
   28900    129.93422   -591.58933    142183.89   -39700.468    2613.9499   -42314.418    121.68921    219.83605 
   28950    133.23747   -687.04027    142119.95   -39657.256    2680.4031   -42337.659    121.79053    225.42484 
   29000    132.72995   -403.57006    142221.35   -39669.246     2670.193   -42339.439    122.14611    224.56616 
   29050    134.80133   -657.28832    142237.12   -39652.402     2711.864   -42364.266    122.28396    228.07073 
   29100    129.58114   -523.91198    142214.83   -39693.599    2606.8469   -42300.446    122.57479    219.23869 
   29150    131.86976   -565.00245    142214.04   -39707.577    2652.8881   -42360.465     122.9214     223.1108 
   29200     132.0265   -297.61268     142324.9    -39670.62    2656.0413   -42326.661    123.11243    223.37599 
   29250    133.08795   -691.11208    142441.97   -39667.506    2677.3951   -42344.901    123.17819    225.17187 
   29300    132.58645   -368.63459    142398.19    -39649.97    2667.3062   -42317.277    123.31311    224.32338 
   29350    132.37358   -490.70777    142569.06   -39616.609    2663.0238   -42279.633    123.53693    223.96323 
   29400    135.18319   -529.38661    142530.11   -39622.395    2719.5461   -42341.941    123.66083    228.71681 
   29450    135.28646   -601.67688    142466.25   -39629.525    2721.6235   -42351.149    123.62804    228.89152 
   29500    133.05708   -378.12543    142575.42   -39661.524     2676.774   -42338.298     123.8401    225.11963 
   29550    130.93216   -604.51825    142629.41   -39663.646    2634.0261   -42297.672    124.07726    221.52449 
   29600    132.00222   -334.76725     142529.8   -39676.276    2655.5529   -42331.829    124.14358    223.33491 
   29650    133.03371   -496.96051    142594.84    -39675.54     2676.304   -42351.844    124.26249     225.0801 
   29700    132.23186   -528.48192    142446.29   -39681.969    2660.1728   -42342.142    124.62564    223.72345 
   29750    131.71848   -421.42013    142466.42   -39630.903    2649.8449   -42280.748    124.98015    222.85486 
   29800     133.8819   -471.80797    142383.79   -39617.868    2693.3674   -42311.235    124.88454    226.51515 
   29850    130.86314   -576.80707    142389.71   -39641.843    2632.6375   -42274.481    125.18027     221.4077 
   29900    133.49342   -458.02185    142318.26   -39624.703    2685.5521   -42310.255    125.31931    225.85788 
   29950    133.20429    -503.3141    142367.24   -39644.814    2679.7356    -42324.55    125.60399     225.3687 
   30000    133.07905   -676.25407    142177.58   -39657.048     2677.216   -42334.264    125.35657    225.15681 
   30050    133.92945   -460.80793    142201.68   -39697.741     2694.324   -42392.065    125.30339    226.59561 
   30100    132.46371   -526.99778    142295.62   -39643.657    2664.8369   -42308.494    125.28464    224.11571 
   30150    131.54596   -457.75027    142256.42   -39649.855    2646.3741   -42296.229    125.31656    222.56296 
   30200    132.38254   -383.62055    142252.95   -39633.443     2663.204   -42296.647    125.36641    223.97838 
   30250    133.22899   -609.98867    142419.47   -39639.447    2680.2324   -42319.679    125.67331    225.41049 
   30300    133.88511   -610.98763    142230.21   -39671.596    2693.4319   -42365.028    125.69059    226.52058 
   30350    131.32012   -524.64684    142253.84   -39685.594    2641.8309   -42327.425    125.72857    222.18088 
   30400    131.64459   -433.36421    142254.23   -39678.128    2648.3583   -42326.486    125.66659    222.72984 
   30450    133.63256   -596.04887    142457.36   -39681.978    2688.3512   -42370.329    125.81489    226.09329 
   30500    133.94115   -334.72183    142541.84     -39638.9    2694.5594    -42333.46    126.11374     226.6154 
   30550    132.83238   -587.81666    142659.29   -39639.859    2672.2538   -42312.113    126.36237    224.73947 
   30600    134.51284   -503.26062    142602.61   -39591.263    2706.0603   -42297.324    126.29609    227.58264 
   30650    135.84639   -392.31475    142653.39   -39594.229     2732.888   -42327.117     126.3314    229.83888 
   30700    132.72343   -544.61114    142785.06   -39602.227    2670.0618   -42272.289    126.64934    224.55513 
   30750    136.44028   -620.27853    142544.92    -39582.89    2744.8355   -42327.726    126.89623    230.84368 
   30800    133.64593   -569.99374    142396.49   -39596.102    2688.6203   -42284.722    127.15067    226.11592 
   30850    131.96555   -462.10745    142388.01   -39614.422    2654.8153   -42269.237    127.43804    223.27288 
   30900    135.36353   -555.48372    142408.54   -39586.081     2723.174   -42309.255    127.53923    229.02192 
   30950     133.9663   -406.83787    142363.13   -39573.544    2695.0652   -42268.609    127.65047    226.65794 
   31000    135.30061   -440.03968    142608.91   -39608.369    2721.9083   -42330.277    127.75135    228.91548 
   31050    133.79044   -465.26973    142530.12    -39663.66    2691.5274   -42355.188    127.97456    226.36041 
   31100    133.92625   -503.88459    142486.17   -39679.087    2694.2595   -42373.346    128.03492    226.59018 
   31150    131.78796   -464.25188    142366.94     -39674.9    2651.2426   -42326.143    128.16465    222.97241 
   31200    134.06747   -460.00028    142385.48   -39616.736    2697.1006   -42313.837     128.3709    226.82912 
   31250    132.06579   -394.08829    142557.04   -39633.999    2656.8319   -42290.831    128.78319    223.44248 
   31300    130.12306   -403.76755    142629.75   -39634.131    2617.7489    -42251.88    129.15809    220.15556 
   31350     129.7366    -594.2492    142508.84   -39647.554    2609.9744   -42257.528    129.43267    219.50171 
   31400    132.93903   -540.21417    142516.39   -39651.723    2674.3993   -42326.122    129.50884    224.91991 
   31450    132.13827   -543.71801    142371.99   -39669.818    2658.2899   -42328.107    129.85111    223.56509 
   31500    132.57903   -682.18762    142319.14   -39622.726     2667.157   -42289.883    130.04268    224.31083 
   31550    132.73562   -548.43632     142282.4   -39637.282    2670.3072    -42307.59    130.00979    224.57577 
   31600    133.24869   -446.85491    142319.82   -39675.331    2680.6287    -42355.96     130.2223    225.44382 
   31650    132.14586   -548.64752    142349.14   -39683.456    2658.4425   -42341.899    130.45302    223.57793 
   31700    135.20987   -513.26636    142276.27   -39695.268    2720.0828   -42415.351    130.45595    228.76195 
   31750    133.50923   -506.97677    142516.72   -39685.401    2685.8703   -42371.271    130.67436    225.88464 
   31800    133.40611   -617.84157    142442.38   -39640.163    2683.7957   -42323.959    130.73958    225.71016 
   31850    134.73692   -598.84711    142322.18   -39640.297    2710.5683   -42350.865    130.80547    227.96177 
   31900    134.02531   -561.86065    142249.41   -39607.737    2696.2524   -42303.989    130.86644    226.75779 
   31950    135.08846   -578.95797    142387.64   -39605.099    2717.6403   -42322.739    130.92514    228.55653 
   32000    133.26957   -525.53602    142270.38   -39598.357    2681.0489   -42279.406    131.07384    225.47916 
   32050    132.52675   -468.62457     142365.9   -39613.781    2666.1051   -42279.886    131.70423    224.22236 
   32100    132.62572   -536.22464    142292.77    -39620.93    2668.0963   -42289.026    131.91223    224.38983 
   32150    133.63736    -469.4509    142182.49   -39616.487    2688.4479   -42304.935    132.29808    226.10142 
   32200    133.69144   -662.61624    142177.88   -39602.828    2689.5357   -42292.363    132.56313    226.19291 
   32250    132.19197   -594.57346    142129.08   -39623.304    2659.3702   -42282.674    132.76245    223.65595 
   32300    133.37628   -345.81344    142107.02   -39669.591    2683.1956   -42352.786    133.07512    225.65969 
   32350    132.66757   -648.28489    142284.21    -39657.41    2668.9382   -42326.348     133.0842    224.46063 
   32400    131.32775   -449.99925    142177.63   -39724.864    2641.9842   -42366.848    133.35649    222.19377 
   32450    129.90511   -625.58049    142134.66    -39761.77    2613.3644   -42375.135    133.44398    219.78681 
   32500    128.56322   -427.85155    142109.56   -39792.849     2586.369   -42379.217    133.61416    217.51647 
   32550    132.13797   -677.90649    142002.49   -39711.539    2658.2839   -42369.823    133.96516    223.56459 
   32600    130.72299   -596.76575    141940.26   -39696.772    2629.8181    -42326.59    134.01072    221.17059 
   32650    129.84423   -593.14644    141997.65   -39710.258    2612.1395   -42322.397    134.47213     219.6838 
   32700    132.66335    -564.7752    141959.45   -39652.285    2668.8533   -42321.139    134.54291    224.45349 
   32750    133.04778   -569.12838    141937.55   -39641.157     2676.587   -42317.744    134.68837     225.1039 
   32800    130.20555   -468.71764    142044.58   -39618.421    2619.4084   -42237.829     135.0483    220.29512 
   32850    130.91905   -570.62862    141971.38   -39643.143    2633.7624   -42276.906    134.94324     221.5023 
   32900     135.3083   -490.21396    141976.21   -39647.147     2722.063    -42369.21    134.93811    228.92849 
   32950    134.95341   -356.35803    142118.54   -39633.294    2714.9235   -42348.218    135.12317    228.32805 
   33000    133.93463   -509.46844    142196.74   -39623.471    2694.4282   -42317.899    135.36974    226.60437 
   33050    131.02042   -569.61507     142183.5   -39673.421    2635.8016   -42309.222    135.59947    221.67381 
   33100    133.38572   -614.97676    142144.16   -39651.741    2683.3855   -42335.127    135.42964    225.67567 
   33150    133.07739   -404.37403    142103.68   -39615.681    2677.1826   -42292.863    135.57141    225.15399 
   33200    134.73887   -396.51066    142168.04   -39621.543    2710.6076    -42332.15    135.50607    227.96507 
   33250    134.38994   -446.47587    142251.16   -39591.151     2703.588   -42294.739    135.76174    227.37471 
   33300    133.28793    -516.4901    142272.69   -39649.156    2681.4182   -42330.574    136.00979    225.51021 
   33350    132.07563   -509.47861    142285.17    -39710.29    2657.0297    -42367.32    136.23385    223.45912 
   33400    133.55803   -540.72202     142251.8   -39671.019    2686.8519    -42357.87    136.54195    225.96719 
   33450    135.32563   -658.05136    142166.03   -39650.708    2722.4116   -42373.119    136.64839     228.9578 
   33500    131.57488   -338.80526    142112.33    -39658.03     2646.956   -42304.986     136.7522     222.6119 
   33550    133.28103   -394.34517    142350.81   -39633.419    2681.2794   -42314.698    137.01528    225.49854 
   33600    131.71064   -585.90516    142267.15   -39611.088     2649.687   -42260.775    137.22411    222.84158 
   33650     134.2859   -748.39416     142140.1   -39617.211    2701.4948   -42318.706    137.26502    227.19868 
   33700    132.70515   -521.86539    142133.59   -39583.791    2669.6941   -42253.485    137.54948     224.5242 
   33750    132.73585   -455.44272    142049.52   -39612.037    2670.3118   -42282.349    137.71309    224.57615 
   33800    131.87189   -399.85533    142114.14   -39693.204     2652.931   -42346.135    137.79401    223.11441 
   33850    133.12648   -472.12131     141970.3   -39682.773    2678.1702   -42360.943    137.83843    225.23705 
   33900     132.1548   -405.39939    141984.95   -39684.698    2658.6225   -42343.321    137.81365    223.59307 
   33950    130.55942   -415.22964     142074.9    -39680.75    2626.5274   -42307.278    138.04692    220.89384 
[...]
   92000    132.75786   -491.44614    141895.72   -39572.666    2670.7546    -42243.42    341.71092    224.61339 
   92050    131.71428   -502.57733    141954.71   -39548.186    2649.7604   -42197.946    341.29723    222.84775 
   92100    131.95955   -550.39158    141872.74   -39517.999    2654.6945   -42172.694    340.86885    223.26272 
   92150    134.25918   -530.77622    141780.93   -39578.201    2700.9572   -42279.158    341.14807    227.15347 
   92200    133.90907   -486.77862    141769.85    -39526.18    2693.9139   -42220.094    341.81327    226.56112 
   92250    132.79368   -513.56679    141689.47   -39523.942    2671.4751   -42195.417    341.79512    224.67399 
   92300    132.11475   -402.94908    141796.15   -39585.046    2657.8169   -42242.863    341.72865    223.52531 
   92350    131.56254    -479.7037    142025.09   -39645.812    2646.7077    -42292.52    342.01619    222.59102 
   92400    132.91811   -471.73276    142021.32    -39613.24    2673.9784   -42287.219    342.49819    224.88452 
   92450    132.70105   -553.33285    142075.45   -39654.626    2669.6117   -42324.238    342.48716    224.51727 
   92500    131.03804   -528.11711    142132.49   -39679.094     2636.156    -42315.25    342.85864    221.70361 
   92550    131.13042   -507.82702    142180.52   -39661.426    2638.0145   -42299.441    342.91248    221.85991 
   92600    129.97561    -385.0649    142028.97   -39679.759    2614.7826   -42294.542    342.76427    219.90608 
   92650    128.79505   -397.00069     142116.9   -39647.796    2591.0327   -42238.828    343.25743    217.90869 
   92700    134.50068   -438.71015    142117.78   -39605.738    2705.8158   -42311.554    343.13494    227.56208 
   92750    132.76359    -445.6607    142211.61   -39614.509    2670.8698   -42285.379    343.56332    224.62308 
   92800    134.13277   -383.45206    142185.21   -39601.138    2698.4142   -42299.552    343.84616    226.93959 
   92850    131.19945   -472.43228     142443.6   -39653.188    2639.4033   -42292.591    343.80687    221.97671 
   92900    136.83302   -625.94822    142365.07   -39623.353    2752.7365   -42376.089    343.87652    231.50816 
   92950    133.29482   -584.33396    142178.32   -39656.219    2681.5569   -42337.776    344.31263    225.52188 
   93000    132.32181   -520.01213    142321.03   -39679.316    2661.9823   -42341.299    344.44001    223.87563 
   93050    132.98217   -527.36145     142262.2    -39670.26     2675.267   -42345.527    344.59244    224.99289 
   93100    129.41718   -443.10855    142220.19   -39682.308    2603.5484   -42285.856    344.50018    218.96127 
   93150    129.08466   -451.48889    142408.13   -39667.194    2596.8589   -42264.053    344.72769    218.39868 
   93200    133.28933   -581.05987    142321.68    -39672.07    2681.4463   -42353.516    345.06381    225.51258 
   93250     132.1379   -656.60143    142382.03   -39648.125    2658.2825   -42306.407    345.15662    223.56448 
   93300    135.57557   -482.86675    142324.24   -39626.105    2727.4397   -42353.544    345.39017    229.38067 
   93350    134.94915   -519.44161    142286.55   -39632.879    2714.8378   -42347.717    345.55042    228.32084 
   93400    132.90823   -560.95197    142278.75   -39660.085    2673.7797   -42333.864    345.64491     224.8678 
   93450    132.04742   -560.75108    142173.81   -39687.707    2656.4622   -42344.169    345.72003    223.41138 
   93500    131.46315   -377.04776    142236.64   -39737.239    2644.7083   -42381.947    346.19346    222.42287 
   93550    135.22924   -464.63707    142223.39   -39705.107    2720.4725    -42425.58    346.14187    228.79472 
   93600    131.46918     -410.355    142301.99   -39723.791    2644.8295   -42368.621    346.25371    222.43306 
   93650     131.2185   -409.45178    142439.43    -39681.32    2639.7864   -42321.106    346.60919    222.00893 
   93700    133.63872    -696.1715    142355.16   -39699.593    2688.4752   -42388.068    347.00774    226.10371 
   93750    132.88008    -592.5844    142207.91   -39689.248    2673.2133   -42362.462    347.21275    224.82017 
   93800      135.051    -430.7346    142123.23   -39664.466    2716.8868   -42381.353    347.24332    228.49316 
   93850    132.73171   -690.51686    142124.39   -39653.227    2670.2284   -42323.455    347.59164    224.56914 
   93900    132.57757   -462.52211    142057.62   -39663.865    2667.1276   -42330.993    347.33965    224.30835 
   93950    132.50473   -652.98504    142225.83   -39687.931    2665.6622   -42353.593    347.70618    224.18511 
   94000    134.06069   -500.74038    142115.61    -39680.59    2696.9643   -42377.555    347.67926    226.81765 
   94050    131.99963   -518.49874    142198.25   -39709.036    2655.5009   -42364.537    348.13639    223.33054 
   94100    132.83783   -492.56483    142137.14   -39676.542    2672.3634   -42348.905    348.38312    224.74869 
   94150    131.49804   -631.94737     142138.7   -39689.588    2645.4102   -42334.998    348.04835     222.4819 
   94200    132.31951   -405.60197    142055.73   -39650.471    2661.9361   -42312.407    348.02442    223.87174 
   94250    134.28887   -496.05565    142196.29   -39627.702    2701.5547   -42329.256     348.6661    227.20371 
   94300    129.28862    -400.2859    142329.47   -39649.091    2600.9622   -42250.053    349.01507    218.74378 
   94350    130.51791   -574.37349    142390.81   -39647.369    2625.6924   -42273.061    349.37188    220.82361 
   94400    130.35388   -455.50883    142422.37   -39676.153    2622.3925   -42298.545    349.28116    220.54609 
   94450    132.24063   -670.84787     142138.3   -39674.634    2660.3492   -42334.983    349.51106    223.73829 
   94500    130.19801    -501.3346    142033.68   -39661.233    2619.2568    -42280.49    349.31029    220.28237 
   94550    131.77458   -328.39444       142182   -39615.131    2650.9734   -42266.104    349.18671    222.94977 
   94600    134.25007   -239.20965    142339.23   -39632.813    2700.7741   -42333.587    349.40459    227.13806 
   94650     134.1538   -481.27139    142281.92   -39557.181    2698.8374   -42256.018    349.43567    226.97519 
   94700    133.04948   -622.92656    142311.98   -39518.746    2676.6213   -42195.368    349.35893    225.10678 
   94750    137.09824    -670.5721    142224.51   -39524.573     2758.072   -42282.645    349.65507    231.95688 
   94800    133.49226   -572.27976    142089.09   -39471.862    2685.5288    -42157.39    349.96624    225.85592 
   94850    134.45181   -642.71788    141992.55   -39510.085    2704.8326   -42214.918    350.86276    227.47939 
   94900    133.14797   -584.78954    141953.89   -39515.805    2678.6026   -42194.408    350.94384    225.27342 
   94950    132.51775    -534.9164    141857.12   -39549.284    2665.9241   -42215.208    350.92159    224.20714 
   95000    130.99253   -339.13319    141917.21   -39538.714    2635.2405   -42173.954    351.26332    221.62662 
   95050    133.25792   -561.93824    141994.23   -39493.663    2680.8144   -42174.477     351.7458    225.45944 
   95100    134.02322   -514.40708    141884.27   -39540.568    2696.2103   -42236.778    352.05241    226.75425 
   95150    134.08633   -514.18041    141932.11    -39532.58    2697.4801    -42230.06    352.31052    226.86104 
   95200    136.90201    -372.3676     141836.7   -39489.901    2754.1244   -42244.025    351.91639    231.62489 
   95250    131.07288   -542.15637    141731.83   -39551.078    2636.8569   -42187.935    351.94863    221.76256 
   95300    134.82946   -539.36789    141729.19   -39558.992      2712.43   -42271.422    351.62215    228.11834 
   95350    132.37338   -332.23907    141931.06   -39585.253    2663.0197   -42248.272    352.04385    223.96288 
   95400    132.25114   -600.01757    141868.11   -39602.429    2660.5605    -42262.99    352.36074    223.75606 
   95450    130.85805   -590.52639    141672.48   -39614.993    2632.5351   -42247.528     352.3241    221.39909 
   95500    130.41876   -522.93411    141548.09   -39643.518    2623.6976   -42267.216     351.6836    220.65585 
   95550    130.55997   -423.72338    141673.28   -39592.123    2626.5386   -42218.661     352.0033    220.89478 
   95600    134.13647   -469.52549    141628.25   -39520.563    2698.4887   -42219.051    351.97212    226.94586 
   95650    132.10019   -500.48258    141460.67   -39548.466    2657.5239    -42205.99    352.12471    223.50067 
   95700     134.5134   -498.11135    141589.84   -39586.945    2706.0715   -42293.017    352.17249    227.58358 
   95750    131.23044   -520.75083    141677.93   -39619.316    2640.0266   -42259.342     352.4198    222.02914 
   95800    133.14344   -592.90817    141693.08   -39579.591    2678.5114   -42258.103    352.36971    225.26575 
   95850    130.17175   -536.50337    141525.11   -39615.266    2618.7285   -42233.995    352.27124    220.23794 
   95900    132.14494   -402.03664    141474.18   -39527.517    2658.4241   -42185.941    352.27151    223.57638 
   95950    131.29782   -329.51763    141516.45   -39553.447    2641.3821   -42194.829    352.55732    222.14314 
   96000    135.25668    -434.8533    141625.08   -39521.905    2721.0244    -42242.93    353.19955    228.84114 
   96050    134.70753   -529.26286    141936.02   -39509.975    2709.9769   -42219.952    353.95387    227.91203 
   96100    132.33685   -532.32782    141929.77   -39488.632    2662.2848   -42150.916    354.38758    223.90108 
   96150    132.66695   -455.65281    141973.29   -39518.456    2668.9257   -42187.382    354.56943    224.45958 
   96200    132.21138    -497.3834    141996.95   -39501.297    2659.7607   -42161.058    354.82158    223.68879 
   96250    132.28227   -530.06287    142029.66   -39508.237    2661.1869   -42169.424    355.15639    223.80874 
   96300     133.3496   -341.19761    142074.34   -39474.675    2682.6588   -42157.333    355.53881    225.61455 
   96350    135.33347   -614.98191    141990.75   -39472.784    2722.5693   -42195.353    355.70399    228.97107 
   96400    132.91478   -515.17553     141807.5   -39507.874    2673.9114   -42181.786     355.9959    224.87888 
   96450    135.79994   -358.78453    141948.04   -39535.175    2731.9536   -42267.129    356.35261    229.76029 
   96500    131.76064   -610.83442    142083.15   -39544.653     2650.693   -42195.346    356.76837    222.92619 
   96550    133.59471   -457.86674    142037.95    -39538.57    2687.5899    -42226.16    357.04375    226.02926 
   96600     131.5971   -565.81002    142092.45   -39588.951    2647.4029   -42236.354    357.35786    222.64949 
   96650    135.52501   -498.87683    141849.58   -39562.168    2726.4226    -42288.59    357.18923    229.29513 
   96700    132.08285    -278.3431    141989.63   -39589.509     2657.175   -42246.684    357.69955    223.47133 
   96750    132.23294   -564.65045    142043.35    -39587.46    2660.1945   -42247.654    357.64951    223.72527 
   96800     131.9203   -473.06166    142138.97   -39594.105    2653.9049    -42248.01    358.49712    223.19631 
   96850    132.10853   -453.42082    142115.85   -39616.692    2657.6917   -42274.383    358.77692    223.51478 
   96900    133.15773   -493.60373    142136.44   -39623.679    2678.7989   -42302.478    358.46604    225.28993 
   96950    131.33137   -394.47046    142379.62   -39619.324    2642.0572   -42261.381    358.40654    222.19991 
   97000    132.28535   -490.74048    142333.98    -39626.68    2661.2487   -42287.929    358.06805    223.81394 
   97050    132.36872   -526.38232    142336.64   -39631.079     2662.926   -42294.005    358.64484      223.955 
   97100    132.15774   -496.21523    142231.45   -39652.221    2658.6817   -42310.902    359.28928    223.59805 
   97150     132.3283    -559.0137    142161.14   -39640.017    2662.1129    -42302.13    359.12236    223.88662 
   97200    132.24634    -517.8976    141961.82   -39640.164    2660.4641   -42300.628    359.02419    223.74795 
   97250    130.59762   -649.86931    141905.71   -39660.867     2627.296   -42288.163    359.16921    220.95848 
   97300    134.09192   -523.01695    141975.05   -39639.705    2697.5924   -42337.297     359.2555    226.87048 
   97350    133.97135   -400.75986    141986.83   -39623.302     2695.167   -42318.469    359.30254     226.6665 
   97400    132.06815    -424.6438    142126.01   -39626.143    2656.8793   -42283.022    359.84824    223.44646 
   97450    133.78409   -477.91731    142102.11   -39605.153    2691.3997   -42296.553    360.11525    226.34967 
   97500    132.19134    -557.4836    142089.05   -39631.325    2659.3575   -42290.683    360.80989    223.65488 
   97550    130.81938   -566.76954    142138.98   -39658.139    2631.7571   -42289.896    360.60058    221.33366 
   97600     130.6551   -403.80994    142242.44   -39683.919    2628.4524   -42312.372     360.9011    221.05573 
   97650    131.58991   -623.57501    142133.79   -39685.392    2647.2583    -42332.65     360.8146    222.63733 
   97700    131.23404   -410.50109    142092.13   -39625.865    2640.0992   -42265.964     361.1166    222.03524 
   97750    131.59627   -660.22605    141919.87   -39657.351    2647.3862   -42304.737    361.12888    222.64809 
   97800    132.78622    -302.7064    141864.02   -39661.271     2671.325   -42332.596    361.28906    224.66136 
   97850    133.80757    -436.9574    141900.84   -39651.574     2691.872   -42343.446    361.75813    226.38939 
   97900    132.83719   -668.21399    141750.37   -39637.739    2672.3504   -42310.089    361.74111     224.7476 
   97950    134.01184   -458.82049     141725.6   -39607.407    2695.9814   -42303.389    362.20517    226.73499 
   98000    134.08265   -451.38522    141629.76   -39582.313     2697.406   -42279.719    362.33314     226.8548 
   98050    134.30288   -310.43359    141765.51   -39518.474    2701.8364    -42220.31    362.54645    227.22741 
   98100    134.22019   -516.61452    141823.52   -39501.761    2700.1729   -42201.934    362.66221     227.0875 
   98150    136.94318   -470.58935    141896.85   -39508.527    2754.9527   -42263.479      362.544    231.69455 
   98200    133.38056   -539.07062    141951.79   -39544.873    2683.2816   -42228.154    362.58604    225.66693 
   98250    131.41737   -467.77887    141801.38   -39556.857    2643.7873   -42200.644    362.36038    222.34541 
   98300    133.84928   -582.87869     141699.2   -39591.939    2692.7112   -42284.651    362.56231    226.45996 
   98350    131.34664   -397.78829    141740.83   -39598.875    2642.3643   -42241.239    362.78304    222.22574 
   98400    132.60813   -305.31438    141996.61   -39574.419    2667.7423   -42242.161     363.2715    224.36006 
   98450    132.75158   -396.52291    142027.79   -39589.768    2670.6283   -42260.396    363.38593    224.60277 
   98500    131.30026   -521.77687    142046.77   -39575.858    2641.4313   -42217.289    363.65444    222.14727 
   98550    134.54764   -466.08472    142115.59   -39557.565    2706.7604   -42264.325    363.93148    227.64152 
   98600    130.27617    -597.7912    142118.16    -39585.35    2620.8292   -42206.179    363.65749    220.41461 
   98650    131.07452   -660.74803    141901.18   -39631.723    2636.8899   -42268.613    363.63623    221.76534 
   98700    133.70642    -427.2153    141959.39   -39579.089    2689.8371   -42268.926    364.42415    226.21825 
   98750    134.51695   -517.34279    141893.97   -39571.136    2706.1429   -42277.279    364.72726    227.58959 
   98800    133.37442   -437.86834    142012.56   -39557.476    2683.1582   -42240.634    364.81352    225.65654 
   98850    133.25638   -529.13235       142023   -39622.315    2680.7835   -42303.099    365.44813    225.45684 
   98900    132.50045   -401.58963    141991.51   -39620.282    2665.5761   -42285.858     365.4013    224.17787 
   98950     134.0353   -567.19645    142057.55   -39586.226    2696.4535   -42282.679    365.50985     226.7747 
   99000    133.12301   -369.56188    142098.69   -39637.553    2678.1005   -42315.654    365.17623    225.23119 
   99050    131.85012   -506.95588    142212.35    -39631.16    2652.4931   -42283.653    365.53366    223.07758 
   99100    133.42083    -439.6041    142239.48   -39616.094    2684.0919   -42300.186    366.01139    225.73507 
   99150     136.2872   -424.72823    142270.44   -39584.343     2741.756   -42326.099    366.34042    230.58469 
   99200    133.40533   -391.01781    142388.91   -39591.535    2683.7799   -42275.315    366.65787    225.70884 
   99250    134.35394   -457.38507    142397.59   -39590.956    2702.8636    -42293.82    367.08106    227.31379 
   99300    136.04028   -544.86019    142437.25   -39587.064    2736.7886   -42323.852    367.54434    230.16692 
   99350     133.4412   -556.17814    142375.58   -39629.863    2684.5016   -42314.365    366.82389    225.76953 
   99400    134.93782   -697.88834    142202.21   -39624.655    2714.6098   -42339.265    366.99268    228.30166 
   99450    134.62141   -428.53799    142162.91   -39575.181    2708.2446   -42283.426    367.28425    227.76634 
   99500    133.75221   -608.50369    142189.05   -39603.039    2690.7583   -42293.798    367.18789    226.29573 
   99550    134.57224   -512.62679    142158.74   -39556.457    2707.2552   -42263.712    367.60355    227.68313 
   99600    132.54118   -494.49144    142152.47    -39572.23    2666.3955   -42238.626    368.22029    224.24679 
   99650    130.96404    -392.6469    142199.08   -39582.105    2634.6675   -42216.772    368.15342    221.57842 
   99700    134.36596   -654.84226    142208.47   -39554.059    2703.1055   -42257.165    367.74869    227.33414 
   99750    135.06747   -358.25282       142389   -39520.914     2717.218   -42238.132    368.49047    228.52101 
   99800    131.06921   -495.86993    142397.04   -39528.489    2636.7831   -42165.272    368.87447    221.75635 
   99850    133.15237   -388.68478    142268.43   -39531.416    2678.6911   -42210.107    368.63762    225.28086 
   99900    138.55735   -388.96608    142350.65   -39513.439    2787.4257   -42300.864    369.00156    234.42556 
   99950    135.18409   -598.27066    142205.04   -39505.565    2719.5642   -42225.129    368.99096    228.71833 
  100000    133.05021   -435.55283    142377.97   -39499.381    2676.6359   -42176.017    369.11464    225.10802 
Loop time of 331.997 on 40 procs for 100000 steps with 6750 atoms

Performance: 130.122 ns/day, 0.184 hours/ns, 301.208 timesteps/s
99.4% CPU use with 40 MPI tasks x no OpenMP threads

MPI task timing breakdown:
Section |  min time  |  avg time  |  max time  |%varavg| %total
---------------------------------------------------------------
Pair    | 54.024     | 143.55     | 274.36     | 644.8 | 43.24
Neigh   | 1.9482     | 4.1043     | 12.218     | 167.6 |  1.24
Comm    | 32.651     | 125.38     | 149.84     | 339.6 | 37.76
Output  | 0.1781     | 0.1847     | 0.29272    |   4.0 |  0.06
Modify  | 6.848      | 57.344     | 126.48     | 731.2 | 17.27
Other   |            | 1.434      |            |       |  0.43

Nlocal:    168.75 ave 407 max 110 min
Histogram: 32 0 0 0 0 0 0 2 3 3
Nghost:    1289.67 ave 1671 max 871 min
Histogram: 16 0 0 0 0 0 0 0 16 8
Neighs:    0 ave 0 max 0 min
Histogram: 40 0 0 0 0 0 0 0 0 0
FullNghs:  20279.5 ave 74717 max 6963 min
Histogram: 32 0 0 0 0 0 0 1 3 4

Total # of neighbors = 811180
Ave neighs/atom = 120.175
Neighbor list builds = 6128
Dangerous builds = 0

write_data		${DIR}/data.eq-${NAME}-${TEMP}
write_data		run_8/data.eq-${NAME}-${TEMP}
write_data		run_8/data.eq-het_freeze_8-${TEMP}
write_data		run_8/data.eq-het_freeze_8-225
undump          1

reset_timestep  0

unfix           2
unfix           3
unfix           4


################################################
#######         Run Simulation         #########
################################################

log				${DIR}/log.run_${NAME}
log				run_8/log.run_${NAME}
log				run_8/log.run_het_freeze_8
