LAMMPS data file via write_data, version 16 Mar 2018, timestep = 100000

6328 atoms
2 atom types

0.0000000000000000e+00 4.9219999999999999e+01 xlo xhi
0.0000000000000000e+00 4.9019635930410494e+01 ylo yhi
3.5227997237838196e+00 5.6539200276217052e+01 zlo zhi

Masses

1 18.015
2 12.01

Atoms # atomic

115 1 1.0043899345478973e+00 1.5423233089068002e+00 4.9365294902269934e+00 1 0 0
1263 1 3.5491237120219350e+00 1.1743281617888937e+00 6.0076514727054473e+00 1 0 1
3699 1 7.6442831161826819e+00 3.7452673138035677e+00 4.9856542331817186e+00 1 0 1
221 1 8.1089333743230618e+00 1.8807848458053114e+00 7.0678463113344918e+00 1 0 0
1679 1 8.1954986281862165e+00 4.2636416013658107e-01 4.3988450468104681e+00 0 0 1
184 1 4.7943669670782807e+00 3.4068391424971369e+00 4.8744564987860883e+00 1 1 1
521 1 1.0955220194753652e+01 1.2997650359302482e+00 7.8190710994070933e+00 0 0 1
3065 1 2.7078452308000229e+00 5.4426616993346162e+00 7.4651799459491794e+00 0 1 1
2957 1 2.0129436532377396e-03 6.0243154156926488e+00 6.4159097347343117e+00 0 1 1
2102 1 3.6043552299819365e-01 4.3538809934863592e+00 3.9668460853939345e+00 0 1 1
3637 1 6.9235478137982005e+00 6.1626671991604773e+00 6.5352049973417907e+00 1 0 0
2804 1 4.2930113156096708e+00 6.2498160640069278e+00 5.2480287040404274e+00 1 -1 1
3574 1 1.2196254403394946e+01 4.5474293589216810e+00 5.0099159470287447e+00 0 1 0
41 1 1.0809584097454328e+01 5.8135335432671802e+00 6.9231197589259601e+00 0 0 1
3091 1 8.9453639150457729e+00 7.9332282329595456e+00 6.1702744025767018e+00 -1 0 1
2839 1 2.1020754223994840e+00 1.0579918680106870e+01 4.2703425700545852e+00 0 0 1
3315 1 6.8464855724668194e-01 1.1566804684522502e+01 6.8591520081518160e+00 -1 0 1
6097 1 4.4878626927178376e+00 9.4301247524124001e+00 5.0827398591207622e+00 1 1 1
478 1 5.5152634656051953e+00 1.1394455146010467e+01 7.7291717200995027e+00 0 1 1
1432 1 1.1196053116268189e+01 1.0414081754026578e+01 4.1669076539377912e+00 0 0 0
4654 1 9.0289706537786909e+00 9.0970074769692513e+00 3.6578122095820684e+00 0 1 1
469 1 1.1517718230757962e+01 1.0923421689582723e+01 6.9480202599456700e+00 0 1 0
1357 1 3.2015016998050849e+00 2.9609757790980686e+00 8.2646086886551053e+00 0 1 0
3599 1 1.0218730914448912e+00 3.1391500377570591e+00 9.8150508198645472e+00 1 2 1
2805 1 6.6964593575014097e+00 7.3240344919364653e-01 9.6468657977066794e+00 1 1 1
274 1 5.1263400539655661e+00 2.9154817153416808e+00 1.0037507753174571e+01 0 0 0
1342 1 1.0920042449127354e+01 2.1054199139822019e+00 1.1876255372142206e+01 1 0 0
2975 1 9.2136099335806385e+00 3.9646370642672175e+00 8.7240266897267311e+00 0 1 1
523 1 3.8787530410368545e+00 7.5281091753961977e+00 9.1878351904401274e+00 1 1 1
5063 1 2.1940926155785943e+00 6.5614875545103324e+00 1.1341984339405258e+01 0 0 0
1771 1 6.5851979699046046e+00 5.2220757865715584e+00 9.2629988229313867e+00 0 0 1
86 1 7.2393100110649931e+00 6.3421533370851613e+00 1.2131355302470737e+01 -1 0 0
2050 1 1.2187843998018591e+01 6.4572060336816559e+00 1.0954495403405272e+01 0 1 0
2973 1 9.8461192077735102e+00 4.7675619695108642e+00 1.1347952148176068e+01 1 0 1
1726 1 3.5895049743450071e+00 1.2075211233740673e+01 1.0787107738017610e+01 1 0 1
3584 1 3.2902408834592070e+00 1.0069872207380874e+01 8.4935050971284287e+00 -1 0 1
6235 1 6.2131508349778286e-01 8.8208559274259226e+00 1.1831525518696379e+01 1 1 0
5035 1 8.0772792651110606e-02 1.0169454626165061e+01 9.5169762430814089e+00 0 0 0
4405 1 6.2538006721207076e+00 1.0828363452134257e+01 1.0845994195311480e+01 -1 1 1
3623 1 6.5013829682860207e+00 8.1802610057493599e+00 9.9778062994831451e+00 1 1 -1
3031 1 8.0419927033849063e+00 9.8530367995334096e+00 8.0947708440679484e+00 0 1 1
3695 1 1.0175520339582068e+01 1.1668963154902944e+01 9.1561589877902900e+00 1 0 0
4700 1 1.0754316960081070e+01 1.1400962380047604e+01 1.1687872924429765e+01 2 0 1
2906 1 1.1832321807684801e+01 8.2182005132436089e+00 8.1372769787729649e+00 0 0 1
150 1 3.6352144570816254e+00 5.6283210491358959e-01 1.4271108600322712e+01 1 1 1
1589 1 1.4845705655679846e+00 3.9143755928122870e+00 1.2384881028143170e+01 0 0 1
1499 1 4.0214802015079201e+00 2.8549217187220113e+00 1.2441965099063690e+01 0 2 0
2953 1 1.0226167995645596e-01 2.0889696900037777e+00 1.6627109659731651e+01 1 0 1
1681 1 6.5529494806555313e+00 1.5031707753133567e+00 1.3779032960067003e+01 -1 0 1
254 1 6.3187259077996369e+00 7.3397164412393623e-01 1.6452354112127768e+01 1 0 0
239 1 9.0133929946642048e+00 2.8616224920434332e+00 1.4266954032525852e+01 1 -1 0
1538 1 1.2124716027271834e+01 3.7454357772108544e+00 1.4250390320705403e+01 0 1 1
174 1 1.2294407942865373e+01 1.5656285771183223e+00 1.6274301513290638e+01 0 -1 1
1956 1 1.0145366935191766e+00 6.3138684751660250e+00 1.5599973681607441e+01 0 0 0
3577 1 3.5147290782389864e+00 6.9023856309780731e+00 1.3900365076004386e+01 1 0 0
331 1 6.2816170490981502e+00 5.4511784009229469e+00 1.6242497141995976e+01 0 1 0
5156 1 7.3622084386853279e+00 8.0188864991708364e+00 1.6203089049802230e+01 2 0 0
4668 1 5.4707205656673876e+00 4.8908468209305882e+00 1.3687796128569866e+01 1 0 1
142 1 1.2278853412477462e+01 6.2708758376861846e+00 1.5453956638605943e+01 1 1 0
4450 1 1.1165393375780569e+01 7.7800099301133372e+00 1.3380226242060035e+01 0 2 1
5215 1 2.7475531983673420e+00 1.0366284359755225e+01 1.2825790848802180e+01 1 0 0
4931 1 2.7907892687687754e+00 9.1426963521618188e+00 1.5686712445070565e+01 0 0 1
2139 1 7.7209663913251347e-03 8.9772550288926372e+00 1.6579490503882205e+01 0 0 1
470 1 5.2298204665356884e+00 8.8463437369749833e+00 1.3143921326720180e+01 0 1 0
6095 1 5.7414919646098159e+00 1.0243051542674319e+01 1.5820241071887530e+01 1 0 0
5056 1 8.2221264468156896e+00 1.0945473129667572e+01 1.2957434598523241e+01 0 0 0
547 1 8.4105149906060053e+00 8.2100642950396345e+00 1.3749726827985247e+01 2 -1 0
1777 1 1.2147319187136169e+01 1.0708404806768081e+01 1.4210464829869776e+01 0 0 0
3118 1 1.0797185719126015e+01 1.0329714999840947e+01 1.6621046609586379e+01 0 0 1
1861 1 2.2039972764280420e+00 2.7737087288627307e+00 2.0754578210812657e+01 1 0 1
5019 1 3.6355779299615385e+00 3.4765959447297421e+00 1.8402536013916240e+01 2 0 0
2133 1 2.6644815337580279e+00 1.0758278257952116e+00 1.6870118126700909e+01 0 1 1
3501 1 6.5010222256694599e+00 3.0552437578547869e+00 1.8468813524801185e+01 1 0 0
154 1 5.1865025882999376e+00 1.5520640520924467e+00 2.0806637974939513e+01 0 -1 0
2026 1 7.2639082556699641e+00 3.6704488147347392e+00 2.1162897582256704e+01 1 1 1
2061 1 1.0017727104008154e+01 6.7969996872406568e-01 2.0595099092958822e+01 0 0 0
1346 1 9.8777598995114815e+00 1.2690275323355658e+00 1.7884972225958293e+01 1 1 1
284 1 8.7373379426196234e+00 3.6279939128346879e+00 1.7055929561684366e+01 1 0 1
264 1 3.7588860213415081e+00 7.3350166167730206e+00 1.9363233593953666e+01 1 -1 0
1286 1 3.6430011811528620e+00 6.0461081977628739e+00 1.7149362169475431e+01 0 1 1
2070 1 8.9931008356863643e-02 4.1692570214787992e+00 2.0109432740839374e+01 0 0 0
220 1 1.1909340901836419e+01 4.3331331490456728e+00 1.9547005483444160e+01 1 0 0
2954 1 1.0433541081067364e+01 5.7553774299936187e+00 1.7521066454674390e+01 0 1 1
3341 1 4.2711309599336272e-01 9.1149406758756797e+00 2.1100580755534697e+01 1 0 0
6000 1 3.0306255977840810e+00 1.1722580085318077e+01 1.8651030749191086e+01 -1 0 1
2947 1 1.6710449133227896e+00 9.3217126219721909e+00 1.8752443590242439e+01 1 2 1
164 1 6.1779115083035832e+00 8.8372347582376669e+00 1.9028517663462914e+01 2 -1 1
296 1 5.8916387448718543e+00 1.1852177288053319e+01 1.8352145329975457e+01 1 0 1
4973 1 8.7578699280980565e+00 1.1332873626826110e+01 1.9240137679532442e+01 0 1 1
5049 1 9.3419017053473272e+00 8.3134888306258148e+00 1.7996516368037899e+01 1 -1 0
3294 1 2.4720074787267206e+00 8.3150086086465969e-01 2.4670797208179437e+01 1 0 0
4493 1 2.8957592861915554e-01 7.6071229956587449e-01 2.1372777963518878e+01 1 0 1
429 1 2.5589418668730799e+00 3.9975839732768090e+00 2.3517960841415775e+01 0 0 0
2009 1 4.8535022062576605e+00 2.2046236232998386e+00 2.3746383950992687e+01 0 -1 0
292 1 7.6027589074797222e+00 3.0675737283887377e+00 2.4302815333190967e+01 1 0 0
3415 1 8.0264269988159178e+00 3.7905043526307236e-01 2.4410703371800441e+01 -1 0 0
1776 1 7.4271914276574966e+00 2.6945388470224291e-01 2.1696221526723239e+01 0 0 1
3078 1 1.0521250204597576e+01 3.4055933638262590e+00 2.3940625725416023e+01 0 0 1
1270 1 1.0061009221480024e+01 3.2304219192490038e+00 2.1263310687071957e+01 0 1 1
4979 1 2.2835092882488679e+00 6.1233699443467797e+00 2.1394852738240505e+01 0 1 0
117 1 1.8808460567528578e+00 7.4755967170335360e+00 2.4087373795773246e+01 0 0 1
1532 1 5.7403178344259000e+00 6.1046384479005118e+00 2.1527064397519116e+01 0 1 0
3047 1 7.3708808318587913e+00 6.1395037879958529e+00 2.4189416805326889e+01 0 0 1
1643 1 4.4431178486302230e+00 6.2656189048297177e+00 2.4277571124196790e+01 0 0 1
1354 1 1.0182874104669269e+01 6.2802582507142892e+00 2.4015804712247490e+01 0 0 1
1795 1 2.2675017057556857e+00 1.0113887798828278e+01 2.2755145634776504e+01 2 0 0
3412 1 8.1158494013296434e-01 1.1960429657104724e+01 2.4272825721813597e+01 1 0 1
3282 1 5.9162382227998638e+00 1.1610306678177277e+01 2.1385460855016358e+01 2 1 1
4665 1 5.4265767577914223e+00 1.2175894686358038e+01 2.4246766050831763e+01 0 1 0
326 1 4.8598860939128512e+00 9.1187070492406228e+00 2.3923814464036845e+01 1 0 1
119 1 7.7901822039132140e+00 9.1297089948603123e+00 2.4776985041222417e+01 0 1 0
3229 1 7.0975560801134581e+00 8.8268950055882804e+00 2.1813486285477588e+01 1 0 1
1543 1 9.9633290817521125e+00 1.0027961387732516e+01 2.1405100358643431e+01 0 0 0
3254 1 1.1697051101453809e+01 8.1718047197562811e+00 2.2476846298152182e+01 -1 0 0
4659 1 9.9389184292020136e+00 1.1081609204138262e+01 2.4294939382566277e+01 0 -2 1
552 2 0.0000000000000000e+00 2.8417180249513345e+00 2.6867238140418308e+01 0 0 0
554 2 0.0000000000000000e+00 0.0000000000000000e+00 2.6867238140418308e+01 0 0 0
556 2 1.2305000000000001e+00 7.1042950623783474e-01 2.6867238140418308e+01 0 0 0
563 2 1.2305000000000001e+00 2.1312885187134998e+00 2.6867238140418308e+01 0 0 0
565 2 2.4610000000000003e+00 2.8417180249513345e+00 2.6867238140418308e+01 0 0 0
567 2 2.4610000000000003e+00 0.0000000000000000e+00 2.6867238140418308e+01 0 0 0
569 2 3.6915000000000004e+00 7.1042950623783474e-01 2.6867238140418308e+01 0 0 0
584 2 3.6914999999999996e+00 2.1312885187134998e+00 2.6867238140418308e+01 0 0 0
586 2 4.9220000000000006e+00 2.8417180249513332e+00 2.6867238140418308e+01 0 0 0
588 2 4.9220000000000006e+00 0.0000000000000000e+00 2.6867238140418308e+01 0 0 0
590 2 6.1524999999999999e+00 7.1042950623783407e-01 2.6867238140418308e+01 0 0 0
613 2 6.1524999999999999e+00 2.1312885187134989e+00 2.6867238140418308e+01 0 0 0
615 2 7.3829999999999991e+00 2.8417180249513345e+00 2.6867238140418308e+01 0 0 0
617 2 7.3829999999999991e+00 0.0000000000000000e+00 2.6867238140418308e+01 0 0 0
619 2 8.6134999999999984e+00 7.1042950623783407e-01 2.6867238140418308e+01 0 0 0
650 2 8.6134999999999984e+00 2.1312885187135002e+00 2.6867238140418308e+01 0 0 0
652 2 9.8440000000000012e+00 2.8417180249513332e+00 2.6867238140418308e+01 0 0 0
654 2 9.8440000000000012e+00 0.0000000000000000e+00 2.6867238140418308e+01 0 0 0
656 2 1.1074500000000002e+01 7.1042950623783330e-01 2.6867238140418308e+01 0 0 0
695 2 1.1074500000000002e+01 2.1312885187135002e+00 2.6867238140418308e+01 0 0 0
559 2 0.0000000000000000e+00 4.2625770374269996e+00 2.6867238140418308e+01 0 0 0
561 2 1.2305000000000001e+00 4.9730065436648339e+00 2.6867238140418308e+01 0 0 0
576 2 1.2305000000000001e+00 6.3938655561404980e+00 2.6867238140418308e+01 0 0 0
580 2 2.4610000000000003e+00 4.2625770374269996e+00 2.6867238140418308e+01 0 0 0
582 2 3.6914999999999996e+00 4.9730065436648339e+00 2.6867238140418308e+01 0 0 0
605 2 3.6914999999999996e+00 6.3938655561404980e+00 2.6867238140418308e+01 0 0 0
557 2 0.0000000000000000e+00 7.1042950623783341e+00 2.6867238140418308e+01 0 0 0
578 2 2.4610000000000003e+00 7.1042950623783341e+00 2.6867238140418308e+01 0 0 0
609 2 4.9220000000000006e+00 4.2625770374269978e+00 2.6867238140418308e+01 0 0 0
611 2 6.1524999999999999e+00 4.9730065436648339e+00 2.6867238140418308e+01 0 0 0
642 2 6.1524999999999999e+00 6.3938655561404980e+00 2.6867238140418308e+01 0 0 0
646 2 7.3829999999999991e+00 4.2625770374269996e+00 2.6867238140418308e+01 0 0 0
607 2 4.9220000000000006e+00 7.1042950623783341e+00 2.6867238140418308e+01 0 0 0
644 2 7.3830000000000009e+00 7.1042950623783341e+00 2.6867238140418308e+01 0 0 0
648 2 8.6135000000000002e+00 4.9730065436648339e+00 2.6867238140418308e+01 0 0 0
687 2 8.6135000000000002e+00 6.3938655561404980e+00 2.6867238140418308e+01 0 0 0
691 2 9.8440000000000012e+00 4.2625770374270004e+00 2.6867238140418308e+01 0 0 0
693 2 1.1074500000000002e+01 4.9730065436648339e+00 2.6867238140418308e+01 0 0 0
734 2 1.1074500000000002e+01 6.3938655561404980e+00 2.6867238140418308e+01 0 0 0
689 2 9.8440000000000012e+00 7.1042950623783341e+00 2.6867238140418308e+01 0 0 0
572 2 0.0000000000000000e+00 8.5251540748539991e+00 2.6867238140418308e+01 0 0 0
574 2 1.2305000000000001e+00 9.2355835810918343e+00 2.6867238140418308e+01 0 0 0
601 2 2.4610000000000003e+00 8.5251540748539991e+00 2.6867238140418308e+01 0 0 0
603 2 3.6915000000000004e+00 9.2355835810918343e+00 2.6867238140418308e+01 0 0 0
570 2 0.0000000000000000e+00 1.1366872099805333e+01 2.6867238140418308e+01 0 0 0
597 2 1.2305000000000001e+00 1.0656442593567498e+01 2.6867238140418308e+01 0 0 0
599 2 2.4610000000000003e+00 1.1366872099805333e+01 2.6867238140418308e+01 0 0 0
634 2 3.6914999999999996e+00 1.0656442593567499e+01 2.6867238140418308e+01 0 0 0
638 2 4.9220000000000006e+00 8.5251540748539991e+00 2.6867238140418308e+01 0 0 0
636 2 4.9220000000000006e+00 1.1366872099805333e+01 2.6867238140418308e+01 0 0 0
640 2 6.1524999999999999e+00 9.2355835810918343e+00 2.6867238140418308e+01 0 0 0
679 2 6.1524999999999999e+00 1.0656442593567499e+01 2.6867238140418308e+01 0 0 0
683 2 7.3830000000000009e+00 8.5251540748539991e+00 2.6867238140418308e+01 0 0 0
681 2 7.3829999999999991e+00 1.1366872099805333e+01 2.6867238140418308e+01 0 0 0
773 2 1.1074500000000002e+01 1.0656442593567498e+01 2.6867238140418308e+01 0 0 0
732 2 1.1074500000000002e+01 9.2355835810918343e+00 2.6867238140418308e+01 0 0 0
685 2 8.6134999999999984e+00 9.2355835810918343e+00 2.6867238140418308e+01 0 0 0
730 2 9.8440000000000012e+00 8.5251540748539956e+00 2.6867238140418308e+01 0 0 0
726 2 8.6134999999999984e+00 1.0656442593567498e+01 2.6867238140418308e+01 0 0 0
775 2 1.2304999999999998e+01 1.1366872099805333e+01 2.6867238140418308e+01 0 0 0
728 2 9.8440000000000012e+00 1.1366872099805333e+01 2.6867238140418308e+01 0 0 0
553 2 0.0000000000000000e+00 1.4208590124756650e+00 3.0031000000000500e+01 0 0 0
555 2 0.0000000000000000e+00 0.0000000000000000e+00 3.0031000000000500e+01 0 0 0
564 2 1.2305000000000001e+00 2.1312885187134998e+00 3.0031000000000500e+01 0 0 0
566 2 2.4610000000000003e+00 1.4208590124756650e+00 3.0031000000000500e+01 0 0 0
568 2 2.4610000000000003e+00 0.0000000000000000e+00 3.0031000000000500e+01 0 0 0
585 2 3.6914999999999996e+00 2.1312885187134998e+00 3.0031000000000500e+01 0 0 0
562 2 1.2305000000000001e+00 3.5521475311891644e+00 3.0031000000000500e+01 0 0 0
583 2 3.6914999999999996e+00 3.5521475311891644e+00 3.0031000000000500e+01 0 0 0
881 2 0.0000000000000000e+00 2.8417180249513345e+00 3.3194761859580808e+01 0 0 0
882 2 0.0000000000000000e+00 0.0000000000000000e+00 3.3194761859580808e+01 0 0 0
883 2 1.2305000000000001e+00 7.1042950623783474e-01 3.3194761859580808e+01 0 0 0
887 2 1.2305000000000001e+00 2.1312885187134998e+00 3.3194761859580808e+01 0 0 0
888 2 2.4610000000000003e+00 2.8417180249513345e+00 3.3194761859580808e+01 0 0 0
889 2 2.4610000000000003e+00 0.0000000000000000e+00 3.3194761859580808e+01 0 0 0
890 2 3.6915000000000004e+00 7.1042950623783474e-01 3.3194761859580808e+01 0 0 0
898 2 3.6914999999999996e+00 2.1312885187134998e+00 3.3194761859580808e+01 0 0 0
587 2 4.9220000000000006e+00 1.4208590124756650e+00 3.0031000000000500e+01 0 0 0
589 2 4.9220000000000006e+00 0.0000000000000000e+00 3.0031000000000500e+01 0 0 0
614 2 6.1524999999999999e+00 2.1312885187134989e+00 3.0031000000000500e+01 0 0 0
616 2 7.3829999999999991e+00 1.4208590124756659e+00 3.0031000000000500e+01 0 0 0
618 2 7.3829999999999991e+00 0.0000000000000000e+00 3.0031000000000500e+01 0 0 0
612 2 6.1524999999999999e+00 3.5521475311891644e+00 3.0031000000000500e+01 0 0 0
899 2 4.9220000000000006e+00 2.8417180249513332e+00 3.3194761859580808e+01 0 0 0
900 2 4.9220000000000006e+00 0.0000000000000000e+00 3.3194761859580808e+01 0 0 0
901 2 6.1524999999999999e+00 7.1042950623783407e-01 3.3194761859580808e+01 0 0 0
913 2 6.1524999999999999e+00 2.1312885187134989e+00 3.3194761859580808e+01 0 0 0
914 2 7.3829999999999991e+00 2.8417180249513345e+00 3.3194761859580808e+01 0 0 0
915 2 7.3829999999999991e+00 0.0000000000000000e+00 3.3194761859580808e+01 0 0 0
651 2 8.6134999999999984e+00 2.1312885187135002e+00 3.0031000000000500e+01 0 0 0
653 2 9.8440000000000012e+00 1.4208590124756659e+00 3.0031000000000500e+01 0 0 0
655 2 9.8440000000000012e+00 0.0000000000000000e+00 3.0031000000000500e+01 0 0 0
696 2 1.1074500000000002e+01 2.1312885187135002e+00 3.0031000000000500e+01 0 0 0
649 2 8.6134999999999984e+00 3.5521475311891657e+00 3.0031000000000500e+01 0 0 0
694 2 1.1074500000000002e+01 3.5521475311891644e+00 3.0031000000000500e+01 0 0 0
916 2 8.6134999999999984e+00 7.1042950623783407e-01 3.3194761859580808e+01 0 0 0
932 2 8.6134999999999984e+00 2.1312885187135002e+00 3.3194761859580808e+01 0 0 0
933 2 9.8440000000000012e+00 2.8417180249513332e+00 3.3194761859580808e+01 0 0 0
934 2 9.8440000000000012e+00 0.0000000000000000e+00 3.3194761859580808e+01 0 0 0
935 2 1.1074500000000002e+01 7.1042950623783330e-01 3.3194761859580808e+01 0 0 0
955 2 1.1074500000000002e+01 2.1312885187135002e+00 3.3194761859580808e+01 0 0 0
558 2 0.0000000000000000e+00 5.6834360499026637e+00 3.0031000000000500e+01 0 0 0
560 2 0.0000000000000000e+00 4.2625770374269996e+00 3.0031000000000500e+01 0 0 0
577 2 1.2305000000000001e+00 6.3938655561404980e+00 3.0031000000000500e+01 0 0 0
579 2 2.4610000000000003e+00 5.6834360499026637e+00 3.0031000000000500e+01 0 0 0
581 2 2.4610000000000003e+00 4.2625770374269996e+00 3.0031000000000500e+01 0 0 0
606 2 3.6914999999999996e+00 6.3938655561404980e+00 3.0031000000000500e+01 0 0 0
575 2 1.2305000000000001e+00 7.8147245686161639e+00 3.0031000000000500e+01 0 0 0
604 2 3.6914999999999996e+00 7.8147245686161639e+00 3.0031000000000500e+01 0 0 0
885 2 0.0000000000000000e+00 4.2625770374269996e+00 3.3194761859580808e+01 0 0 0
886 2 1.2305000000000001e+00 4.9730065436648339e+00 3.3194761859580808e+01 0 0 0
894 2 1.2305000000000001e+00 6.3938655561404980e+00 3.3194761859580808e+01 0 0 0
896 2 2.4610000000000003e+00 4.2625770374269996e+00 3.3194761859580808e+01 0 0 0
897 2 3.6914999999999996e+00 4.9730065436648339e+00 3.3194761859580808e+01 0 0 0
909 2 3.6914999999999996e+00 6.3938655561404980e+00 3.3194761859580808e+01 0 0 0
884 2 0.0000000000000000e+00 7.1042950623783341e+00 3.3194761859580808e+01 0 0 0
895 2 2.4610000000000003e+00 7.1042950623783341e+00 3.3194761859580808e+01 0 0 0
608 2 4.9220000000000006e+00 5.6834360499026637e+00 3.0031000000000500e+01 0 0 0
610 2 4.9220000000000006e+00 4.2625770374269978e+00 3.0031000000000500e+01 0 0 0
643 2 6.1524999999999999e+00 6.3938655561404980e+00 3.0031000000000500e+01 0 0 0
645 2 7.3829999999999991e+00 5.6834360499026637e+00 3.0031000000000500e+01 0 0 0
647 2 7.3829999999999991e+00 4.2625770374269996e+00 3.0031000000000500e+01 0 0 0
641 2 6.1524999999999999e+00 7.8147245686161639e+00 3.0031000000000500e+01 0 0 0
911 2 4.9220000000000006e+00 4.2625770374269978e+00 3.3194761859580808e+01 0 0 0
912 2 6.1524999999999999e+00 4.9730065436648339e+00 3.3194761859580808e+01 0 0 0
928 2 6.1524999999999999e+00 6.3938655561404980e+00 3.3194761859580808e+01 0 0 0
930 2 7.3829999999999991e+00 4.2625770374269996e+00 3.3194761859580808e+01 0 0 0
910 2 4.9220000000000006e+00 7.1042950623783341e+00 3.3194761859580808e+01 0 0 0
929 2 7.3830000000000009e+00 7.1042950623783341e+00 3.3194761859580808e+01 0 0 0
688 2 8.6135000000000002e+00 6.3938655561404980e+00 3.0031000000000500e+01 0 0 0
690 2 9.8440000000000012e+00 5.6834360499026637e+00 3.0031000000000500e+01 0 0 0
692 2 9.8440000000000012e+00 4.2625770374270004e+00 3.0031000000000500e+01 0 0 0
735 2 1.1074500000000002e+01 6.3938655561404980e+00 3.0031000000000500e+01 0 0 0
686 2 8.6135000000000002e+00 7.8147245686161639e+00 3.0031000000000500e+01 0 0 0
733 2 1.1074500000000002e+01 7.8147245686161639e+00 3.0031000000000500e+01 0 0 0
931 2 8.6135000000000002e+00 4.9730065436648339e+00 3.3194761859580808e+01 0 0 0
951 2 8.6135000000000002e+00 6.3938655561404980e+00 3.3194761859580808e+01 0 0 0
953 2 9.8440000000000012e+00 4.2625770374270004e+00 3.3194761859580808e+01 0 0 0
954 2 1.1074500000000002e+01 4.9730065436648339e+00 3.3194761859580808e+01 0 0 0
975 2 1.1074500000000002e+01 6.3938655561404980e+00 3.3194761859580808e+01 0 0 0
952 2 9.8440000000000012e+00 7.1042950623783341e+00 3.3194761859580808e+01 0 0 0
571 2 0.0000000000000000e+00 9.9460130873296642e+00 3.0031000000000500e+01 0 0 0
573 2 0.0000000000000000e+00 8.5251540748539991e+00 3.0031000000000500e+01 0 0 0
600 2 2.4610000000000003e+00 9.9460130873296642e+00 3.0031000000000500e+01 0 0 0
602 2 2.4610000000000003e+00 8.5251540748539991e+00 3.0031000000000500e+01 0 0 0
596 2 1.2305000000000001e+00 1.2077301606043163e+01 3.0031000000000500e+01 0 0 0
598 2 1.2305000000000001e+00 1.0656442593567498e+01 3.0031000000000500e+01 0 0 0
633 2 3.6914999999999996e+00 1.2077301606043163e+01 3.0031000000000500e+01 0 0 0
635 2 3.6914999999999996e+00 1.0656442593567499e+01 3.0031000000000500e+01 0 0 0
892 2 0.0000000000000000e+00 8.5251540748539991e+00 3.3194761859580808e+01 0 0 0
893 2 1.2305000000000001e+00 9.2355835810918343e+00 3.3194761859580808e+01 0 0 0
907 2 2.4610000000000003e+00 8.5251540748539991e+00 3.3194761859580808e+01 0 0 0
908 2 3.6915000000000004e+00 9.2355835810918343e+00 3.3194761859580808e+01 0 0 0
891 2 0.0000000000000000e+00 1.1366872099805333e+01 3.3194761859580808e+01 0 0 0
905 2 1.2305000000000001e+00 1.0656442593567498e+01 3.3194761859580808e+01 0 0 0
906 2 2.4610000000000003e+00 1.1366872099805333e+01 3.3194761859580808e+01 0 0 0
924 2 3.6914999999999996e+00 1.0656442593567499e+01 3.3194761859580808e+01 0 0 0
637 2 4.9220000000000006e+00 9.9460130873296642e+00 3.0031000000000500e+01 0 0 0
639 2 4.9220000000000006e+00 8.5251540748539991e+00 3.0031000000000500e+01 0 0 0
682 2 7.3830000000000009e+00 9.9460130873296642e+00 3.0031000000000500e+01 0 0 0
684 2 7.3830000000000009e+00 8.5251540748539991e+00 3.0031000000000500e+01 0 0 0
678 2 6.1524999999999999e+00 1.2077301606043163e+01 3.0031000000000500e+01 0 0 0
680 2 6.1524999999999999e+00 1.0656442593567499e+01 3.0031000000000500e+01 0 0 0
926 2 4.9220000000000006e+00 8.5251540748539991e+00 3.3194761859580808e+01 0 0 0
927 2 6.1524999999999999e+00 9.2355835810918343e+00 3.3194761859580808e+01 0 0 0
949 2 7.3830000000000009e+00 8.5251540748539991e+00 3.3194761859580808e+01 0 0 0
925 2 4.9220000000000006e+00 1.1366872099805333e+01 3.3194761859580808e+01 0 0 0
947 2 6.1524999999999999e+00 1.0656442593567499e+01 3.3194761859580808e+01 0 0 0
948 2 7.3829999999999991e+00 1.1366872099805333e+01 3.3194761859580808e+01 0 0 0
729 2 9.8440000000000012e+00 9.9460130873296642e+00 3.0031000000000500e+01 0 0 0
731 2 9.8440000000000012e+00 8.5251540748539956e+00 3.0031000000000500e+01 0 0 0
725 2 8.6135000000000002e+00 1.2077301606043163e+01 3.0031000000000500e+01 0 0 0
727 2 8.6134999999999984e+00 1.0656442593567498e+01 3.0031000000000500e+01 0 0 0
772 2 1.1074500000000002e+01 1.2077301606043163e+01 3.0031000000000500e+01 0 0 0
774 2 1.1074500000000002e+01 1.0656442593567498e+01 3.0031000000000500e+01 0 0 0
950 2 8.6134999999999984e+00 9.2355835810918343e+00 3.3194761859580808e+01 0 0 0
973 2 9.8440000000000012e+00 8.5251540748539956e+00 3.3194761859580808e+01 0 0 0
974 2 1.1074500000000002e+01 9.2355835810918343e+00 3.3194761859580808e+01 0 0 0
971 2 8.6134999999999984e+00 1.0656442593567498e+01 3.3194761859580808e+01 0 0 0
972 2 9.8440000000000012e+00 1.1366872099805333e+01 3.3194761859580808e+01 0 0 0
995 2 1.1074500000000002e+01 1.0656442593567498e+01 3.3194761859580808e+01 0 0 0
996 2 1.2304999999999998e+01 1.1366872099805333e+01 3.3194761859580808e+01 0 0 0
6077 1 3.1408559295729757e+00 3.6441376588969616e+00 3.6607073361924904e+01 -1 1 0
2873 1 1.2358735965580274e+00 1.4775828239572850e+00 3.5845610464014271e+01 2 2 0
3662 1 4.8926630124145660e+00 1.6844643426639376e+00 3.5327311314502225e+01 0 1 0
4735 1 6.9736582877918671e+00 3.7508411716450234e+00 3.5968329958847256e+01 1 -1 0
3654 1 7.1008896514732252e+00 4.0493918456990361e+00 3.8804587571726799e+01 -1 1 0
385 1 8.1320453835688689e+00 1.4486589479910863e+00 3.8440593025201565e+01 1 1 -1
3158 1 8.2179200563347496e+00 9.8334168167036318e-01 3.5487948643950375e+01 0 0 0
5303 1 1.0764925200910417e+01 2.6332564727239101e+00 3.6077511718332097e+01 1 1 0
3640 1 5.4783479309604488e-01 4.2564724893344037e+00 3.8233199669740060e+01 0 1 0
3061 1 3.3867295680425356e+00 6.3944740790161561e+00 3.5831784421653900e+01 0 1 -1
4969 1 5.8541022307588919e-01 7.9909288748902503e+00 3.6086717130621331e+01 0 0 0
1491 1 5.8899957513519730e-01 6.9889906864728557e+00 3.8801431735133285e+01 1 0 0
3467 1 5.1757702373828138e+00 7.5192984975222874e+00 3.8192425742488886e+01 0 -1 -1
181 1 6.8647157773739131e+00 7.2050111420261755e+00 3.5533255422992639e+01 0 0 -1
229 1 9.4099547177499829e+00 5.5424140846975369e+00 3.5786146624577746e+01 1 0 -1
6211 1 1.0749106596474949e+01 4.9345821905762408e+00 3.8247111951191506e+01 1 1 -1
3606 1 8.6406131083529181e-01 1.0897323727089661e+01 3.5963118015358880e+01 0 -1 -1
6086 1 3.6185112244691724e+00 9.5145649400357861e+00 3.6632142428004315e+01 1 0 -1
5282 1 6.8907822200063498e+00 1.0642277953695595e+01 3.8098224277740648e+01 0 1 0
6044 1 5.3697147672462995e+00 1.1820079930343558e+01 3.5813848459240567e+01 1 1 0
2020 1 8.5650465188224896e+00 9.2871085279064101e+00 3.6032089178513125e+01 0 0 0
1356 1 1.0004339479929454e+01 8.2142580594932735e+00 3.8238689946984053e+01 0 1 0
243 1 1.1496533053602018e+01 8.3748884297286352e+00 3.5646746015876936e+01 1 0 0
2995 1 1.1936965115198031e+01 1.2028756763293929e+01 3.8778932728588643e+01 1 0 0
3716 1 8.6215130757590366e+00 1.2111580247967568e+01 3.5317411565047060e+01 1 2 0
2887 1 1.1833056555799757e+00 2.9542926836151988e+00 4.0282121957527195e+01 0 1 0
2845 1 2.0190402983182598e+00 4.7653709313172765e-01 4.0245236615732800e+01 0 0 0
2967 1 4.2794870405676724e+00 3.8682523660395209e+00 3.9574514846005080e+01 1 0 0
6019 1 7.8380367056844458e+00 1.0514763502883595e+00 4.1262779030116953e+01 0 2 0
1473 1 4.9980789301687158e+00 1.1987818957307119e+00 4.0327077276085632e+01 0 1 0
4876 1 7.6162074595707105e+00 3.7802611703505709e+00 4.1945403872735056e+01 0 1 -1
516 1 1.0784594464803194e+01 2.2907319046211003e+00 3.9695193125901064e+01 1 2 0
1398 1 4.2231637591237614e-01 4.3973025365773113e+00 4.2753474399394300e+01 1 1 0
5142 1 3.1007226817383922e+00 6.7136519426847894e+00 4.0367831704003372e+01 2 2 0
1366 1 1.9547982050435941e+00 6.6953498969807592e+00 4.3000904248086961e+01 0 0 -1
4836 1 5.0148422445200387e+00 4.5744686329297481e+00 4.2343101662085985e+01 0 0 -1
3452 1 9.5307498187484043e+00 5.7472468052536456e+00 4.2876962793915602e+01 1 1 0
5176 1 8.8620650571149184e+00 6.2188905169414133e+00 4.0012193664820487e+01 0 0 -1
2802 1 1.2146788694084361e+01 6.8795995058968371e+00 4.3229796325813297e+01 0 0 0
2877 1 3.1115989621616600e+00 1.0526957830653339e+01 4.3132065033280909e+01 2 1 0
255 1 6.1883139150714539e-01 1.1212274639894551e+01 3.8893104531109699e+01 0 -2 -1
209 1 3.1443742714674219e+00 1.0091017037006768e+01 3.9609022005383160e+01 0 0 -1
3171 1 7.7080476983267154e-01 1.1317093268265666e+01 4.1964621284083151e+01 0 1 0
6229 1 2.9783823352447662e-02 8.6484849040237108e+00 4.2672515373343280e+01 -1 0 0
3694 1 5.0545855226244711e+00 1.2204179253993612e+01 3.9870680092034107e+01 0 1 0
3573 1 7.1510560094788858e+00 8.5893169988394025e+00 4.0050896281774953e+01 1 1 0
43 1 4.7808613858056592e+00 8.4655373080112657e+00 4.1676290561369100e+01 0 0 -1
6137 1 1.0933728607365808e+01 9.9663145908437674e+00 4.0025250942904258e+01 0 -1 0
1648 1 8.4655001113718260e+00 1.0820756127077741e+01 4.1294895327848231e+01 0 0 -1
1779 1 1.7045572380172758e+00 2.8621297656501437e+00 4.4931515201109086e+01 0 0 0
1850 1 8.1461663070341572e-01 3.5933494493580137e-01 4.4600971193694619e+01 0 0 -1
4803 1 9.2736224675219203e-01 3.8097119384178426e+00 4.7252098191895243e+01 2 0 -1
4505 1 2.0161885579533698e+00 1.7623716856757451e-01 4.7452955625860241e+01 0 1 -1
4790 1 4.4149761612143479e+00 2.5720522106121528e+00 4.4403374545526468e+01 1 1 -1
5116 1 5.3600388074735656e+00 3.8595591066406727e+00 4.6746825062470776e+01 0 0 -1
6221 1 8.1008299519286009e+00 3.1377288247034034e+00 4.7656120947817932e+01 1 1 -1
3110 1 5.8925424798850283e+00 7.7604793868298139e-01 4.5921850716404570e+01 0 -1 -1
4496 1 1.1317216596136118e+01 3.6641347933285089e+00 4.3730566238269532e+01 0 1 0
3423 1 9.1081329612321671e+00 8.0491958626750770e-01 4.6295177251230712e+01 2 1 -1
3128 1 1.1880496273055481e+01 9.8732204371161236e-01 4.6834049724765194e+01 1 1 0
104 1 9.5471417082766532e+00 1.5786866117557805e+00 4.3719486409985151e+01 1 0 -1
217 1 1.1824325667909029e+01 8.0760430835553603e-03 4.3439718465760457e+01 0 1 0
3337 1 1.4614510719928826e+00 6.5441719997757186e+00 4.7202295901064048e+01 1 0 -1
1239 1 3.7340244584661257e+00 5.8280693914017272e+00 4.5424965717575155e+01 1 -1 0
2084 1 6.0111884542966889e+00 7.0087501144390734e+00 4.3799830893108094e+01 0 1 0
3635 1 6.4234616199508840e+00 6.8665382465901539e+00 4.7029208545487698e+01 1 1 0
5132 1 9.5083239911772868e+00 7.9995471490633170e+00 4.6531054893301857e+01 1 0 0