LAMMPS data file via write_data, version 16 Mar 2018, timestep = 8000000

6328 atoms
2 atom types

0.0000000000000000e+00 4.9219999999999999e+01 xlo xhi
0.0000000000000000e+00 4.9019635930410494e+01 ylo yhi
1.9056819372270155e+00 5.8156318062779022e+01 zlo zhi

Masses

1 18.015
2 12.01

Atoms # atomic

1861 1 1.9371558559988928e+00 8.4662728158939471e-01 2.4410691250547050e+00 1 2 1
6069 1 1.7517081538145407e+00 8.8269959040052670e-01 5.2516252624060531e+00 2 -3 1
2886 1 6.6039177445413753e+00 1.1115755874161473e+00 2.4957781515928872e+00 -2 1 1
1652 1 6.2974464105377672e+00 9.6735196928238187e-01 5.0834443476401656e+00 5 2 0
4642 1 2.0870002067089906e+00 1.1190176049504860e+01 1.2578449131337351e+01 1 5 1
6320 1 1.0879944153437627e+01 6.0493411865036550e-01 2.5027675352218863e+00 2 4 0
1707 1 6.5255739566032140e+00 1.0919457302528494e+01 1.2694805111057560e+01 3 1 0
3257 1 4.2346547296219530e+00 4.6609663885980916e+00 5.1098179723380142e+00 -2 -2 1
5070 1 4.2232611785888734e+00 5.1407643687246143e+00 2.4879574606131163e+00 4 0 1
438 1 8.7211212225097849e+00 4.5289248509212507e+00 2.5177552047218401e+00 -3 0 1
1516 1 8.7485138647269380e+00 4.9025970976490720e+00 5.3316918629136332e+00 0 2 1
3331 1 1.6698387992974228e+00 8.6726417993672467e+00 2.6796684976150265e+00 -2 -3 0
1964 1 2.0290392660106140e+00 8.4429484370715109e+00 5.3271012508264191e+00 0 0 0
5230 1 6.3227495783475050e+00 8.6063810045431044e+00 2.4457601506503588e+00 -1 1 0
3510 1 6.2887704381478038e+00 8.7009921144244462e+00 5.0917243696063572e+00 4 1 0
3120 1 1.0891274960545466e+01 8.2240043777586322e+00 2.6879408135924159e+00 0 -1 0
6309 1 8.6823950892721555e+00 9.7803831871311164e+00 1.3745848265400438e+01 0 6 1
1714 1 4.1314559427642141e+00 2.1790736562697255e+00 6.0029852120725238e+00 -2 -2 1
4490 1 4.2106060104978162e+00 2.0778326390094892e+00 8.8888421396754502e+00 4 1 1
4966 1 1.0645461013191253e+01 6.8618560749505220e-01 5.1929871293949477e+00 0 0 1
6156 1 8.5382769447120186e+00 2.0977730889409925e+00 6.2067748834924688e+00 1 0 1
1858 1 1.9850864346578114e+00 5.8745885644652605e+00 6.2475582498597362e+00 5 -2 0
6080 1 6.4857904874054801e+00 6.0600880232591869e+00 5.9067123130891623e+00 3 -4 0
6133 1 1.1153763317165456e+01 5.8662622871646448e+00 6.3875258581871712e+00 5 2 1
1903 1 1.0851776284466215e+01 5.8175574295059702e+00 9.1938700716661970e+00 -3 -1 0
4943 1 4.0965047837939537e+00 9.8949716152677372e+00 6.4479259506955753e+00 1 4 0
3077 1 1.0727530280721782e+01 8.4219235296949293e+00 5.3218471831623120e+00 2 -2 1
434 1 8.6685033826524194e+00 9.9167352079353162e+00 6.2318430874576975e+00 -1 1 0
1945 1 1.0897498602307442e+01 1.0709568546079353e+01 1.2893648552016224e+01 1 -1 0
4418 1 2.0313098192476873e+00 3.0437505274873446e+00 9.9428737094838926e+00 3 5 1
4541 1 6.6456080889937361e+00 3.5318602725343453e+00 9.7162948996635095e+00 3 -6 1
288 1 8.8094743403484070e+00 1.9888033395156521e+00 9.0071880249043943e+00 1 -1 1
1742 1 1.1037803608832418e+01 3.2364102450634062e+00 9.6895274580575830e+00 0 0 0
3091 1 1.7351293622968638e+00 5.6632603113285649e+00 9.0017371638528676e+00 -4 1 1
3279 1 3.9022563648285362e+00 7.0794772302287026e+00 9.6986899008671585e+00 1 0 1
4453 1 6.2144454449584510e+00 5.9184436072209081e+00 8.7535672987886457e+00 -3 1 1
3408 1 8.4482028283269059e+00 6.9707881020078162e+00 1.0037135789618654e+01 0 1 0
4476 1 1.7201582520940091e+00 1.1266691407500197e+01 9.8251429787535542e+00 -1 2 1
4650 1 3.7937828643749971e+00 9.7756065273857153e+00 8.9643231475536673e+00 -6 0 1
4916 1 6.1966362586726982e+00 1.0855651201316952e+01 9.9458502891661791e+00 0 0 1
6055 1 8.4030015491910213e+00 9.6029164073760800e+00 9.0331666081186803e+00 1 0 0
1877 1 1.0765897930586041e+01 1.0790125610132369e+01 1.0191990819469860e+01 3 1 0
1697 1 1.8887987659448389e+00 3.0295253265075868e+00 1.2683304292024912e+01 -2 3 1
4697 1 4.2798428634991250e+00 1.6087746813204915e+00 1.3688988699784247e+01 4 0 1
1821 1 6.6512647790616022e+00 3.0469348721960650e+00 1.2408339630382782e+01 -2 -4 0
5209 1 1.0936361884550974e+01 3.1206906477478049e+00 1.2523467050402610e+01 0 2 1
4664 1 8.8412954236205685e+00 1.6366106613126432e+00 1.3408414303827049e+01 -1 1 0
6032 1 1.9804683433915133e+00 5.8930242855886448e+00 1.2975748326460304e+01 1 0 1
6274 1 4.4269948795405760e+00 7.1799377327438405e+00 1.2337961383531125e+01 -3 1 1
4819 1 6.4506642299478418e+00 5.6317124625014454e+00 1.3394521957851303e+01 -1 -2 1
3703 1 8.7514941055552740e+00 7.1527548027486141e+00 1.2912137339217228e+01 -1 3 1
4905 1 1.1197410724308787e+01 5.5442426196999000e+00 1.3728056386831483e+01 -1 -2 1
3717 1 4.1477245109209999e+00 9.6202935741045525e+00 1.3486818895624413e+01 5 5 1
1265 1 1.9075779454872479e+00 1.1285944245334793e+01 1.9171863780424283e+00 0 1 1
2927 1 4.1606837400387064e-02 9.6603690563548454e+00 1.3433825586915244e+01 -2 0 1
2092 1 1.5248408993031148e-02 1.7133139581834402e+00 8.7758796799136256e+00 0 0 1
1281 1 8.5069141427091690e+00 7.0871419156576696e+00 2.0338724779447261e+00 -4 -7 1
1981 1 1.1025982183518144e+01 3.1879062938297498e+00 1.9901653791569203e+00 -1 -1 0
3284 1 1.6655106157234418e+00 3.0985777178634426e+00 1.7099653610177789e+01 -1 5 0
4979 1 4.0043372064737142e+00 1.5806435379618025e+00 1.6361208818928432e+01 0 7 0
3461 1 6.3719790924659785e+00 2.9905300339928642e+00 1.7105614648434866e+01 -5 0 1
4972 1 1.0664885687507413e+01 3.0791838205487703e+00 1.7378965100787809e+01 -5 0 0
4546 1 8.6205259483541692e+00 1.7871103645654476e+00 1.6218752270821984e+01 1 0 1
4648 1 4.0151483189051862e-01 9.4724805558930925e+00 1.6460326011416285e+01 -2 0 1
4647 1 6.3502394141121643e+00 2.7694679005509215e-01 2.0885171439746628e+01 4 0 1
5026 1 4.3759155574692512e+00 7.2159585691771815e+00 1.7078430775163024e+01 4 -1 1
4757 1 8.6858393424153117e+00 6.7834054914683026e+00 1.7176815116941945e+01 0 1 1
3554 1 1.1024787760479116e+01 5.5808004531739215e+00 1.6295594291191442e+01 3 4 0
1554 1 2.4648000092615416e+00 1.1073201251678741e+01 1.7427405656619044e+01 1 3 1
1776 1 4.4531134469941280e+00 9.6571563111869292e+00 1.6096370108169864e+01 0 1 1
6035 1 6.5996856549016840e+00 1.0844252685804472e+01 1.7206210538725934e+01 -2 6 0
437 1 1.1144155922104654e+01 1.0608078874269207e+01 1.7719386008267193e+01 3 -1 0
1290 1 6.5263514063893853e+00 5.5021825211906661e+00 1.6124574937076282e+01 3 -1 1
3296 1 1.9133566774686945e+00 3.0254401308911807e+00 1.9879761824531105e+01 1 -2 0
775 2 1.2304999999999998e+01 1.1366872099805333e+01 2.6674234635003891e+01 0 0 0
3403 1 6.2443714244987971e+00 2.8768383005718778e+00 1.9816990691035073e+01 -1 -6 0
726 2 8.6134999999999984e+00 1.0656442593567498e+01 2.6674234635003891e+01 0 0 0
3249 1 1.0882900812329542e+01 2.9893701333519620e+00 2.0170633241438821e+01 -1 -3 0
190 1 8.8918895220624794e+00 9.4783069258168506e+00 1.6413174399602461e+01 4 2 0
4674 1 4.3257509912208025e+00 7.0890007287129801e+00 1.9845719090988407e+01 0 5 0
129 1 4.1197608874170912e+00 4.6437682482585201e+00 2.0686733518631073e+01 1 -2 0
343 1 8.5843869780245523e+00 4.2222392885147206e+00 2.0540581266827395e+01 -1 4 0
5057 1 8.6820963443882810e+00 6.9153491851397790e+00 1.9791011305758655e+01 0 6 0
4535 1 2.0891511061949370e+00 8.3424363941681232e+00 2.0948698627918926e+01 3 -1 0
268 1 2.1786310801141515e+00 1.1050251333982690e+01 2.0161959234441280e+01 2 1 0
336 1 6.5829331141587266e+00 8.4943086768332847e+00 2.0834095401864523e+01 0 3 0
5969 1 6.4034155009137415e+00 1.1198531221999835e+01 2.0002775677805179e+01 -4 4 1
1646 1 1.0856111448579812e+01 7.9509238485536162e+00 2.0912835612014234e+01 1 3 0
2883 1 1.1052053148003003e+01 1.0615112585586576e+01 2.0313148464576891e+01 2 -2 0
728 2 9.8440000000000012e+00 1.1366872099805333e+01 2.6674234635003891e+01 0 0 0
3143 1 2.0979297949847941e+00 2.9962790555795721e-01 2.3514445479432844e+01 1 -1 0
4877 1 1.7110502350531791e+00 3.1051603737644138e+00 2.4437080554896635e+01 6 0 0
5260 1 1.7336083144300327e+00 3.3610699312650422e-01 2.0705544857137770e+01 0 -2 0
3620 1 6.1822543571679329e+00 3.2149737859835228e+00 2.4218025021105827e+01 -4 -3 1
3371 1 1.0567792280766291e+01 3.0295494771222411e+00 2.4071484823550588e+01 -2 4 1
732 2 1.1074500000000002e+01 9.2355835810918343e+00 2.6674234635003891e+01 0 0 0
1678 1 4.2989348619720165e+00 7.2993864295557076e+00 2.4008756440059685e+01 -3 1 0
3479 1 3.9767504448602393e+00 4.5499886674408669e+00 2.3478418357251019e+01 0 0 0
3622 1 8.2542830285861033e+00 4.4872357744580444e+00 2.3184721777651795e+01 2 1 0
69 1 8.1594441509917832e+00 6.8377763508338330e+00 2.4356503707316929e+01 1 3 0
6144 1 2.1002351741406105e+00 8.5550932447334045e+00 2.3757698540873015e+01 1 1 0
4601 1 2.1179674513980578e+00 1.1165019036428351e+01 2.4399563484486048e+01 5 -4 0
3117 1 6.3464134308914080e+00 8.5768616979279706e+00 2.3554746452421959e+01 0 2 0
6044 1 6.7381775228095471e+00 1.1364855755748886e+01 2.4222562570148497e+01 -1 1 1
2057 1 1.0377135863791505e+01 8.5993210936151030e+00 2.3679449418466834e+01 3 5 1
4837 1 1.0862403465842119e+01 1.1233124848482150e+01 2.4367232500177604e+01 -2 2 0
552 2 0.0000000000000000e+00 2.8417180249513345e+00 2.6674234635003891e+01 0 0 0
554 2 0.0000000000000000e+00 0.0000000000000000e+00 2.6674234635003891e+01 0 0 0
556 2 1.2305000000000001e+00 7.1042950623783474e-01 2.6674234635003891e+01 0 0 0
563 2 1.2305000000000001e+00 2.1312885187134998e+00 2.6674234635003891e+01 0 0 0
565 2 2.4610000000000003e+00 2.8417180249513345e+00 2.6674234635003891e+01 0 0 0
567 2 2.4610000000000003e+00 0.0000000000000000e+00 2.6674234635003891e+01 0 0 0
569 2 3.6915000000000004e+00 7.1042950623783474e-01 2.6674234635003891e+01 0 0 0
584 2 3.6914999999999996e+00 2.1312885187134998e+00 2.6674234635003891e+01 0 0 0
586 2 4.9220000000000006e+00 2.8417180249513332e+00 2.6674234635003891e+01 0 0 0
588 2 4.9220000000000006e+00 0.0000000000000000e+00 2.6674234635003891e+01 0 0 0
590 2 6.1524999999999999e+00 7.1042950623783407e-01 2.6674234635003891e+01 0 0 0
613 2 6.1524999999999999e+00 2.1312885187134989e+00 2.6674234635003891e+01 0 0 0
615 2 7.3829999999999991e+00 2.8417180249513345e+00 2.6674234635003891e+01 0 0 0
617 2 7.3829999999999991e+00 0.0000000000000000e+00 2.6674234635003891e+01 0 0 0
619 2 8.6134999999999984e+00 7.1042950623783407e-01 2.6674234635003891e+01 0 0 0
650 2 8.6134999999999984e+00 2.1312885187135002e+00 2.6674234635003891e+01 0 0 0
652 2 9.8440000000000012e+00 2.8417180249513332e+00 2.6674234635003891e+01 0 0 0
654 2 9.8440000000000012e+00 0.0000000000000000e+00 2.6674234635003891e+01 0 0 0
656 2 1.1074500000000002e+01 7.1042950623783330e-01 2.6674234635003891e+01 0 0 0
695 2 1.1074500000000002e+01 2.1312885187135002e+00 2.6674234635003891e+01 0 0 0
559 2 0.0000000000000000e+00 4.2625770374269996e+00 2.6674234635003891e+01 0 0 0
561 2 1.2305000000000001e+00 4.9730065436648339e+00 2.6674234635003891e+01 0 0 0
576 2 1.2305000000000001e+00 6.3938655561404980e+00 2.6674234635003891e+01 0 0 0
580 2 2.4610000000000003e+00 4.2625770374269996e+00 2.6674234635003891e+01 0 0 0
582 2 3.6914999999999996e+00 4.9730065436648339e+00 2.6674234635003891e+01 0 0 0
605 2 3.6914999999999996e+00 6.3938655561404980e+00 2.6674234635003891e+01 0 0 0
557 2 0.0000000000000000e+00 7.1042950623783341e+00 2.6674234635003891e+01 0 0 0
578 2 2.4610000000000003e+00 7.1042950623783341e+00 2.6674234635003891e+01 0 0 0
609 2 4.9220000000000006e+00 4.2625770374269978e+00 2.6674234635003891e+01 0 0 0
611 2 6.1524999999999999e+00 4.9730065436648339e+00 2.6674234635003891e+01 0 0 0
642 2 6.1524999999999999e+00 6.3938655561404980e+00 2.6674234635003891e+01 0 0 0
646 2 7.3829999999999991e+00 4.2625770374269996e+00 2.6674234635003891e+01 0 0 0
607 2 4.9220000000000006e+00 7.1042950623783341e+00 2.6674234635003891e+01 0 0 0
644 2 7.3830000000000009e+00 7.1042950623783341e+00 2.6674234635003891e+01 0 0 0
648 2 8.6135000000000002e+00 4.9730065436648339e+00 2.6674234635003891e+01 0 0 0
687 2 8.6135000000000002e+00 6.3938655561404980e+00 2.6674234635003891e+01 0 0 0
691 2 9.8440000000000012e+00 4.2625770374270004e+00 2.6674234635003891e+01 0 0 0
693 2 1.1074500000000002e+01 4.9730065436648339e+00 2.6674234635003891e+01 0 0 0
734 2 1.1074500000000002e+01 6.3938655561404980e+00 2.6674234635003891e+01 0 0 0
689 2 9.8440000000000012e+00 7.1042950623783341e+00 2.6674234635003891e+01 0 0 0
574 2 1.2305000000000001e+00 9.2355835810918343e+00 2.6674234635003891e+01 0 0 0
572 2 0.0000000000000000e+00 8.5251540748539991e+00 2.6674234635003891e+01 0 0 0
601 2 2.4610000000000003e+00 8.5251540748539991e+00 2.6674234635003891e+01 0 0 0
634 2 3.6914999999999996e+00 1.0656442593567499e+01 2.6674234635003891e+01 0 0 0
570 2 0.0000000000000000e+00 1.1366872099805333e+01 2.6674234635003891e+01 0 0 0
603 2 3.6915000000000004e+00 9.2355835810918343e+00 2.6674234635003891e+01 0 0 0
597 2 1.2305000000000001e+00 1.0656442593567498e+01 2.6674234635003891e+01 0 0 0
599 2 2.4610000000000003e+00 1.1366872099805333e+01 2.6674234635003891e+01 0 0 0
679 2 6.1524999999999999e+00 1.0656442593567499e+01 2.6674234635003891e+01 0 0 0
636 2 4.9220000000000006e+00 1.1366872099805333e+01 2.6674234635003891e+01 0 0 0
681 2 7.3829999999999991e+00 1.1366872099805333e+01 2.6674234635003891e+01 0 0 0
638 2 4.9220000000000006e+00 8.5251540748539991e+00 2.6674234635003891e+01 0 0 0
640 2 6.1524999999999999e+00 9.2355835810918343e+00 2.6674234635003891e+01 0 0 0
683 2 7.3830000000000009e+00 8.5251540748539991e+00 2.6674234635003891e+01 0 0 0
685 2 8.6134999999999984e+00 9.2355835810918343e+00 2.6674234635003891e+01 0 0 0
730 2 9.8440000000000012e+00 8.5251540748539956e+00 2.6674234635003891e+01 0 0 0
773 2 1.1074500000000002e+01 1.0656442593567498e+01 2.6674234635003891e+01 0 0 0
263 1 1.0588430037359394e+01 3.7985189315309820e-01 2.0798162376131053e+01 1 4 1
373 1 6.3392902503289630e+00 3.9270831822561003e-01 2.3553598517306387e+01 0 1 0
1382 1 1.0848693479669716e+01 1.9340176975530493e-01 2.3588714267070927e+01 -1 0 1
6106 1 1.6504426991554144e-01 6.8820424575063877e+00 1.7000341040920496e+01 0 2 1
133 1 2.2684220693366814e+00 5.6128250003582290e+00 1.5976233486917913e+01 -3 0 1
553 2 0.0000000000000000e+00 1.4208590124756650e+00 3.0031000000003111e+01 0 0 0
555 2 0.0000000000000000e+00 0.0000000000000000e+00 3.0031000000003111e+01 0 0 0
564 2 1.2305000000000001e+00 2.1312885187134998e+00 3.0031000000003111e+01 0 0 0
566 2 2.4610000000000003e+00 1.4208590124756650e+00 3.0031000000003111e+01 0 0 0
568 2 2.4610000000000003e+00 0.0000000000000000e+00 3.0031000000003111e+01 0 0 0
585 2 3.6914999999999996e+00 2.1312885187134998e+00 3.0031000000003111e+01 0 0 0
562 2 1.2305000000000001e+00 3.5521475311891644e+00 3.0031000000003111e+01 0 0 0
583 2 3.6914999999999996e+00 3.5521475311891644e+00 3.0031000000003111e+01 0 0 0
881 2 0.0000000000000000e+00 2.8417180249513345e+00 3.3387765364986194e+01 0 0 0
882 2 0.0000000000000000e+00 0.0000000000000000e+00 3.3387765364986194e+01 0 0 0
883 2 1.2305000000000001e+00 7.1042950623783474e-01 3.3387765364986194e+01 0 0 0
887 2 1.2305000000000001e+00 2.1312885187134998e+00 3.3387765364986194e+01 0 0 0
888 2 2.4610000000000003e+00 2.8417180249513345e+00 3.3387765364986194e+01 0 0 0
889 2 2.4610000000000003e+00 0.0000000000000000e+00 3.3387765364986194e+01 0 0 0
890 2 3.6915000000000004e+00 7.1042950623783474e-01 3.3387765364986194e+01 0 0 0
898 2 3.6914999999999996e+00 2.1312885187134998e+00 3.3387765364986194e+01 0 0 0
587 2 4.9220000000000006e+00 1.4208590124756650e+00 3.0031000000003111e+01 0 0 0
589 2 4.9220000000000006e+00 0.0000000000000000e+00 3.0031000000003111e+01 0 0 0
614 2 6.1524999999999999e+00 2.1312885187134989e+00 3.0031000000003111e+01 0 0 0
616 2 7.3829999999999991e+00 1.4208590124756659e+00 3.0031000000003111e+01 0 0 0
618 2 7.3829999999999991e+00 0.0000000000000000e+00 3.0031000000003111e+01 0 0 0
612 2 6.1524999999999999e+00 3.5521475311891644e+00 3.0031000000003111e+01 0 0 0
899 2 4.9220000000000006e+00 2.8417180249513332e+00 3.3387765364986194e+01 0 0 0
900 2 4.9220000000000006e+00 0.0000000000000000e+00 3.3387765364986194e+01 0 0 0
901 2 6.1524999999999999e+00 7.1042950623783407e-01 3.3387765364986194e+01 0 0 0
913 2 6.1524999999999999e+00 2.1312885187134989e+00 3.3387765364986194e+01 0 0 0
914 2 7.3829999999999991e+00 2.8417180249513345e+00 3.3387765364986194e+01 0 0 0
915 2 7.3829999999999991e+00 0.0000000000000000e+00 3.3387765364986194e+01 0 0 0
651 2 8.6134999999999984e+00 2.1312885187135002e+00 3.0031000000003111e+01 0 0 0
653 2 9.8440000000000012e+00 1.4208590124756659e+00 3.0031000000003111e+01 0 0 0
655 2 9.8440000000000012e+00 0.0000000000000000e+00 3.0031000000003111e+01 0 0 0
696 2 1.1074500000000002e+01 2.1312885187135002e+00 3.0031000000003111e+01 0 0 0
649 2 8.6134999999999984e+00 3.5521475311891657e+00 3.0031000000003111e+01 0 0 0
694 2 1.1074500000000002e+01 3.5521475311891644e+00 3.0031000000003111e+01 0 0 0
916 2 8.6134999999999984e+00 7.1042950623783407e-01 3.3387765364986194e+01 0 0 0
932 2 8.6134999999999984e+00 2.1312885187135002e+00 3.3387765364986194e+01 0 0 0
933 2 9.8440000000000012e+00 2.8417180249513332e+00 3.3387765364986194e+01 0 0 0
934 2 9.8440000000000012e+00 0.0000000000000000e+00 3.3387765364986194e+01 0 0 0
935 2 1.1074500000000002e+01 7.1042950623783330e-01 3.3387765364986194e+01 0 0 0
955 2 1.1074500000000002e+01 2.1312885187135002e+00 3.3387765364986194e+01 0 0 0
558 2 0.0000000000000000e+00 5.6834360499026637e+00 3.0031000000003111e+01 0 0 0
560 2 0.0000000000000000e+00 4.2625770374269996e+00 3.0031000000003111e+01 0 0 0
577 2 1.2305000000000001e+00 6.3938655561404980e+00 3.0031000000003111e+01 0 0 0
579 2 2.4610000000000003e+00 5.6834360499026637e+00 3.0031000000003111e+01 0 0 0
581 2 2.4610000000000003e+00 4.2625770374269996e+00 3.0031000000003111e+01 0 0 0
606 2 3.6914999999999996e+00 6.3938655561404980e+00 3.0031000000003111e+01 0 0 0
575 2 1.2305000000000001e+00 7.8147245686161639e+00 3.0031000000003111e+01 0 0 0
604 2 3.6914999999999996e+00 7.8147245686161639e+00 3.0031000000003111e+01 0 0 0
885 2 0.0000000000000000e+00 4.2625770374269996e+00 3.3387765364986194e+01 0 0 0
886 2 1.2305000000000001e+00 4.9730065436648339e+00 3.3387765364986194e+01 0 0 0
894 2 1.2305000000000001e+00 6.3938655561404980e+00 3.3387765364986194e+01 0 0 0
896 2 2.4610000000000003e+00 4.2625770374269996e+00 3.3387765364986194e+01 0 0 0
897 2 3.6914999999999996e+00 4.9730065436648339e+00 3.3387765364986194e+01 0 0 0
909 2 3.6914999999999996e+00 6.3938655561404980e+00 3.3387765364986194e+01 0 0 0
884 2 0.0000000000000000e+00 7.1042950623783341e+00 3.3387765364986194e+01 0 0 0
895 2 2.4610000000000003e+00 7.1042950623783341e+00 3.3387765364986194e+01 0 0 0
608 2 4.9220000000000006e+00 5.6834360499026637e+00 3.0031000000003111e+01 0 0 0
610 2 4.9220000000000006e+00 4.2625770374269978e+00 3.0031000000003111e+01 0 0 0
643 2 6.1524999999999999e+00 6.3938655561404980e+00 3.0031000000003111e+01 0 0 0
645 2 7.3829999999999991e+00 5.6834360499026637e+00 3.0031000000003111e+01 0 0 0
647 2 7.3829999999999991e+00 4.2625770374269996e+00 3.0031000000003111e+01 0 0 0
641 2 6.1524999999999999e+00 7.8147245686161639e+00 3.0031000000003111e+01 0 0 0
911 2 4.9220000000000006e+00 4.2625770374269978e+00 3.3387765364986194e+01 0 0 0
912 2 6.1524999999999999e+00 4.9730065436648339e+00 3.3387765364986194e+01 0 0 0
928 2 6.1524999999999999e+00 6.3938655561404980e+00 3.3387765364986194e+01 0 0 0
930 2 7.3829999999999991e+00 4.2625770374269996e+00 3.3387765364986194e+01 0 0 0
910 2 4.9220000000000006e+00 7.1042950623783341e+00 3.3387765364986194e+01 0 0 0
929 2 7.3830000000000009e+00 7.1042950623783341e+00 3.3387765364986194e+01 0 0 0
688 2 8.6135000000000002e+00 6.3938655561404980e+00 3.0031000000003111e+01 0 0 0
690 2 9.8440000000000012e+00 5.6834360499026637e+00 3.0031000000003111e+01 0 0 0
692 2 9.8440000000000012e+00 4.2625770374270004e+00 3.0031000000003111e+01 0 0 0
735 2 1.1074500000000002e+01 6.3938655561404980e+00 3.0031000000003111e+01 0 0 0
686 2 8.6135000000000002e+00 7.8147245686161639e+00 3.0031000000003111e+01 0 0 0
733 2 1.1074500000000002e+01 7.8147245686161639e+00 3.0031000000003111e+01 0 0 0
931 2 8.6135000000000002e+00 4.9730065436648339e+00 3.3387765364986194e+01 0 0 0
951 2 8.6135000000000002e+00 6.3938655561404980e+00 3.3387765364986194e+01 0 0 0
953 2 9.8440000000000012e+00 4.2625770374270004e+00 3.3387765364986194e+01 0 0 0
954 2 1.1074500000000002e+01 4.9730065436648339e+00 3.3387765364986194e+01 0 0 0
975 2 1.1074500000000002e+01 6.3938655561404980e+00 3.3387765364986194e+01 0 0 0
952 2 9.8440000000000012e+00 7.1042950623783341e+00 3.3387765364986194e+01 0 0 0
571 2 0.0000000000000000e+00 9.9460130873296642e+00 3.0031000000003111e+01 0 0 0
573 2 0.0000000000000000e+00 8.5251540748539991e+00 3.0031000000003111e+01 0 0 0
600 2 2.4610000000000003e+00 9.9460130873296642e+00 3.0031000000003111e+01 0 0 0
602 2 2.4610000000000003e+00 8.5251540748539991e+00 3.0031000000003111e+01 0 0 0
596 2 1.2305000000000001e+00 1.2077301606043163e+01 3.0031000000003111e+01 0 0 0
598 2 1.2305000000000001e+00 1.0656442593567498e+01 3.0031000000003111e+01 0 0 0
633 2 3.6914999999999996e+00 1.2077301606043163e+01 3.0031000000003111e+01 0 0 0
635 2 3.6914999999999996e+00 1.0656442593567499e+01 3.0031000000003111e+01 0 0 0
892 2 0.0000000000000000e+00 8.5251540748539991e+00 3.3387765364986194e+01 0 0 0
893 2 1.2305000000000001e+00 9.2355835810918343e+00 3.3387765364986194e+01 0 0 0
907 2 2.4610000000000003e+00 8.5251540748539991e+00 3.3387765364986194e+01 0 0 0
908 2 3.6915000000000004e+00 9.2355835810918343e+00 3.3387765364986194e+01 0 0 0
891 2 0.0000000000000000e+00 1.1366872099805333e+01 3.3387765364986194e+01 0 0 0
905 2 1.2305000000000001e+00 1.0656442593567498e+01 3.3387765364986194e+01 0 0 0
906 2 2.4610000000000003e+00 1.1366872099805333e+01 3.3387765364986194e+01 0 0 0
924 2 3.6914999999999996e+00 1.0656442593567499e+01 3.3387765364986194e+01 0 0 0
637 2 4.9220000000000006e+00 9.9460130873296642e+00 3.0031000000003111e+01 0 0 0
639 2 4.9220000000000006e+00 8.5251540748539991e+00 3.0031000000003111e+01 0 0 0
682 2 7.3830000000000009e+00 9.9460130873296642e+00 3.0031000000003111e+01 0 0 0
684 2 7.3830000000000009e+00 8.5251540748539991e+00 3.0031000000003111e+01 0 0 0
678 2 6.1524999999999999e+00 1.2077301606043163e+01 3.0031000000003111e+01 0 0 0
680 2 6.1524999999999999e+00 1.0656442593567499e+01 3.0031000000003111e+01 0 0 0
926 2 4.9220000000000006e+00 8.5251540748539991e+00 3.3387765364986194e+01 0 0 0
927 2 6.1524999999999999e+00 9.2355835810918343e+00 3.3387765364986194e+01 0 0 0
949 2 7.3830000000000009e+00 8.5251540748539991e+00 3.3387765364986194e+01 0 0 0
925 2 4.9220000000000006e+00 1.1366872099805333e+01 3.3387765364986194e+01 0 0 0
947 2 6.1524999999999999e+00 1.0656442593567499e+01 3.3387765364986194e+01 0 0 0
948 2 7.3829999999999991e+00 1.1366872099805333e+01 3.3387765364986194e+01 0 0 0
729 2 9.8440000000000012e+00 9.9460130873296642e+00 3.0031000000003111e+01 0 0 0
731 2 9.8440000000000012e+00 8.5251540748539956e+00 3.0031000000003111e+01 0 0 0
725 2 8.6135000000000002e+00 1.2077301606043163e+01 3.0031000000003111e+01 0 0 0
727 2 8.6134999999999984e+00 1.0656442593567498e+01 3.0031000000003111e+01 0 0 0
772 2 1.1074500000000002e+01 1.2077301606043163e+01 3.0031000000003111e+01 0 0 0
774 2 1.1074500000000002e+01 1.0656442593567498e+01 3.0031000000003111e+01 0 0 0
950 2 8.6134999999999984e+00 9.2355835810918343e+00 3.3387765364986194e+01 0 0 0
973 2 9.8440000000000012e+00 8.5251540748539956e+00 3.3387765364986194e+01 0 0 0
974 2 1.1074500000000002e+01 9.2355835810918343e+00 3.3387765364986194e+01 0 0 0
971 2 8.6134999999999984e+00 1.0656442593567498e+01 3.3387765364986194e+01 0 0 0
972 2 9.8440000000000012e+00 1.1366872099805333e+01 3.3387765364986194e+01 0 0 0
995 2 1.1074500000000002e+01 1.0656442593567498e+01 3.3387765364986194e+01 0 0 0
996 2 1.2304999999999998e+01 1.1366872099805333e+01 3.3387765364986194e+01 0 0 0
2024 1 2.1481196432778988e+00 1.2926461088019003e+00 3.6720822396533862e+01 -4 0 -1
3445 1 6.4637767659680003e+00 1.5277215750733948e+00 3.6318519168341552e+01 1 -3 -1
1303 1 4.1090192895767403e+00 7.6761990011594792e+00 4.3438476760372374e+01 1 -4 0
2079 1 1.0716844122072017e+01 1.6024287378568511e+00 3.6959675710502069e+01 1 1 0
6220 1 2.0678908457228000e+00 4.1029798038093368e+00 4.0260196477215807e+01 3 2 0
5994 1 1.8816815649413163e+00 4.0851572517782166e+00 3.5972735390377984e+01 -1 4 -1
488 1 6.4216974912894536e+00 4.4579129370719031e+00 3.5752544913101111e+01 1 -2 -1
2854 1 3.9307554034594383e+00 5.5660526704783395e+00 3.6573932563393285e+01 4 1 0
3332 1 1.1219773900941870e+01 3.9969919819137258e+00 3.6049998522887570e+01 1 -1 -1
3352 1 8.8742565432325815e+00 5.4530121133267473e+00 3.6288489872531599e+01 1 0 -1
3215 1 2.4416953542048638e+00 9.7100970319093367e+00 3.5983016701601571e+01 3 -3 -1
189 1 4.7885880852190272e+00 8.3354035688342289e+00 3.6655243771735535e+01 0 -4 -1
4571 1 7.1156540815508205e+00 9.6845794847096194e+00 3.5916687422446934e+01 3 0 0
3276 1 9.2222783253652860e+00 8.2402614751313017e+00 3.6831316326071757e+01 1 3 0
5162 1 1.1332274179237132e+01 9.9134399390430250e+00 3.5655475914085869e+01 2 -5 -1
4558 1 2.0120926572548408e+00 1.3650619702726841e+00 3.9451513089838159e+01 1 2 0
2922 1 6.4627653765454838e+00 1.4670737990502107e+00 3.9278530518141785e+01 -5 3 0
5223 1 6.4121330931815592e+00 4.1045087543648062e+00 4.0281290223166344e+01 -3 -1 0
1574 1 1.0012627708422883e-01 9.4711763459291252e+00 3.9264411085740576e+01 4 -3 0
4470 1 1.1043187189706069e+01 1.4174431506899519e+00 3.9728555528439870e+01 3 -2 0
1611 1 4.1459188780552765e+00 5.4672923643525992e+00 3.9300292417041760e+01 6 1 -1
1815 1 1.0886703780638767e+01 4.0772720773780851e+00 4.0543391753126308e+01 1 -3 -1
3049 1 8.6932044600593592e+00 5.4114439404408925e+00 3.9410120503045277e+01 9 -1 0
5198 1 2.1290092422250311e+00 1.1081606651230519e+01 3.8826969918977071e+01 -3 1 -1
4932 1 4.7100492887715015e+00 9.9886921602041987e+00 3.9082675218197984e+01 -1 4 0
3563 1 6.9536598614263134e+00 1.1427308278929507e+01 3.8920765679163878e+01 0 0 0
2864 1 9.1466053311250075e+00 9.7756612028259688e+00 3.9302661104096053e+01 2 -4 0
1347 1 1.1307822980627046e+01 1.1465268552730592e+01 3.8464195960104831e+01 0 -1 0
1560 1 1.9146779883151395e+00 3.7676280556149893e+00 4.3094788458502983e+01 -1 -3 -1
168 1 4.8158948434573148e+00 7.6791724487434356e+00 4.0725877271982156e+01 2 -1 0
3319 1 6.4963498922561200e+00 3.9208643139565154e+00 4.3007023765582638e+01 6 1 -1
1428 1 7.7953709784526000e+00 7.5709666896919510e+00 4.0806426842557308e+01 2 0 0
3082 1 1.0898269084205277e+01 3.5729089144521953e+00 4.3326485527848661e+01 1 1 -1
1686 1 8.5636483604007179e+00 7.6629659968512822e+00 4.3483378082254802e+01 2 0 -1
4834 1 6.2513090207626556e+00 1.1471655072224451e+00 4.3788874193073227e+01 1 2 -1
1649 1 8.5547987634953249e-02 8.0098738422470159e+00 3.6579495550559777e+01 1 1 -1
6287 1 8.7296741981177952e+00 2.5157545286137795e-01 3.5869086058526499e+01 0 -2 -1
1965 1 4.2130843377527798e+00 1.7870780553550211e-01 4.0604522538473823e+01 0 -6 0
2078 1 1.1081419344362772e+01 8.9756669933243383e-01 4.3973020886090175e+01 2 0 -1
4814 1 8.8592133586141504e+00 5.1266304016812736e+00 4.4065761331527618e+01 -4 1 -1
1459 1 1.0942884061010359e+01 9.1004789964137878e+00 4.4057133423571983e+01 -2 0 0
3605 1 2.1247176466566970e+00 7.3929897931785382e-01 4.6693746033341746e+01 3 -2 0
5122 1 4.0653432973499211e+00 2.3912960500387737e+00 4.7460846569890215e+01 2 0 0
1481 1 6.4140767695846570e+00 1.1857629748403067e+00 4.6638963126282434e+01 2 1 0
1377 1 1.0753381266243434e+01 1.1541613767812631e+00 4.6841122355282415e+01 3 -2 0
3267 1 8.7256676096123051e+00 2.6037460607831173e+00 4.7660150049814646e+01 0 0 0
4487 1 3.9049967431787005e+00 4.8868254776101923e+00 4.6820890656329084e+01 1 3 0
3097 1 1.0622243350437840e+01 1.1693121591828225e+01 4.4379701871337616e+01 -2 2 -1
3430 1 8.6549058926836970e+00 5.0788606546729351e+00 4.6767875419830183e+01 -3 1 -1
4599 1 1.0880408104126730e+01 6.3628317459442441e+00 4.7405848933273830e+01 2 2 0
1328 1 1.8830330211218236e+00 9.0286983557154237e+00 4.6969810303279658e+01 2 7 0
4967 1 1.8170974983822514e+00 1.1773380998133044e+01 4.4364866903950251e+01 -4 6 -1
2911 1 8.5708714046086190e+00 1.1999564285512324e+01 4.6089233581996204e+01 -4 -5 0
4849 1 6.3952432377600443e+00 1.1156031221036155e+01 5.5254128863932024e+01 -2 3 0
3420 1 6.0980014330438177e+00 8.6234159719574919e+00 4.7418974687970341e+01 -1 -7 -1
2143 1 6.2474984885427061e+00 1.1584756588904764e+01 4.4575342990043005e+01 -3 -4 0
2821 1 1.7255681677246095e+00 8.9395586215415666e+00 4.4309691000729202e+01 1 0 -1
1832 1 1.0728683395454579e+01 8.8751253507022714e+00 4.6987662992867179e+01 -3 3 -1
3652 1 3.9360763911468557e+00 7.8452044117847786e+00 5.7689195524862967e+01 0 -1 -1
78 1 4.0932632146196468e+00 1.2081997253288831e+01 4.5978753485020178e+01 2 -3 0
6268 1 4.1639450829464373e+00 2.3262360370774013e+00 5.0199920623723131e+01 -3 0 -1
5160 1 8.5910769868413972e+00 2.5218577729028255e+00 5.0441852313182508e+01 -1 -1 -1
6102 1 1.6737610867494197e+00 6.2603339616443545e+00 4.7835597848599143e+01 0 -1 0
5168 1 1.5644985310897037e+00 6.2044115947404261e+00 5.0552429005382443e+01 3 -2 0
4472 1 6.4024140397143654e+00 5.9379494540361994e+00 4.7936380665667606e+01 0 -1 0
6062 1 6.1723527873274282e+00 6.0662024398035941e+00 5.0694451045406367e+01 3 -3 -1
5131 1 1.0913844606412354e+01 6.1126249332924525e+00 5.0407515616786185e+01 -4 -3 0
1463 1 3.9397424808986012e+00 1.0256387581943205e+01 5.0796246040860048e+01 3 -3 0
3602 1 3.8995578693363560e+00 1.0165237287937332e+01 4.8003940606817622e+01 1 0 0
1650 1 8.4117324006398313e+00 9.9545239949558511e+00 4.7833047520495178e+01 0 -4 -1
468 1 8.5796182186590393e+00 9.9333317667314880e+00 5.0747977999330516e+01 0 3 0
1949 1 1.9965890802604702e+00 1.0957451925773529e+00 5.1595597664827785e+01 -1 -1 -1
1872 1 1.6611960943681841e+00 1.0058871993889300e+00 5.4590523550076135e+01 -3 1 -1