LAMMPS data file via write_data, version 16 Mar 2018, timestep = 8000000

6472 atoms
2 atom types

0.0000000000000000e+00 4.9219999999999999e+01 xlo xhi
0.0000000000000000e+00 4.9019635930410494e+01 ylo yhi
9.3438732881580222e-02 5.9968561267104590e+01 zlo zhi

Masses

1 18.015
2 12.01

Atoms # atomic

373 1 3.2042417532717509e+00 1.9652027608524916e+00 2.1456520607149177e+00 -3 0 0
4720 1 2.9368184517045379e+00 1.8686779001465885e+00 4.8372697857914009e+00 -2 -3 1
4575 1 2.4517006675811395e+00 4.2002394875416638e+00 1.0074162413553038e+00 0 0 1
3200 1 5.8238406943985730e+00 1.3882931010404909e+00 1.4231185486933311e+00 -4 3 0
1641 1 7.5791306834248724e+00 3.3890787817442343e+00 2.2668604275265953e+00 -2 2 0
534 1 6.9287374394626751e+00 2.8568860815454080e+00 5.3665728367544530e+00 -1 -2 1
1338 1 1.0276387669610648e+01 2.9892524302781238e+00 1.4710893605752990e+00 -1 3 1
2097 1 1.0345430204027812e+01 3.8804905844026516e-01 5.0381746736836543e+00 1 1 1
4917 1 1.1129855750299921e+01 2.1186921555683225e-01 2.0768489064843552e+00 4 -1 0
6139 1 8.4309258378012786e-01 4.7356415152029525e+00 4.5377000832542702e+00 4 -2 1
3188 1 3.5267542837986232e+00 5.9415690495007816e+00 4.5816152124924354e+00 2 -1 1
3050 1 1.5310533122410586e-01 6.8407382173782194e+00 1.3167204118595649e+01 1 0 1
3779 1 4.2990581359514151e+00 6.1853888794619989e+00 2.0576263906206949e+00 -3 -1 1
1715 1 6.9550077348390404e+00 5.7814563397752030e+00 1.0470761222230895e+00 -2 0 0
3498 1 8.9993831471608416e+00 7.3190759137492867e+00 2.0472087440270545e+00 0 -4 0
215 1 1.1674453205079558e+01 7.1715497556831611e+00 1.0523670024755778e+00 1 0 0
3782 1 9.3105003419041505e+00 7.0234461868335210e+00 4.8710340877606164e+00 -1 -1 1
2112 1 9.5965522582640539e-01 1.1886817159110716e+01 1.4385736796693491e+00 0 -1 1
3271 1 1.0908892859844377e+00 9.2995720137002404e+00 2.2522309302015118e+00 2 2 1
1317 1 1.1796904773218462e+00 9.2475980776042537e+00 5.0308475535824204e+00 -3 4 0
310 1 3.9144251721926104e+00 8.9541704947435736e+00 1.3340116364975192e+00 1 -1 0
5079 1 5.9500165871331800e+00 1.0560954409208721e+01 2.2008472499326701e+00 0 2 0
1598 1 5.8624827123955781e+00 9.9881252390978315e+00 4.9767540856933890e+00 0 -2 1
1411 1 1.2159966471089733e+01 2.6469120252832115e+00 8.7403264386149928e+00 0 5 1
5302 1 8.2073481757911768e+00 9.8958407169970517e+00 1.1674358020541671e+00 2 -1 0
4645 1 1.1447684105629257e+01 9.1897762761101536e+00 1.2043339274901555e+01 0 1 1
5044 1 2.0415056439714032e+00 1.8544218244892947e+00 9.5831497218137169e+00 -4 0 1
6187 1 1.0459368073663311e+00 1.1083650487144579e+01 1.3183709257740405e+01 -2 3 1
185 1 3.8597792476029218e+00 3.7642267561347311e+00 8.7898087446542661e+00 2 1 1
4905 1 6.3412726936591062e+00 3.1203271342950223e+00 9.6595201908532413e+00 1 0 0
6157 1 7.6543255323061112e+00 4.6376460917136142e-01 9.0201013298453585e+00 1 -1 1
330 1 4.2875351479609041e+00 3.9286462000973588e+00 6.1913605863663328e+00 2 2 1
4764 1 7.6595450180703155e+00 2.2989337992582320e-01 6.2676836232866560e+00 0 0 1
236 1 1.0465770338615627e+01 4.5014456639255773e-01 1.2300734998073999e+01 2 1 0
4946 1 1.0539555521263589e+01 5.6682555527440481e-01 9.4894011515943575e+00 2 -2 0
6377 1 1.1092321674295759e+01 2.7170860162962933e+00 6.0247364410920072e+00 -2 -2 1
1666 1 8.9367729609500248e+00 9.4269494633844229e+00 1.3466645015927723e+01 5 -2 1
4526 1 2.7119207654419046e+00 6.1340299244542074e+00 9.3794802106594286e+00 -5 2 1
1427 1 6.6147283005156146e+00 7.7644781724241199e+00 9.5312225847624301e+00 1 3 1
3618 1 8.0084311539640165e+00 5.2441107082825313e+00 8.7982884279610829e+00 0 3 0
1578 1 3.7133360363915702e+00 8.3891816459722985e+00 5.6884048632732602e+00 2 -2 1
4736 1 8.9841266082387268e+00 4.5270347458737659e+00 6.1772329559214247e+00 2 -1 1
5178 1 1.0598731442028754e+01 4.7600101022068984e+00 9.5192203234114672e+00 -2 3 0
5317 1 5.2173775492505814e-01 1.1731164507572304e+01 6.0602422504005249e+00 3 2 0
571 1 6.1542152631341973e-01 1.1162811170106183e+01 8.6312745674002187e+00 5 -2 0
1810 1 3.1971448325608320e+00 1.0651044648371657e+01 9.6998017907225069e+00 -1 1 0
2851 1 3.9397469579775692e+00 8.2572680656931414e+00 8.4430565187612245e+00 1 2 1
3306 1 8.6499163404423438e+00 9.6576855776715362e+00 5.7110825545630703e+00 1 -2 1
4525 1 8.3317017185538411e+00 9.6766127003574809e+00 8.2965452867327940e+00 -3 -2 1
281 1 1.1050310857332150e+01 9.3107208170633413e+00 9.2470073069151493e+00 0 1 0
4775 1 2.3136397021354878e+00 2.2584703696551820e+00 1.2336868122528307e+01 3 1 1
4921 1 4.1267204918368261e+00 4.0307051383896262e+00 1.3192604467149335e+01 2 2 1
6358 1 6.7833716783518572e+00 3.3223360998668174e+00 1.2260757292588826e+01 3 0 1
3452 1 7.9502566897075315e+00 9.5605629372638012e-01 1.3004160804109709e+01 2 -1 0
1322 1 1.2116405413549192e+01 2.5687344841553594e+00 1.2913724076340449e+01 2 3 1
6273 1 4.9763781027890619e-01 2.4775892063543972e+00 5.9258315234100403e+00 -4 1 1
387 1 1.0431502807851079e+01 1.1786498797391571e+01 2.0909552139946963e+00 -3 4 0
4608 1 2.8639659110043869e+00 6.3246602775269798e+00 1.2132977121794573e+01 -2 -2 1
577 1 4.3062752069623427e+00 8.3181325670038930e+00 1.3405172227120378e+01 1 -3 0
3365 1 6.9904173702445451e+00 7.7294906408653716e+00 1.2327143018441543e+01 1 3 0
2964 1 8.3945896730457115e+00 5.4215924258435351e+00 1.3030236084831788e+01 -2 1 1
6263 1 1.0885941941916316e+01 4.9234439253464091e+00 1.2192782049930093e+01 2 0 1
5269 1 3.5136778677380591e+00 1.0793288566259404e+01 1.2480447956336787e+01 2 -2 0
4732 1 1.2099431964948986e+01 6.9205472532666832e+00 5.6541158636876530e+00 -2 -1 0
3266 1 1.0308286049460213e+01 1.1601787332957230e+01 4.7615963188846555e+00 -3 3 0
1584 1 2.7688870834560003e-01 6.9136307468426539e+00 8.6330234109700683e+00 5 2 0
6395 1 7.9266937308230325e+00 1.1778626836071581e+01 1.2256834187657031e+01 4 -1 0
171 1 7.6878232746686113e+00 1.1975624727498710e+01 9.4321378834100695e+00 2 3 1
1626 1 1.2299758441538422e+01 6.8250383931012735e+00 8.4862734951472287e+00 2 -1 1
1481 1 2.3848730840174905e+00 1.9241573198557778e+00 1.7031595809191419e+01 3 1 0
367 1 2.3890171652331000e+00 1.9964278463329945e+00 1.9654738378130062e+01 3 -3 0
4606 1 4.0450663744715287e+00 3.7679010912762871e+00 1.5902275347105093e+01 0 -3 1
5210 1 6.5878235746000806e+00 3.2156354179981173e+00 1.7074200264930582e+01 1 1 0
3064 1 6.5109198720568093e+00 3.0938669886034145e+00 1.9834191691979409e+01 1 1 1
6223 1 8.3054015154288621e+00 1.2573564753810109e+00 1.5764011044455359e+01 -2 3 1
4938 1 1.2173612826461587e+01 2.6818330464426432e+00 2.3999645944170201e+01 0 0 1
6392 1 1.0777470912744782e+01 5.6757872268984022e-01 1.6465534651449641e+01 -3 1 1
757 2 9.8440000000000012e+00 1.1366872099805333e+01 2.6658459309606876e+01 0 0 0
6294 1 2.7976277838362291e+00 6.2768643454185042e+00 1.6873720163917739e+01 2 4 1
1976 1 2.7190114115536215e+00 6.2002879363559051e+00 1.9615595214739667e+01 1 5 0
5070 1 1.0369644829688374e+01 5.6374570049473949e-01 1.9133194047422439e+01 0 0 0
1868 1 7.2839144743150745e+00 7.2395472384210002e+00 1.9965416018354400e+01 1 1 0
4589 1 7.3104300780739431e+00 7.3808517256817003e+00 1.7044488422001454e+01 -1 -2 1
246 1 4.7406680646278758e+00 8.1646645979032719e+00 1.6051239750432508e+01 4 -3 0
1299 1 8.4127444249939654e+00 5.2407263499319168e+00 1.5955262788043498e+01 0 0 1
2849 1 1.0924232135914796e+01 4.8634825921678138e+00 1.7004419167026590e+01 2 0 1
3615 1 1.0903619616793229e+01 4.8607176977210882e+00 1.9757980798795845e+01 0 -2 0
4550 1 1.3569073082731944e+00 1.1173889047548307e+01 1.5945227176003714e+01 1 2 1
6385 1 4.0022933557776303e+00 1.0667989795242285e+01 1.7012150450646278e+01 -1 2 1
3657 1 3.8537522428066966e+00 1.0795076906815821e+01 1.9713601364045136e+01 2 2 0
63 1 1.2086549130975273e+01 2.7127036921246521e+00 1.5646279931490650e+01 1 -1 0
4993 1 9.2777731398425125e+00 9.4400512896107234e+00 1.6128104196610256e+01 1 2 0
3379 1 1.1857332248410332e+01 9.0827242661256129e+00 1.6887786286493139e+01 2 -1 0
3316 1 1.1585641446395313e+01 9.2210352856106965e+00 1.9826246256417296e+01 2 -1 0
3161 1 8.1670083221059304e+00 1.1962116138839926e+01 1.9680059380211070e+01 0 1 1
802 2 1.1074500000000002e+01 1.0656442593567498e+01 2.6658459309606876e+01 0 0 0
754 2 8.6135000000000002e+00 1.2077301606043163e+01 3.0030999999992080e+01 0 0 0
1585 1 4.8841248564256752e+00 1.3060278274550192e+00 2.0585775453820769e+01 1 -1 1
4654 1 5.0056935188712508e+00 1.3626505575722245e+00 2.3566027785705796e+01 2 1 1
3555 1 7.7434816756886002e+00 1.3365845322764751e+00 2.4452093536244053e+01 4 -1 0
5323 1 9.2755899403406943e+00 2.7997212392770510e+00 2.0611223812049328e+01 1 2 0
3075 1 9.4478356552775367e+00 3.0708742299635912e+00 2.3487967205463352e+01 -2 2 0
5207 1 3.3474451913575787e-01 6.8606506158689724e+00 2.4169623261745269e+01 1 0 0
761 2 1.1074500000000002e+01 9.2355835810918343e+00 2.6658459309606876e+01 0 0 0
5033 1 3.7505980237367886e+00 3.6145581828276487e+00 2.4424148288597191e+01 3 -2 0
4759 1 8.8608879016349207e-01 4.3177548736692799e+00 2.0352749379250323e+01 -2 2 1
3514 1 1.3597138677485252e+00 4.4034097147997739e+00 2.3360591201243942e+01 3 -1 0
2015 1 5.2798248302539363e+00 5.5129624985375854e+00 2.0608465387070137e+01 2 -2 0
125 1 5.3095128347983866e+00 5.5579291822082997e+00 2.3357404592792900e+01 0 -1 0
186 1 7.9742292462384059e+00 5.4153062030845938e+00 2.4433449236783918e+01 3 5 0
3580 1 9.9384794016582774e+00 7.3326217283887205e+00 2.0804361415643548e+01 -2 -5 0
4811 1 9.6673859754314613e+00 7.3716600531889629e+00 2.3534438902725149e+01 1 0 1
2954 1 2.0557720720193111e+00 8.8772450701741779e+00 2.0351694596853140e+01 3 -1 1
2001 1 1.8745568702102677e+00 8.9043057963981731e+00 2.3086517043527053e+01 -2 3 0
3210 1 6.1059735731321718e-01 1.1046110076635415e+01 2.4001001278129092e+01 -2 1 0
3655 1 4.2673120360597698e+00 7.9956167606168966e+00 2.4022447020764570e+01 0 0 1
3489 1 6.4979289093877117e+00 1.0063716120454650e+01 2.0597910787186649e+01 3 -1 0
1782 1 6.1002635011471051e+00 1.0002210113054849e+01 2.3270922186268646e+01 5 0 1
4554 1 1.0829492133743354e+01 1.1655696897932078e+01 2.3407267882706197e+01 0 -3 1
2083 1 8.8554878334784330e+00 9.7185986642357154e+00 2.4099813180788662e+01 2 -1 0
5280 1 1.0964666113855165e+01 1.1791039228158937e+01 2.0626785830615169e+01 -2 -1 0
581 2 0.0000000000000000e+00 2.8417180249513345e+00 2.6658459309606876e+01 0 0 0
583 2 0.0000000000000000e+00 0.0000000000000000e+00 2.6658459309606876e+01 0 0 0
585 2 1.2305000000000001e+00 7.1042950623783474e-01 2.6658459309606876e+01 0 0 0
592 2 1.2305000000000001e+00 2.1312885187134998e+00 2.6658459309606876e+01 0 0 0
594 2 2.4610000000000003e+00 2.8417180249513345e+00 2.6658459309606876e+01 0 0 0
596 2 2.4610000000000003e+00 0.0000000000000000e+00 2.6658459309606876e+01 0 0 0
598 2 3.6915000000000004e+00 7.1042950623783474e-01 2.6658459309606876e+01 0 0 0
613 2 3.6914999999999996e+00 2.1312885187134998e+00 2.6658459309606876e+01 0 0 0
582 2 0.0000000000000000e+00 1.4208590124756650e+00 3.0030999999992080e+01 0 0 0
584 2 0.0000000000000000e+00 0.0000000000000000e+00 3.0030999999992080e+01 0 0 0
591 2 1.2305000000000001e+00 3.5521475311891644e+00 3.0030999999992080e+01 0 0 0
593 2 1.2305000000000001e+00 2.1312885187134998e+00 3.0030999999992080e+01 0 0 0
595 2 2.4610000000000003e+00 1.4208590124756650e+00 3.0030999999992080e+01 0 0 0
597 2 2.4610000000000003e+00 0.0000000000000000e+00 3.0030999999992080e+01 0 0 0
612 2 3.6914999999999996e+00 3.5521475311891644e+00 3.0030999999992080e+01 0 0 0
614 2 3.6914999999999996e+00 2.1312885187134998e+00 3.0030999999992080e+01 0 0 0
615 2 4.9220000000000006e+00 2.8417180249513332e+00 2.6658459309606876e+01 0 0 0
617 2 4.9220000000000006e+00 0.0000000000000000e+00 2.6658459309606876e+01 0 0 0
619 2 6.1524999999999999e+00 7.1042950623783407e-01 2.6658459309606876e+01 0 0 0
642 2 6.1524999999999999e+00 2.1312885187134989e+00 2.6658459309606876e+01 0 0 0
644 2 7.3829999999999991e+00 2.8417180249513345e+00 2.6658459309606876e+01 0 0 0
646 2 7.3829999999999991e+00 0.0000000000000000e+00 2.6658459309606876e+01 0 0 0
616 2 4.9220000000000006e+00 1.4208590124756650e+00 3.0030999999992080e+01 0 0 0
618 2 4.9220000000000006e+00 0.0000000000000000e+00 3.0030999999992080e+01 0 0 0
641 2 6.1524999999999999e+00 3.5521475311891644e+00 3.0030999999992080e+01 0 0 0
643 2 6.1524999999999999e+00 2.1312885187134989e+00 3.0030999999992080e+01 0 0 0
645 2 7.3829999999999991e+00 1.4208590124756659e+00 3.0030999999992080e+01 0 0 0
647 2 7.3829999999999991e+00 0.0000000000000000e+00 3.0030999999992080e+01 0 0 0
648 2 8.6134999999999984e+00 7.1042950623783407e-01 2.6658459309606876e+01 0 0 0
679 2 8.6134999999999984e+00 2.1312885187135002e+00 2.6658459309606876e+01 0 0 0
681 2 9.8440000000000012e+00 2.8417180249513332e+00 2.6658459309606876e+01 0 0 0
683 2 9.8440000000000012e+00 0.0000000000000000e+00 2.6658459309606876e+01 0 0 0
685 2 1.1074500000000002e+01 7.1042950623783330e-01 2.6658459309606876e+01 0 0 0
724 2 1.1074500000000002e+01 2.1312885187135002e+00 2.6658459309606876e+01 0 0 0
678 2 8.6134999999999984e+00 3.5521475311891657e+00 3.0030999999992080e+01 0 0 0
680 2 8.6134999999999984e+00 2.1312885187135002e+00 3.0030999999992080e+01 0 0 0
682 2 9.8440000000000012e+00 1.4208590124756659e+00 3.0030999999992080e+01 0 0 0
684 2 9.8440000000000012e+00 0.0000000000000000e+00 3.0030999999992080e+01 0 0 0
723 2 1.1074500000000002e+01 3.5521475311891644e+00 3.0030999999992080e+01 0 0 0
725 2 1.1074500000000002e+01 2.1312885187135002e+00 3.0030999999992080e+01 0 0 0
586 2 0.0000000000000000e+00 7.1042950623783341e+00 2.6658459309606876e+01 0 0 0
588 2 0.0000000000000000e+00 4.2625770374269996e+00 2.6658459309606876e+01 0 0 0
590 2 1.2305000000000001e+00 4.9730065436648339e+00 2.6658459309606876e+01 0 0 0
605 2 1.2305000000000001e+00 6.3938655561404980e+00 2.6658459309606876e+01 0 0 0
607 2 2.4610000000000003e+00 7.1042950623783341e+00 2.6658459309606876e+01 0 0 0
609 2 2.4610000000000003e+00 4.2625770374269996e+00 2.6658459309606876e+01 0 0 0
611 2 3.6914999999999996e+00 4.9730065436648339e+00 2.6658459309606876e+01 0 0 0
634 2 3.6914999999999996e+00 6.3938655561404980e+00 2.6658459309606876e+01 0 0 0
587 2 0.0000000000000000e+00 5.6834360499026637e+00 3.0030999999992080e+01 0 0 0
589 2 0.0000000000000000e+00 4.2625770374269996e+00 3.0030999999992080e+01 0 0 0
604 2 1.2305000000000001e+00 7.8147245686161639e+00 3.0030999999992080e+01 0 0 0
606 2 1.2305000000000001e+00 6.3938655561404980e+00 3.0030999999992080e+01 0 0 0
608 2 2.4610000000000003e+00 5.6834360499026637e+00 3.0030999999992080e+01 0 0 0
610 2 2.4610000000000003e+00 4.2625770374269996e+00 3.0030999999992080e+01 0 0 0
633 2 3.6914999999999996e+00 7.8147245686161639e+00 3.0030999999992080e+01 0 0 0
635 2 3.6914999999999996e+00 6.3938655561404980e+00 3.0030999999992080e+01 0 0 0
636 2 4.9220000000000006e+00 7.1042950623783341e+00 2.6658459309606876e+01 0 0 0
638 2 4.9220000000000006e+00 4.2625770374269978e+00 2.6658459309606876e+01 0 0 0
640 2 6.1524999999999999e+00 4.9730065436648339e+00 2.6658459309606876e+01 0 0 0
671 2 6.1524999999999999e+00 6.3938655561404980e+00 2.6658459309606876e+01 0 0 0
673 2 7.3830000000000009e+00 7.1042950623783341e+00 2.6658459309606876e+01 0 0 0
675 2 7.3829999999999991e+00 4.2625770374269996e+00 2.6658459309606876e+01 0 0 0
637 2 4.9220000000000006e+00 5.6834360499026637e+00 3.0030999999992080e+01 0 0 0
639 2 4.9220000000000006e+00 4.2625770374269978e+00 3.0030999999992080e+01 0 0 0
670 2 6.1524999999999999e+00 7.8147245686161639e+00 3.0030999999992080e+01 0 0 0
672 2 6.1524999999999999e+00 6.3938655561404980e+00 3.0030999999992080e+01 0 0 0
674 2 7.3829999999999991e+00 5.6834360499026637e+00 3.0030999999992080e+01 0 0 0
676 2 7.3829999999999991e+00 4.2625770374269996e+00 3.0030999999992080e+01 0 0 0
677 2 8.6135000000000002e+00 4.9730065436648339e+00 2.6658459309606876e+01 0 0 0
716 2 8.6135000000000002e+00 6.3938655561404980e+00 2.6658459309606876e+01 0 0 0
718 2 9.8440000000000012e+00 7.1042950623783341e+00 2.6658459309606876e+01 0 0 0
720 2 9.8440000000000012e+00 4.2625770374270004e+00 2.6658459309606876e+01 0 0 0
722 2 1.1074500000000002e+01 4.9730065436648339e+00 2.6658459309606876e+01 0 0 0
763 2 1.1074500000000002e+01 6.3938655561404980e+00 2.6658459309606876e+01 0 0 0
715 2 8.6135000000000002e+00 7.8147245686161639e+00 3.0030999999992080e+01 0 0 0
717 2 8.6135000000000002e+00 6.3938655561404980e+00 3.0030999999992080e+01 0 0 0
719 2 9.8440000000000012e+00 5.6834360499026637e+00 3.0030999999992080e+01 0 0 0
721 2 9.8440000000000012e+00 4.2625770374270004e+00 3.0030999999992080e+01 0 0 0
762 2 1.1074500000000002e+01 7.8147245686161639e+00 3.0030999999992080e+01 0 0 0
764 2 1.1074500000000002e+01 6.3938655561404980e+00 3.0030999999992080e+01 0 0 0
599 2 0.0000000000000000e+00 1.1366872099805333e+01 2.6658459309606876e+01 0 0 0
601 2 0.0000000000000000e+00 8.5251540748539991e+00 2.6658459309606876e+01 0 0 0
603 2 1.2305000000000001e+00 9.2355835810918343e+00 2.6658459309606876e+01 0 0 0
626 2 1.2305000000000001e+00 1.0656442593567498e+01 2.6658459309606876e+01 0 0 0
628 2 2.4610000000000003e+00 1.1366872099805333e+01 2.6658459309606876e+01 0 0 0
630 2 2.4610000000000003e+00 8.5251540748539991e+00 2.6658459309606876e+01 0 0 0
632 2 3.6915000000000004e+00 9.2355835810918343e+00 2.6658459309606876e+01 0 0 0
663 2 3.6914999999999996e+00 1.0656442593567499e+01 2.6658459309606876e+01 0 0 0
600 2 0.0000000000000000e+00 9.9460130873296642e+00 3.0030999999992080e+01 0 0 0
602 2 0.0000000000000000e+00 8.5251540748539991e+00 3.0030999999992080e+01 0 0 0
625 2 1.2305000000000001e+00 1.2077301606043163e+01 3.0030999999992080e+01 0 0 0
627 2 1.2305000000000001e+00 1.0656442593567498e+01 3.0030999999992080e+01 0 0 0
629 2 2.4610000000000003e+00 9.9460130873296642e+00 3.0030999999992080e+01 0 0 0
631 2 2.4610000000000003e+00 8.5251540748539991e+00 3.0030999999992080e+01 0 0 0
662 2 3.6914999999999996e+00 1.2077301606043163e+01 3.0030999999992080e+01 0 0 0
664 2 3.6914999999999996e+00 1.0656442593567499e+01 3.0030999999992080e+01 0 0 0
707 2 6.1524999999999999e+00 1.2077301606043163e+01 3.0030999999992080e+01 0 0 0
668 2 4.9220000000000006e+00 8.5251540748539991e+00 3.0030999999992080e+01 0 0 0
709 2 6.1524999999999999e+00 1.0656442593567499e+01 3.0030999999992080e+01 0 0 0
711 2 7.3830000000000009e+00 9.9460130873296642e+00 3.0030999999992080e+01 0 0 0
713 2 7.3830000000000009e+00 8.5251540748539991e+00 3.0030999999992080e+01 0 0 0
667 2 4.9220000000000006e+00 8.5251540748539991e+00 2.6658459309606876e+01 0 0 0
665 2 4.9220000000000006e+00 1.1366872099805333e+01 2.6658459309606876e+01 0 0 0
669 2 6.1524999999999999e+00 9.2355835810918343e+00 2.6658459309606876e+01 0 0 0
708 2 6.1524999999999999e+00 1.0656442593567499e+01 2.6658459309606876e+01 0 0 0
712 2 7.3830000000000009e+00 8.5251540748539991e+00 2.6658459309606876e+01 0 0 0
710 2 7.3829999999999991e+00 1.1366872099805333e+01 2.6658459309606876e+01 0 0 0
666 2 4.9220000000000006e+00 9.9460130873296642e+00 3.0030999999992080e+01 0 0 0
759 2 9.8440000000000012e+00 8.5251540748539956e+00 2.6658459309606876e+01 0 0 0
756 2 8.6134999999999984e+00 1.0656442593567498e+01 3.0030999999992080e+01 0 0 0
760 2 9.8440000000000012e+00 8.5251540748539956e+00 3.0030999999992080e+01 0 0 0
755 2 8.6134999999999984e+00 1.0656442593567498e+01 2.6658459309606876e+01 0 0 0
714 2 8.6134999999999984e+00 9.2355835810918343e+00 2.6658459309606876e+01 0 0 0
803 2 1.1074500000000002e+01 1.0656442593567498e+01 3.0030999999992080e+01 0 0 0
804 2 1.2304999999999998e+01 1.1366872099805333e+01 2.6658459309606876e+01 0 0 0
801 2 1.1074500000000002e+01 1.2077301606043163e+01 3.0030999999992080e+01 0 0 0
758 2 9.8440000000000012e+00 9.9460130873296642e+00 3.0030999999992080e+01 0 0 0
181 1 8.0898945731367675e+00 1.1857805106047502e+01 1.6919692057937667e+01 3 2 0
110 1 2.2038218848468469e-01 6.9218565970719856e+00 1.5889016915978747e+01 0 1 0
910 2 0.0000000000000000e+00 2.8417180249513345e+00 3.3403540690395999e+01 0 0 0
911 2 0.0000000000000000e+00 0.0000000000000000e+00 3.3403540690395999e+01 0 0 0
912 2 1.2305000000000001e+00 7.1042950623783474e-01 3.3403540690395999e+01 0 0 0
916 2 1.2305000000000001e+00 2.1312885187134998e+00 3.3403540690395999e+01 0 0 0
917 2 2.4610000000000003e+00 2.8417180249513345e+00 3.3403540690395999e+01 0 0 0
918 2 2.4610000000000003e+00 0.0000000000000000e+00 3.3403540690395999e+01 0 0 0
919 2 3.6915000000000004e+00 7.1042950623783474e-01 3.3403540690395999e+01 0 0 0
927 2 3.6914999999999996e+00 2.1312885187134998e+00 3.3403540690395999e+01 0 0 0
928 2 4.9220000000000006e+00 2.8417180249513332e+00 3.3403540690395999e+01 0 0 0
929 2 4.9220000000000006e+00 0.0000000000000000e+00 3.3403540690395999e+01 0 0 0
930 2 6.1524999999999999e+00 7.1042950623783407e-01 3.3403540690395999e+01 0 0 0
942 2 6.1524999999999999e+00 2.1312885187134989e+00 3.3403540690395999e+01 0 0 0
943 2 7.3829999999999991e+00 2.8417180249513345e+00 3.3403540690395999e+01 0 0 0
944 2 7.3829999999999991e+00 0.0000000000000000e+00 3.3403540690395999e+01 0 0 0
945 2 8.6134999999999984e+00 7.1042950623783407e-01 3.3403540690395999e+01 0 0 0
961 2 8.6134999999999984e+00 2.1312885187135002e+00 3.3403540690395999e+01 0 0 0
962 2 9.8440000000000012e+00 2.8417180249513332e+00 3.3403540690395999e+01 0 0 0
963 2 9.8440000000000012e+00 0.0000000000000000e+00 3.3403540690395999e+01 0 0 0
964 2 1.1074500000000002e+01 7.1042950623783330e-01 3.3403540690395999e+01 0 0 0
984 2 1.1074500000000002e+01 2.1312885187135002e+00 3.3403540690395999e+01 0 0 0
913 2 0.0000000000000000e+00 7.1042950623783341e+00 3.3403540690395999e+01 0 0 0
914 2 0.0000000000000000e+00 4.2625770374269996e+00 3.3403540690395999e+01 0 0 0
915 2 1.2305000000000001e+00 4.9730065436648339e+00 3.3403540690395999e+01 0 0 0
923 2 1.2305000000000001e+00 6.3938655561404980e+00 3.3403540690395999e+01 0 0 0
924 2 2.4610000000000003e+00 7.1042950623783341e+00 3.3403540690395999e+01 0 0 0
925 2 2.4610000000000003e+00 4.2625770374269996e+00 3.3403540690395999e+01 0 0 0
926 2 3.6914999999999996e+00 4.9730065436648339e+00 3.3403540690395999e+01 0 0 0
938 2 3.6914999999999996e+00 6.3938655561404980e+00 3.3403540690395999e+01 0 0 0
939 2 4.9220000000000006e+00 7.1042950623783341e+00 3.3403540690395999e+01 0 0 0
940 2 4.9220000000000006e+00 4.2625770374269978e+00 3.3403540690395999e+01 0 0 0
941 2 6.1524999999999999e+00 4.9730065436648339e+00 3.3403540690395999e+01 0 0 0
957 2 6.1524999999999999e+00 6.3938655561404980e+00 3.3403540690395999e+01 0 0 0
958 2 7.3830000000000009e+00 7.1042950623783341e+00 3.3403540690395999e+01 0 0 0
959 2 7.3829999999999991e+00 4.2625770374269996e+00 3.3403540690395999e+01 0 0 0
960 2 8.6135000000000002e+00 4.9730065436648339e+00 3.3403540690395999e+01 0 0 0
980 2 8.6135000000000002e+00 6.3938655561404980e+00 3.3403540690395999e+01 0 0 0
981 2 9.8440000000000012e+00 7.1042950623783341e+00 3.3403540690395999e+01 0 0 0
982 2 9.8440000000000012e+00 4.2625770374270004e+00 3.3403540690395999e+01 0 0 0
983 2 1.1074500000000002e+01 4.9730065436648339e+00 3.3403540690395999e+01 0 0 0
1004 2 1.1074500000000002e+01 6.3938655561404980e+00 3.3403540690395999e+01 0 0 0
920 2 0.0000000000000000e+00 1.1366872099805333e+01 3.3403540690395999e+01 0 0 0
921 2 0.0000000000000000e+00 8.5251540748539991e+00 3.3403540690395999e+01 0 0 0
922 2 1.2305000000000001e+00 9.2355835810918343e+00 3.3403540690395999e+01 0 0 0
934 2 1.2305000000000001e+00 1.0656442593567498e+01 3.3403540690395999e+01 0 0 0
935 2 2.4610000000000003e+00 1.1366872099805333e+01 3.3403540690395999e+01 0 0 0
936 2 2.4610000000000003e+00 8.5251540748539991e+00 3.3403540690395999e+01 0 0 0
937 2 3.6915000000000004e+00 9.2355835810918343e+00 3.3403540690395999e+01 0 0 0
953 2 3.6914999999999996e+00 1.0656442593567499e+01 3.3403540690395999e+01 0 0 0
954 2 4.9220000000000006e+00 1.1366872099805333e+01 3.3403540690395999e+01 0 0 0
955 2 4.9220000000000006e+00 8.5251540748539991e+00 3.3403540690395999e+01 0 0 0
956 2 6.1524999999999999e+00 9.2355835810918343e+00 3.3403540690395999e+01 0 0 0
976 2 6.1524999999999999e+00 1.0656442593567499e+01 3.3403540690395999e+01 0 0 0
977 2 7.3829999999999991e+00 1.1366872099805333e+01 3.3403540690395999e+01 0 0 0
978 2 7.3830000000000009e+00 8.5251540748539991e+00 3.3403540690395999e+01 0 0 0
979 2 8.6134999999999984e+00 9.2355835810918343e+00 3.3403540690395999e+01 0 0 0
1000 2 8.6134999999999984e+00 1.0656442593567498e+01 3.3403540690395999e+01 0 0 0
1001 2 9.8440000000000012e+00 1.1366872099805333e+01 3.3403540690395999e+01 0 0 0
1002 2 9.8440000000000012e+00 8.5251540748539956e+00 3.3403540690395999e+01 0 0 0
1003 2 1.1074500000000002e+01 9.2355835810918343e+00 3.3403540690395999e+01 0 0 0
1024 2 1.1074500000000002e+01 1.0656442593567498e+01 3.3403540690395999e+01 0 0 0
1025 2 1.2304999999999998e+01 1.1366872099805333e+01 3.3403540690395999e+01 0 0 0
2127 1 8.9664091229183662e-01 2.4529703062292101e+00 3.6563190433017418e+01 2 -2 -1
3544 1 8.3102664022695127e-01 2.4411915516130596e+00 3.9413002224624009e+01 1 3 -1
179 1 8.2961123347572823e+00 1.0528052381076602e+01 4.3027178545677593e+01 -2 -4 -1
3806 1 6.4137371691445084e+00 1.4045791226370679e+00 3.6313430146680325e+01 -1 1 0
3524 1 5.2297830909671967e+00 4.0356259023126624e+00 3.6452411019293692e+01 3 3 -1
3631 1 8.9888348311664394e+00 7.9327181208050179e-01 3.9602208674282700e+01 -3 1 -1
3682 1 8.9826363176665485e+00 7.6382964740748371e-01 3.6794234644702151e+01 5 -1 -1
1642 1 1.0461146772579989e+01 2.9300234315367137e+00 3.5828093931741954e+01 -1 -1 0
3164 1 2.5815566476520750e+00 4.5342166777459845e+00 3.5484520419861752e+01 0 -1 -1
360 1 2.3506465298492185e+00 6.9180607162254635e+00 3.6774474555519618e+01 -1 0 -1
1875 1 2.2286682301363290e+00 6.9628142528373829e+00 3.9568112977983006e+01 2 1 -1
4519 1 5.2145618304071704e+00 4.0395762223559624e+00 3.9323809072065785e+01 0 2 0
6195 1 7.4225208477640132e+00 5.8861750246122737e+00 3.6119390877570815e+01 3 1 0
3729 1 9.8714011076845392e+00 5.4812521797416869e+00 3.6640924620582290e+01 -1 -2 0
5123 1 9.8513872699770655e+00 5.4979892038113869e+00 3.9634618086156181e+01 -1 -2 -1
1991 1 7.0410356276650432e-01 1.1938326651315565e+01 3.6011897027163279e+01 -2 1 0
5399 1 3.1376742491393150e+00 1.1219339318154699e+01 3.9589415720611171e+01 0 -1 0
306 1 3.8783090035386718e+00 8.8640995177838100e+00 3.5588453763521656e+01 -5 -2 -1
1984 1 3.3901557681848646e+00 1.1393990017250889e+01 3.6770545523832354e+01 -2 3 0
3533 1 5.4066212636070468e+00 1.0685917364088249e+01 4.3757032606302566e+01 -1 1 -1
4989 1 6.5798690540034412e+00 8.4017869820949969e+00 3.9534299176458944e+01 2 5 -1
3450 1 6.4437036805483086e+00 8.2832119825196138e+00 3.6715225182395699e+01 -3 2 -1
1938 1 8.1544182581470626e+00 1.0136532020573531e+01 3.5759228134132861e+01 1 3 -1
6459 1 1.0862861792369392e+01 9.9620081516220615e+00 3.6558005098427351e+01 3 1 0
5261 1 1.0913920403127031e+01 1.0019521807319970e+01 3.9428337097180794e+01 4 2 -1
6279 1 1.1592181866992222e+01 7.1884961087829957e+00 4.2862002181391418e+01 -3 -1 -1
1943 1 3.5381774372406709e+00 2.0081226942808352e+00 4.3777834314200334e+01 -1 0 -1
4900 1 3.6550552133390202e+00 8.7316800170877116e+00 4.2976269642224935e+01 0 3 -1
6142 1 6.2057629104841405e+00 1.3178102327781600e+00 3.9890751125067432e+01 0 1 0
3162 1 6.3475301296670281e+00 1.6726519763003478e+00 4.2942774585358968e+01 1 -1 0
4674 1 7.9361451972685835e+00 3.7431211557119557e+00 4.4034164990688957e+01 -2 -4 0
6216 1 1.1672585367813820e+01 7.5397782184006070e+00 4.0468626487828409e+01 1 1 0
1609 1 1.0551505233878739e+01 3.0042249804618644e+00 4.0309476819616968e+01 1 -3 -1
341 1 1.0445899121345192e+01 2.7687350756163709e+00 4.2981562706823574e+01 0 -2 -1
6323 1 2.8516184140006806e+00 4.4808446184943822e+00 4.2950010736028041e+01 0 3 0
210 1 2.6691372939182743e+00 4.3723325791721104e+00 4.0378859296112374e+01 -1 1 -1
3507 1 3.0019606858456566e-01 4.7295147846693411e+00 4.3740674339032481e+01 -1 0 -1
1304 1 7.0242408101624836e+00 5.9466842126271198e+00 4.0316344262662867e+01 0 -3 0
1572 1 4.3263604126989392e+00 6.3310297155379800e+00 4.4182451313321820e+01 3 1 0
6451 1 6.8353034411003151e+00 6.1691916937563702e+00 4.3401924918676265e+01 0 2 0
1380 1 8.9551185460155267e+00 7.9786155532191652e+00 4.4021480982869612e+01 2 -1 0
4669 1 1.1230133041247148e+01 1.0404018558463259e-01 4.3806567202654136e+01 -2 1 0
1417 1 1.1652147202011632e+01 7.5225540030392271e+00 3.5914795599568400e+01 1 3 0
3129 1 8.3603663058271529e+00 1.0193906838705589e+01 4.0249745310481778e+01 -2 1 0
3294 1 1.1684268600016452e+00 9.2870536503206473e+00 4.4161772586586885e+01 2 0 -1
2968 1 4.1077992750423231e+00 8.7946137557414321e+00 4.0285089675809303e+01 -4 -2 0
319 1 1.2253282350810412e+01 4.7278945138652517e+00 4.3911956564540560e+01 1 -2 -1
6207 1 4.1931755905412477e-01 1.1865933156908145e+01 4.3561034983798201e+01 -2 1 0
3111 1 1.6284534540016575e+00 6.3109008044107587e-02 3.6002789779393986e+01 1 2 -1
3315 1 5.8442525142662571e-01 1.1610652163538139e+01 4.0766196408937219e+01 -2 4 0
2983 1 1.6688903652549203e+00 1.4554946857260334e-01 4.3164743554694660e+01 -3 0 0
1833 1 9.0625509324719689e-01 2.3600390346471158e+00 4.7752230040835236e+01 -1 0 -1
2003 1 3.4235023938284370e+00 1.8066205141977509e+00 4.6632030794837085e+01 2 3 -1
4818 1 5.5470903542111127e+00 3.3804329167557832e+00 4.7489069111723396e+01 -2 2 0
4990 1 8.2650939673181441e+00 3.1914559049475364e+00 4.6574350847941915e+01 2 -1 -1
3386 1 8.7480361801199642e+00 5.1321830391834911e-01 4.7639659485008416e+01 -2 -1 0
396 1 1.1354096700873011e+01 2.2029412647839722e-01 4.6528227108168892e+01 -1 4 -1
2059 1 2.0815072617399641e+00 6.8522033497173753e+00 4.7480483144542134e+01 2 -1 -1
3683 1 1.1617012586459873e+01 7.0117350703331551e+00 5.3828956882729209e+01 -5 0 -1
4778 1 4.8052026382227888e+00 5.9906325507363007e+00 4.6897508551729423e+01 0 2 0
3227 1 9.9972054021862427e+00 5.3469636096272897e+00 4.7461947811253374e+01 -2 -1 0