LAMMPS data file via write_data, version 16 Mar 2018, timestep = 100000

6472 atoms
2 atom types

0.0000000000000000e+00 4.9219999999999999e+01 xlo xhi
0.0000000000000000e+00 4.9019635930410494e+01 ylo yhi
1.8995947731988885e+00 5.8162405226802704e+01 zlo zhi

Masses

1 18.015
2 12.01

Atoms # atomic

6355 1 2.0114809513002996e-01 9.0019267223408228e+00 1.0233572338210795e+01 2 4 1
65 1 3.4359794127129049e+00 4.3697618534482636e+00 7.3601183893177069e+00 -1 -1 1
1450 1 3.6867607022276330e+00 2.4114571671959861e-01 2.8300032346427586e+00 1 -1 1
1603 1 1.1568121682386852e+01 2.7153424875112195e+00 1.5837509724577325e+01 0 1 0
5384 1 4.2593198869613627e+00 4.7746654428857980e+00 3.0575475432993438e+00 1 1 1
6224 1 6.0254398748775948e+00 3.0013758236137655e+00 6.8931273059435920e+00 0 2 1
5041 1 7.4013862970956321e+00 8.1194827580700473e+00 2.5574584606780997e+00 -2 1 1
1918 1 8.0199172928250420e+00 3.3224801083031075e+00 2.7709833099570362e+00 0 1 0
2972 1 5.4642683219353856e+00 2.9694867390190050e-01 6.3221863703453014e+00 0 1 1
4714 1 2.8150405275390136e+00 2.8458490906715244e+00 4.4760352066686266e+00 -3 0 0
64 1 1.8159523179564170e+00 6.1322447406118084e+00 2.4986380561833239e+00 1 2 0
5245 1 6.2105307115140667e+00 6.3708142284585261e+00 4.3628271999301056e+00 1 2 0
3034 1 7.7489882872451528e+00 4.5091311199031567e+00 5.1782108670492093e+00 1 0 1
1275 1 1.1434601372868448e+01 2.4224786039733646e+00 7.2160412683059940e+00 1 1 1
4695 1 4.2210418267669594e+00 1.0197168242685809e+01 5.6204331706429125e+00 -1 -1 1
4978 1 6.5771798775878159e+00 1.0524008765501302e+01 4.1387090420021142e+00 1 -1 0
4825 1 8.4952802674735555e+00 1.0341769639704026e+01 6.3060762137644790e+00 0 1 0
112 1 1.0833051359482177e+01 9.9415569558723558e+00 4.9568827518386041e+00 0 1 0
3757 1 1.1379300080745265e+01 7.1938581267189994e+00 6.0143916207973493e+00 0 0 1
1479 1 7.1695706760418410e-01 4.0898067999159213e+00 6.4946202817635097e+00 0 0 1
1970 1 3.2288285962744654e+00 3.1051431772557030e+00 9.8739825145615185e+00 0 3 0
1986 1 7.7175540716689124e+00 2.6590802561139002e+00 8.9762213493562975e+00 0 0 0
2867 1 5.8200448626100050e+00 3.4356768483211324e+00 1.1142203878880805e+01 -1 2 1
3675 1 6.4693001225790359e-01 2.5446296704172657e+00 2.9143589401087704e+00 1 0 0
553 1 6.6953681236196116e+00 1.6175574418023595e+00 1.4904793761717460e+01 0 1 1
486 1 1.8353784993877582e+00 1.1876689146504877e+01 8.1293554002243269e+00 0 -1 0
1303 1 1.0505591643754574e+01 4.3164717489120408e+00 9.2089412221923013e+00 0 1 1
365 1 1.6633469418103684e+00 7.7962076033482495e+00 5.7356728412124465e+00 1 1 0
3278 1 3.1760380328944509e+00 6.8738396029030060e+00 7.6113247839610763e+00 1 0 1
3592 1 5.6486219155227442e+00 7.8720322443664790e+00 6.3837808690626998e+00 1 -1 0
60 1 7.8299987770682682e+00 8.0531680582667757e+00 7.8641856479484620e+00 1 1 0
1462 1 9.2956010709183303e+00 5.7901217384574704e+00 6.9145333928417232e+00 1 1 0
5179 1 9.6116213485483903e-01 5.1187944478062377e+00 1.4888111238240306e+01 0 -1 0
1618 1 2.6280400947343034e+00 7.7965451499766809e+00 1.0217368008094907e+01 1 -1 1
541 1 4.6389886563247151e-01 9.5347732966676695e+00 7.4470368077008651e+00 2 2 1
1765 1 1.7915923529552369e+00 1.1677403940538264e+01 1.0832988533184205e+01 1 2 0
242 1 9.8475197236096772e+00 9.6684709636519734e+00 2.3143123873660718e+00 -1 0 0
1620 1 6.8794747542778536e+00 8.4641068310935026e+00 1.0543429935688220e+01 1 0 1
3802 1 4.5903306740890439e+00 1.0109475968077865e+01 1.0359945354075753e+01 0 0 1
6257 1 9.9433216488125353e+00 9.6851747503348662e+00 1.0980853204798963e+01 2 1 1
6339 1 6.9200666646612574e-01 3.5235751080930271e+00 1.1306387063033720e+01 1 1 1
4595 1 4.6177459051203344e+00 1.5301678775659748e+00 1.2977171559958856e+01 0 0 1
6381 1 5.7383335611716930e+00 2.0949435992334631e+00 1.9500370904859481e+00 1 0 0
5129 1 6.5496227046665356e-01 1.2504966588935773e+00 7.3901451872196748e+00 2 1 0
3240 1 3.0516221085240285e+00 4.5330463190601451e+00 1.2953679256024586e+01 1 1 0
6206 1 8.9994311659633930e-01 8.0243166957787651e+00 1.4404883798902908e+01 -1 1 1
398 1 9.4022999663291316e+00 1.1571415410400339e+00 3.3891310296998416e+00 0 1 0
6165 1 8.1957769265186506e+00 2.0936318829607385e+00 1.2404902842701711e+01 0 1 1
1555 1 1.0052097180146522e+01 3.9134542095289970e+00 1.3734789086671658e+01 2 2 1
3573 1 1.1664618624534992e+01 3.7717429325285257e+00 1.1545951668155347e+01 -1 -1 0
4578 1 1.0101554980226739e+01 7.6109626839155613e+00 1.4985141931796401e+01 2 1 1
3669 1 2.3924365694070974e-02 1.5794112096351018e+00 1.3099638835145971e+01 1 1 0
2930 1 4.1021168654310474e+00 7.0614753985002698e+00 1.2329209870231288e+01 0 1 1
4851 1 6.5196619875746658e+00 5.9204429584384251e+00 1.1975734032117179e+01 0 0 0
6146 1 2.7235625108708525e+00 1.0419202971740233e+01 3.5407904664992724e+00 0 0 1
1658 1 8.0611468549070473e+00 5.8368434740726656e+00 1.4311558089098281e+01 0 0 0
3315 1 3.9689947756034849e-01 6.5794349607361235e+00 1.1932191326500964e+01 1 2 1
4976 1 3.5346173642079455e+00 8.2231544674818604e+00 1.4674727506251259e+01 0 2 0
70 1 7.8750748590776602e+00 1.2007521863127000e+01 1.9338098049181454e+00 1 0 0
1537 1 5.1254190392789329e+00 1.0330977430845184e+01 1.3403071607888320e+01 0 3 1
1926 1 2.4389592932602104e+00 1.9271382858673822e+00 1.4880118391702924e+01 -3 0 0
6279 1 9.5531129814437588e+00 1.0726012338748188e+00 6.0543948788649056e+00 0 3 0
1339 1 1.0961721217989957e+01 1.0078621298659616e+01 1.3451035204899839e+01 0 0 1
5007 1 3.4154534134225254e+00 1.8570151282317313e-01 8.6064991004233278e+00 0 -1 0
1586 1 1.2266328559186253e+01 8.7890237680340899e+00 9.3266477573279758e+00 0 1 0
3794 1 1.4013380289505051e-02 1.0682283727603181e+01 1.4519295094050253e+01 1 1 1
5262 1 5.8070750755162006e+00 1.2208344731046902e+01 9.3042813095104187e+00 1 2 0
359 1 6.2903359259320322e+00 1.0084414881169835e+01 1.5852585277446451e+01 1 1 0
6436 1 1.1762042417506832e+01 7.0716253976356169e-01 2.1318916817182867e+00 1 1 1
2076 1 1.7117881399462309e+00 2.8468984232881223e+00 1.7713829481494578e+01 0 -3 0
5244 1 1.1362725879811046e+01 5.4242689495767076e+00 2.3998061535750040e+01 0 -1 0
554 1 7.4478106369402264e+00 3.9569614349912019e+00 1.6332920904319032e+01 1 -1 1
458 1 4.3550659034859498e+00 3.1697652163161609e+00 2.0918205993580415e+01 0 1 0
6315 1 6.7238092572969874e+00 4.3312190227504113e+00 1.9953893340201091e+01 -2 0 1
3722 1 1.0558033532260071e+01 1.6724295246318959e+00 1.9352907438602909e+01 1 1 1
2033 1 8.2748777938262617e+00 1.9982795588098845e+00 2.0764475837225248e+01 0 -1 1
2955 1 9.7702170819652192e+00 3.9686898133167867e+00 1.7886960226235040e+01 0 0 0
3805 1 1.0714078848829343e+01 1.0705249133661245e+00 2.4005329231733832e+01 1 0 1
1297 1 5.0195857369847543e+00 4.3509428846168596e+00 1.7473297684606191e+01 0 -1 1
6262 1 1.8727872576016833e+00 5.6447082140783866e+00 1.7725647165461766e+01 0 2 1
4925 1 9.1276516861094996e-03 6.9573154790642819e+00 2.3994015529664289e+01 1 0 0
1777 1 7.0382900549322382e+00 7.4435995469727692e+00 1.6490562730936318e+01 1 0 0
138 1 4.0345041238347843e+00 7.0635816559790037e+00 1.7206176875255750e+01 0 1 0
1831 1 8.0139904511414350e+00 7.7810040145529280e+00 1.9130037453994376e+01 1 1 0
289 1 3.6785193907627427e+00 1.1163413644214264e+00 1.8571182989857647e+01 -1 2 0
3182 1 4.8552956313394349e+00 8.3224115957941187e+00 1.9351165716831822e+01 0 2 1
1757 1 4.2058987409653223e+00 1.0713743477875800e+01 1.7926981243430660e+01 1 1 0
364 1 6.0008950901852609e+00 4.6353255403881732e-01 2.0453430212316579e+01 1 1 0
2850 1 1.0503033599603871e+01 7.5862065300216619e+00 1.7748450232776516e+01 0 0 1
151 1 1.0622846162125443e+01 1.0972900711496109e+01 2.1003867876688094e+01 1 1 0
3450 1 1.8350771521371976e+00 2.6474800441089257e+00 2.3736762931467112e+01 1 0 0
4718 1 1.3618111743857813e+00 2.4685720154007336e+00 2.0917276860273599e+01 1 0 1
4619 1 4.4023189990891520e+00 3.3501857933812600e+00 2.3611503501067549e+01 -1 -1 1
4729 1 6.3210302770388349e+00 1.5735198045630339e+00 2.4407501434745431e+01 1 0 1
2899 1 8.5557125965852752e+00 2.4612894483526442e+00 2.3451819260559056e+01 0 1 0
1778 1 2.6632075594986944e+00 7.8930682787746882e+00 2.3498405539209568e+01 -1 2 0
3138 1 6.2616883281379732e+00 6.7595646319737286e+00 2.1538542363976518e+01 1 2 1
3305 1 4.6651604751595537e+00 5.9467131527103883e+00 2.4001263087672708e+01 1 1 0
555 1 7.2306564705180714e+00 7.0991724096850568e+00 2.4430470818717172e+01 1 0 1
756 2 8.6134999999999984e+00 1.0656442593567498e+01 3.0031000000000294e+01 0 0 0
139 1 8.8710601315065656e+00 5.2477599869073401e+00 2.2856430209375215e+01 2 1 1
3586 1 9.5581322911106721e+00 5.7982802694491484e+00 2.0230177069990191e+01 0 1 0
4997 1 2.0626401435627755e+00 1.1355838772998990e+01 2.0750842953679093e+01 2 1 0
3222 1 2.2460141809275460e+00 8.5852246181029148e+00 2.0892368580331322e+01 2 -1 1
3205 1 3.1841831574095725e+00 1.0335840347454802e+01 2.4663557619501074e+01 -1 1 1
573 1 7.2498811964286594e+00 9.6231047030789689e+00 2.3144976286016970e+01 1 0 1
5372 1 6.5298227282949144e+00 1.1984260843279580e+01 1.9150658912533309e+01 0 3 0
3589 1 5.5536908189253547e+00 1.1936256251166824e+01 2.3859713896884511e+01 -1 0 1
4846 1 8.1076803426304629e+00 1.0082568526647368e+01 2.0525292563903388e+01 0 1 1
2172 1 9.4590645127040247e+00 1.0880099856362548e+01 2.4410405705819169e+01 1 2 1
581 2 0.0000000000000000e+00 2.8417180249513345e+00 2.6861927276994280e+01 0 0 0
583 2 0.0000000000000000e+00 0.0000000000000000e+00 2.6861927276994280e+01 0 0 0
585 2 1.2305000000000001e+00 7.1042950623783474e-01 2.6861927276994280e+01 0 0 0
592 2 1.2305000000000001e+00 2.1312885187134998e+00 2.6861927276994280e+01 0 0 0
594 2 2.4610000000000003e+00 2.8417180249513345e+00 2.6861927276994280e+01 0 0 0
596 2 2.4610000000000003e+00 0.0000000000000000e+00 2.6861927276994280e+01 0 0 0
598 2 3.6915000000000004e+00 7.1042950623783474e-01 2.6861927276994280e+01 0 0 0
613 2 3.6914999999999996e+00 2.1312885187134998e+00 2.6861927276994280e+01 0 0 0
582 2 0.0000000000000000e+00 1.4208590124756650e+00 3.0031000000000294e+01 0 0 0
584 2 0.0000000000000000e+00 0.0000000000000000e+00 3.0031000000000294e+01 0 0 0
591 2 1.2305000000000001e+00 3.5521475311891644e+00 3.0031000000000294e+01 0 0 0
593 2 1.2305000000000001e+00 2.1312885187134998e+00 3.0031000000000294e+01 0 0 0
595 2 2.4610000000000003e+00 1.4208590124756650e+00 3.0031000000000294e+01 0 0 0
597 2 2.4610000000000003e+00 0.0000000000000000e+00 3.0031000000000294e+01 0 0 0
612 2 3.6914999999999996e+00 3.5521475311891644e+00 3.0031000000000294e+01 0 0 0
614 2 3.6914999999999996e+00 2.1312885187134998e+00 3.0031000000000294e+01 0 0 0
615 2 4.9220000000000006e+00 2.8417180249513332e+00 2.6861927276994280e+01 0 0 0
617 2 4.9220000000000006e+00 0.0000000000000000e+00 2.6861927276994280e+01 0 0 0
619 2 6.1524999999999999e+00 7.1042950623783407e-01 2.6861927276994280e+01 0 0 0
642 2 6.1524999999999999e+00 2.1312885187134989e+00 2.6861927276994280e+01 0 0 0
644 2 7.3829999999999991e+00 2.8417180249513345e+00 2.6861927276994280e+01 0 0 0
646 2 7.3829999999999991e+00 0.0000000000000000e+00 2.6861927276994280e+01 0 0 0
616 2 4.9220000000000006e+00 1.4208590124756650e+00 3.0031000000000294e+01 0 0 0
618 2 4.9220000000000006e+00 0.0000000000000000e+00 3.0031000000000294e+01 0 0 0
641 2 6.1524999999999999e+00 3.5521475311891644e+00 3.0031000000000294e+01 0 0 0
643 2 6.1524999999999999e+00 2.1312885187134989e+00 3.0031000000000294e+01 0 0 0
645 2 7.3829999999999991e+00 1.4208590124756659e+00 3.0031000000000294e+01 0 0 0
647 2 7.3829999999999991e+00 0.0000000000000000e+00 3.0031000000000294e+01 0 0 0
648 2 8.6134999999999984e+00 7.1042950623783407e-01 2.6861927276994280e+01 0 0 0
679 2 8.6134999999999984e+00 2.1312885187135002e+00 2.6861927276994280e+01 0 0 0
681 2 9.8440000000000012e+00 2.8417180249513332e+00 2.6861927276994280e+01 0 0 0
683 2 9.8440000000000012e+00 0.0000000000000000e+00 2.6861927276994280e+01 0 0 0
685 2 1.1074500000000002e+01 7.1042950623783330e-01 2.6861927276994280e+01 0 0 0
724 2 1.1074500000000002e+01 2.1312885187135002e+00 2.6861927276994280e+01 0 0 0
678 2 8.6134999999999984e+00 3.5521475311891657e+00 3.0031000000000294e+01 0 0 0
680 2 8.6134999999999984e+00 2.1312885187135002e+00 3.0031000000000294e+01 0 0 0
682 2 9.8440000000000012e+00 1.4208590124756659e+00 3.0031000000000294e+01 0 0 0
684 2 9.8440000000000012e+00 0.0000000000000000e+00 3.0031000000000294e+01 0 0 0
723 2 1.1074500000000002e+01 3.5521475311891644e+00 3.0031000000000294e+01 0 0 0
725 2 1.1074500000000002e+01 2.1312885187135002e+00 3.0031000000000294e+01 0 0 0
586 2 0.0000000000000000e+00 7.1042950623783341e+00 2.6861927276994280e+01 0 0 0
588 2 0.0000000000000000e+00 4.2625770374269996e+00 2.6861927276994280e+01 0 0 0
590 2 1.2305000000000001e+00 4.9730065436648339e+00 2.6861927276994280e+01 0 0 0
605 2 1.2305000000000001e+00 6.3938655561404980e+00 2.6861927276994280e+01 0 0 0
607 2 2.4610000000000003e+00 7.1042950623783341e+00 2.6861927276994280e+01 0 0 0
609 2 2.4610000000000003e+00 4.2625770374269996e+00 2.6861927276994280e+01 0 0 0
611 2 3.6914999999999996e+00 4.9730065436648339e+00 2.6861927276994280e+01 0 0 0
634 2 3.6914999999999996e+00 6.3938655561404980e+00 2.6861927276994280e+01 0 0 0
587 2 0.0000000000000000e+00 5.6834360499026637e+00 3.0031000000000294e+01 0 0 0
589 2 0.0000000000000000e+00 4.2625770374269996e+00 3.0031000000000294e+01 0 0 0
604 2 1.2305000000000001e+00 7.8147245686161639e+00 3.0031000000000294e+01 0 0 0
606 2 1.2305000000000001e+00 6.3938655561404980e+00 3.0031000000000294e+01 0 0 0
608 2 2.4610000000000003e+00 5.6834360499026637e+00 3.0031000000000294e+01 0 0 0
610 2 2.4610000000000003e+00 4.2625770374269996e+00 3.0031000000000294e+01 0 0 0
633 2 3.6914999999999996e+00 7.8147245686161639e+00 3.0031000000000294e+01 0 0 0
635 2 3.6914999999999996e+00 6.3938655561404980e+00 3.0031000000000294e+01 0 0 0
636 2 4.9220000000000006e+00 7.1042950623783341e+00 2.6861927276994280e+01 0 0 0
638 2 4.9220000000000006e+00 4.2625770374269978e+00 2.6861927276994280e+01 0 0 0
640 2 6.1524999999999999e+00 4.9730065436648339e+00 2.6861927276994280e+01 0 0 0
671 2 6.1524999999999999e+00 6.3938655561404980e+00 2.6861927276994280e+01 0 0 0
673 2 7.3830000000000009e+00 7.1042950623783341e+00 2.6861927276994280e+01 0 0 0
675 2 7.3829999999999991e+00 4.2625770374269996e+00 2.6861927276994280e+01 0 0 0
637 2 4.9220000000000006e+00 5.6834360499026637e+00 3.0031000000000294e+01 0 0 0
639 2 4.9220000000000006e+00 4.2625770374269978e+00 3.0031000000000294e+01 0 0 0
670 2 6.1524999999999999e+00 7.8147245686161639e+00 3.0031000000000294e+01 0 0 0
672 2 6.1524999999999999e+00 6.3938655561404980e+00 3.0031000000000294e+01 0 0 0
674 2 7.3829999999999991e+00 5.6834360499026637e+00 3.0031000000000294e+01 0 0 0
676 2 7.3829999999999991e+00 4.2625770374269996e+00 3.0031000000000294e+01 0 0 0
677 2 8.6135000000000002e+00 4.9730065436648339e+00 2.6861927276994280e+01 0 0 0
716 2 8.6135000000000002e+00 6.3938655561404980e+00 2.6861927276994280e+01 0 0 0
718 2 9.8440000000000012e+00 7.1042950623783341e+00 2.6861927276994280e+01 0 0 0
720 2 9.8440000000000012e+00 4.2625770374270004e+00 2.6861927276994280e+01 0 0 0
722 2 1.1074500000000002e+01 4.9730065436648339e+00 2.6861927276994280e+01 0 0 0
763 2 1.1074500000000002e+01 6.3938655561404980e+00 2.6861927276994280e+01 0 0 0
715 2 8.6135000000000002e+00 7.8147245686161639e+00 3.0031000000000294e+01 0 0 0
717 2 8.6135000000000002e+00 6.3938655561404980e+00 3.0031000000000294e+01 0 0 0
719 2 9.8440000000000012e+00 5.6834360499026637e+00 3.0031000000000294e+01 0 0 0
721 2 9.8440000000000012e+00 4.2625770374270004e+00 3.0031000000000294e+01 0 0 0
762 2 1.1074500000000002e+01 7.8147245686161639e+00 3.0031000000000294e+01 0 0 0
764 2 1.1074500000000002e+01 6.3938655561404980e+00 3.0031000000000294e+01 0 0 0
599 2 0.0000000000000000e+00 1.1366872099805333e+01 2.6861927276994280e+01 0 0 0
601 2 0.0000000000000000e+00 8.5251540748539991e+00 2.6861927276994280e+01 0 0 0
603 2 1.2305000000000001e+00 9.2355835810918343e+00 2.6861927276994280e+01 0 0 0
626 2 1.2305000000000001e+00 1.0656442593567498e+01 2.6861927276994280e+01 0 0 0
628 2 2.4610000000000003e+00 1.1366872099805333e+01 2.6861927276994280e+01 0 0 0
630 2 2.4610000000000003e+00 8.5251540748539991e+00 2.6861927276994280e+01 0 0 0
632 2 3.6915000000000004e+00 9.2355835810918343e+00 2.6861927276994280e+01 0 0 0
663 2 3.6914999999999996e+00 1.0656442593567499e+01 2.6861927276994280e+01 0 0 0
600 2 0.0000000000000000e+00 9.9460130873296642e+00 3.0031000000000294e+01 0 0 0
602 2 0.0000000000000000e+00 8.5251540748539991e+00 3.0031000000000294e+01 0 0 0
625 2 1.2305000000000001e+00 1.2077301606043163e+01 3.0031000000000294e+01 0 0 0
627 2 1.2305000000000001e+00 1.0656442593567498e+01 3.0031000000000294e+01 0 0 0
629 2 2.4610000000000003e+00 9.9460130873296642e+00 3.0031000000000294e+01 0 0 0
631 2 2.4610000000000003e+00 8.5251540748539991e+00 3.0031000000000294e+01 0 0 0
662 2 3.6914999999999996e+00 1.2077301606043163e+01 3.0031000000000294e+01 0 0 0
664 2 3.6914999999999996e+00 1.0656442593567499e+01 3.0031000000000294e+01 0 0 0
665 2 4.9220000000000006e+00 1.1366872099805333e+01 2.6861927276994280e+01 0 0 0
667 2 4.9220000000000006e+00 8.5251540748539991e+00 2.6861927276994280e+01 0 0 0
669 2 6.1524999999999999e+00 9.2355835810918343e+00 2.6861927276994280e+01 0 0 0
708 2 6.1524999999999999e+00 1.0656442593567499e+01 2.6861927276994280e+01 0 0 0
710 2 7.3829999999999991e+00 1.1366872099805333e+01 2.6861927276994280e+01 0 0 0
712 2 7.3830000000000009e+00 8.5251540748539991e+00 2.6861927276994280e+01 0 0 0
666 2 4.9220000000000006e+00 9.9460130873296642e+00 3.0031000000000294e+01 0 0 0
668 2 4.9220000000000006e+00 8.5251540748539991e+00 3.0031000000000294e+01 0 0 0
707 2 6.1524999999999999e+00 1.2077301606043163e+01 3.0031000000000294e+01 0 0 0
709 2 6.1524999999999999e+00 1.0656442593567499e+01 3.0031000000000294e+01 0 0 0
711 2 7.3830000000000009e+00 9.9460130873296642e+00 3.0031000000000294e+01 0 0 0
713 2 7.3830000000000009e+00 8.5251540748539991e+00 3.0031000000000294e+01 0 0 0
760 2 9.8440000000000012e+00 8.5251540748539956e+00 3.0031000000000294e+01 0 0 0
761 2 1.1074500000000002e+01 9.2355835810918343e+00 2.6861927276994280e+01 0 0 0
802 2 1.1074500000000002e+01 1.0656442593567498e+01 2.6861927276994280e+01 0 0 0
801 2 1.1074500000000002e+01 1.2077301606043163e+01 3.0031000000000294e+01 0 0 0
714 2 8.6134999999999984e+00 9.2355835810918343e+00 2.6861927276994280e+01 0 0 0
803 2 1.1074500000000002e+01 1.0656442593567498e+01 3.0031000000000294e+01 0 0 0
757 2 9.8440000000000012e+00 1.1366872099805333e+01 2.6861927276994280e+01 0 0 0
804 2 1.2304999999999998e+01 1.1366872099805333e+01 2.6861927276994280e+01 0 0 0
758 2 9.8440000000000012e+00 9.9460130873296642e+00 3.0031000000000294e+01 0 0 0
755 2 8.6134999999999984e+00 1.0656442593567498e+01 2.6861927276994280e+01 0 0 0
754 2 8.6135000000000002e+00 1.2077301606043163e+01 3.0031000000000294e+01 0 0 0
759 2 9.8440000000000012e+00 8.5251540748539956e+00 2.6861927276994280e+01 0 0 0
3532 1 1.1888438958298176e+01 1.1972948813843221e+01 1.6898987243279642e+01 1 1 0
5069 1 1.1010728071762228e+01 2.6088458182713024e-02 1.7076778184306740e+01 2 1 0
3595 1 1.8964108058349616e-01 6.7985559615690141e+00 1.9553665503564194e+01 -1 1 0
3358 1 8.1182120882235314e+00 1.2070541961760945e+01 1.6628521186843912e+01 1 1 0
1628 1 1.2096883217171512e+00 1.2096846270382043e+01 2.3222978208857896e+01 0 0 0
1448 1 1.1574027608383853e+01 9.7112304205035791e+00 1.8651348199586348e+01 1 2 0
1463 1 1.1780613713128389e+01 1.0027596258550624e+01 2.3374412719514922e+01 1 1 1
1313 1 1.2291706747357466e+01 5.3194105798603122e+00 1.7585900573795350e+01 -1 1 1
910 2 0.0000000000000000e+00 2.8417180249513345e+00 3.3200072723008319e+01 0 0 0
911 2 0.0000000000000000e+00 0.0000000000000000e+00 3.3200072723008319e+01 0 0 0
912 2 1.2305000000000001e+00 7.1042950623783474e-01 3.3200072723008319e+01 0 0 0
916 2 1.2305000000000001e+00 2.1312885187134998e+00 3.3200072723008319e+01 0 0 0
917 2 2.4610000000000003e+00 2.8417180249513345e+00 3.3200072723008319e+01 0 0 0
918 2 2.4610000000000003e+00 0.0000000000000000e+00 3.3200072723008319e+01 0 0 0
919 2 3.6915000000000004e+00 7.1042950623783474e-01 3.3200072723008319e+01 0 0 0
927 2 3.6914999999999996e+00 2.1312885187134998e+00 3.3200072723008319e+01 0 0 0
928 2 4.9220000000000006e+00 2.8417180249513332e+00 3.3200072723008319e+01 0 0 0
929 2 4.9220000000000006e+00 0.0000000000000000e+00 3.3200072723008319e+01 0 0 0
930 2 6.1524999999999999e+00 7.1042950623783407e-01 3.3200072723008319e+01 0 0 0
942 2 6.1524999999999999e+00 2.1312885187134989e+00 3.3200072723008319e+01 0 0 0
943 2 7.3829999999999991e+00 2.8417180249513345e+00 3.3200072723008319e+01 0 0 0
944 2 7.3829999999999991e+00 0.0000000000000000e+00 3.3200072723008319e+01 0 0 0
945 2 8.6134999999999984e+00 7.1042950623783407e-01 3.3200072723008319e+01 0 0 0
961 2 8.6134999999999984e+00 2.1312885187135002e+00 3.3200072723008319e+01 0 0 0
962 2 9.8440000000000012e+00 2.8417180249513332e+00 3.3200072723008319e+01 0 0 0
963 2 9.8440000000000012e+00 0.0000000000000000e+00 3.3200072723008319e+01 0 0 0
964 2 1.1074500000000002e+01 7.1042950623783330e-01 3.3200072723008319e+01 0 0 0
984 2 1.1074500000000002e+01 2.1312885187135002e+00 3.3200072723008319e+01 0 0 0
913 2 0.0000000000000000e+00 7.1042950623783341e+00 3.3200072723008319e+01 0 0 0
914 2 0.0000000000000000e+00 4.2625770374269996e+00 3.3200072723008319e+01 0 0 0
915 2 1.2305000000000001e+00 4.9730065436648339e+00 3.3200072723008319e+01 0 0 0
923 2 1.2305000000000001e+00 6.3938655561404980e+00 3.3200072723008319e+01 0 0 0
924 2 2.4610000000000003e+00 7.1042950623783341e+00 3.3200072723008319e+01 0 0 0
925 2 2.4610000000000003e+00 4.2625770374269996e+00 3.3200072723008319e+01 0 0 0
926 2 3.6914999999999996e+00 4.9730065436648339e+00 3.3200072723008319e+01 0 0 0
938 2 3.6914999999999996e+00 6.3938655561404980e+00 3.3200072723008319e+01 0 0 0
939 2 4.9220000000000006e+00 7.1042950623783341e+00 3.3200072723008319e+01 0 0 0
940 2 4.9220000000000006e+00 4.2625770374269978e+00 3.3200072723008319e+01 0 0 0
941 2 6.1524999999999999e+00 4.9730065436648339e+00 3.3200072723008319e+01 0 0 0
957 2 6.1524999999999999e+00 6.3938655561404980e+00 3.3200072723008319e+01 0 0 0
958 2 7.3830000000000009e+00 7.1042950623783341e+00 3.3200072723008319e+01 0 0 0
959 2 7.3829999999999991e+00 4.2625770374269996e+00 3.3200072723008319e+01 0 0 0
960 2 8.6135000000000002e+00 4.9730065436648339e+00 3.3200072723008319e+01 0 0 0
980 2 8.6135000000000002e+00 6.3938655561404980e+00 3.3200072723008319e+01 0 0 0
981 2 9.8440000000000012e+00 7.1042950623783341e+00 3.3200072723008319e+01 0 0 0
982 2 9.8440000000000012e+00 4.2625770374270004e+00 3.3200072723008319e+01 0 0 0
983 2 1.1074500000000002e+01 4.9730065436648339e+00 3.3200072723008319e+01 0 0 0
1004 2 1.1074500000000002e+01 6.3938655561404980e+00 3.3200072723008319e+01 0 0 0
920 2 0.0000000000000000e+00 1.1366872099805333e+01 3.3200072723008319e+01 0 0 0
921 2 0.0000000000000000e+00 8.5251540748539991e+00 3.3200072723008319e+01 0 0 0
922 2 1.2305000000000001e+00 9.2355835810918343e+00 3.3200072723008319e+01 0 0 0
934 2 1.2305000000000001e+00 1.0656442593567498e+01 3.3200072723008319e+01 0 0 0
935 2 2.4610000000000003e+00 1.1366872099805333e+01 3.3200072723008319e+01 0 0 0
936 2 2.4610000000000003e+00 8.5251540748539991e+00 3.3200072723008319e+01 0 0 0
937 2 3.6915000000000004e+00 9.2355835810918343e+00 3.3200072723008319e+01 0 0 0
953 2 3.6914999999999996e+00 1.0656442593567499e+01 3.3200072723008319e+01 0 0 0
954 2 4.9220000000000006e+00 1.1366872099805333e+01 3.3200072723008319e+01 0 0 0
955 2 4.9220000000000006e+00 8.5251540748539991e+00 3.3200072723008319e+01 0 0 0
956 2 6.1524999999999999e+00 9.2355835810918343e+00 3.3200072723008319e+01 0 0 0
976 2 6.1524999999999999e+00 1.0656442593567499e+01 3.3200072723008319e+01 0 0 0
977 2 7.3829999999999991e+00 1.1366872099805333e+01 3.3200072723008319e+01 0 0 0
978 2 7.3830000000000009e+00 8.5251540748539991e+00 3.3200072723008319e+01 0 0 0
979 2 8.6134999999999984e+00 9.2355835810918343e+00 3.3200072723008319e+01 0 0 0
1000 2 8.6134999999999984e+00 1.0656442593567498e+01 3.3200072723008319e+01 0 0 0
1001 2 9.8440000000000012e+00 1.1366872099805333e+01 3.3200072723008319e+01 0 0 0
1002 2 9.8440000000000012e+00 8.5251540748539956e+00 3.3200072723008319e+01 0 0 0
1003 2 1.1074500000000002e+01 9.2355835810918343e+00 3.3200072723008319e+01 0 0 0
1024 2 1.1074500000000002e+01 1.0656442593567498e+01 3.3200072723008319e+01 0 0 0
1025 2 1.2304999999999998e+01 1.1366872099805333e+01 3.3200072723008319e+01 0 0 0
1673 1 4.3894373954270103e+00 1.6147760591161047e+00 3.8865511991284805e+01 1 0 -1
2197 1 4.1533654374557551e+00 4.1568665036222757e-01 4.2338314222864298e+01 0 -2 0
248 1 4.6394996994289270e+00 1.7595730531768932e+00 3.6151503248245646e+01 -1 -1 -1
5398 1 1.3081775250502179e+00 9.6230880859110428e+00 3.5998372845267809e+01 4 0 0
61 1 9.1816892851202319e+00 2.1915212374658446e+00 3.6113485805754777e+01 -2 -1 -1
1261 1 6.6710575002464143e+00 3.6166891169699542e+00 3.5619805958373291e+01 1 0 0
4921 1 4.2403862442826066e+00 4.8259653599653776e+00 4.1372064283722040e+01 1 2 0
1549 1 1.7471343209743213e+00 2.8926342511524741e+00 3.5838002241896007e+01 -1 0 0
4593 1 7.7809781381639609e-01 9.7979698753250813e-02 4.3706424419871141e+01 0 1 0
3403 1 6.9217175342777253e+00 1.0539224317278821e+01 3.6947193951893681e+01 1 0 -1
48 1 2.1828015875889402e+00 5.6579598087742609e+00 3.6728151740485941e+01 0 2 -1
2016 1 1.6864720313504811e+00 7.6078775191037789e+00 4.0935873736503567e+01 -1 -1 0
4519 1 4.4459054861932579e+00 7.5111266303250552e+00 3.6499706786769977e+01 2 -1 0
3008 1 9.0684267003163725e+00 9.5968352274697164e+00 4.0854307087076208e+01 0 -1 0
1446 1 4.2683080482487252e+00 8.6118879637680905e+00 3.9194660293609658e+01 -2 0 0
1455 1 6.5637349901476227e+00 5.7577055860402071e+00 3.7211127703792826e+01 1 -1 0
3149 1 1.1212869069821508e+01 5.7280877660909066e+00 3.5786391302863620e+01 1 1 0
71 1 9.7125205979940077e+00 7.2568257233846261e+00 3.9823848323359783e+01 -1 1 0
1266 1 1.7821377067820103e+00 2.5746188213234129e+00 3.8942923518581722e+01 0 3 0
1293 1 7.1848621455310857e+00 1.1947130306098690e+00 4.2437599155596658e+01 1 -1 0
226 1 4.4282312119597158e+00 1.0362761435359769e+01 3.6094990293142047e+01 1 -1 -1
3505 1 6.5134657813480610e+00 1.0114933903023525e+01 4.0127727355815381e+01 1 1 -1
3259 1 8.7683624265844280e+00 9.2279396315813749e+00 3.5746825326255490e+01 3 0 0
6201 1 1.0273545001890245e+01 2.5598154235522408e+00 3.9000738218635334e+01 1 -1 0
205 1 9.2646478370978720e+00 6.7831663724978251e+00 3.7101340419812047e+01 -2 -1 -1
3464 1 1.0700894900925743e+01 1.1005304371480685e+01 3.6261120798748763e+01 -1 -1 -1
1743 1 2.5026344800510740e+00 2.7399512749847190e+00 4.2438226895743199e+01 0 0 -1
5326 1 2.2185589795907212e+00 5.4249180724155890e+00 3.9408095603813564e+01 2 1 -1
5191 1 2.3704253992035218e+00 9.3963012845275138e+00 4.2984246109932229e+01 0 2 -1
6181 1 7.5615016776842738e+00 1.6580110626931499e+00 3.9592592188934375e+01 -1 0 0
6175 1 5.9282977555562830e+00 4.0852560033938765e+00 3.9356670519095246e+01 0 1 0
1473 1 1.7293047687070302e+00 1.2053861556292821e+01 4.2697885903786528e+01 0 -1 -1
1370 1 9.7108393531881436e+00 9.3134529654844869e+00 4.3785614621021153e+01 -1 0 -1
1952 1 1.1763078803605497e+01 6.7908738057789894e-02 3.9245308880548606e+01 0 1 -1
3494 1 1.2017868689142965e+01 3.3208899074268947e+00 3.6833084613195055e+01 1 0 -1
580 1 5.7982900713503165e+00 6.6076738842523914e+00 4.3117546329582183e+01 -2 -2 0
4598 1 5.0070812032019258e+00 9.0448299473577816e+00 4.2283897637569851e+01 0 1 0
1528 1 9.2457761821875319e+00 3.3570404149184339e+00 4.2012982988980582e+01 -1 -1 0
36 1 9.3904729890700764e+00 1.2199921560796867e+01 3.8614368657592721e+01 -1 -1 0
2044 1 7.8817246492570074e+00 5.5175309907886021e+00 4.1300310106139250e+01 0 2 -1
319 1 1.6051315897312077e+00 1.0022709151407879e+01 3.8756710002510246e+01 1 1 -1
5196 1 1.2007106987932959e+01 3.7649617632702488e+00 4.1457789499383594e+01 2 2 -1
3682 1 1.0450543358008382e+01 1.1801696575428640e+01 4.1582075226738979e+01 2 -1 -1
430 1 9.5239545748755834e+00 6.4339526587236291e+00 4.3986888766500741e+01 0 1 -1
5073 1 1.6605643188917441e-02 7.3267769065163746e+00 3.6641232588193773e+01 0 0 -1
6177 1 1.2183655936309243e+00 8.3774457572268091e-02 3.6513237087242217e+01 1 1 0
1645 1 5.2453932074527154e-01 1.1874739810351542e-01 3.9526251211449278e+01 -2 0 0
3402 1 1.9122393852801853e+00 2.3882628759367801e+00 4.6975181373348605e+01 1 1 -1
1879 1 4.2674850335434069e+00 1.2518113787679195e+00 4.7647024189822361e+01 2 -1 -1
3290 1 1.0844298090393105e-02 1.9390953075431141e+00 5.4055956695252092e+01 -1 1 -1
259 1 5.7109434224546209e+00 3.0276559272174093e+00 4.9616323445446412e+01 -1 3 0
63 1 6.3941500902582424e+00 2.7432215245855640e+00 4.5006261324614769e+01 0 0 -1
3513 1 7.6534017973252153e+00 3.2273351038142124e+00 4.7545086165780532e+01 -1 2 -1
313 1 1.2016905806466379e+01 8.9517607515384388e+00 5.0573405795986432e+01 0 1 -1
2058 1 4.7182709221210635e+00 4.8386446208624418e+00 4.5013052552307940e+01 0 0 -1
6157 1 8.0622514274951129e+00 2.1847389865022455e+00 5.1189404413300807e+01 2 -1 0
3074 1 1.6288327558301412e+00 4.8849089113733131e+00 4.8437240968138397e+01 1 1 -1
6264 1 3.7321076648531775e+00 9.0875665847624667e+00 4.6362388612885638e+01 0 1 0
5251 1 1.1875270370724895e+00 9.4424473093120103e+00 4.7534031528998213e+01 0 -2 -1
1481 1 7.6917336947856878e+00 7.0308662097488464e+00 4.6023405969618096e+01 0 2 -1
1362 1 4.9607420348211315e+00 6.5328537092112269e+00 4.6941501548353855e+01 -1 -1 0
5151 1 4.1028924241635742e+00 5.1125303731418095e+00 4.9234619491589001e+01 1 2 -1
172 1 8.8050479842904945e+00 5.6961054625187906e+00 4.8088991290667309e+01 -2 1 -1
3761 1 1.1641124203697084e+01 5.4654834564649990e+00 4.8203020763948103e+01 1 -1 -1