
# Create simulation box and atoms

read_data data.graphite_ML_500atm_e
  orthogonal box = (0 0 1.31653) to (49.22 49.0196 58.7455)
  4 by 4 by 4 MPI processor grid
  reading atoms ...
  6472 atoms
  reading velocities ...
  6472 velocities
group water type 1
3712 atoms in group water
group graphite type 2
2760 atoms in group graphite

# Define potential

pair_style sw
pair_coeff * * MLC_e.sw mW C


# Fix graphite atoms in place

fix 5 graphite setforce 0.0 0.0 0.0
velocity graphite set 0.0 0.0 0.0


# Equilibration of molecular water

# Add velocity/set timestep

velocity	    water create ${TEMP} ${SEED} rot yes dist gaussian
velocity	    water create 240 ${SEED} rot yes dist gaussian
velocity	    water create 240 29727 rot yes dist gaussian
timestep	    5.0

# Define output

compute			1 water msd
compute			3 water temp
thermo	    	50
thermo_style	custom step temp press vol etotal ke pe c_1[4] c_3

# Neighbor lists

neigh_modify    delay 0 every 1 check yes

# Set fixes

fix             1 water momentum 10 linear 1 1 1 rescale
fix             2 water nve
fix             3 water temp/csvr ${TEMP} ${TEMP} 500.0 ${SEED}
fix             3 water temp/csvr 240 ${TEMP} 500.0 ${SEED}
fix             3 water temp/csvr 240 240 500.0 ${SEED}
fix             3 water temp/csvr 240 240 500.0 29727
fix             4 water press/berendsen z ${PRES} ${PRES} 1000.0 modulus 20000
fix             4 water press/berendsen z -500 ${PRES} 1000.0 modulus 20000
fix             4 water press/berendsen z -500 -500 1000.0 modulus 20000

# Run 0.5 ns equilibration

dump		    1 all atom 2000 ${DIR}/eq.${NAME}-${TEMP}.dump
dump		    1 all atom 2000 run_4/eq.${NAME}-${TEMP}.dump
dump		    1 all atom 2000 run_4/eq.het_freeze_4-${TEMP}.dump
dump		    1 all atom 2000 run_4/eq.het_freeze_4-240.dump

reset_timestep  0

run	            100000
Neighbor list info ...
  update every 1 steps, delay 0 steps, check yes
  max neighbors/atom: 2000, page size: 100000
  master list distance cutoff = 7.76
  ghost atom cutoff = 7.76
  binsize = 3.88, bins = 13 13 15
  1 neighbor lists, perpetual/occasional/extra = 1 0 0
  (1) pair sw, perpetual
      attributes: full, newton on
      pair build: full/bin/atomonly
      stencil: full/bin/3d
      bin: standard
Per MPI rank memory allocation (min/avg/max) = 4.082 | 4.203 | 4.509 Mbytes
Step Temp Press Volume TotEng KinEng PotEng c_1[4] c_3 
       0    137.63561   -1491.3424    138561.45   -31953.892    2654.8287   -34608.721            0          240 
      50    181.28747   -1319.6553    137999.87   -32465.913    3496.8216   -35962.735   0.84979499    316.11727 
     100    174.46667     -1621.94    137587.96   -32819.017    3365.2565   -36184.273    1.8223862    304.22361 
     150    172.30858   -1206.5196    137288.97   -33109.954    3323.6294   -36433.583    2.5884572    300.46047 
     200    163.86812   -1351.5148    137006.06   -33406.772    3160.8229   -36567.595    3.3596018    285.74255 
     250    163.14394   -1477.8002    136688.44   -33643.149    3146.8543   -36790.003     4.145148    284.47977 
     300    157.27694   -1474.8619    136380.95   -33846.201    3033.6869   -36879.888    4.8348521    274.24928 
     350    156.34669   -1154.8502    136080.85   -33998.521    3015.7434   -37014.265    5.4218025    272.62717 
     400    152.01402   -1265.8772    135702.55   -34263.715    2932.1714   -37195.886    6.0418737    265.07215 
     450    146.38087   -1089.1019    135468.65   -34400.677    2823.5145   -37224.192     6.508968    255.24942 
     500    150.64224   -944.11105    135337.08   -34522.703    2905.7112   -37428.414    6.9958356    262.68011 
     550    146.64687   -1058.7799    135283.94   -34648.791    2828.6453   -37477.436    7.4387717    255.71325 
     600    144.26439   -996.01352    135147.36   -34673.518    2782.6902   -37456.208    7.8448629    251.55885 
     650    143.62326   -1154.6056    134859.65   -34825.498    2770.3234   -37595.821    8.3117262    250.44088 
     700    141.83487   -910.19226    134690.16   -34850.443    2735.8276   -37586.271    8.7639499    247.32241 
     750    142.56819   -653.61938    134622.67   -34865.205    2749.9724   -37615.177    9.1936705    248.60112 
     800    143.83974   -457.05495    134691.71   -34897.242    2774.4991   -37671.741    9.5729458    250.81837 
     850    141.85406   -503.38772    134715.48   -34998.031    2736.1977   -37734.228     10.03002    247.35586 
     900    141.42013   -369.75663    134810.93   -35026.431    2727.8277   -37754.259    10.305844    246.59921 
     950    143.22478   -937.44642    134823.76   -35087.692    2762.6372   -37850.329     10.59991    249.74604 
    1000    138.82142   -931.14337    134838.86   -35129.609    2677.7016   -37807.311    10.837423    242.06774 
    1050    141.02471   -1246.2698    134734.53   -35207.971    2720.2006   -37928.171    11.015944    245.90971 
    1100    138.99595   -918.36011    134649.04    -35261.45     2681.068   -37942.518    11.264192    242.37207 
    1150    139.23642   -615.30643    134545.27   -35307.825    2685.7065   -37993.531    11.447279    242.79139 
    1200    140.44408   -532.30407    134524.84    -35282.73    2709.0008   -37991.731    11.662982    244.89723 
    1250    138.82214   -484.01157    134518.37   -35285.897    2677.7155   -37963.613    11.945312      242.069 
    1300    140.40607   -700.39348    134583.68   -35291.918    2708.2677   -38000.185    12.139539    244.83096 
    1350    139.43012   -552.96961    134609.53   -35290.691    2689.4428   -37980.134    12.384243    243.12916 
    1400    139.99012   -735.14744    134632.56   -35296.921    2700.2445   -37997.165    12.656914    244.10565 
    1450     138.9962   -744.04881    134627.79   -35362.327    2681.0729     -38043.4    12.831255    242.37251 
    1500    139.59454   -811.50704    134605.03   -35355.506    2692.6142   -38048.121    13.091337    243.41587 
    1550    138.61222   -881.81751    134539.09   -35361.271    2673.6664   -38034.937    13.349981    241.70296 
    1600    142.35796   -601.38001    134532.89   -35377.701    2745.9173   -38123.619    13.520656    248.23453 
    1650    138.93217   -870.30568    134542.83   -35383.378    2679.8379   -38063.216    13.896336    242.26087 
    1700    136.38253   -944.07641    134373.04   -35425.232    2630.6583    -38055.89    14.255418    237.81497 
    1750    137.06308   -746.73361     134280.6   -35429.419    2643.7852   -38073.204    14.488911    239.00166 
    1800    139.61903   -547.31154    134308.31   -35408.804    2693.0867   -38101.891    14.713035    243.45857 
    1850    139.25869   -528.60195    134347.02   -35416.763    2686.1361     -38102.9    14.980424    242.83023 
    1900    138.14865   -578.76409    134344.81   -35435.831    2664.7247   -38100.556    15.170424    240.89461 
    1950    140.93837   -456.41827    134303.57    -35426.26    2718.5351   -38144.795    15.391666    245.75915 
    2000    139.15511   -740.57336     134323.2   -35449.049     2684.138   -38133.187    15.639103    242.64961 
    2050    135.52332   -749.74186    134386.97   -35493.102    2614.0853   -38107.187    15.957654    236.31674 
    2100    141.15016   -550.47209    134413.91   -35504.116    2722.6203   -38226.737    16.262929    246.12845 
    2150    136.72898   -882.94693    134388.97   -35525.263    2637.3409   -38162.604    16.583844    238.41908 
    2200    137.30149    -571.1978    134448.47    -35506.83    2648.3841   -38155.214    16.901173     239.4174 
    2250    139.12927   -804.26544    134467.59   -35482.483    2683.6397   -38166.123    17.103773    242.60456 
    2300    139.88559   -578.90984    134495.47   -35439.144    2698.2283   -38137.372    17.383745    243.92338 
    2350    139.44884    -460.2836    134566.46   -35444.622    2689.8038   -38134.426    17.474538     243.1618 
    2400    138.91177   -711.90559    134654.81   -35490.373    2679.4444   -38169.818    17.620474     242.2253 
    2450    139.71581   -672.84818    134589.55   -35497.644    2694.9534   -38192.597    17.806863    243.62732 
    2500    137.24717   -840.70095    134558.83   -35517.346    2647.3361   -38164.683    17.983666    239.32266 
    2550    137.24492   -830.19596    134492.55   -35544.949    2647.2927   -38192.241    18.278363    239.31874 
    2600    134.16253   -468.99021     134439.4   -35621.037    2587.8372   -38208.875     18.49847    233.94388 
    2650    136.81582   -609.90905    134437.67   -35656.008     2639.016   -38295.024    18.721127    238.57052 
    2700     134.6761   -491.27531    134443.62   -35644.981    2597.7432   -38242.724    18.950258     234.8394 
    2750    136.22044   -422.07551    134519.65   -35625.137    2627.5317   -38252.669    19.119963    237.53232 
    2800    137.49242   -714.91638    134597.35   -35583.224    2652.0667   -38235.291    19.299708    239.75032 
    2850    138.62302    -807.4797    134545.39   -35531.037    2673.8748   -38204.911    19.508189     241.7218 
    2900    141.27168   -612.96653    134576.15   -35516.153    2724.9643   -38241.117     19.65505    246.34035 
    2950    139.42584   -491.43247    134643.89   -35510.053    2689.3603   -38199.414    19.878017     243.1217 
    3000    136.76045   -827.60671    134592.15   -35533.782    2637.9479    -38171.73    19.948157    238.47396 
    3050    137.13111   -656.92294    134557.04   -35592.105    2645.0976   -38237.203    20.131119     239.1203 
    3100    136.63804   -500.95308    134655.57   -35583.772    2635.5868   -38219.359    20.291968    238.26051 
    3150    137.85981   -1064.0519    134606.87   -35575.338    2659.1534   -38234.492    20.399615    240.39096 
    3200    136.72396   -856.60113    134622.87     -35523.8    2637.2441   -38161.044    20.467126    238.41033 
    3250    137.83069   -586.83042    134647.23   -35550.846    2658.5917   -38209.437    20.606394    240.34018 
    3300    136.49352   -654.72994     134607.5   -35603.545    2632.7992   -38236.345    21.012954    238.00851 
    3350    132.04884   -632.30492    134578.31   -35702.885    2547.0665   -38249.952    21.276084    230.25816 
    3400    134.67328    -566.0323    134596.99   -35668.309    2597.6889   -38265.998    21.493485    234.83449 
    3450     134.9262   -615.05298    134536.26   -35656.912    2602.5674   -38259.479    21.693803    235.27551 
    3500    135.79538   -928.99795    134497.06   -35660.059    2619.3329   -38279.391    21.989965    236.79113 
    3550    136.74415   -736.70518    134394.81   -35625.696    2637.6335    -38263.33    22.224923    238.44554 
    3600    136.85717   -674.81784     134366.6   -35625.312    2639.8136   -38265.126    22.614412    238.64262 
    3650    136.00575    -475.9973    134460.83   -35593.943    2623.3907   -38217.333    22.629511    237.15796 
    3700    130.81578   -868.40411    134554.09   -35640.139    2523.2822   -38163.421    22.795985    228.10803 
    3750    133.82597   -637.32065    134558.29   -35615.503    2581.3453   -38196.848    22.908258    233.35701 
    3800    136.29605   -747.37777    134646.08   -35629.863    2628.9901   -38258.853    23.006987    237.66416 
    3850      137.456   -586.84531    134662.68   -35597.058    2651.3644   -38248.423    23.288443    239.68682 
    3900    135.20654   -622.52671    134588.55    -35631.52    2607.9749   -38239.494    23.524764    235.76436 
    3950    136.83321   -691.82063    134567.93   -35640.224    2639.3515   -38279.576    23.859763    238.60084 
    4000    134.94853   -702.92893    134538.79   -35635.381    2602.9981   -38238.379    24.098753    235.31445 
    4050    138.75499   -515.16127    134546.71   -35644.594    2676.4203   -38321.014    24.296664    241.95191 
    4100     141.5272   -621.05504    134639.89   -35605.005    2729.8929   -38334.898    24.408796    246.78591 
    4150    136.62011   -663.59778    134613.46   -35653.796     2635.241   -38289.037    24.499109    238.22925 
    4200    139.48874   -617.61079    134755.46   -35638.701    2690.5735   -38329.275    24.555785    243.23138 
    4250    137.14775   -497.23373    134804.82   -35639.117    2645.4186   -38284.536     24.76957    239.14932 
    4300    137.31255   -666.53938    134852.57   -35638.308    2648.5973   -38286.905    24.849145    239.43668 
    4350    138.34908   -872.98019    134817.49   -35582.647    2668.5908   -38251.237     25.11713    241.24412 
    4400    138.62887   -777.93243    134747.81   -35607.869    2673.9875   -38281.856    25.421462    241.73198 
    4450    137.01986   -877.42275    134731.83   -35607.881    2642.9516   -38250.832    25.595965     238.9263 
    4500    134.36369   -887.08789    134711.58   -35662.423    2591.7173   -38254.141    25.754104    234.29465 
    4550    136.11609   -737.95205     134563.1    -35648.08    2625.5189   -38273.599    25.939726    237.35036 
    4600    137.80375   -545.95853    134530.59   -35591.807     2658.072   -38249.879    26.071156     240.2932 
    4650    135.41014   -597.46263    134492.04   -35564.077     2611.902   -38175.979    26.366893    236.11937 
    4700    138.91884   -683.99949    134535.66   -35559.883    2679.5807   -38239.463    26.631316    242.23762 
    4750    136.12429   -506.91992    134558.77   -35599.087    2625.6772   -38224.765    26.962504    237.36467 
    4800    136.02786   -381.23045    134665.02   -35602.845    2623.8171   -38226.662    27.223782    237.19651 
    4850    137.24347   -512.64301    134686.74   -35509.674    2647.2649   -38156.939    27.529519    239.31623 
    4900    135.47048   -622.25564    134768.49   -35507.549    2613.0659   -38120.615    27.720246    236.22459 
    4950    138.27479   -858.09012    134830.53   -35518.104    2667.1577   -38185.262     27.78425    241.11456 
    5000    136.93663   -988.19128    134789.76   -35563.923    2641.3464   -38205.269    27.948375    238.78118 
    5050    136.47119   -703.73706    134767.87   -35560.854    2632.3685   -38193.222    28.228196    237.96957 
    5100    139.05603   -609.68672    134785.32   -35574.363     2682.227    -38256.59    28.493849    242.47684 
    5150    138.11097   -697.62619    134884.34   -35602.082    2663.9979    -38266.08    28.727092    240.82891 
    5200    140.46439   -420.66414    134963.72   -35575.234    2709.3925   -38284.626    28.815579    244.93264 
    5250    139.36876   -512.94981    135060.58   -35594.527    2688.2591   -38282.786    28.963821    243.02216 
    5300    137.21586   -791.26539    135158.47   -35588.054    2646.7323   -38234.786    29.205854    239.26808 
    5350    136.75847   -732.49855    135203.19   -35568.819    2637.9098   -38206.729     29.44787    238.47051 
    5400    137.11094   -727.24545    135230.13     -35587.2    2644.7085   -38231.909    29.594362    239.08512 
    5450    137.18204   -1080.0958    135155.37   -35569.585    2646.0799   -38215.665     29.76659     239.2091 
    5500     135.2774    -874.3953    135136.27   -35611.256    2609.3416   -38220.598    29.909831    235.88791 
    5550    137.27731   -725.60879    135090.53   -35635.893    2647.9175    -38283.81     29.95972    239.37522 
    5600    138.11204   -1037.2902    134974.58   -35625.363    2664.0184   -38289.381    30.322594    240.83077 
    5650     138.7409   -737.58205    134948.46   -35595.742    2676.1484   -38271.891    30.524197    241.92733 
    5700     139.3523   -565.25532     134930.7   -35653.138    2687.9416   -38341.079    30.808568    242.99345 
    5750    137.81299   -906.60573    134905.46   -35659.168    2658.2503   -38317.419    31.052848    240.30932 
    5800    137.12685   -560.43531    134865.55   -35669.152    2645.0154   -38314.168    31.223414    239.11287 
    5850    136.45811   -678.64981     134989.6   -35670.799    2632.1161   -38302.915     31.22383    237.94675 
    5900    137.38091   -874.74182    135030.26   -35697.443    2649.9158   -38347.359    31.383275    239.55587 
    5950    137.62649    -669.0002    134977.99   -35693.765    2654.6529   -38348.418    31.544849    239.98411 
    6000    133.57673   -795.99131    134924.45   -35716.404    2576.5378   -38292.942    31.800848     232.9224 
    6050    136.41825   -773.70227    134847.83   -35675.779    2631.3473   -38307.126    32.086863    237.87725 
    6100    137.82899   -570.64365    134867.97   -35656.401    2658.5588    -38314.96    32.253722    240.33721 
    6150    140.19305   -752.42324    134838.31   -35612.059    2704.1589   -38316.218    32.573835    244.45951 
    6200    138.06361   -523.58821    134809.93   -35632.099    2663.0843   -38295.184    32.548524    240.74632 
    6250    138.35238   -271.86661     134948.5    -35600.76    2668.6544   -38269.414    32.793522    241.24986 
    6300    138.19689    -587.7146    134955.24   -35612.874    2665.6552   -38278.529    33.131297    240.97874 
    6350    137.92496    -763.0675    134977.73   -35618.445    2660.4101   -38278.855    33.286132    240.50457 
    6400    139.59347   -557.42226     134932.2   -35658.586    2692.5936    -38351.18    33.585333      243.414 
    6450    137.93344   -717.15323    134961.18   -35671.674    2660.5736   -38332.248    33.795532    240.51935 
    6500    136.06179   -642.19408    134955.76   -35635.755    2624.4717   -38260.227    33.946469    237.25569 
    6550    136.78565   -561.97522    134939.31   -35659.008    2638.4341   -38297.442    34.060922    238.51791 
    6600    138.42426   -882.98525    134906.41   -35643.715    2670.0409   -38313.756    34.367389     241.3752 
    6650    136.50261   -440.93241    134956.44   -35653.891    2632.9746   -38286.865    34.768494    238.02437 
    6700    133.57305   -706.01236    135006.64   -35641.225    2576.4667   -38217.691    34.883932    232.91598 
    6750    135.66828   -664.68687    135004.01   -35645.408    2616.8813    -38262.29    35.099896    236.56951 
    6800    138.35546   -601.38595    135000.11   -35630.078    2668.7138   -38298.792    35.351992    241.25523 
    6850    138.15031   -780.90412    134938.71   -35667.655    2664.7568   -38332.412    35.491671    240.89751 
    6900    137.24817   -565.74669    135008.47   -35694.075    2647.3556   -38341.431    35.629815    239.32442 
    6950    139.78404   -738.41496    134991.29   -35653.456    2696.2695   -38349.726    35.997105     243.7463 
    7000     139.7021   -538.01922    134888.27   -35614.435    2694.6889   -38309.123    36.241872    243.60342 
    7050     140.0986   -846.02779    134952.19   -35608.301     2702.337   -38310.638    36.558919    244.29481 
    7100    141.38706   -633.52062    134944.96     -35628.2    2727.1898    -38355.39    36.513211    246.54154 
    7150    137.76988   -744.05098    134988.25   -35634.512    2657.4187    -38291.93    36.476826    240.23414 
    7200    138.21237    -679.4463    135020.84   -35645.242    2665.9538   -38311.196    36.544687    241.00573 
    7250    140.79097   -379.74433     135062.2   -35633.579    2715.6919   -38349.271    36.579196    245.50212 
    7300    137.76372   -392.29316    135142.05   -35670.261    2657.2999   -38327.561    36.694442     240.2234 
    7350    138.96703   -234.81059    135268.28   -35655.909    2680.5104    -38336.42    36.638192    242.32166 
    7400    134.78926   -820.34561    135256.03   -35711.738    2599.9261   -38311.664    36.630202    235.03674 
    7450    135.00071   -769.27037    135227.81   -35696.607    2604.0046   -38300.612    36.813186    235.40544 
    7500    140.91659   -484.91438    135212.24    -35626.55    2718.1151   -38344.665    36.942648    245.72117 
    7550    138.99467   -567.27811    135301.77   -35626.786    2681.0435    -38307.83     36.97656    242.36985 
    7600    138.02656   -604.49279    135262.75   -35574.792    2662.3696   -38237.162    37.178446    240.68171 
    7650    138.40174    -575.4949    135333.77   -35538.619    2669.6065   -38208.226    37.362316    241.33594 
    7700    140.95465   -708.72409    135331.03   -35557.507    2718.8492   -38276.356     37.52245    245.78754 
    7750    140.79508    -905.7686    135385.99   -35557.197    2715.7713   -38272.968    37.700787    245.50929 
    7800    137.65045   -731.90007    135369.56   -35572.758    2655.1149   -38227.873    38.076063    240.02588 
    7850    136.66355   -813.79672    135270.32   -35643.898    2636.0789   -38279.977    38.357557      238.305 
    7900      137.865    -756.8137    135275.27   -35610.876    2659.2535   -38270.129    38.834379    240.40001 
    7950    139.42156    -867.1149    135248.09   -35597.403    2689.2777   -38286.681    39.195341    243.11424 
    8000    136.54895   -859.05913    135202.51   -35607.039    2633.8684   -38240.908    39.459333    238.10516 
    8050     137.7326   -956.90355    135161.83   -35599.658    2656.6997   -38256.358    39.723475    240.16914 
    8100    142.31676    -948.1578    135193.04   -35569.028    2745.1227   -38314.151    39.706772     248.1627 
    8150    136.28235   -664.22419     135173.1   -35556.615     2628.726   -38185.341    39.824524    237.64029 
    8200    141.72258   -682.55343    135180.65   -35522.605    2733.6616   -38256.267    40.136923     247.1266 
    8250    138.82671   -714.33778    135194.65   -35547.208    2677.8037   -38225.011    40.459855    242.07698 
    8300    137.39732   -682.34781    135157.31   -35616.879    2650.2324   -38267.111    40.618886    239.58449 
    8350    136.57887   -945.00193    135195.25   -35594.791    2634.4455   -38229.237    40.821437    238.15734 
    8400    138.73389   -456.17401    135265.01   -35579.286    2676.0134     -38255.3    40.963497    241.91512 
    8450    138.66995   -923.06262    135334.56   -35582.546      2674.78   -38257.326    40.993239    241.80363 
    8500     137.5842    -842.1479    135298.56   -35610.007    2653.8372   -38263.844    41.205461    239.91037 
    8550    138.27846   -721.42344     135316.4     -35576.9    2667.2285   -38244.128    41.201024    241.12096 
    8600    139.78865   -551.71649    135422.49   -35557.858    2696.3584   -38254.216    41.373832    243.75434 
    8650    140.28845   -741.83054    135385.89   -35505.388    2705.9989   -38211.387    41.513269    244.62586 
    8700    139.71048   -922.29331    135230.68   -35565.901    2694.8506   -38260.751    41.790587    243.61804 
    8750    137.11856    -803.0215    135077.93       -35567    2644.8554   -38211.855    42.018285    239.09841 
    8800    137.62722   -723.77598    135045.16   -35635.339     2654.667   -38290.006    42.196486    239.98538 
    8850    137.19822   -602.16146    135030.77   -35674.454    2646.3921   -38320.846    42.468662    239.23732 
    8900    137.72902   -656.64387    135018.49   -35620.111    2656.6306   -38276.742    42.530202     240.1629 
    8950    136.91057   -691.00216    134997.08   -35601.623    2640.8436   -38242.467    42.786228    238.73573 
    9000    139.77508   -745.99732    135019.08   -35554.128    2696.0966   -38250.224    42.990282    243.73068 
    9050    141.65319   -736.57459    134964.18   -35529.253    2732.3232   -38261.576    43.225078    247.00561 
    9100    138.85943   -777.51885     134921.6   -35560.195    2678.4348   -38238.629    43.603364    242.13402 
    9150     140.1712   -673.24546     134880.6   -35568.498    2703.7373   -38272.235    43.897919    244.42141 
    9200    137.57814   -665.04358    134888.16   -35602.371    2653.7201   -38256.091    43.937953    239.89979 
    9250    136.55093   -574.42013    134919.47   -35654.634    2633.9065    -38288.54    44.010422    238.10861 
    9300    135.76199   -402.79922    135020.68    -35653.62    2618.6888   -38272.309    44.216545    236.73291 
    9350    137.09979   -771.07698    135080.06   -35592.099    2644.4935   -38236.592    44.315728    239.06568 
    9400    137.01649   -601.77539    135119.91   -35646.959    2642.8867   -38289.846    44.306925    238.92043 
    9450    138.71774   -479.14536    135147.19   -35593.763    2675.7018   -38269.465    44.695751    241.88696 
    9500    137.74442   -637.70024     135170.5   -35608.762    2656.9275   -38265.689    45.004335    240.18974 
    9550    138.35179   -906.37284    135215.87   -35664.164    2668.6431   -38332.807    45.294636    241.24884 
    9600    137.81175   -568.36204    135235.87    -35674.84    2658.2262   -38333.066    45.642799    240.30714 
    9650    137.58109   -1036.3188    135233.85   -35670.001    2653.7772   -38323.778    45.809234    239.90494 
    9700     139.0758   -757.09557    135131.96   -35641.368    2682.6083   -38323.976    46.021478    242.51132 
    9750    138.97383   -780.45689    135209.23   -35658.446    2680.6414   -38339.087    46.334048    242.33351 
    9800    140.97951   -661.38925    135331.25   -35616.371    2719.3287   -38335.699    46.532287    245.83089 
    9850    138.91096   -693.96892    135381.25    -35655.67    2679.4287   -38335.098    46.753837    242.22388 
    9900     135.6044    -952.4677    135282.44   -35680.257    2615.6491   -38295.906    47.039529    236.45811 
    9950    135.81148   -874.00656    135305.88   -35690.472    2619.6434   -38310.115    47.189509    236.81921 
   10000    138.29702   -784.89119    135321.41    -35663.85    2667.5866   -38331.437    47.350876    241.15334 
   10050    136.49365   -764.42265    135394.06   -35678.286    2632.8016   -38311.087    47.534826    238.00873 
   10100    135.01284     -800.761    135312.69   -35653.015    2604.2386   -38257.254    47.726575    235.42659 
   10150    137.92953   -555.44739    135349.44   -35611.294    2660.4981   -38271.792    47.910123    240.51253 
   10200    137.75231   -831.90371    135466.83   -35664.544    2657.0798   -38321.624    48.259202    240.20351 
   10250    135.67214   -844.30388     135404.4   -35693.841    2616.9556   -38310.796    48.689353    236.57623 
   10300    135.40824   -671.38622    135404.18    -35723.47    2611.8654   -38335.335    48.929917    236.11606 
   10350     135.7831   -712.80522    135409.45   -35724.436     2619.096   -38343.532    49.299303    236.76972 
   10400    135.00382   -800.20693    135409.42   -35722.935    2604.0646   -38326.999    49.699639    235.41086 
   10450    136.43168   -1041.6903    135313.04   -35675.032    2631.6064   -38306.639    49.961598    237.90068 
   10500    137.22034   -753.78262    135278.14   -35683.914    2646.8188   -38330.733    49.990173     239.2759 
   10550    138.42687   -753.78358    135280.47   -35674.045    2670.0912   -38344.136    50.282626    241.37976 
   10600    135.69569    -694.9872    135302.48   -35690.949      2617.41   -38308.359    50.568371    236.61731 
   10650     137.2466    -436.0667    135390.58   -35663.465    2647.3253   -38310.791    50.639276    239.32168 
   10700    138.60193   -582.38883    135320.63   -35660.396    2673.4679   -38333.864     50.70735    241.68502 
   10750    138.88785   -740.07555    135234.33   -35655.051     2678.983   -38334.034    50.658335    242.18358 
   10800    139.42651   -425.01426    135352.07   -35663.007    2689.3731    -38352.38    50.597586    243.12287 
   10850    137.95783   -611.32915    135414.07   -35651.002     2661.044   -38312.046    50.845994    240.56188 
   10900    138.95185   -506.76478    135482.51   -35687.697    2680.2174   -38367.915    50.893019    242.29518 
   10950     137.6983   -424.47232    135475.47   -35765.515     2656.038   -38421.553    51.016714    240.10932 
   11000    136.09622   -604.64772    135463.47   -35776.885    2625.1357   -38402.021    51.181974    237.31572 
   11050    136.83511    -414.0712    135470.16   -35736.918     2639.388   -38376.306    51.384326    238.60415 
   11100    133.60727   -599.37339    135490.39    -35769.35    2577.1268   -38346.477    51.549771    232.97565 
   11150    135.19069   -388.35346     135407.7   -35752.521    2607.6692    -38360.19    51.724531    235.73672 
   11200    135.62585   -589.57527     135416.6   -35814.427    2616.0629    -38430.49    51.762755    236.49553 
   11250     135.9818   -441.71544    135485.92   -35759.382    2622.9287   -38382.311    51.973918    237.11621 
   11300    134.68537   -496.74118     135552.9   -35789.521    2597.9221   -38387.444    52.148466    234.85557 
   11350     135.8816   -807.06087    135458.49   -35786.409    2620.9959   -38407.405    52.511441    236.94147 
   11400    136.87438   -704.22361    135409.45   -35777.603    2640.1455   -38417.749    52.697696    238.67262 
   11450    137.01934   -562.63606    135311.36   -35769.829    2642.9417    -38412.77     52.99559     238.9254 
   11500    136.17656   -429.09701    135388.62   -35731.983    2626.6854   -38358.669    53.084803    237.45581 
   11550    133.51555    -821.1311    135315.82   -35808.903    2575.3577    -38384.26    53.140645    232.81572 
   11600    132.35696   -739.50642    135309.09   -35796.616    2553.0099   -38349.626    53.156284    230.79545 
   11650    135.80481   -689.19792    135290.77   -35754.321    2619.5148   -38373.836    53.414538    236.80758 
   11700    133.86691   -599.63669    135321.81   -35784.919     2582.135   -38367.054     53.55584     233.4284 
   11750    134.97616   -573.63595    135410.22   -35750.184    2603.5312   -38353.715    53.998344    235.36264 
   11800    134.63298   -816.52574    135436.39   -35766.407    2596.9116   -38363.318    54.262472    234.76422 
   11850     133.5588   -790.44753    135466.59   -35762.139    2576.1918   -38338.331    54.445393    232.89113 
   11900    135.24925   -787.64856    135411.17   -35783.846    2608.7986   -38392.645    54.770364    235.83883 
   11950    130.80445   -707.87409    135412.53   -35755.539    2523.0638   -38278.602    54.970117    228.08828 
   12000    137.88337   -433.40108     135460.6   -35737.472    2659.6078    -38397.08    55.056265    240.43204 
   12050    135.26987   -688.86596    135578.23    -35702.12    2609.1964   -38311.317    55.303886    235.87478 
   12100    136.84101    -829.2347    135587.84    -35704.21    2639.5018   -38343.712    55.163512    238.61443 
   12150    135.59709   -646.49269    135591.41   -35720.007    2615.5081   -38335.515    55.324006    236.44537 
   12200    134.88996   -836.52173     135630.2   -35677.493    2601.8684   -38279.362    55.441185    235.21232 
   12250    139.08184   -513.95506    135588.87   -35691.154    2682.7249   -38373.879    55.614828    242.52186 
   12300    136.57669   -848.26955    135618.03   -35690.546    2634.4034   -38324.949    55.877575    238.15353 
   12350    136.49965   -997.12539    135599.72   -35744.672    2632.9174    -38377.59    56.037966     238.0192 
   12400    137.76556   -535.09083    135522.68   -35705.074    2657.3354   -38362.409    56.075954    240.22661 
   12450    137.89163   -645.24941    135569.53   -35715.756    2659.7672   -38375.523    56.226812    240.44645 
   12500    136.35906   -593.64298     135503.9   -35703.904    2630.2056   -38334.109     56.46326    237.77404 
   12550    137.73552   -422.76691    135488.06   -35683.273    2656.7558   -38340.029    56.806448    240.17422 
   12600    135.90047   -498.99357     135497.7   -35669.874      2621.36   -38291.234    57.138952    236.97438 
   12650    136.26673   -690.00563     135450.6   -35689.014    2628.4246   -38317.439     57.30886    237.61304 
   12700    137.25668   -545.99531    135488.74   -35668.378    2647.5197   -38315.898    57.534569    239.33926 
   12750    134.72176     -711.291    135571.94   -35700.514     2598.624   -38299.138    57.609185    234.91903 
   12800    135.68016   -624.38013    135517.59   -35733.717    2617.1104   -38350.827    57.574687    236.59022 
   12850     138.7411   -769.84404    135526.25    -35760.46    2676.1524   -38436.612     57.58552    241.92769 
   12900    133.49169   -1096.3909    135562.59   -35741.478    2574.8973   -38316.375    57.739413     232.7741 
   12950    134.81537   -838.29693    135517.96   -35772.282    2600.4297   -38372.712    57.789523    235.08226 
   13000    136.49576   -544.21639    135549.01   -35797.505    2632.8424   -38430.347    57.918367    238.01241 
   13050    136.30926   -721.56675    135513.82   -35779.044     2629.245   -38408.289    57.878215     237.6872 
   13100    135.30294   -806.26169    135475.71     -35722.2    2609.8344   -38332.034    57.807795    235.93246 
   13150    137.90689   -518.66118    135394.49    -35697.58    2660.0614   -38357.641    58.094253    240.47305 
   13200      136.828   -623.97374    135489.73   -35695.752     2639.251   -38335.002     58.36372    238.59175 
   13250    138.13005   -734.41508    135480.67   -35700.117    2664.3659   -38364.483    58.514395    240.86218 
   13300     139.8515   -789.17007    135472.03   -35691.229    2697.5707     -38388.8    58.553074    243.86394 
   13350    136.64015   -748.08618    135448.73    -35707.43    2635.6275   -38343.058    58.622536    238.26419 
   13400    140.28669   -636.53217    135410.89   -35704.374    2705.9649   -38410.339    58.728245    244.62279 
   13450    138.77818   -676.26948    135441.95   -35731.187    2676.8676   -38408.054    59.197691    241.99235 
   13500     138.2131   -367.61432       135445   -35678.173    2665.9679   -38344.141     59.35512    241.00701 
   13550    138.92312   -723.45964    135482.96   -35679.359    2679.6634   -38359.022    59.564387    242.24509 
   13600    135.58182    -453.0524     135529.8   -35692.989    2615.2135   -38308.202    59.715265    236.41874 
   13650    138.50206   -885.80188    135484.81   -35696.712    2671.5415   -38368.254    59.722053    241.51086 
   13700    135.97548   -406.49296    135453.04    -35660.27    2622.8069   -38283.076    59.992637    237.10519 
   13750    138.93379   -827.45838    135484.64   -35685.104    2679.8691   -38364.973    60.145189    242.26368 
   13800    134.14611   -631.38392    135420.38   -35719.152    2587.5204   -38306.672    60.211304    233.91524 
   13850    138.43526   -705.41683    135359.16   -35704.784    2670.2532   -38375.037    60.148642    241.39439 
   13900    136.60147   -772.52042    135318.07   -35698.157    2634.8815   -38333.038    60.109037    238.19675 
   13950    136.25013   -627.60161    135336.46   -35699.966    2628.1044    -38328.07    60.152758    237.58409 
   14000    137.40287   -863.37733    135463.36   -35682.277    2650.3395   -38332.616    60.221778    239.59418 
   14050    136.44298    -952.1308    135397.34   -35672.699    2631.8244   -38304.523    60.335649    237.92038 
   14100    136.65145   -337.13084    135420.37   -35726.126    2635.8455   -38361.971    60.479147     238.2839 
   14150    135.83908   -700.12775    135531.02   -35715.401    2620.1757   -38335.576    60.695567    236.86733 
   14200    138.22899   -855.46837    135545.68   -35710.602    2666.2744   -38376.876    61.089381    241.03471 
   14250    135.80479    -598.4196    135524.83   -35724.392    2619.5144   -38343.906    61.080882    236.80754 
   14300    137.08814   -737.70213    135467.22   -35705.532    2644.2687     -38349.8    61.413203    239.04537 
   14350    137.77944    -602.5279    135491.06   -35666.327    2657.6032    -38323.93    61.798612    240.25082 
   14400     135.4744    -683.6806    135499.53   -35673.041    2613.1416   -38286.183    61.877873    236.23143 
   14450    139.35909   -444.12438    135551.74   -35644.584    2688.0726   -38332.656    61.876856     243.0053 
   14500    135.55055   -696.74049    135556.38   -35637.975    2614.6104   -38252.585    62.029338    236.36422 
   14550     137.5239   -572.00741    135492.44   -35586.547    2652.6739   -38239.221    62.191665    239.80521 
   14600    136.41535   -574.00497    135510.31   -35663.244    2631.2914   -38294.535    62.407016     237.8722 
   14650    138.44599   -599.10933    135562.61   -35589.691    2670.4601   -38260.151    62.455383     241.4131 
   14700    137.52596   -520.89928    135567.36   -35609.807    2652.7137   -38262.521    62.619141     239.8088 
   14750    139.41253   -460.36774    135593.62   -35598.333    2689.1035   -38287.437     62.80558    243.09849 
   14800     139.6461   -853.04004    135603.21   -35559.581    2693.6087   -38253.189    62.963372    243.50577 
   14850    139.12827   -691.04087    135569.57    -35562.55    2683.6203    -38246.17    63.198623    242.60281 
   14900    137.68149   -767.21823    135559.18   -35584.413    2655.7137   -38240.127    63.521185    240.08001 
   14950    139.59014   -635.43788    135620.81   -35601.956    2692.5293   -38294.486    63.538543    243.40819 
   15000    135.59587   -710.16366    135737.95   -35642.527    2615.4846   -38258.012    63.656926    236.44324 
   15050    133.17304   -1000.6241     135772.8   -35649.758    2568.7511    -38218.51    63.789942    232.21848 
   15100     137.0588   -791.58624    135739.26   -35634.998    2643.7028   -38278.701    63.773502    238.99421 
   15150     132.5934   -997.25869     135726.9   -35606.537    2557.5705   -38164.108    64.055402    231.20774 
   15200    136.67218   -829.94276    135613.15   -35614.284    2636.2454   -38250.529    64.168317    238.32005 
   15250    138.08355   -741.91139    135590.14   -35551.356     2663.469   -38214.825     64.41337     240.7811 
   15300    136.67797     -921.966    135504.78   -35582.222    2636.3571   -38218.579    64.729212    238.33015 
   15350    138.07947   -931.29303    135397.12   -35626.001    2663.3902   -38289.391    64.957703    240.77397 
   15400      135.956   -780.26296    135338.26   -35649.655    2622.4311   -38272.086    65.133571    237.07122 
   15450    135.76342   -996.85327    135364.39   -35614.294    2618.7164    -38233.01    65.073533     236.7354 
   15500    138.00097   -770.87361    135382.87    -35622.35    2661.8762   -38284.226    65.160591    240.63711 
   15550    139.38712   -703.12915    135363.29    -35604.27    2688.6134   -38292.884    65.262264    243.05418 
   15600    137.10592   -1085.6449    135297.08   -35622.905    2644.6117   -38267.516    65.686317    239.07637 
   15650    139.43845   -749.40945    135237.02   -35546.195    2689.6034   -38235.799    66.015015    243.14368 
   15700    138.24621   -1141.1109    135124.68   -35536.765    2666.6065   -38203.372     66.30445    241.06473 
   15750    139.39502   -880.92211    135054.89   -35565.846    2688.7657   -38254.612    66.341679    243.06796 
   15800    137.59129   -668.63906    135070.94    -35600.86    2653.9739   -38254.834    66.513745    239.92273 
   15850     139.3026   -445.41178    135112.84   -35579.554     2686.983   -38266.537    66.757465     242.9068 
   15900    138.21084   -732.00009    135193.83   -35600.383    2665.9242   -38266.308    67.007385    241.00305 
   15950     137.4483    -705.6861    135139.22   -35622.891    2651.2158   -38274.107     67.31833    239.67339 
   16000    137.68493   -575.18941    135160.08   -35574.017    2655.7801   -38229.797    67.555894    240.08601 
   16050     138.1528   -656.64454     135237.3   -35542.195    2664.8047       -38207    67.695917    240.90184 
   16100    136.63831   -610.91165    135308.01   -35595.067    2635.5921   -38230.659    67.732551    238.26099 
   16150    137.92981   -890.17662    135358.01   -35567.954    2660.5036   -38228.458    68.029848    240.51302 
   16200    141.18061    -725.5476    135388.82   -35468.217    2723.2076   -38191.424    68.463966    246.18155 
   16250    137.46716   -1043.1087    135371.72   -35515.864    2651.5796   -38167.443    68.521174    239.70628 
   16300    138.35212   -718.18828    135391.58   -35571.983    2668.6494   -38240.633    68.518304    241.24942 
   16350    137.86492   -1020.7209    135337.54   -35593.298    2659.2519    -38252.55    68.658082    240.39987 
   16400    136.67801   -768.23126    135238.49   -35614.015    2636.3578   -38250.373    68.875434    238.33021 
   16450    136.97512   -739.32119    135211.91   -35614.443    2642.0887   -38256.532    68.947242    238.84829 
   16500     136.9491   -493.92472    135203.77   -35650.949    2641.5868   -38292.536    69.123058    238.80292 
   16550    135.67025   -952.83553    135135.88   -35643.494    2616.9192   -38260.414    69.131311    236.57294 
   16600    139.78468   -454.82494    135135.21   -35669.925    2696.2817   -38366.206    69.463382    243.74741 
   16650    137.74436   -799.06391    135113.26   -35737.428    2656.9265   -38394.354    69.632522    240.18965 
   16700    136.55683   -736.47193    135067.49   -35738.299    2634.0205    -38372.32    69.538358    238.11891 
   16750    136.61965    -653.7216    135106.46   -35733.809     2635.232   -38369.041    69.624859    238.22844 
   16800    135.49636    -776.8595     135046.9   -35748.962    2613.5651   -38362.527    69.815912    236.26972 
   16850    136.96225   -806.67621    135075.57   -35782.938    2641.8405   -38424.778    70.153038    238.82585 
   16900      136.158   -941.13435    134971.94   -35781.872    2626.3275   -38408.199    70.617654    237.42345 
   16950    135.46095   -796.57357    134928.98   -35767.705    2612.8822   -38380.587    70.960065    236.20798 
   17000    138.48755   -703.86702    135029.12   -35730.649    2671.2617   -38401.911    71.205775    241.48557 
   17050    137.75932   -462.23067    135123.29   -35710.245     2657.215    -38367.46    71.175358    240.21573 
   17100    137.29908   -592.77579    135194.34   -35681.942    2648.3376    -38330.28    71.323438     239.4132 
   17150    138.24319   -820.71206    135185.29   -35657.767    2666.5483   -38324.316     71.51604    241.05947 
   17200    136.60039   -942.83779    135208.86   -35646.809    2634.8606   -38281.669    71.806549    238.19486 
   17250    137.60761   -299.74672     135297.1   -35621.273    2654.2888   -38275.562    72.130644    239.95119 
   17300    137.05147   -579.86847    135410.93   -35673.496    2643.5613   -38317.057    72.432664    238.98142 
   17350    136.95047   -765.00227    135462.33   -35693.011    2641.6132   -38334.624    72.578159    238.80531 
   17400     137.3794   -600.46491    135525.96   -35685.406    2649.8868   -38335.293    72.512018    239.55325 
   17450    138.26708   -599.58896    135503.49   -35668.615    2667.0091   -38335.624    72.466763    241.10113 
   17500    138.34661   -583.85478    135521.22   -35687.091    2668.5431   -38355.634    72.399962    241.23981 
   17550    140.55148    -844.9562    135486.41   -35646.391    2711.0725   -38357.463     72.54859    245.08452 
   17600    140.68848   -580.87583    135519.04   -35655.738    2713.7151   -38369.453    72.954346    245.32341 
   17650    137.89733   -575.07714    135500.13   -35677.713    2659.8771    -38337.59    73.146834    240.45639 
   17700    137.92598   -996.62722    135422.37   -35636.299    2660.4297   -38296.729    73.416831    240.50634 
   17750    138.39384   -607.75638    135412.25   -35652.665     2669.454    -38322.12    73.517048    241.32215 
   17800    139.42264   -765.55236     135440.7   -35667.111    2689.2985    -38356.41    73.704131    243.11612 
   17850    139.65962   -775.53823    135396.57   -35723.114    2693.8695   -38416.983    73.572387    243.52934 
   17900    137.10133   -816.98629    135453.76   -35718.758     2644.523   -38363.281    73.560419    239.06836 
   17950    138.27947   -1001.5513    135408.71   -35663.722    2667.2481    -38330.97    73.695752    241.12274 
   18000    138.31326   -768.67996    135386.83    -35699.13    2667.8998    -38367.03    74.014704    241.18165 
   18050    138.09372   -751.65461    135333.16   -35683.896    2663.6652   -38347.561    74.017378    240.79883 
   18100    135.94427   -1044.6771       135357   -35681.302    2622.2048   -38303.507    73.938128    237.05076 
   18150    139.69519   -771.18281    135319.08   -35688.074    2694.5557   -38382.629    74.004849    243.59137 
   18200    137.45114   -634.85846     135350.4   -35662.332    2651.2705   -38313.602    74.042523    239.67833 
   18250    136.91735   -645.59879    135308.87   -35680.553    2640.9743   -38321.527    74.230829    238.74755 
   18300    136.30285   -632.61341     135318.9    -35692.32    2629.1213   -38321.442    74.111177    237.67602 
   18350    135.91038   -494.12763    135335.09    -35692.57    2621.5512   -38314.122    74.288839    236.99167 
   18400    136.16805   -658.19086    135290.33   -35697.932    2626.5213   -38324.454    74.085826    237.44098 
   18450    135.84486   -532.34448    135371.73   -35759.499    2620.2873   -38379.786    74.194051    236.87742 
   18500    133.16635   -732.74144    135378.12   -35782.145     2568.622   -38350.767    74.280051    232.20681 
   18550    134.17885   -650.61501    135292.64    -35751.76     2588.152   -38339.912    74.428308    233.97234 
   18600    135.90765   -784.01596    135254.29   -35751.208    2621.4984   -38372.706    74.576882     236.9869 
   18650    136.68823   -531.86849    135245.24   -35739.714    2636.5549   -38376.269    74.696156    238.34803 
   18700    134.71996   -711.23585    135206.51   -35768.422    2598.5892   -38367.011    74.628407    234.91588 
   18750     134.7215   -733.24144    135196.58   -35782.569     2598.619   -38381.188    74.551904    234.91857 
   18800    135.25209   -886.41013    135100.88   -35740.741    2608.8535   -38349.595    74.748938    235.84378 
   18850    136.70482   -664.16769    135008.83   -35719.928    2636.8749   -38356.803    74.963781    238.37696 
   18900    134.64643   -690.81229    134992.01   -35727.437     2597.171   -38324.608    75.064845    234.78767 
   18950     134.3437   -717.89417    135018.12   -35683.861    2591.3316   -38275.193    75.184453    234.25978 
   19000     136.1997   -761.68669    135018.01   -35695.131    2627.1317   -38322.262    75.324825    237.49616 
   19050    140.28062    -672.1455    135057.22   -35705.746     2705.848   -38411.594    75.530433    244.61221 
   19100     137.2653   -893.86432    135007.07   -35727.755     2647.686   -38375.441    75.633522    239.35429 
   19150    137.47068   -707.67933    134964.39   -35696.346    2651.6474   -38347.993    75.905038    239.71241 
   19200     136.1354    -654.1085    134901.93   -35678.422    2625.8915   -38304.314    76.203469    237.38404 
   19250    137.72767   -568.30579    134961.33    -35685.61    2656.6045   -38342.214    76.431399    240.16054 
   19300    138.16939   -612.20872    134973.35   -35641.756    2665.1247   -38306.881     76.78363    240.93078 
   19350    139.24917   -424.91059    135009.42   -35622.029    2685.9524   -38307.981    76.963186    242.81363 
   19400    138.62894   -685.61665    134939.77   -35663.249    2673.9889   -38337.238    77.196183    241.73211 
   19450    137.17152   -862.55926    134869.48   -35650.763     2645.877    -38296.64    77.547092    239.19076 
   19500    136.39515   -600.82706    134834.73   -35635.141    2630.9018   -38266.043    77.818719    237.83698 
   19550    135.96043   -518.94337    134843.37   -35686.873    2622.5164    -38309.39    77.913638    237.07893 
   19600    137.36894   -755.82131    134863.49   -35684.249    2649.6849   -38333.934    78.272093      239.535 
   19650    134.91097   -494.38595    134853.15   -35713.241    2602.2736   -38315.514    78.300073    235.24895 
   19700    135.56718   -584.24786    134906.48   -35697.829    2614.9312    -38312.76    78.434817    236.39322 
   19750    136.35494   -656.06843    134919.74   -35685.655    2630.1261   -38315.781    78.662515    237.76686 
   19800    136.21198   -417.01643     134961.9   -35698.684    2627.3686   -38326.052    78.762694    237.51757 
   19850    137.61819   -528.37193    135085.23   -35708.896    2654.4928   -38363.388    78.650189    239.96964 
   19900    135.16901   -705.80534    135155.32   -35702.743     2607.251   -38309.994    79.006217    235.69892 
   19950    139.00374    -746.5543     135182.5   -35702.989    2681.2183   -38384.207    78.994125    242.38566 
   20000    138.98713   -577.61952    135187.99   -35709.529    2680.8979   -38390.427    79.049386    242.35669 
   20050    136.29576   -671.80339     135282.1   -35741.125    2628.9846   -38370.109    79.359843    237.66366 
   20100    135.57883   -544.54275    135230.31   -35748.896    2615.1559   -38364.052    79.599541    236.41353 
   20150    135.43651   -478.54724    135286.96   -35814.622    2612.4108   -38427.033    79.922688    236.16537 
   20200    136.66366   -577.67082    135328.72   -35743.471     2636.081   -38379.552    80.189843    238.30519 
   20250    136.71337   -499.59185    135431.75   -35753.982    2637.0399   -38391.022    80.350484    238.39187 
   20300    137.10798   -673.21414    135491.42   -35703.435    2644.6514   -38348.087     80.65304    239.07996 
   20350    136.52608   -368.84346    135516.51   -35723.342    2633.4273   -38356.769     80.83549    238.06529 
   20400    134.82562   -558.02672    135542.12   -35753.459    2600.6274   -38354.086    81.025212    235.10014 
   20450    138.53534   -657.26075    135577.73   -35726.834    2672.1836   -38399.017    81.185761    241.56891 
   20500    141.40583    -442.8298     135616.2   -35652.634    2727.5518   -38380.186    81.236213    246.57427 
   20550    138.17318   -713.85269    135707.77   -35683.464    2665.1979   -38348.662    81.273258    240.93739 
   20600    140.37667   -542.83737    135801.06     -35674.7    2707.7005   -38382.401    81.500929    244.77969 
   20650    136.58004   -720.05502    135840.88   -35705.943     2634.468   -38340.411    81.831886    238.15937 
   20700    136.26697   -731.17936    135820.51   -35674.852    2628.4293   -38303.282    81.976672    237.61346 
   20750     137.7623   -666.23265    135888.48   -35661.881    2657.2725   -38319.153    81.787878    240.22093 
   20800    140.04835   -604.92616    135883.99   -35631.046    2701.3676   -38332.414    82.033011    244.20718 
   20850    140.29154   -806.40922    135863.85   -35649.434    2706.0585   -38355.493    82.236268    244.63125 
   20900    137.86883   -715.51637    135892.61   -35694.077    2659.3272   -38353.404    82.400834    240.40668 
   20950    137.29441    -800.5153    135864.05   -35682.249    2648.2475   -38330.496    82.689621    239.40505 
   21000    141.49762   -489.88399    135841.12   -35641.132    2729.3223   -38370.454    82.689425    246.73432 
   21050    140.48019   -670.42773    135944.47   -35660.623    2709.6973    -38370.32     82.86831    244.96019 
   21100    136.22015   -921.82816    135976.91   -35707.453    2627.5261   -38334.979    83.145384    237.53182 
   21150    136.31647   -854.27709    135970.27   -35733.689    2629.3841   -38363.073    83.292491    237.69978 
   21200    134.51672    -804.0958    135922.38   -35734.273    2594.6691   -38328.942    83.562083     234.5615 
   21250    137.49703   -758.71899    135857.82   -35709.967    2652.1556   -38362.122    83.844133    239.75836 
   21300    137.67536   -655.76218    135890.62    -35745.76    2655.5955   -38401.356     83.80907    240.06932 
   21350    137.28657   -797.07847    135886.53   -35682.536    2648.0962   -38330.632    83.915516    239.39137 
   21400    135.66987   -497.70699    135910.08    -35708.56    2616.9119   -38325.472    83.962629    236.57227 
   21450    136.11824   -588.53894    135925.52   -35714.408    2625.5604   -38339.968    83.856621    237.35411 
   21500    136.12785   -614.41576    135978.64   -35673.124    2625.7459   -38298.869    83.891523    237.37088 
   21550    137.50838   -659.78226    135978.51   -35681.299    2652.3747   -38333.674    84.017398    239.77816 
   21600    137.53024   -877.84745    135971.75   -35711.488    2652.7963   -38364.285    84.255577    239.81627 
   21650    138.22468   -792.73576    135812.74   -35669.236    2666.1911   -38335.427    84.009726    241.02718 
   21700    140.70151   -576.53369    135673.73   -35627.187    2713.9663   -38341.153    84.224617    245.34612 
   21750    139.55044   -623.44559     135637.5   -35678.367    2691.7636   -38370.131    84.322744    243.33896 
   21800    136.70284   -719.89237    135633.15   -35644.891    2636.8367   -38281.727     84.59086     238.3735 
   21850    137.59449   -759.83785    135587.78    -35657.79    2654.0356   -38311.826    84.740012    239.92831 
   21900    136.63906   -678.18816    135588.27   -35681.901    2635.6065   -38317.508    85.199466    238.26229 
   21950     138.3623    -680.8218    135601.71   -35674.204    2668.8458    -38343.05     85.24702    241.26717 
   22000    137.31337   -1001.7407    135509.25   -35661.037    2648.6132    -38309.65    85.436083    239.43811 
   22050    138.45802   -654.87888    135441.16   -35600.783    2670.6921   -38271.475    85.673934    241.43407 
   22100    136.91051   -733.72639    135484.61   -35674.851    2640.8425   -38315.694    85.671085    238.73563 
   22150    137.48799   -623.31076    135459.58   -35683.211    2651.9814   -38335.192    85.868487     239.7426 
   22200    134.27485   -549.54909     135525.7   -35708.648    2590.0036   -38298.652    86.038513    234.13973 
   22250    139.40068   -694.64356    135564.12   -35669.256     2688.875   -38358.131    86.261414    243.07783 
   22300    135.89648    -485.3817    135491.81    -35689.16    2621.2829   -38310.443     86.32623    236.96742 
   22350    134.61077   -778.59279    135524.01   -35669.499    2596.4832   -38265.983    86.741415    234.72549 
   22400    137.15448   -747.99821     135483.5   -35624.006    2645.5484   -38269.554    86.913594    239.16105 
   22450     138.7306   -515.67295     135590.3   -35606.194    2675.9499   -38282.144    87.104865    241.90939 
   22500    139.01723   -676.20707    135631.07   -35602.543    2681.4786   -38284.022    87.115811    242.40919 
   22550    137.23403   -688.12182    135694.31    -35679.63    2647.0827   -38326.713    87.252297    239.29975 
   22600     137.2593   -568.34787    135645.82   -35647.384    2647.5702   -38294.954    87.396263    239.34382 
   22650    136.89086   -602.70701    135630.85   -35656.195    2640.4634   -38296.658    87.368608    238.70136 
   22700    137.08415   -572.06892    135649.33   -35721.829    2644.1917   -38366.021    87.764459     239.0384 
   22750     138.6542   -569.47956    135654.94   -35753.267    2674.4762   -38427.743    88.094121    241.77617 
   22800    137.37968   -711.41065    135674.43   -35754.268    2649.8922    -38404.16    88.073245    239.55374 
   22850    137.84802   -731.07547    135702.11   -35754.399    2658.9259   -38413.325    88.349781     240.3704 
   22900    137.30431   -687.19908    135636.97   -35743.994    2648.4384   -38392.432     88.50985    239.42231 
   22950    138.27109   -647.89778    135660.67   -35765.743    2667.0864   -38432.829    88.629439    241.10812 
   23000    137.58517   -474.61021    135715.31   -35761.588    2653.8558   -38415.443     88.76661    239.91206 
   23050    136.12838   -795.82572    135791.52   -35783.877    2625.7561   -38409.634    88.877783     237.3718 
   23100    136.67642    -643.9035       135784   -35789.197    2636.3272   -38425.524    89.054743    238.32744 
   23150     136.3163   -670.77831    135737.99   -35800.761    2629.3807   -38430.142    89.217801    237.69947 
   23200    134.84393   -583.75298    135729.15   -35760.206    2600.9805   -38361.186    89.203329    235.13205 
   23250    138.28905   -548.51206    135738.88   -35757.555    2667.4328   -38424.988    89.515877    241.13943 
   23300    138.67083   -707.48316    135785.58   -35686.666     2674.797   -38361.463    89.685037    241.80516 
   23350    138.49771   -434.75748     135764.4   -35687.014    2671.4577   -38358.472    89.605282    241.50329 
   23400    139.20251   -765.67577    135886.18   -35684.369    2685.0524   -38369.422    89.666636    242.73227 
   23450    138.98923   -825.81362    135886.31   -35691.444    2680.9384   -38372.382    89.658236    242.36036 
   23500     138.7207   -625.45567     135897.5   -35671.221    2675.7588    -38346.98    89.666093    241.89212 
   23550    134.84967   -756.11863    135878.64   -35655.776    2601.0913   -38256.867    89.951769    235.14207 
   23600    141.73954   -418.85167    135937.67   -35638.898    2733.9888   -38372.887    89.968815    247.15618 
   23650    136.26286   -717.28414    135905.84   -35688.418    2628.3499   -38316.768    90.291818    237.60629 
   23700     135.9878   -754.29257    135777.42   -35712.006    2623.0445    -38335.05    90.267194    237.12667 
   23750    139.55926   -677.38904    135751.59   -35671.743    2691.9337   -38363.677    90.195347    243.35435 
   23800    138.45461    -568.9643     135736.3   -35627.228    2670.6262   -38297.855    90.405118    241.42812 
   23850    136.24733   -733.52301    135692.07    -35642.11    2628.0505    -38270.16    90.947328    237.57922 
   23900      139.376   -749.24318    135577.84   -35622.164    2688.3989   -38310.563     91.27289     243.0348 
   23950    136.93655   -989.97801    135563.01   -35646.119    2641.3448   -38287.463    91.819274    238.78104 
   24000    139.57576   -841.08894    135481.91   -35609.527     2692.252   -38301.779    92.228993    243.38312 
   24050    138.60978   -987.66631    135339.67   -35634.144    2673.6194   -38307.763    92.532612    241.69871 
   24100    137.17477   -620.84474    135334.38   -35654.525    2645.9397   -38300.465    92.876232    239.19643 
   24150     138.7568   -797.81829    135373.35    -35613.58    2676.4552   -38290.035    93.034539    241.95507 
   24200    138.57752   -773.43297    135461.88   -35664.716    2672.9971   -38337.713    93.218942    241.64245 
   24250    138.18992   -688.94138    135479.32   -35636.592    2665.5208   -38302.113    93.155568    240.96659 
   24300    139.38544   -534.01864    135414.76   -35645.893    2688.5809   -38334.474    93.175909    243.05125 
   24350    138.08902   -545.95557    135501.18   -35604.452    2663.5746   -38268.027    93.340089    240.79064 
   24400    135.63034   -743.51977    135463.29   -35620.937    2616.1494   -38237.086    93.568121    236.50335 
   24450     138.0287    -794.6391    135444.09   -35600.588    2662.4109   -38262.999    93.909632    240.68545 
   24500    134.54746   -785.71685    135449.35   -35657.038     2595.262     -38252.3    94.050835    234.61509 
   24550    136.17639   -900.76587    135318.43   -35633.503    2626.6822   -38260.185    94.200657    237.45552 
   24600    141.29692   -698.98635    135312.15   -35641.221    2725.4512   -38366.672    94.549644    246.38437 
   24650    136.79067   -719.03967    135284.56   -35668.627    2638.5309   -38307.158    94.961005    238.52666 
   24700    138.20523    -788.3169    135119.17   -35604.008     2665.816   -38269.824    95.053449    240.99327 
   24750    137.33096   -472.65578    135077.13   -35656.212    2648.9525   -38305.165    95.193737    239.46878 
   24800    137.27614   -770.05843    135013.67   -35591.229     2647.895   -38239.124    95.558452    239.37318 
   24850    139.90924   -394.24118    135039.38   -35586.596    2698.6843    -38285.28    95.721304    243.96461 
   24900    138.76654   -559.43117    135015.64   -35595.139    2676.6432   -38271.782    95.921281    241.97206 
   24950    137.19987   -555.71828     135029.6   -35586.271    2646.4239   -38232.695    96.186457    239.24019 
   25000    141.33588   -522.71742    135051.97   -35543.679    2726.2026   -38269.882      96.4538     246.4523 
   25050    141.72587   -652.07926    135048.49   -35497.677    2733.7251   -38231.402    96.777577    247.13234 
   25100    138.58998   -434.57357    135011.44   -35544.702    2673.2375   -38217.939    97.008643    241.66418 
   25150    142.55199   -410.60392    135092.13   -35542.291    2749.6599   -38291.951    97.092047    248.57287 
   25200    139.18414   -850.02202    135094.87   -35490.907     2684.698   -38175.605    97.280222    242.70023 
   25250    142.79191   -676.89622    135040.77   -35477.635    2754.2878   -38231.923    97.481748    248.99123 
   25300    139.01459    -431.3448    135053.73   -35501.647    2681.4276   -38183.075    97.612536    242.40458 
   25350    142.22488   -737.41214    135081.04   -35470.566    2743.3505   -38213.917    97.832582    248.00249 
   25400    139.96935   -713.78043    135026.39   -35482.611     2699.844   -38182.455    98.006488    244.06944 
   25450    137.87581   -681.08141    135036.47   -35505.358     2659.462    -38164.82    98.022833    240.41886 
   25500    141.43046   -552.90852    135114.04   -35452.444     2728.027   -38180.471     98.12868    246.61722 
   25550    140.49796   -815.74294    135014.26   -35462.257    2710.0402   -38172.297    98.416213    244.99119 
   25600     140.5393   -551.11569    135008.02   -35473.886    2710.8375   -38184.723     98.69694    245.06327 
   25650    140.92018   -593.26555    135088.86   -35487.158    2718.1843   -38205.343     99.24097    245.72743 
   25700    141.78268   -680.32908    135048.81   -35553.099    2734.8209   -38287.919    99.689345     247.2314 
   25750    137.04096   -635.12444    135052.58   -35572.551    2643.3586   -38215.909    99.834196    238.96309 
   25800    141.89541   -767.57588    135012.88   -35566.031    2736.9954   -38303.026    100.08516    247.42798 
   25850    141.75186   -436.93254    135020.67   -35563.036    2734.2263   -38297.262    100.36606    247.17765 
   25900    140.70926   -589.53975    134965.65   -35578.019    2714.1159   -38292.135    100.40141    245.35964 
   25950    139.43205   -877.90663    134871.76   -35601.022    2689.4801   -38290.502    100.75778    243.13253 
   26000     138.9504   -699.71855    134817.71   -35590.266    2680.1895   -38270.455    101.10045    242.29265 
   26050     137.6573    -523.1742    134799.57    -35532.48     2655.247   -38187.728    101.30014    240.03782 
   26100     142.8792   -820.20944    134739.82   -35503.929    2755.9715     -38259.9    101.37476    249.14345 
   26150    140.34165   -437.45516    134799.32   -35533.915    2707.0252    -38240.94    101.57206    244.71863 
   26200    138.93604   -731.50351    134885.83   -35547.006    2679.9125   -38226.918    101.82439    242.26761 
   26250    137.80176   -666.80795     134904.7    -35569.67    2658.0336   -38227.704    101.99959    240.28973 
   26300    136.68532   -581.67791    134918.11   -35618.896    2636.4988   -38255.395    101.97343    238.34295 
   26350     139.6733   -516.73841     134939.8   -35632.685    2694.1334   -38326.819    102.21377     243.5532 
   26400    136.09719     -600.992    134948.82   -35647.802    2625.1545   -38272.957     102.3885    237.31742 
   26450     136.5304   -597.68006    134953.71   -35651.902    2633.5106   -38285.413    102.76856    238.07282 
   26500    136.79691   -352.33583    134973.61   -35625.177    2638.6513   -38263.828    102.96149    238.53754 
   26550    137.18084   -721.66513    134925.37   -35604.175    2646.0568   -38250.232    103.11615    239.20702 
   26600    138.97586    -614.6591    134862.79   -35586.139    2680.6807    -38266.82    103.09558    242.33706 
   26650    138.44878   -214.56286    134900.24   -35580.207    2670.5138   -38250.721    103.21295    241.41795 
   26700    138.71088   -554.88283    134983.38   -35595.523    2675.5695   -38271.092    103.25867      241.875 
   26750    137.31294   -631.80108    135053.08    -35609.07    2648.6049   -38257.675    103.38593    239.43736 
   26800     136.3684   -705.59065    134983.78    -35614.57    2630.3858   -38244.955    103.50683    237.79033 
   26850    135.51015   -806.92468     134976.3   -35637.011    2613.8312   -38250.842    103.53228    236.29378 
   26900    139.12035   -829.53236    134883.21   -35598.268    2683.4676   -38281.735    103.65205      242.589 
   26950     138.6398   -962.10659    134726.91   -35618.049    2674.1984   -38292.248    103.94832    241.75105 
   27000    136.33908   -658.20562    134702.21   -35593.062    2629.8202   -38222.882    104.21946    237.73921 
   27050    137.59643   -615.14131    134682.03   -35585.272     2654.073   -38239.345    104.42038    239.93169 
   27100    137.55903   -667.32901    134636.75   -35568.184    2653.3516   -38221.535    104.51614    239.86647 
   27150    138.96483   -733.80673    134566.78    -35549.24    2680.4679   -38229.708    105.00851    242.31782 
   27200    137.97396   -563.32209       134508   -35572.261    2661.3552   -38233.616     105.4714    240.59001 
   27250    138.04382   -472.13003    134489.85   -35633.645    2662.7026   -38296.348    105.51925    240.71181 
   27300    135.75587   -442.83253    134622.58   -35665.914    2618.5708   -38284.485    105.65461    236.72224 
   27350     137.2888   -622.24865    134716.84   -35613.412    2648.1392   -38261.551    105.56393    239.39526 
   27400    135.58173   -682.38373    134781.85    -35634.24    2615.2119   -38249.452    105.68465    236.41859 
   27450    137.00672   -484.89106    134843.85   -35624.723    2642.6982   -38267.422    105.80735    238.90339 
   27500    136.39782   -623.24375    135008.98   -35593.301    2630.9533   -38224.254    105.93176    237.84163 
   27550    139.94867   -584.49864    135069.66   -35568.208     2699.445   -38267.653     106.0074    244.03338 
   27600    141.06673   -726.31928    135118.78    -35626.62     2721.011   -38347.631    106.34501    245.98297 
   27650     138.2588   -672.58659    135150.77   -35682.929    2666.8493   -38349.778     106.7457    241.08669 
   27700    138.11097   -597.68078    135126.07   -35607.147    2663.9979   -38271.145    106.73765    240.82891 
   27750    137.82215   -440.72448    135176.34   -35634.649    2658.4268   -38293.076    106.84248    240.32528 
   27800    134.77805   -721.79369    135284.13   -35690.457    2599.7099   -38290.167    107.17061    235.01719 
   27850    137.05466   -713.78136    135439.98   -35697.317    2643.6229    -38340.94    107.13064    238.98698 
   27900    137.31063   -567.63305    135491.62   -35698.105    2648.5603   -38346.665     107.5097    239.43333 
   27950    137.42396   -670.25173    135564.27   -35718.602    2650.7464   -38369.349    107.61154    239.63096 
   28000    138.23292   -836.51669    135612.61   -35729.631    2666.3501   -38395.982    107.66413    241.04155 
   28050     135.8554   -756.47374    135571.58   -35732.873    2620.4906   -38353.363    108.07124    236.89579 
   28100     137.5293   -691.48361    135657.13   -35709.648    2652.7781   -38362.426    107.95345    239.81463 
   28150    136.66223   -737.29695     135617.8   -35706.729    2636.0535   -38342.782    108.20357     238.3027 
   28200    137.87964   -761.77176    135582.36   -35718.521    2659.5359   -38378.056    108.28478    240.42554 
   28250    136.58167   -618.17811    135606.03   -35695.903    2634.4996   -38330.403    108.21583    238.16223 
   28300    135.28613   -908.30442    135571.04   -35749.964      2609.51   -38359.474    108.34343    235.90314 
   28350    136.74455   -664.20765    135486.76   -35746.666    2637.6412   -38384.307    108.75763    238.44623 
   28400    135.85491   -863.14201    135424.09   -35728.658    2620.4812   -38349.139    108.88927    236.89494 
   28450    133.70855   -516.84491    135360.12    -35761.13    2579.0805   -38340.211    109.04639    233.15226 
   28500    136.77935    -522.0216     135350.4   -35766.031    2638.3124   -38404.343    109.04584    238.50691 
   28550    138.54134   -890.77151    135368.98   -35758.149    2672.2993   -38430.448    109.02877    241.57936 
   28600    136.08928    -793.1083    135329.62   -35789.228    2625.0019    -38414.23    109.12342    237.30362 
   28650    137.56453   -625.66628     135300.7   -35762.346    2653.4576   -38415.804    109.36841    239.87606 
   28700     137.7384   -820.09407       135319   -35713.778    2656.8115   -38370.589     109.7099    240.17926 
   28750    137.13523   -897.75207    135252.96   -35739.994     2645.177   -38385.171     109.6841    239.12748 
   28800    138.01491   -610.54671    135267.97   -35747.293     2662.145   -38409.438    109.76198    240.66141 
   28850    135.95321   -821.15605    135264.57   -35773.871    2622.3772   -38396.248    109.67764    237.06634 
   28900    137.41863   -746.10376    135309.41   -35768.955    2650.6434   -38419.598    109.58939    239.62165 
   28950    136.14074   -1043.9282    135230.92   -35780.256    2625.9946   -38406.251    109.68475    237.39336 
   29000    134.81596   -581.02937    135223.18   -35758.616     2600.441   -38359.057    109.71618    235.08328 
   29050    138.05957   -761.02737    135164.25   -35721.407    2663.0065   -38384.413    109.86849    240.73929 
   29100     136.8007   -674.35043    135227.03   -35709.524    2638.7243   -38348.248    110.11146    238.54414 
   29150    141.13136   -471.09122    135194.32    -35675.53    2722.2576   -38397.788    110.21116    246.09567 
   29200    137.47879   -645.05028    135229.56   -35665.436    2651.8038   -38317.239    110.51723    239.72655 
   29250    140.28009   -754.19825    135204.81   -35718.699    2705.8376   -38424.537    110.81161    244.61128 
   29300    137.22452   -733.52077    135144.06    -35691.43    2646.8993   -38338.329    111.20566    239.28318 
   29350    135.71651   -654.06684    135223.77   -35708.365    2617.8116   -38326.177    111.25032    236.65361 
   29400    137.70156   -708.28936    135252.39   -35699.247    2656.1009   -38355.348    111.55759    240.11501 
   29450    138.70882   -575.03849    135366.44   -35675.866    2675.5297   -38351.395    111.88288     241.8714 
   29500     139.4418   -669.66798    135354.87   -35615.185     2689.668   -38304.853    112.22754    243.14952 
   29550    141.90581   -777.89323    135397.53   -35618.273     2737.196   -38355.468    112.39408    247.44611 
   29600    138.83633   -704.11388    135497.18   -35624.571    2677.9892   -38302.561    112.69131    242.09374 
   29650    137.68942   -812.87412    135518.56   -35670.172    2655.8667   -38326.039    112.59804    240.09384 
   29700    137.11068   -622.35758    135552.72   -35678.971    2644.7035   -38323.675    112.94227    239.08467 
   29750    138.58674   -502.59124    135522.24   -35702.206     2673.175   -38375.381    113.12283    241.65853 
   29800    139.55604    -520.4234     135541.7   -35665.683    2691.8716   -38357.555    113.43029    243.34873 
   29850    137.66616   -741.87374    135528.74   -35697.384    2655.4179   -38352.802    113.68408    240.05327 
   29900    137.56723   -611.65878    135514.51   -35734.601    2653.5098   -38388.111    113.59945    239.88077 
   29950    136.31466   -940.75401    135430.14   -35699.816    2629.3491   -38329.165    114.11117    237.69661 
   30000    137.65358   -928.51771    135265.02   -35691.356    2655.1753   -38346.531    114.34097    240.03134 
   30050    134.62792   -608.92973    135287.83   -35692.376    2596.8141    -38289.19    114.64511     234.7554 
   30100    138.36679   -682.45541    135329.18   -35630.594    2668.9324   -38299.526    114.75268      241.275 
   30150     138.7716   -638.03403    135360.98   -35669.896    2676.7406   -38346.636    115.25338    241.98087 
   30200    135.67561   -751.76556     135356.9   -35716.705    2617.0226   -38333.728    115.48444    236.58229 
   30250    138.00701   -671.64818    135360.64   -35661.238    2661.9927   -38323.231    115.60044    240.64764 
   30300    135.86623   -855.65846    135329.12   -35660.897    2620.6996   -38281.597    115.88489    236.91468 
   30350    135.62291   -650.98486    135233.47   -35720.817    2616.0061   -38336.823    116.05205    236.49039 
   30400    136.67663   -753.95929    135161.95   -35703.229    2636.3312    -38339.56    116.30242    238.32781 
   30450    137.90863   -604.29353    135226.21    -35679.64     2660.095   -38339.735    116.53618    240.47609 
   30500    134.30608   -635.41114    135357.47   -35740.424     2590.606    -38331.03    116.56448    234.19419 
   30550    135.11737   -673.04135    135442.01   -35774.868    2606.2548   -38381.122    116.78549    235.60886 
   30600      136.552   -741.45656    135510.54   -35763.282    2633.9271   -38397.209    117.09311    238.11047 
   30650    136.06154   -978.27702     135524.5   -35741.217    2624.4669   -38365.684    117.24646    237.25525 
   30700    134.41719   -709.41819    135544.83    -35730.37    2592.7492   -38323.119    117.14152    234.38794 
   30750    134.71555   -569.10683    135555.75   -35745.332    2598.5042   -38343.836    117.44746     234.9082 
   30800     137.3106   -551.89795    135594.69   -35723.369    2648.5597   -38371.929    117.51755    239.43327 
   30850    136.70649   -471.59915    135601.31   -35734.925    2636.9071   -38371.832      117.741    238.37987 
   30900    137.54703   -655.17135    135625.02   -35720.173    2653.1201   -38373.293    117.91614    239.84555 
   30950    135.28201   -868.06065    135617.82   -35733.033    2609.4307   -38342.464    118.38925    235.89596 
   31000    137.14943   -755.05418    135563.31   -35734.851     2645.451   -38380.302    118.59013    239.15225 
   31050    132.14682   -889.53996    135469.82   -35803.782    2548.9564   -38352.738    119.14834    230.42901 
   31100    134.88706   -543.50794    135479.75   -35752.445    2601.8125   -38354.258    119.72189    235.20727 
   31150    132.97707   -707.57059    135441.64   -35789.158     2564.971   -38354.129    119.88372    231.87675 
   31200    138.18734   -689.56619    135425.27   -35766.851     2665.471   -38432.322     119.9483    240.96208 
   31250    138.27865   -553.86924     135411.9   -35729.586    2667.2323   -38396.818    120.21105    241.12131 
   31300    138.05211   -448.57359    135436.36   -35705.148    2662.8625    -38368.01    120.10229    240.72627 
   31350    136.54764   -695.36568    135424.68   -35715.904    2633.8431   -38349.747    120.33655    238.10288 
   31400     139.1953   -463.42917    135472.81   -35746.018    2684.9134   -38430.931    120.48599     242.7197 
   31450    137.64594   -575.75708    135540.39   -35739.729     2655.028   -38394.757    120.75343    240.01802 
   31500    137.72808   -731.79216    135612.83   -35778.011    2656.6123   -38434.623    120.99073    240.16124 
   31550    134.17491   -583.55638    135552.69   -35825.232    2588.0759   -38413.308    121.06399    233.96546 
   31600    132.75104   -841.47583    135541.86   -35834.193    2560.6111   -38394.804    121.22847    231.48261 
   31650    136.10602   -574.83693     135524.9   -35847.285    2625.3248    -38472.61    121.21353    237.33281 
   31700    136.40181   -456.55323    135635.05   -35848.988    2631.0303   -38480.018    121.45456    237.84859 
   31750     133.6691   -701.97522    135558.58   -35803.549    2578.3195   -38381.868    121.46719    233.08347 
   31800     135.3902   -696.84195    135617.53   -35752.598    2611.5175   -38364.116    121.84713    236.08462 
   31850    137.40526   -595.24846    135597.02   -35725.423    2650.3856   -38375.809     121.7448    239.59834 
   31900    136.52071    -511.1655    135645.03   -35720.702    2633.3236   -38354.026    121.75034    238.05592 
   31950     137.3273    -703.1343    135706.87   -35787.836    2648.8818   -38436.717     121.8191     239.4624 
   32000    136.17078   -582.36302     135706.1    -35771.23     2626.574   -38397.804    122.21642    237.44574 
   32050    138.78478   -548.22719    135804.41   -35735.206    2676.9949   -38412.201    122.37309    242.00386 
   32100    134.54434   -617.09747     135798.4   -35805.025    2595.2017   -38400.227    122.61688    234.60965 
   32150     134.6287   -621.77165    135822.28     -35774.1    2596.8289   -38370.929    122.65138    234.75675 
   32200    138.19677   -674.45982    135796.62   -35711.669    2665.6529   -38377.322    122.58056    240.97852 
   32250    137.91104   -737.12389     135799.9   -35707.041    2660.1415   -38367.183    122.50311    240.48029 
   32300    136.99892    -554.0126    135846.22   -35702.238    2642.5477   -38344.786    122.53653    238.88978 
   32350     140.5791   -714.16016    135812.74   -35703.344    2711.6052   -38414.949    122.44216    245.13268 
   32400    137.59759   -763.04307    135751.96   -35751.805    2654.0953     -38405.9    122.65448    239.93371 
   32450    138.60712   -749.50437    135788.51   -35674.036    2673.5681   -38347.604    123.06381    241.69407 
   32500    137.67478   -966.09968    135724.21   -35688.085    2655.5842   -38343.669    123.38159     240.0683 
   32550    134.20139   -774.92289    135627.32   -35717.123    2588.5866   -38305.709    123.47874    234.01163 
   32600     136.0559   -765.53347    135679.65   -35726.562    2624.3581    -38350.92     123.6633    237.24542 
   32650    138.35314   -844.51463    135626.95   -35753.398     2668.669   -38422.067    123.63507    241.25118 
   32700     135.4984   -749.47401    135629.76   -35793.877    2613.6045   -38407.482    123.85393    236.27328 
   32750    135.78554   -664.18496    135603.76   -35807.902    2619.1431   -38427.045    123.89618    236.77398 
   32800    136.11329   -652.54761    135573.01   -35821.676     2625.465   -38447.142    124.09756    237.34549 
   32850    133.44439   -684.47279     135459.5    -35807.99    2573.9851   -38381.975    124.36875    232.69163 
   32900    137.44943    -524.3276    135572.88   -35822.165    2651.2375   -38473.402    124.24332    239.67536 
   32950    136.71393   -806.77892    135568.78   -35781.409    2637.0506   -38418.459     124.2302    238.39284 
   33000    136.54835   -592.38043    135575.53   -35798.097    2633.8568   -38431.953    124.02916    238.10411 
   33050    135.12813   -585.38981    135587.88   -35816.964    2606.4624   -38423.426    124.06874    235.62763 
   33100    134.45291    -641.6244    135563.97   -35845.686    2593.4383   -38439.124    124.32986    234.45023 
   33150    136.21487   -741.18549    135446.64   -35849.337    2627.4243   -38476.761    124.54893    237.52261 
   33200    133.49288   -998.87239     135408.6   -35879.564    2574.9203   -38454.484    124.57324    232.77618 
   33250    131.67159   -770.48873    135421.08   -35881.095    2539.7899   -38420.885    124.42844    229.60035 
   33300    132.61032   -737.69668    135475.26    -35920.86    2557.8969   -38478.757    124.42693    231.23724 
   33350    137.51233   -466.80397    135609.94   -35867.397    2652.4509   -38519.848    124.42409    239.78504 
   33400    134.00406    -632.3932    135693.44   -35837.584    2584.7803   -38422.364    124.39087    233.66754 
   33450    137.12275   -503.34991    135785.44   -35814.291    2644.9364   -38459.228    124.50678    239.10573 
   33500    135.78185   -766.28953    135835.47   -35806.899    2619.0719    -38425.97    124.61864    236.76754 
   33550       135.58   -716.08928    135808.81   -35774.311    2615.1785    -38389.49    124.77501    236.41557 
   33600    138.91008   -831.60409    135800.66   -35746.422    2679.4118   -38425.834    125.09743    242.22235 
   33650    135.87033   -738.54903    135792.19   -35739.309    2620.7786   -38360.087    125.26141    236.92183 
   33700    136.11836   -417.27333    135824.62   -35763.622    2625.5628   -38389.185    125.42574    237.35432 
   33750    140.04204   -611.24299    135805.07   -35750.686    2701.2459   -38451.932    125.96729    244.19618 
   33800    140.00473   -735.00927    135799.23   -35682.533    2700.5263   -38383.059    126.41701    244.13113 
   33850    135.19993   -538.94453    135827.12   -35716.906    2607.8474   -38324.754    126.41465    235.75283 
   33900    134.07308   -663.80034    135792.18   -35782.109    2586.1117   -38368.221    126.48519     233.7879 
   33950    136.59596   -644.88611    135760.07   -35751.244    2634.7751    -38386.02    126.62975    238.18713 
[...]
   92000    137.13345   -696.54656    136187.25   -35777.068    2645.1427   -38422.211    311.96367    239.12438 
   92050    135.43229   -519.52832    136241.22   -35832.618    2612.3292   -38444.947    311.77591    236.15799 
   92100    137.02646   -703.87304    136299.96   -35832.421     2643.079     -38475.5    311.76981    238.93781 
   92150     133.1026   -957.27912    136232.94   -35858.367    2567.3924    -38425.76    312.18641    232.09565 
   92200    136.52016   -808.33698    136266.94   -35806.085    2633.3131   -38439.398    312.20686    238.05496 
   92250    137.25139   -728.44333    136281.94   -35764.603    2647.4176   -38412.021    312.37571    239.33003 
   92300    138.67631   -450.43249    136281.08   -35773.779    2674.9027   -38448.682    312.36563    241.81472 
   92350    136.74033   -384.81921    136325.61   -35753.367    2637.5599   -38390.927    312.62405    238.43888 
   92400    132.11022   -648.51082    136268.88   -35798.994    2548.2505   -38347.245    312.74905     230.3652 
   92450    137.12416   -608.90221    136298.91   -35743.586    2644.9634   -38388.549    312.50172    239.10817 
   92500    136.36822   -747.48296    136300.24   -35707.158    2630.3823    -38337.54    312.76172    237.79002 
   92550    138.97839   -978.79479    136263.38   -35622.176    2680.7293   -38302.905    312.85107    242.34145 
   92600    135.17511   -821.32932    136280.76   -35686.611    2607.3685    -38293.98    313.29035    235.70954 
   92650    137.87462   -842.52171    136301.59   -35684.072     2659.439   -38343.511    313.43281    240.41678 
   92700    135.19968   -608.29635    136327.09   -35723.981    2607.8425   -38331.823    313.51623    235.75239 
   92750    134.61551   -745.64882    136298.02   -35725.471    2596.5745   -38322.046     313.7948    234.73375 
   92800    133.74434   -775.19756       136281   -35746.283    2579.7708   -38326.054    313.96227    233.21467 
   92850    136.30669   -600.61115    136235.98   -35755.913    2629.1954   -38385.108    314.20528    237.68272 
   92900     139.2679   -623.11282    136304.75   -35731.245    2686.3137   -38417.558     314.4285    242.84629 
   92950    139.15125   -866.75386    136286.24   -35674.131    2684.0636   -38358.195    314.85205    242.64287 
   93000     139.6021   -713.72791    136186.04   -35662.302      2692.76   -38355.062    314.65598    243.42904 
   93050    139.68471    -780.3811    136193.04   -35626.745    2694.3534   -38321.098     314.7628    243.57309 
   93100     140.2142   -854.72412    136212.83   -35580.899    2704.5666   -38285.465    315.38699    244.49638 
   93150    140.35869   -917.73246    136155.08   -35667.365    2707.3538   -38374.719    315.22304    244.74834 
   93200    137.83359   -831.06342    136148.24   -35691.863    2658.6476    -38350.51    315.04361    240.34524 
   93250    138.58547   -744.37075    136088.84   -35670.463    2673.1504   -38343.614    315.39506    241.65631 
   93300    142.14697   -923.79001    136014.39    -35641.85    2741.8476   -38383.698    315.94401    247.86663 
   93350    140.22785    -504.8114    135977.77   -35632.683    2704.8299   -38337.513     315.6444    244.52018 
   93400    140.14524   -653.99872    136010.29   -35661.697    2703.2365   -38364.933    315.79381    244.37613 
   93450    140.30023   -635.31161     136065.6   -35670.044    2706.2262    -38376.27    315.73979    244.64641 
   93500    140.18384    -681.0922    136124.06   -35683.053     2703.981   -38387.034    315.99401    244.44344 
   93550    139.75979   -648.08139     136174.5   -35692.986    2695.8017   -38388.788    315.67228    243.70402 
   93600    134.14572    -349.1569    136309.88   -35715.488     2587.513   -38303.001    315.88902    233.91457 
   93650    137.85378    -899.5844    136389.63   -35718.765    2659.0369   -38377.802    316.14925    240.38043 
   93700    134.54705   -973.21425    136317.65   -35751.422    2595.2541   -38346.676    316.29054    234.61438 
   93750    136.12219   -833.08678    136234.06   -35701.658    2625.6367   -38327.294    316.53734      237.361 
   93800    139.29041   -740.40614    136186.79   -35675.094    2686.7478   -38361.842    316.40946    242.88553 
   93850    139.19389   -860.36888    136182.49   -35638.197    2684.8862   -38323.083    316.00146    242.71724 
   93900    139.45482   -796.14485    136180.67    -35665.79    2689.9192   -38355.709    316.18711    243.17223 
   93950    135.50938   -781.16608    136118.91   -35693.461    2613.8164   -38307.278    316.02536    236.29243 
   94000    137.13076   -703.21122    136162.44   -35696.177    2645.0909   -38341.268    316.32289    239.11969 
   94050    136.27919   -817.32234    136113.95    -35673.85    2628.6651   -38302.515    316.20575    237.63478 
   94100    136.06366   -888.56697    136060.79   -35744.601    2624.5077   -38369.108    316.68248    237.25895 
   94150    136.21735   -844.54608    135979.08   -35765.521    2627.4722   -38392.993    316.58228    237.52694 
   94200    135.79084   -783.28479    136011.64   -35784.681    2619.2453   -38403.927    316.56679    236.78322 
   94250    136.03411   -653.14966    136046.58   -35739.885    2623.9377   -38363.823    316.44627    237.20742 
   94300    139.40924   -505.42828    136019.96   -35707.373    2689.0399   -38396.413    316.46506    243.09274 
   94350    136.41119   -898.34353    136007.81   -35679.937    2631.2112   -38311.148    316.72403    237.86495 
   94400    137.61055   -919.00538    135865.22   -35658.104    2654.3453   -38312.449    316.33362    239.95631 
   94450    137.68603   -886.33095    135837.84   -35689.118    2655.8013   -38344.919    316.76756    240.08793 
   94500    135.53806   -760.74635    135808.04   -35682.615    2614.3694   -38296.984     317.2364    236.34243 
   94550    135.48383   -655.84976    135876.49   -35636.259    2613.3235   -38249.582    317.60623    236.24788 
   94600    136.73614    -644.0415    135890.82   -35645.347    2637.4791   -38282.826    317.96115    238.43157 
   94650    140.26842   -807.72735    135885.44   -35663.506    2705.6126   -38369.118    318.41169    244.59094 
   94700     138.9774   -756.72583    135871.92    -35643.83    2680.7103    -38324.54    318.92703    242.33973 
   94750    137.95826   -691.91885    135852.37   -35675.008    2661.0523    -38336.06    318.94808    240.56262 
   94800    138.20124   -624.78269    135815.58   -35687.726    2665.7392   -38353.465     318.7036    240.98632 
   94850    137.66363   -544.12238    135790.03   -35650.638    2655.3692   -38306.007    318.26315    240.04886 
   94900    135.55637   -674.53761    135714.36   -35679.305    2614.7226   -38294.027     318.4559    236.37436 
   94950    141.44529    -638.9733    135633.87   -35641.373    2728.3131   -38369.686    318.92125    246.64309 
   95000    136.98489   -717.66675    135749.43   -35681.744    2642.2771   -38324.021    318.68579    238.86532 
   95050    139.28613   -774.83978    135762.59   -35670.901    2686.6654   -38357.566     318.5072    242.87808 
   95100    140.32793    -817.2443    135725.94   -35699.083    2706.7604   -38405.843    319.02504     244.6947 
   95150    136.01402   -605.14951    135725.76   -35704.957    2623.5501   -38328.507    318.96676    237.17238 
   95200    137.02584   -564.39364    135901.38   -35705.176     2643.067   -38348.243    318.96557    238.93673 
   95250    138.40907   -570.80673     135993.7   -35691.086    2669.7479   -38360.834    319.31436    241.34872 
   95300    136.53881   -754.54124    136005.63   -35714.207    2633.6728    -38347.88    319.10545    238.08748 
   95350    137.49938   -672.46146    135932.15   -35702.564    2652.2011   -38354.765     318.6555    239.76247 
   95400    142.27008   -320.87722     135955.1   -35638.998    2744.2223    -38383.22    318.94569     248.0813 
   95450    139.91865   -672.11285    136026.51   -35714.731     2698.866   -38413.597    319.50145    243.98103 
   95500    134.78425   -767.19556    136046.64   -35683.429    2599.8295   -38283.258    319.58946      235.028 
   95550    139.27335   -831.09403    135961.59   -35617.612    2686.4188   -38304.031    319.44257    242.85579 
   95600    136.63013   -885.99794    135880.67   -35632.922    2635.4343   -38268.356    319.50419    238.24672 
   95650    137.45945   -690.55701    135787.77     -35672.7    2651.4307   -38324.131    319.56908    239.69282 
   95700    136.83007   -824.30966    135804.48   -35703.713    2639.2909   -38343.004    319.66061    238.59536 
   95750    136.59208    -519.7262    135784.09   -35701.224    2634.7003   -38335.924     319.5211    238.18037 
   95800    137.83428   -733.87944     135729.8   -35717.367    2658.6609   -38376.028    319.48682    240.34644 
   95850    139.57575   -585.05926    135725.48   -35737.057    2692.2517   -38429.309    319.98094    243.38309 
   95900    139.72153   -676.70302    135793.18   -35705.469    2695.0637   -38400.532    319.86849     243.6373 
   95950    139.57421   -835.85485    135784.84   -35646.578     2692.222     -38338.8    319.72371    243.38041 
   96000    139.08735   -858.55314    135761.93   -35643.447    2682.8312   -38326.278    319.75964    242.53146 
   96050    139.08564    -687.9369    135757.01   -35655.432    2682.7981    -38338.23    320.24874    242.52847 
   96100    140.08097   -711.76495    135746.78   -35679.172     2701.997   -38381.169    320.44978    244.26408 
   96150    139.44267    -750.2921    135770.31   -35669.419    2689.6848   -38359.104    320.54092    243.15104 
   96200    136.95646   -618.36495    135790.24   -35637.657    2641.7288   -38279.386    321.07566    238.81575 
   96250    135.32891   -938.24665       135781   -35677.411    2610.3353   -38287.746    320.92143    235.97774 
   96300    137.54375   -765.49969    135779.42    -35687.31    2653.0568   -38340.367    321.42559    239.83982 
   96350    133.95777   -692.03859    135815.35   -35743.447    2583.8876   -38327.334    321.58388    233.58683 
   96400    134.92575   -454.29303    135810.17   -35704.428    2602.5587   -38306.987    321.62039    235.27473 
   96450    138.35168   -793.32712    135832.54   -35727.492    2668.6409   -38396.133    321.89925    241.24864 
   96500    134.31313   -722.83671    135883.43   -35810.296    2590.7421   -38401.039    322.08129    234.20649 
   96550    136.85835   -701.17857    135873.94    -35744.76    2639.8363   -38384.596    322.32396    238.64467 
   96600    139.31738   -645.05681    135837.56     -35751.6    2687.2681   -38438.868    322.30241    242.93257 
   96650    137.75318   -908.29326       135757   -35781.682    2657.0965   -38438.778    322.22109    240.20502 
   96700    137.41641   -656.61608    135723.57   -35700.804    2650.6006   -38351.405     322.3857    239.61778 
   96750    138.47198   -647.20199    135774.72   -35679.555    2670.9614   -38350.517    322.84368    241.45842 
   96800    135.43215    -639.4731    135633.24   -35689.454    2612.3266    -38301.78    322.86582    236.15775 
   96850    136.70406   -613.63387    135596.74   -35723.349    2636.8602    -38360.21    323.13615    238.37563 
   96900    136.43819    -663.2286    135518.33   -35739.826    2631.7318   -38371.558     323.2181    237.91202 
   96950     138.5947   -803.33955    135512.19   -35736.752    2673.3285   -38410.081    323.55114    241.67241 
   97000    137.40214   -685.29786    135473.66   -35718.174    2650.3253   -38368.499    323.64764    239.59289 
   97050    138.73431   -586.73332    135464.24   -35681.277    2676.0213   -38357.298    323.55924    241.91585 
   97100    136.18664   -671.72886    135493.47   -35666.803    2626.8799   -38293.683    323.81711    237.47339 
   97150    138.07938   -761.53726    135510.52   -35698.088    2663.3886   -38361.477    324.07433    240.77383 
   97200    138.72955   -922.74403    135460.47    -35671.31    2675.9297   -38347.239    324.31928    241.90756 
   97250    138.79362   -665.76454    135383.81   -35691.821    2677.1653   -38368.986    324.73447    242.01927 
   97300    137.93596    -753.2831    135448.42   -35734.579    2660.6222   -38395.202    324.58201    240.52374 
   97350    136.37914   -791.71184    135498.31   -35706.023    2630.5929   -38336.616    324.69224    237.80906 
   97400    135.42762     -728.141     135569.8   -35661.755    2612.2393   -38273.994    324.76056    236.14987 
   97450     140.7968   -431.93129    135648.95   -35634.678    2715.8044   -38350.482    324.55725    245.51229 
   97500    138.29546   -527.22979     135708.6   -35626.143    2667.5565     -38293.7    324.71872    241.15062 
   97550    138.72112   -746.16198    135694.88   -35619.614    2675.7669   -38295.381    325.37165    241.89284 
   97600    136.99173   -689.07791     135640.3   -35611.338    2642.4091   -38253.747    325.48191    238.87725 
   97650    139.05175   -806.40273    135585.66   -35619.557    2682.1444   -38301.702    325.65901    242.46938 
   97700    137.44995   -525.35413    135674.28   -35636.707    2651.2476   -38287.955    325.61942    239.67627 
   97750    137.51651    -842.1122    135674.17   -35594.329    2652.5315    -38246.86     326.2048    239.79234 
   97800    138.82675    -987.7965    135562.05   -35622.137    2677.8044   -38299.942    326.36218    242.07704 
   97850    137.61215   -788.91296    135408.86   -35648.523    2654.3762   -38302.899    326.24453    239.95909 
   97900    136.94708   -825.48278     135429.5   -35667.779    2641.5477   -38309.327    326.50946    238.79939 
   97950    138.39749   -822.77163    135469.83   -35654.439    2669.5245   -38323.963     326.3158    241.32852 
   98000    139.69312   -537.76795    135554.85   -35708.755    2694.5158   -38403.271    326.94016    243.58777 
   98050    137.41588   -953.21016    135594.58   -35722.606    2650.5904   -38373.197    327.09684    239.61685 
   98100    134.97195   -527.86193    135643.94   -35741.177    2603.4498   -38344.627    327.08029    235.35529 
   98150     136.7602   -634.31742    135729.55   -35764.462    2637.9432   -38402.405    327.48047    238.47353 
   98200    135.60205   -528.95752    135761.08   -35723.098    2615.6039   -38338.702    327.73064    236.45403 
   98250    137.28927   -654.46185    135784.74    -35755.95    2648.1482   -38404.098    328.08139    239.39608 
   98300    136.49347   -907.61844    135733.02   -35747.709    2632.7982   -38380.507    327.78004    238.00842 
   98350    134.82984   -869.52809    135719.39   -35737.454    2600.7087   -38338.162    328.20582    235.10748 
   98400    136.01437   -879.94398    135600.81   -35735.477    2623.5569   -38359.034    327.84902    237.17299 
   98450    137.69908   -490.43051    135569.38   -35763.633    2656.0529   -38419.686    328.43304    240.11068 
   98500    138.40564   -704.42477    135641.01   -35752.989    2669.6817   -38422.671    329.15899    241.34274 
   98550     137.1393   -827.69914    135660.38   -35749.805    2645.2555    -38395.06    329.25284    239.13458 
   98600    137.64273   -704.21577    135672.44   -35718.894     2654.966    -38373.86     329.0699    240.01242 
   98650    136.07176   -787.06341    135654.27   -35719.974    2624.6639   -38344.637    328.95929    237.27307 
   98700    137.08743   -621.87598    135623.14    -35733.72    2644.2551   -38377.975    328.96021    239.04413 
   98750    137.04254   -630.11693    135654.64   -35739.909    2643.3892   -38383.299    329.30094    238.96586 
   98800    135.64339   -633.23776    135574.11   -35707.876    2616.4012   -38324.278    329.64922     236.5261 
   98850     138.5038   -504.83418    135608.13   -35693.376    2671.5752   -38364.951    329.60754    241.51391 
   98900    136.63221    -643.0442    135627.92   -35691.656    2635.4743    -38327.13    329.61344    238.25034 
   98950    138.89889   -566.19782    135660.85   -35682.232    2679.1959   -38361.428    329.99453    242.20283 
   99000    136.72266   -753.40989    135699.68   -35666.985     2637.219   -38304.204     330.9041    238.40807 
   99050    140.65074   -700.40426    135726.79   -35655.752    2712.9871   -38368.739    330.78167     245.2576 
   99100    137.56738    -693.3242    135766.38   -35660.151    2653.5126   -38313.663    331.10564    239.88103 
   99150    137.53032   -653.73511    135745.48   -35717.443    2652.7978   -38370.241    331.24908    239.81641 
   99200    133.32643   -776.08088    135731.47   -35755.321    2571.7097    -38327.03    331.89233    232.48593 
   99250    136.87634   -553.02356     135708.2   -35770.636    2640.1834   -38410.819    331.75602    238.67605 
   99300    136.27288   -711.34272    135724.13   -35752.285    2628.5433   -38380.829     332.1034    237.62377 
   99350    135.92562    -867.0451    135794.11   -35782.795    2621.8451    -38404.64     331.9936    237.01824 
   99400    133.08563    -600.2966     135837.4   -35797.482    2567.0651   -38364.547    332.43482    232.06606 
   99450    133.84169   -754.55129       135838   -35830.973    2581.6485   -38412.621    332.25084    233.38441 
   99500    135.46888     -737.835    135845.71   -35822.931    2613.0352   -38435.966    332.25098    236.22181 
   99550    134.27037   -757.22635    135762.04   -35763.961    2589.9172   -38353.879    331.83781    234.13192 
   99600    137.06606   -600.54674    135715.58   -35798.471    2643.8428   -38442.314     331.6548    239.00686 
   99650    138.77895   -875.34615    135678.41    -35762.13    2676.8824   -38439.013    332.16369    241.99369 
   99700    135.30796   -527.36587    135681.16   -35803.628    2609.9311   -38413.559    332.32753     235.9412 
   99750    136.73021   -658.36651    135754.38   -35825.565    2637.3647    -38462.93    332.63252    238.42123 
   99800     138.2972   -503.33975     135773.4   -35788.484    2667.5901   -38456.074    332.99889    241.15365 
   99850    137.57404   -709.61142    135742.02   -35840.927    2653.6412   -38494.568    332.38707    239.89265 
   99900     139.4234   -826.15172     135747.3   -35829.837    2689.3131    -38519.15    332.30436    243.11744 
   99950    138.03681   -647.98106    135666.31   -35823.871    2662.5675   -38486.438    332.27498     240.6996 
  100000    138.20592   -360.01737     135747.9    -35837.52    2665.8294    -38503.35    332.35522    240.99448 
Loop time of 182.342 on 64 procs for 100000 steps with 6472 atoms

Performance: 236.917 ns/day, 0.101 hours/ns, 548.419 timesteps/s
99.5% CPU use with 64 MPI tasks x no OpenMP threads

MPI task timing breakdown:
Section |  min time  |  avg time  |  max time  |%varavg| %total
---------------------------------------------------------------
Pair    | 17.309     | 74.811     | 137.09     | 654.4 | 41.03
Neigh   | 1.1663     | 2.4412     | 4.6848     |  89.1 |  1.34
Comm    | 26.899     | 87.967     | 148.07     | 583.4 | 48.24
Output  | 0.21415    | 0.21669    | 0.23262    |   0.5 |  0.12
Modify  | 11.58      | 15.475     | 24.149     | 114.9 |  8.49
Other   |            | 1.431      |            |       |  0.78

Nlocal:    101.125 ave 172 max 63 min
Histogram: 32 0 0 10 6 0 0 0 5 11
Nghost:    975.438 ave 1324 max 647 min
Histogram: 32 0 0 0 0 0 0 0 8 24
Neighs:    0 ave 0 max 0 min
Histogram: 64 0 0 0 0 0 0 0 0 0
FullNghs:  12323.8 ave 27993 max 3870 min
Histogram: 32 0 0 0 16 0 0 0 4 12

Total # of neighbors = 788726
Ave neighs/atom = 121.867
Neighbor list builds = 6011
Dangerous builds = 0

write_data		${DIR}/data.eq-${NAME}-${TEMP}
write_data		run_4/data.eq-${NAME}-${TEMP}
write_data		run_4/data.eq-het_freeze_4-${TEMP}
write_data		run_4/data.eq-het_freeze_4-240
undump          1

reset_timestep  0

unfix           2
unfix           3
unfix           4


################################################
#######         Run Simulation         #########
################################################

log				${DIR}/log.run_${NAME}
log				run_4/log.run_${NAME}
log				run_4/log.run_het_freeze_4
