LAMMPS data file via write_data, version 16 Mar 2018, timestep = 6000000

6750 atoms
2 atom types

0.0000000000000000e+00 4.9219999999999999e+01 xlo xhi
0.0000000000000000e+00 4.9019635930410494e+01 ylo yhi
5.4883332085674752e-01 5.9513166679154381e+01 zlo zhi

Masses

1 18.015
2 12.01

Atoms # atomic

4962 1 3.0597521676773973e+00 1.1542253865448675e+00 2.8699616370371954e+00 5 -2 1
1995 1 3.2972950463335313e+00 3.6427305276214379e+00 1.8514892628128676e+00 -2 4 0
3781 1 6.2701727796687390e+00 9.6387529278003825e+00 1.3751057344833024e+01 1 -2 0
542 1 7.6076249923709520e+00 2.8378749881601300e+00 1.8972850194471111e+00 -2 1 1
5362 1 7.3361798470045851e+00 3.0424929615350010e-01 2.9287549016263812e+00 3 0 0
1758 1 9.8702453986502476e+00 3.9633885658314267e+00 3.0944127743772487e+00 0 -2 1
1574 1 3.9183465463370737e-01 4.4726724297326892e-01 6.3255572820849224e+00 1 3 1
1953 1 1.1904608574417599e+00 5.4364734482628991e+00 2.8124865442269744e+00 4 -2 0
6386 1 1.7315991745413033e+00 7.8684598091669633e+00 1.5553230543340713e+00 0 -1 1
3563 1 5.6147833820038970e+00 4.6177457415637368e+00 2.9302183680653897e+00 2 -1 1
2149 1 6.0195544578726405e+00 7.1432544273021907e+00 1.7926092040891077e+00 -2 2 0
515 1 8.1647307740750819e+00 8.3322709979830520e+00 2.6309862083717950e+00 1 -1 1
550 1 1.0319092648737112e+01 6.4959968616905961e+00 2.5075372869545722e+00 1 -1 0
5286 1 4.1479954095478266e+00 8.6885273279956365e+00 3.0101459677653035e+00 1 3 0
6374 1 4.0189468756986342e+00 1.1147444886462074e+01 2.1463642318484157e+00 0 3 1
5407 1 8.4843532120658249e+00 1.0876795709699049e+01 1.9525877607844393e+00 4 -1 0
2282 1 7.2912371103838982e+00 3.1453834645812673e-01 5.5823583321054313e+00 0 1 1
3664 1 1.1025133222634043e+01 1.1656896852252519e+01 2.9437071099387979e+00 1 0 0
3663 1 2.8334061554078449e+00 1.5721968358204896e+00 5.8192126547286955e+00 0 1 0
6594 1 3.2262609040695591e+00 4.0019323205819655e+00 6.4300288068724036e+00 -2 0 1
152 1 3.1631631984535438e+00 3.5579213885318897e+00 9.2138936537659273e+00 -1 3 1
3454 1 4.1106452251126357e-01 4.9787527934223452e-01 1.9844152491958775e+00 1 6 0
3587 1 2.8610256771368894e+00 9.2209801679563796e-01 1.0250876642154719e+01 2 1 1
3929 1 6.7688516557685281e+00 1.2094325668444394e+01 1.2508014644737155e+01 4 1 1
75 1 1.8816147899425382e+00 1.0296356067101032e+01 1.3725511913019314e+01 -1 1 0
4894 1 7.8110780100222383e+00 3.1219200983132187e+00 9.0341152049057030e+00 1 1 0
6577 1 7.6556143405574888e+00 2.8300003109098135e+00 6.4603323116129623e+00 -1 2 1
6667 1 1.0960878193201195e+01 1.1378675753003440e+01 1.2686340326286610e+01 3 0 0
5169 1 1.0903233632923714e+01 1.1329271278933769e+01 9.8747917451656058e+00 3 2 0
2027 1 1.2228918186929304e+01 2.1921981761997995e+00 6.4558627390651493e+00 0 -1 0
4932 1 1.0055981874772983e-01 8.8532987733794022e-01 9.0317603372133988e+00 0 -2 0
341 1 3.8758227328003496e+00 8.7211630553273611e+00 1.2934055789968939e+01 1 1 0
3455 1 1.1557804640683005e+00 5.3334338075858971e+00 5.5926990299409169e+00 3 -5 1
3893 1 1.6332894161519254e+00 7.8310094900281317e+00 6.6196413464396073e+00 1 1 1
4752 1 1.6748638840330472e+00 7.8999484865509055e+00 9.2657948872001175e+00 0 1 1
3488 1 1.2155568855366390e+00 5.3707701690660263e+00 9.9956574139264021e+00 -1 2 0
3653 1 5.5027506286783838e+00 4.6053619575718114e+00 5.3776547567832793e+00 2 0 0
6626 1 6.0094752802879334e+00 7.3047553162316312e+00 9.1857486148846199e+00 1 2 1
3599 1 5.9720457797901307e+00 7.1199856683698650e+00 6.5317089413814218e+00 0 -2 0
4735 1 5.5946065230222386e+00 4.6590415730594659e+00 1.0127158801914605e+01 0 1 1
3111 1 8.0979429114555419e+00 8.0625145276185286e+00 5.4596180303721287e+00 4 0 1
459 1 1.0038046513506742e+01 3.8221594301408439e+00 5.6620691072604696e+00 2 0 0
6641 1 1.0251205105843654e+01 6.8107282349975060e+00 6.5348186609878018e+00 0 0 0
3481 1 1.0208873508117922e+01 6.2719373801505949e+00 9.1464621749991402e+00 1 -1 0
1889 1 4.1403595586750219e+00 8.4255997608983932e+00 5.8947214844322540e+00 1 1 0
4952 1 4.0423275372625165e+00 8.9088424582802634e+00 1.0257950336309163e+01 0 1 1
3608 1 4.2461749525004926e+00 1.1261036595247512e+01 6.3549609111712924e+00 1 0 0
6372 1 4.1561079781070740e+00 1.1211873567783725e+01 9.0355782540062677e+00 0 -1 1
1956 1 1.1974132472479754e+01 2.5807616673623328e+00 2.1887624467031088e+00 1 0 0
563 1 7.1407614193153819e+00 7.4407620413561637e-01 1.3004678978364897e+01 0 1 1
3030 1 8.4128759003217901e+00 1.0443126388434409e+01 6.2989439350327352e+00 2 1 1
5472 1 1.1152363243480284e+01 1.1297453843697856e+01 5.5664093290523047e+00 -3 1 0
3348 1 8.6039981993086467e+00 1.0269635194914240e+01 9.0594342158264727e+00 2 -2 1
1816 1 1.0586701014559077e+00 3.0226905825496555e+00 1.4029473397416041e+01 -1 1 0
2985 1 2.8023948739255422e+00 1.4926432732053461e+00 1.2922665962724947e+01 0 2 1
2074 1 7.4533899018203584e+00 8.0530337146636954e-01 1.0069859372836561e+01 1 -2 0
2995 1 1.1965284997304131e+01 2.0522105104775203e+00 9.2168606155464143e+00 -3 -2 1
2143 1 5.3643982699312369e+00 2.1596650538133861e+00 1.3874794853059823e+01 3 2 0
3749 1 1.0126188108802708e+01 3.7068613585691783e+00 1.0051320639353426e+01 1 -3 0
1680 1 9.5238704244529568e+00 1.6254026027432178e+00 1.3867796398961627e+01 0 1 1
4903 1 1.0162499010711425e+01 3.9149858197764633e+00 1.2647225020647065e+01 2 1 1
202 1 1.1856181340147489e+00 5.2879096976427249e+00 1.2648791909376891e+01 3 1 0
5192 1 3.5610490364688476e+00 6.2733470758683341e+00 1.3743706822147507e+01 3 2 0
1959 1 5.3114211043333945e+00 4.4609804693738866e+00 1.2652419956690192e+01 1 -2 0
4821 1 7.9334439157790317e+00 5.1300045805202190e+00 1.3335489321395508e+01 0 0 1
2267 1 1.0593220506867420e+01 8.7272060773540279e+00 1.3707163429732182e+01 -1 2 1
3197 1 8.2814629760884451e+00 7.6681493370504903e+00 1.0161384150548532e+01 2 -4 1
4693 1 7.9369893590139879e+00 7.6995922375052901e+00 1.2706321884663003e+01 -1 0 1
5445 1 6.5145188274392174e+00 1.2163188252463563e+01 2.9239676667517909e+00 0 0 0
335 1 6.5117698533256174e+00 1.1819363750083543e+01 1.0064494560256732e+01 -3 -2 0
3904 1 6.4870788413360501e+00 1.2193992849350389e+01 5.7500493532061965e+00 -1 -3 1
4882 1 1.1754525603892915e+01 2.2229058846814351e-02 1.3219623204902241e+01 1 1 1
5652 1 2.7426219687807727e+00 1.5343695250228986e+00 1.7412417200085688e+01 1 0 1
1593 1 5.8367771730434792e-01 3.0639256162277753e+00 1.6656177696835496e+01 -2 -1 1
3188 1 2.6626063125637081e+00 1.5588971707191441e+00 2.0157486650378310e+01 1 -1 0
1428 1 5.2883580834813806e+00 2.2932859465246520e+00 1.6444931153989188e+01 -3 1 1
5530 1 9.1540170497225066e+00 1.2022132338689470e+01 2.3823240906034272e+01 -3 -1 0
6654 1 7.2240172798142304e+00 1.1266295245694229e+00 2.0363039357769690e+01 1 2 1
487 1 9.4485180660981900e+00 1.7588451481758924e+00 1.6473513402321760e+01 2 -2 0
531 1 9.6288244740819291e+00 4.0232114711068547e+00 1.7605449549415219e+01 0 0 1
71 1 9.9959309017481224e-01 5.6670105307395255e+00 1.7673047804855102e+01 -1 -2 1
1334 1 3.4721127221503969e+00 5.9586502371160268e+00 1.6442039786469508e+01 1 1 1
3127 1 1.1263632174461533e+00 5.9161129079638712e+00 2.0296391287871263e+01 3 2 1
474 1 5.5856556956994297e+00 4.9937813376601126e+00 1.7565186406146822e+01 2 -1 1
3056 1 7.6241399810251975e+00 5.5305196022246248e+00 1.6246534901656521e+01 1 1 1
3793 1 8.0995248627102363e+00 8.0960551039490305e+00 1.7400669936982972e+01 0 3 1
76 1 7.7448281912616874e+00 8.0375279356807763e+00 2.0099288112513424e+01 -1 -1 0
751 2 8.6134999999999984e+00 9.2355835810918343e+00 2.6825384424645002e+01 0 0 0
6357 1 1.8070298277872725e+00 1.0349805801776879e+01 1.6382940282389804e+01 3 1 1
93 1 3.4549773629639016e+00 8.5777626840817298e+00 1.7216386972174011e+01 -1 2 0
6399 1 5.9844014591585335e+00 9.4894971042508640e+00 1.6484332458835233e+01 -5 2 1
5442 1 1.1542228387187793e+01 4.8752817221214260e+00 2.3484324570047171e+01 2 2 0
839 2 1.1074500000000002e+01 1.0656442593567498e+01 2.6825384424645002e+01 0 0 0
3470 1 1.0368329268083116e+01 9.0202119178015412e+00 1.6386302827960375e+01 -2 -1 0
5570 1 1.0838082915746410e+01 1.1649151239190049e+01 1.7478063715411139e+01 3 2 1
12 1 1.0885061712473293e+01 1.1191813074665935e+01 2.0375643452826310e+01 1 1 0
3176 1 7.8879205960788323e-01 3.8658764905479930e+00 2.3474586522470677e+01 0 4 1
1527 1 7.9493020871590803e-01 3.0759268364323162e+00 2.1041472493256723e+01 -1 0 0
3208 1 2.6358718340175078e+00 2.2626233791236685e+00 2.4319948074154688e+01 3 2 1
6393 1 4.9553125873875414e+00 2.6042738437908959e+00 2.0980862633532492e+01 0 0 1
1747 1 5.3150148758657041e+00 3.1204851475758604e+00 2.3945144700101604e+01 -1 1 0
5496 1 7.4814375544613378e+00 1.2594845201948157e+00 2.4007718611439550e+01 0 0 1
3166 1 9.7997468328195687e+00 1.6690311810731393e+00 2.1209494041412775e+01 1 -1 1
1581 1 1.0344819857836155e+01 2.2976931518620356e+00 2.3841184456376936e+01 -1 2 1
3911 1 9.7036135394113501e+00 4.2384164246693707e+00 2.0141503657054162e+01 0 2 0
250 1 1.2430744287123026e+00 6.2971556136257920e+00 2.3895482781135708e+01 4 1 1
3007 1 3.3272212289392291e+00 7.0302720956681286e+00 2.0947127957260435e+01 2 0 1
6455 1 4.0513198763456320e+00 7.2099541010033290e+00 2.3670858848901918e+01 -1 2 1
2226 1 5.1049622301159499e+00 5.1201989089321831e+00 2.0201389023762651e+01 -1 0 0
4701 1 6.3134706601184041e+00 5.7360173217872727e+00 2.3827114250210286e+01 2 -2 1
2130 1 7.4863096277967038e+00 5.4886688058666664e+00 2.1160287961496632e+01 -1 -1 0
4978 1 9.3866235995812879e+00 6.5011605051397741e+00 2.3660462156230135e+01 0 0 0
6453 1 7.1567305791368918e+00 9.0808511982967899e-01 1.7251232198276067e+01 1 1 1
841 2 1.2304999999999998e+01 1.1366872099805333e+01 2.6825384424645002e+01 0 0 0
5329 1 3.5909254659352667e+00 9.5216542286032446e+00 1.9728476909850002e+01 -1 -1 0
1697 1 1.8478974483981483e+00 1.1263804708062075e+01 2.1118790732070853e+01 -1 2 1
1336 1 2.3925812040130308e+00 1.1255275896905406e+01 2.3848746470285732e+01 -1 3 1
5066 1 4.7747509400029404e+00 1.0064913311453944e+01 2.4115270148857732e+01 1 2 0
6447 1 5.8820557697563940e+00 9.8519464628859428e+00 2.0955660355885424e+01 2 5 1
798 2 1.1074500000000002e+01 9.2355835810918343e+00 2.6825384424645002e+01 0 0 0
3714 1 1.0359205361933054e+01 8.5561323664887610e+00 2.0835327500214053e+01 1 2 0
3666 1 9.7121135270075012e+00 9.4713828410692500e+00 2.3372507871841059e+01 1 -1 0
796 2 9.8440000000000012e+00 8.5251540748539956e+00 2.6825384424645002e+01 0 0 0
618 2 0.0000000000000000e+00 2.8417180249513345e+00 2.6825384424645002e+01 0 0 0
620 2 0.0000000000000000e+00 0.0000000000000000e+00 2.6825384424645002e+01 0 0 0
622 2 1.2305000000000001e+00 7.1042950623783474e-01 2.6825384424645002e+01 0 0 0
629 2 1.2305000000000001e+00 2.1312885187134998e+00 2.6825384424645002e+01 0 0 0
631 2 2.4610000000000003e+00 2.8417180249513345e+00 2.6825384424645002e+01 0 0 0
633 2 2.4610000000000003e+00 0.0000000000000000e+00 2.6825384424645002e+01 0 0 0
635 2 3.6915000000000004e+00 7.1042950623783474e-01 2.6825384424645002e+01 0 0 0
650 2 3.6914999999999996e+00 2.1312885187134998e+00 2.6825384424645002e+01 0 0 0
652 2 4.9220000000000006e+00 2.8417180249513332e+00 2.6825384424645002e+01 0 0 0
654 2 4.9220000000000006e+00 0.0000000000000000e+00 2.6825384424645002e+01 0 0 0
656 2 6.1524999999999999e+00 7.1042950623783407e-01 2.6825384424645002e+01 0 0 0
679 2 6.1524999999999999e+00 2.1312885187134989e+00 2.6825384424645002e+01 0 0 0
681 2 7.3829999999999991e+00 2.8417180249513345e+00 2.6825384424645002e+01 0 0 0
683 2 7.3829999999999991e+00 0.0000000000000000e+00 2.6825384424645002e+01 0 0 0
685 2 8.6134999999999984e+00 7.1042950623783407e-01 2.6825384424645002e+01 0 0 0
716 2 8.6134999999999984e+00 2.1312885187135002e+00 2.6825384424645002e+01 0 0 0
718 2 9.8440000000000012e+00 2.8417180249513332e+00 2.6825384424645002e+01 0 0 0
720 2 9.8440000000000012e+00 0.0000000000000000e+00 2.6825384424645002e+01 0 0 0
722 2 1.1074500000000002e+01 7.1042950623783330e-01 2.6825384424645002e+01 0 0 0
761 2 1.1074500000000002e+01 2.1312885187135002e+00 2.6825384424645002e+01 0 0 0
623 2 0.0000000000000000e+00 7.1042950623783341e+00 2.6825384424645002e+01 0 0 0
625 2 0.0000000000000000e+00 4.2625770374269996e+00 2.6825384424645002e+01 0 0 0
627 2 1.2305000000000001e+00 4.9730065436648339e+00 2.6825384424645002e+01 0 0 0
642 2 1.2305000000000001e+00 6.3938655561404980e+00 2.6825384424645002e+01 0 0 0
644 2 2.4610000000000003e+00 7.1042950623783341e+00 2.6825384424645002e+01 0 0 0
646 2 2.4610000000000003e+00 4.2625770374269996e+00 2.6825384424645002e+01 0 0 0
648 2 3.6914999999999996e+00 4.9730065436648339e+00 2.6825384424645002e+01 0 0 0
671 2 3.6914999999999996e+00 6.3938655561404980e+00 2.6825384424645002e+01 0 0 0
673 2 4.9220000000000006e+00 7.1042950623783341e+00 2.6825384424645002e+01 0 0 0
675 2 4.9220000000000006e+00 4.2625770374269978e+00 2.6825384424645002e+01 0 0 0
677 2 6.1524999999999999e+00 4.9730065436648339e+00 2.6825384424645002e+01 0 0 0
708 2 6.1524999999999999e+00 6.3938655561404980e+00 2.6825384424645002e+01 0 0 0
710 2 7.3830000000000009e+00 7.1042950623783341e+00 2.6825384424645002e+01 0 0 0
712 2 7.3829999999999991e+00 4.2625770374269996e+00 2.6825384424645002e+01 0 0 0
714 2 8.6135000000000002e+00 4.9730065436648339e+00 2.6825384424645002e+01 0 0 0
753 2 8.6135000000000002e+00 6.3938655561404980e+00 2.6825384424645002e+01 0 0 0
755 2 9.8440000000000012e+00 7.1042950623783341e+00 2.6825384424645002e+01 0 0 0
757 2 9.8440000000000012e+00 4.2625770374270004e+00 2.6825384424645002e+01 0 0 0
759 2 1.1074500000000002e+01 4.9730065436648339e+00 2.6825384424645002e+01 0 0 0
800 2 1.1074500000000002e+01 6.3938655561404980e+00 2.6825384424645002e+01 0 0 0
665 2 2.4610000000000003e+00 1.1366872099805333e+01 2.6825384424645002e+01 0 0 0
638 2 0.0000000000000000e+00 8.5251540748539991e+00 2.6825384424645002e+01 0 0 0
636 2 0.0000000000000000e+00 1.1366872099805333e+01 2.6825384424645002e+01 0 0 0
663 2 1.2305000000000001e+00 1.0656442593567498e+01 2.6825384424645002e+01 0 0 0
669 2 3.6915000000000004e+00 9.2355835810918343e+00 2.6825384424645002e+01 0 0 0
700 2 3.6914999999999996e+00 1.0656442593567499e+01 2.6825384424645002e+01 0 0 0
667 2 2.4610000000000003e+00 8.5251540748539991e+00 2.6825384424645002e+01 0 0 0
640 2 1.2305000000000001e+00 9.2355835810918343e+00 2.6825384424645002e+01 0 0 0
706 2 6.1524999999999999e+00 9.2355835810918343e+00 2.6825384424645002e+01 0 0 0
704 2 4.9220000000000006e+00 8.5251540748539991e+00 2.6825384424645002e+01 0 0 0
702 2 4.9220000000000006e+00 1.1366872099805333e+01 2.6825384424645002e+01 0 0 0
745 2 6.1524999999999999e+00 1.0656442593567499e+01 2.6825384424645002e+01 0 0 0
749 2 7.3830000000000009e+00 8.5251540748539991e+00 2.6825384424645002e+01 0 0 0
747 2 7.3829999999999991e+00 1.1366872099805333e+01 2.6825384424645002e+01 0 0 0
792 2 8.6134999999999984e+00 1.0656442593567498e+01 2.6825384424645002e+01 0 0 0
794 2 9.8440000000000012e+00 1.1366872099805333e+01 2.6825384424645002e+01 0 0 0
413 1 1.2224351575399414e+01 4.7416444863187328e+00 1.6766692569568640e+01 0 -1 0
5020 1 6.3182670245228021e+00 1.2013558331099997e+01 1.7614079331985401e+01 1 1 1
619 2 0.0000000000000000e+00 1.4208590124756650e+00 3.0031000000005665e+01 0 0 0
621 2 0.0000000000000000e+00 0.0000000000000000e+00 3.0031000000005665e+01 0 0 0
628 2 1.2305000000000001e+00 3.5521475311891644e+00 3.0031000000005665e+01 0 0 0
630 2 1.2305000000000001e+00 2.1312885187134998e+00 3.0031000000005665e+01 0 0 0
632 2 2.4610000000000003e+00 1.4208590124756650e+00 3.0031000000005665e+01 0 0 0
634 2 2.4610000000000003e+00 0.0000000000000000e+00 3.0031000000005665e+01 0 0 0
649 2 3.6914999999999996e+00 3.5521475311891644e+00 3.0031000000005665e+01 0 0 0
651 2 3.6914999999999996e+00 2.1312885187134998e+00 3.0031000000005665e+01 0 0 0
947 2 0.0000000000000000e+00 2.8417180249513345e+00 3.3236615575353099e+01 0 0 0
948 2 0.0000000000000000e+00 0.0000000000000000e+00 3.3236615575353099e+01 0 0 0
949 2 1.2305000000000001e+00 7.1042950623783474e-01 3.3236615575353099e+01 0 0 0
953 2 1.2305000000000001e+00 2.1312885187134998e+00 3.3236615575353099e+01 0 0 0
954 2 2.4610000000000003e+00 2.8417180249513345e+00 3.3236615575353099e+01 0 0 0
955 2 2.4610000000000003e+00 0.0000000000000000e+00 3.3236615575353099e+01 0 0 0
956 2 3.6915000000000004e+00 7.1042950623783474e-01 3.3236615575353099e+01 0 0 0
964 2 3.6914999999999996e+00 2.1312885187134998e+00 3.3236615575353099e+01 0 0 0
653 2 4.9220000000000006e+00 1.4208590124756650e+00 3.0031000000005665e+01 0 0 0
655 2 4.9220000000000006e+00 0.0000000000000000e+00 3.0031000000005665e+01 0 0 0
678 2 6.1524999999999999e+00 3.5521475311891644e+00 3.0031000000005665e+01 0 0 0
680 2 6.1524999999999999e+00 2.1312885187134989e+00 3.0031000000005665e+01 0 0 0
682 2 7.3829999999999991e+00 1.4208590124756659e+00 3.0031000000005665e+01 0 0 0
684 2 7.3829999999999991e+00 0.0000000000000000e+00 3.0031000000005665e+01 0 0 0
965 2 4.9220000000000006e+00 2.8417180249513332e+00 3.3236615575353099e+01 0 0 0
966 2 4.9220000000000006e+00 0.0000000000000000e+00 3.3236615575353099e+01 0 0 0
967 2 6.1524999999999999e+00 7.1042950623783407e-01 3.3236615575353099e+01 0 0 0
979 2 6.1524999999999999e+00 2.1312885187134989e+00 3.3236615575353099e+01 0 0 0
980 2 7.3829999999999991e+00 2.8417180249513345e+00 3.3236615575353099e+01 0 0 0
981 2 7.3829999999999991e+00 0.0000000000000000e+00 3.3236615575353099e+01 0 0 0
715 2 8.6134999999999984e+00 3.5521475311891657e+00 3.0031000000005665e+01 0 0 0
717 2 8.6134999999999984e+00 2.1312885187135002e+00 3.0031000000005665e+01 0 0 0
719 2 9.8440000000000012e+00 1.4208590124756659e+00 3.0031000000005665e+01 0 0 0
721 2 9.8440000000000012e+00 0.0000000000000000e+00 3.0031000000005665e+01 0 0 0
760 2 1.1074500000000002e+01 3.5521475311891644e+00 3.0031000000005665e+01 0 0 0
762 2 1.1074500000000002e+01 2.1312885187135002e+00 3.0031000000005665e+01 0 0 0
982 2 8.6134999999999984e+00 7.1042950623783407e-01 3.3236615575353099e+01 0 0 0
998 2 8.6134999999999984e+00 2.1312885187135002e+00 3.3236615575353099e+01 0 0 0
999 2 9.8440000000000012e+00 2.8417180249513332e+00 3.3236615575353099e+01 0 0 0
1000 2 9.8440000000000012e+00 0.0000000000000000e+00 3.3236615575353099e+01 0 0 0
1001 2 1.1074500000000002e+01 7.1042950623783330e-01 3.3236615575353099e+01 0 0 0
1021 2 1.1074500000000002e+01 2.1312885187135002e+00 3.3236615575353099e+01 0 0 0
624 2 0.0000000000000000e+00 5.6834360499026637e+00 3.0031000000005665e+01 0 0 0
626 2 0.0000000000000000e+00 4.2625770374269996e+00 3.0031000000005665e+01 0 0 0
641 2 1.2305000000000001e+00 7.8147245686161639e+00 3.0031000000005665e+01 0 0 0
643 2 1.2305000000000001e+00 6.3938655561404980e+00 3.0031000000005665e+01 0 0 0
645 2 2.4610000000000003e+00 5.6834360499026637e+00 3.0031000000005665e+01 0 0 0
647 2 2.4610000000000003e+00 4.2625770374269996e+00 3.0031000000005665e+01 0 0 0
670 2 3.6914999999999996e+00 7.8147245686161639e+00 3.0031000000005665e+01 0 0 0
672 2 3.6914999999999996e+00 6.3938655561404980e+00 3.0031000000005665e+01 0 0 0
950 2 0.0000000000000000e+00 7.1042950623783341e+00 3.3236615575353099e+01 0 0 0
951 2 0.0000000000000000e+00 4.2625770374269996e+00 3.3236615575353099e+01 0 0 0
952 2 1.2305000000000001e+00 4.9730065436648339e+00 3.3236615575353099e+01 0 0 0
960 2 1.2305000000000001e+00 6.3938655561404980e+00 3.3236615575353099e+01 0 0 0
961 2 2.4610000000000003e+00 7.1042950623783341e+00 3.3236615575353099e+01 0 0 0
962 2 2.4610000000000003e+00 4.2625770374269996e+00 3.3236615575353099e+01 0 0 0
963 2 3.6914999999999996e+00 4.9730065436648339e+00 3.3236615575353099e+01 0 0 0
975 2 3.6914999999999996e+00 6.3938655561404980e+00 3.3236615575353099e+01 0 0 0
674 2 4.9220000000000006e+00 5.6834360499026637e+00 3.0031000000005665e+01 0 0 0
676 2 4.9220000000000006e+00 4.2625770374269978e+00 3.0031000000005665e+01 0 0 0
707 2 6.1524999999999999e+00 7.8147245686161639e+00 3.0031000000005665e+01 0 0 0
709 2 6.1524999999999999e+00 6.3938655561404980e+00 3.0031000000005665e+01 0 0 0
711 2 7.3829999999999991e+00 5.6834360499026637e+00 3.0031000000005665e+01 0 0 0
713 2 7.3829999999999991e+00 4.2625770374269996e+00 3.0031000000005665e+01 0 0 0
976 2 4.9220000000000006e+00 7.1042950623783341e+00 3.3236615575353099e+01 0 0 0
977 2 4.9220000000000006e+00 4.2625770374269978e+00 3.3236615575353099e+01 0 0 0
978 2 6.1524999999999999e+00 4.9730065436648339e+00 3.3236615575353099e+01 0 0 0
994 2 6.1524999999999999e+00 6.3938655561404980e+00 3.3236615575353099e+01 0 0 0
995 2 7.3830000000000009e+00 7.1042950623783341e+00 3.3236615575353099e+01 0 0 0
996 2 7.3829999999999991e+00 4.2625770374269996e+00 3.3236615575353099e+01 0 0 0
752 2 8.6135000000000002e+00 7.8147245686161639e+00 3.0031000000005665e+01 0 0 0
754 2 8.6135000000000002e+00 6.3938655561404980e+00 3.0031000000005665e+01 0 0 0
756 2 9.8440000000000012e+00 5.6834360499026637e+00 3.0031000000005665e+01 0 0 0
758 2 9.8440000000000012e+00 4.2625770374270004e+00 3.0031000000005665e+01 0 0 0
799 2 1.1074500000000002e+01 7.8147245686161639e+00 3.0031000000005665e+01 0 0 0
801 2 1.1074500000000002e+01 6.3938655561404980e+00 3.0031000000005665e+01 0 0 0
997 2 8.6135000000000002e+00 4.9730065436648339e+00 3.3236615575353099e+01 0 0 0
1017 2 8.6135000000000002e+00 6.3938655561404980e+00 3.3236615575353099e+01 0 0 0
1018 2 9.8440000000000012e+00 7.1042950623783341e+00 3.3236615575353099e+01 0 0 0
1019 2 9.8440000000000012e+00 4.2625770374270004e+00 3.3236615575353099e+01 0 0 0
1020 2 1.1074500000000002e+01 4.9730065436648339e+00 3.3236615575353099e+01 0 0 0
1041 2 1.1074500000000002e+01 6.3938655561404980e+00 3.3236615575353099e+01 0 0 0
637 2 0.0000000000000000e+00 9.9460130873296642e+00 3.0031000000005665e+01 0 0 0
639 2 0.0000000000000000e+00 8.5251540748539991e+00 3.0031000000005665e+01 0 0 0
662 2 1.2305000000000001e+00 1.2077301606043163e+01 3.0031000000005665e+01 0 0 0
664 2 1.2305000000000001e+00 1.0656442593567498e+01 3.0031000000005665e+01 0 0 0
666 2 2.4610000000000003e+00 9.9460130873296642e+00 3.0031000000005665e+01 0 0 0
668 2 2.4610000000000003e+00 8.5251540748539991e+00 3.0031000000005665e+01 0 0 0
699 2 3.6914999999999996e+00 1.2077301606043163e+01 3.0031000000005665e+01 0 0 0
701 2 3.6914999999999996e+00 1.0656442593567499e+01 3.0031000000005665e+01 0 0 0
957 2 0.0000000000000000e+00 1.1366872099805333e+01 3.3236615575353099e+01 0 0 0
958 2 0.0000000000000000e+00 8.5251540748539991e+00 3.3236615575353099e+01 0 0 0
959 2 1.2305000000000001e+00 9.2355835810918343e+00 3.3236615575353099e+01 0 0 0
971 2 1.2305000000000001e+00 1.0656442593567498e+01 3.3236615575353099e+01 0 0 0
972 2 2.4610000000000003e+00 1.1366872099805333e+01 3.3236615575353099e+01 0 0 0
973 2 2.4610000000000003e+00 8.5251540748539991e+00 3.3236615575353099e+01 0 0 0
974 2 3.6915000000000004e+00 9.2355835810918343e+00 3.3236615575353099e+01 0 0 0
990 2 3.6914999999999996e+00 1.0656442593567499e+01 3.3236615575353099e+01 0 0 0
703 2 4.9220000000000006e+00 9.9460130873296642e+00 3.0031000000005665e+01 0 0 0
705 2 4.9220000000000006e+00 8.5251540748539991e+00 3.0031000000005665e+01 0 0 0
744 2 6.1524999999999999e+00 1.2077301606043163e+01 3.0031000000005665e+01 0 0 0
746 2 6.1524999999999999e+00 1.0656442593567499e+01 3.0031000000005665e+01 0 0 0
748 2 7.3830000000000009e+00 9.9460130873296642e+00 3.0031000000005665e+01 0 0 0
750 2 7.3830000000000009e+00 8.5251540748539991e+00 3.0031000000005665e+01 0 0 0
991 2 4.9220000000000006e+00 1.1366872099805333e+01 3.3236615575353099e+01 0 0 0
992 2 4.9220000000000006e+00 8.5251540748539991e+00 3.3236615575353099e+01 0 0 0
993 2 6.1524999999999999e+00 9.2355835810918343e+00 3.3236615575353099e+01 0 0 0
1013 2 6.1524999999999999e+00 1.0656442593567499e+01 3.3236615575353099e+01 0 0 0
1014 2 7.3829999999999991e+00 1.1366872099805333e+01 3.3236615575353099e+01 0 0 0
1015 2 7.3830000000000009e+00 8.5251540748539991e+00 3.3236615575353099e+01 0 0 0
791 2 8.6135000000000002e+00 1.2077301606043163e+01 3.0031000000005665e+01 0 0 0
793 2 8.6134999999999984e+00 1.0656442593567498e+01 3.0031000000005665e+01 0 0 0
795 2 9.8440000000000012e+00 9.9460130873296642e+00 3.0031000000005665e+01 0 0 0
797 2 9.8440000000000012e+00 8.5251540748539956e+00 3.0031000000005665e+01 0 0 0
838 2 1.1074500000000002e+01 1.2077301606043163e+01 3.0031000000005665e+01 0 0 0
840 2 1.1074500000000002e+01 1.0656442593567498e+01 3.0031000000005665e+01 0 0 0
1016 2 8.6134999999999984e+00 9.2355835810918343e+00 3.3236615575353099e+01 0 0 0
1037 2 8.6134999999999984e+00 1.0656442593567498e+01 3.3236615575353099e+01 0 0 0
1038 2 9.8440000000000012e+00 1.1366872099805333e+01 3.3236615575353099e+01 0 0 0
1039 2 9.8440000000000012e+00 8.5251540748539956e+00 3.3236615575353099e+01 0 0 0
1040 2 1.1074500000000002e+01 9.2355835810918343e+00 3.3236615575353099e+01 0 0 0
1061 2 1.1074500000000002e+01 1.0656442593567498e+01 3.3236615575353099e+01 0 0 0
1062 2 1.2304999999999998e+01 1.1366872099805333e+01 3.3236615575353099e+01 0 0 0
3168 1 3.4448352775640019e+00 3.5000457528172588e+00 3.6370025379383051e+01 -1 2 -1
4713 1 3.1262356398231117e+00 3.5139552830154681e+00 3.9004799340669322e+01 0 1 0
3312 1 8.3408621218730272e-01 2.4002846844974335e+00 3.6189434086878691e+01 -1 0 -1
6564 1 6.4567731911713908e+00 9.5196280206690478e+00 4.2596263498288053e+01 0 -2 0
2214 1 5.4058219016178493e+00 1.6136807037988845e+00 3.5934327212417173e+01 1 2 0
3192 1 7.5614130597606684e+00 2.9776514258456679e+00 3.9063965482989090e+01 -4 1 0
4879 1 7.7065716809055536e+00 2.7759206883247667e+00 3.6576616710542282e+01 -1 0 0
597 1 9.8273196852822942e+00 1.2916828214434430e+00 3.5898061234346983e+01 2 -2 0
4860 1 1.2010102782563550e+01 2.1889902847411800e+00 3.9097908198364422e+01 0 0 0
499 1 6.2439116721512002e+00 9.4104366546486098e+00 4.0092495503281214e+01 -1 1 0
5376 1 1.5809788274971330e+00 7.5689041319841435e+00 3.6482809555506549e+01 -1 -2 -1
1691 1 1.4985079655352269e+00 7.8661465367010539e+00 3.9243164531717724e+01 0 1 0
2331 1 3.7481377011434960e+00 5.9634199617087065e+00 3.5957199251367300e+01 -2 -1 0
1646 1 5.8992725336798797e+00 7.1331246448436652e+00 3.9302573364516334e+01 2 2 0
3656 1 6.2415782384551184e+00 6.9650778159229079e+00 3.6482540233348303e+01 -1 -3 -1
610 1 8.2980347237734264e+00 5.0652844757322901e+00 3.6150918970661124e+01 1 2 0
5098 1 9.8757743296424980e+00 6.2185446502062938e+00 3.9378577926308722e+01 -1 2 -1
589 1 1.0821502006757848e+01 5.7794598401076289e+00 3.6782531673989553e+01 -1 0 0
3354 1 1.1069403541538959e+01 1.1195797713769352e+01 4.3745343831688544e+01 3 2 -1
1942 1 2.0078406686766268e+00 1.0176225283427534e+01 3.5484832102639800e+01 1 0 -1
3918 1 1.1522003216548514e+01 8.5703894805846907e+00 3.6672672057309498e+01 2 2 -1
3616 1 4.3111262187120651e+00 1.1077746082518926e+01 3.8928908734052570e+01 3 0 -1
5053 1 4.3548041810087499e+00 1.1380814613225015e+01 3.6162688843019268e+01 -1 1 0
3693 1 6.6079532080597128e+00 9.5265762036615129e+00 3.5965724988127363e+01 2 -2 -1
1966 1 8.4533660151088750e+00 1.0177422502642008e+01 3.9355443168245600e+01 2 -1 -1
3546 1 9.1161774630701675e+00 1.0413496686002325e+01 3.6754480966603126e+01 2 1 -1
1921 1 1.1738765415445895e+01 4.5750645673184867e+00 4.0126219359241290e+01 1 1 -1
6697 1 7.6580089374960880e-01 2.2447076844258307e+00 3.9651845764629698e+01 0 5 -1
3952 1 8.6348275125900720e-01 2.6905553589050757e+00 4.2415997426959294e+01 -1 3 0
302 1 2.6773947343473168e+00 9.5205475585710619e-01 4.3699292397306891e+01 2 0 -1
6367 1 5.0962880068462049e+00 2.0047390327603991e+00 3.9940754741059351e+01 0 0 0
3102 1 5.0405525667800033e+00 1.9052656230989569e+00 4.2764251704922088e+01 0 2 0
5653 1 7.4538918677503325e+00 7.8902392193607529e-01 4.4055270654135953e+01 -1 -3 0
3321 1 9.5163943008107506e+00 1.5559184530708030e+00 4.0128404231988185e+01 0 1 -1
6648 1 9.8610577698724420e+00 1.4999711951094929e+00 4.2743989922563188e+01 0 3 0
5557 1 9.5218060265222864e+00 4.1479584149913657e+00 4.3593886390845370e+01 -2 1 -1
1774 1 3.6793682324762504e+00 6.2557911885151318e+00 4.0162310239057618e+01 -1 0 -1
5207 1 1.0620570091202022e+00 5.1045764249399914e+00 4.3781771743624191e+01 -1 2 -1
2121 1 3.3779889890014609e+00 6.2775345824165649e+00 4.2707307309981616e+01 1 -2 -1
593 1 7.5810912737769822e+00 5.3902008616444785e+00 4.0411381016456318e+01 0 -1 0
5082 1 4.9318381965663338e+00 4.4289285414857273e+00 4.3749313517515091e+01 2 2 0
4783 1 7.3800149443945120e+00 5.5513866310071256e+00 4.2987213500465955e+01 1 -1 0
2169 1 8.0592605907552546e+00 8.0437253340215769e+00 4.3893894005286484e+01 0 -1 -1
1349 1 1.0595868687589626e+01 8.9011971937692120e+00 4.2884284457093145e+01 1 3 -1
424 1 1.8484870335602279e+00 1.0368963285492626e+01 4.0014208264174158e+01 2 2 -1
4855 1 3.8467452954613588e+00 8.8110512200047513e+00 4.3542789040314958e+01 2 0 0
3173 1 1.9948214815275767e+00 1.0276711616782219e+01 4.2779148575302713e+01 1 0 0
2213 1 1.0381736694833693e+01 8.7658552173355968e+00 4.0274833554566555e+01 -2 0 -1
1946 1 1.2240756413114369e+01 6.9840395478277006e+00 4.3806318517278925e+01 0 1 -1
3655 1 6.5282998626123376e+00 1.2012173865902216e+01 4.3877713300537991e+01 0 2 -1
534 1 1.1902818917606716e+01 4.4449780722319590e+00 4.2682085426732115e+01 1 1 -1
4814 1 2.8806811704277431e+00 1.3723365246428807e+00 4.6388311460986216e+01 2 -1 0
5301 1 3.2686297005869354e+00 3.8011341589991172e+00 4.7587450282619031e+01 1 3 -1
3844 1 1.1864717433075606e+01 2.4709577998215835e+00 4.7276548045846610e+01 0 -3 -1
3790 1 7.8072577622619610e+00 3.1138605293928783e+00 4.7663989206592134e+01 2 0 -1
565 1 7.2416751650006255e+00 5.1335975720552374e-01 4.6687154552736118e+01 1 -2 0
3825 1 9.8651840909866806e+00 4.0776680014438931e+00 4.6293846278192916e+01 -1 1 -1
3120 1 1.0568833256959918e+01 8.8205134693998293e+00 5.4926607936548891e+01 -2 -3 0
3547 1 1.2518980548352725e+00 4.9972695857414307e+00 4.6512625478534787e+01 3 -3 -1
4940 1 1.3491093116895274e+00 7.5551098099652876e+00 4.7279593308042465e+01 0 -3 0