LAMMPS data file via write_data, version 16 Mar 2018, timestep = 100000

6750 atoms
2 atom types

0.0000000000000000e+00 4.9219999999999999e+01 xlo xhi
0.0000000000000000e+00 4.9019635930410494e+01 ylo yhi
3.6719030500620775e-01 5.9694809694994731e+01 zlo zhi

Masses

1 18.015
2 12.01

Atoms # atomic

5492 1 5.7540085481379384e+00 4.1209064510739832e+00 3.5255028598319580e+00 2 1 0
545 1 3.3493135413651354e-01 1.7713471765060116e+00 6.4335264757476560e+00 -1 1 0
5244 1 9.3016047584415720e+00 2.0750599291587575e+00 4.3883420977547170e+00 1 -1 0
264 1 7.8944899903356971e+00 6.2552435255168248e-01 2.2948065230713821e+00 -1 1 0
5241 1 6.7435881239632778e+00 5.9662031316633364e+00 4.9883726105800790e+00 0 0 0
3943 1 8.5350710758404542e+00 3.1271893424334887e+00 7.0682735660862428e-01 1 1 1
248 1 1.1446060218825322e+01 8.1115934311257263e+00 1.4447745081850446e+01 0 -1 0
5182 1 1.1142856255187288e+01 3.8542481470563090e+00 1.4943309873290960e+00 1 0 0
4895 1 7.1957133258147863e+00 2.1815348185925121e+00 6.3166351026960035e+00 -1 0 1
5064 1 3.4430114741000128e+00 5.5035293581794882e+00 3.1588610896133629e+00 1 0 0
3268 1 6.6522286137679130e+00 5.0528632336719745e+00 1.4154885934501436e+00 1 1 1
3894 1 8.7041163331188418e+00 6.8185236887824301e+00 1.7803792693234888e+00 1 1 0
6538 1 4.3791897839837999e+00 8.3482114828902834e+00 2.8605716998278408e+00 1 2 1
5048 1 1.0247953982568147e+01 9.0251184659807020e+00 5.8752302199495903e+00 -1 0 1
3813 1 9.7403039039249126e+00 6.7454966823481923e+00 4.2825865529523108e+00 0 1 0
2207 1 9.0628450385851833e-01 5.1533304969770271e+00 1.0348875182281816e+01 0 0 0
512 1 4.6033072881480352e+00 9.8758696293519943e-01 1.1285990292057823e+01 0 0 1
3347 1 8.2352105320735411e+00 1.5521146732964435e+00 1.4021132548389266e+01 0 0 0
3661 1 1.9002812046746440e+00 1.1790491876674848e+01 2.2790376342741356e+00 2 -1 0
3773 1 5.2874466435720215e+00 1.4820981409504463e+00 4.0927675023976402e+00 0 1 0
1663 1 2.6256753740361183e+00 4.3092706816679867e+00 5.3541437666623688e+00 1 0 1
3932 1 7.5148584645372480e+00 9.2998399842506370e+00 1.0183761313445676e+00 1 0 0
3997 1 7.0627726624383707e+00 1.1520224664209891e+01 3.1637102211892887e+00 0 2 1
1412 1 4.8013687016053250e+00 1.3790322676952476e+00 1.4268321765329823e+00 1 0 1
3861 1 4.1796024197395738e+00 1.1329831316079924e+01 4.0742009662340068e+00 0 0 0
1696 1 8.4959261919491809e+00 1.1073699781450564e+01 5.8432136074318048e+00 0 0 0
1583 1 8.9936987920550955e+00 1.1558967657686836e+01 1.4235737349969284e+01 0 0 1
1356 1 5.9223247155690428e-01 2.9301155246269688e+00 9.1650280024873947e+00 0 1 1
4813 1 3.4114048597525666e+00 2.1848278987393202e+00 8.9264364383260677e+00 1 1 1
3663 1 1.0296102607220455e+01 1.0236516409049250e+00 8.0588099425657589e+00 1 1 0
1671 1 4.7743586322978118e+00 3.7975091850564255e+00 7.0610216324466402e+00 1 0 1
6701 1 7.4621148833999156e+00 7.2005846992233264e+00 8.1437275626537247e+00 1 0 0
3934 1 7.2665866405518482e+00 7.3135556509870980e+00 1.2559877874883638e+01 1 0 0
3266 1 1.1092545520827313e+01 4.2782882320837619e+00 4.7083155563984977e+00 -1 2 0
6745 1 1.4143826575556051e+00 7.3300434830356256e+00 1.4672366524673048e+01 1 1 0
5161 1 9.8420504387873429e+00 1.1212279661254062e+01 1.1527747950148630e+01 -1 0 0
4933 1 1.9603268715400217e+00 6.8268336676984127e+00 6.7577478032604841e+00 0 0 0
79 1 2.6379673914951218e+00 6.4081596774653153e+00 9.3223283110303647e+00 1 0 0
2044 1 5.9642089093957980e+00 9.8075042748252486e+00 7.2101091519922056e+00 0 1 0
2222 1 5.3171593804575510e+00 5.6970134316527092e+00 9.3280136132502971e+00 0 1 1
3017 1 4.7011319685615733e+00 7.8570967279287895e+00 5.4857338156560456e+00 0 1 1
3713 1 8.5858853164364444e+00 8.7440277546352725e+00 1.0525926629752004e+01 1 1 0
3706 1 6.1508914843105700e+00 1.1596247324086303e+01 1.3362585226970653e+01 1 -1 0
2223 1 8.4314836610509136e+00 4.6015663754633236e+00 6.9694143335202385e+00 0 1 0
4944 1 1.0616989751803148e+01 7.7035656805262622e+00 8.3709413396785131e+00 0 0 1
2015 1 1.8467587839926694e+00 9.5558085750122856e+00 7.7355911607868340e+00 -1 -1 0
1932 1 3.7819558411301407e-01 1.1937503750551410e+00 2.8563261785676395e+00 1 3 0
68 1 2.3916453445347354e+00 9.6433807349936362e+00 9.4395299786800269e-01 -1 0 1
1635 1 2.5907066375260142e+00 1.1957968461886741e+01 6.6875204759453251e+00 0 0 0
6714 1 6.0516275104700403e+00 1.0143435281672019e+01 1.0270585517983200e+01 2 1 0
3868 1 3.2003767475858633e+00 1.0096728614931960e+01 9.8761773553833923e+00 0 0 1
5266 1 3.5651340052822342e+00 2.3085241520245589e-01 7.4986964080806118e+00 2 -1 0
3238 1 1.1746063534639308e+01 5.0566636266075387e+00 7.4675950360771512e+00 0 2 1
3831 1 3.1724075854184980e-01 4.8910903139018425e+00 1.2997089846083107e+01 1 1 0
5449 1 1.6709333038899141e+00 1.6662459767622686e+00 1.4537068228978399e+01 2 0 0
1709 1 2.6363307609231414e+00 8.0695543542023351e-01 4.7044094832677930e+00 0 0 1
2198 1 8.8459107455816248e+00 3.8471057342302863e+00 9.8084996916681568e+00 1 1 0
5649 1 5.9150677031805614e+00 2.7253466253557410e+00 1.3275900815916346e+01 1 1 1
6424 1 1.6703633596973428e+00 2.2022118768524552e+00 3.9815836606730848e-01 2 2 1
6343 1 8.8740440811850796e+00 1.2127250023444927e+00 1.1324928014094295e+01 0 1 1
1471 1 9.7620110659264137e-01 1.0362989695057470e+01 1.4068410386977318e+01 1 1 1
3504 1 2.5333141792025113e+00 8.2205562300155837e+00 1.1989437766143004e+01 1 1 0
5102 1 2.4017374075131959e+00 5.0923060404777836e+00 9.1758372481428652e-01 1 -1 0
3167 1 9.9108189238629123e+00 6.3852569399927317e+00 1.3336795179359299e+01 0 1 1
6456 1 6.7203502274396989e+00 4.8439270456066712e+00 1.1420506952126862e+01 1 0 1
5505 1 5.0311244314238435e+00 9.1173048564135843e+00 1.2988416131195583e+01 1 0 0
5592 1 1.0419319583365963e+01 5.6608869265662154e+00 1.0779274689422898e+01 0 1 1
5358 1 1.1340663239250686e+01 3.4763736054229993e-01 5.4835904203412680e+00 1 1 0
2132 1 2.8070081432812879e+00 3.4147512247255012e+00 1.3119587828319382e+01 0 0 0
4840 1 9.7872407734025355e+00 3.8324314615367947e+00 1.4508902913925670e+01 0 -1 1
2000 1 3.4182667684765864e+00 5.3209998896671697e+00 1.5193331130401369e+01 0 2 0
1525 1 4.9311964630355822e+00 4.3898836215993740e+00 1.9105208856163099e+01 0 -1 1
1707 1 2.8242803645702650e+00 3.0275981755998531e+00 2.0269635543076980e+01 0 -1 1
3164 1 9.9768558747358220e+00 1.7565169130364713e+00 1.8917908177271133e+01 1 0 1
841 2 1.2304999999999998e+01 1.1366872099805333e+01 2.6805634258815410e+01 0 0 0
2256 1 5.8446896568302193e+00 3.8985443294542836e+00 1.6105290092143981e+01 0 1 1
1636 1 6.4034079052306678e+00 9.9443745145531026e-01 1.6802479724689206e+01 -1 1 1
4843 1 7.4455529900749253e+00 1.8613331935269277e+00 2.1130561447752076e+01 1 1 1
796 2 9.8440000000000012e+00 8.5251540748539956e+00 2.6805634258815410e+01 0 0 0
3443 1 1.1142217631498207e+01 4.4286510579815914e+00 1.7360488484901978e+01 0 0 0
6479 1 1.2574569983961884e-01 1.0964109323391437e+01 1.8215670158227059e+01 0 1 1
798 2 1.1074500000000002e+01 9.2355835810918343e+00 2.6805634258815410e+01 0 0 0
3272 1 2.1500318046867708e+00 5.6032191493720029e+00 1.7771073365893734e+01 1 1 1
5330 1 9.7595333634854420e+00 9.7843655899943158e+00 1.5780983470221036e+01 1 0 0
1911 1 8.2225055972596302e+00 5.4319503091683892e+00 1.6390390456761605e+01 1 0 0
351 1 1.3430151419891700e-01 5.8403413838476048e-01 2.1038357477414706e+01 0 0 1
6681 1 9.2768378236419938e-02 6.9703789461526933e+00 2.4413924133222057e+01 1 2 1
704 2 4.9220000000000006e+00 8.5251540748539991e+00 2.6805634258815410e+01 0 0 0
6440 1 2.0754822196351554e+00 8.4948694378754634e+00 1.8153430243563822e+01 1 -1 1
3686 1 1.1195364287182017e+00 2.4559702469890610e+00 2.4225219102646282e+01 2 1 0
3816 1 5.5735774485129834e+00 1.1557814580917910e+01 1.6338429498236927e+01 -1 2 0
2985 1 8.6166896269287676e+00 8.5919034391787257e+00 1.9899174802252755e+01 1 0 1
4758 1 7.4052427334217832e+00 9.9236163260936330e+00 1.7755813678010583e+01 1 -1 1
3091 1 3.2957190987790357e+00 9.6293815399257880e+00 1.5832175282120083e+01 1 -1 1
839 2 1.1074500000000002e+01 1.0656442593567498e+01 2.6805634258815410e+01 0 0 0
29 1 7.7093605812308814e+00 1.7251659336846541e+00 2.3817338056700059e+01 0 0 1
5646 1 1.1416274319920266e+01 1.1472988540701550e+01 1.7371426196773442e+01 1 1 0
751 2 8.6134999999999984e+00 9.2355835810918343e+00 2.6805634258815410e+01 0 0 0
4692 1 3.1819706418223732e+00 3.3688620083866820e+00 2.2991392870727108e+01 0 0 0
3448 1 7.2631149450572723e+00 5.0012588190576395e+00 2.1036060790074064e+01 1 1 0
3513 1 7.4570862030216105e+00 7.6151182306120795e+00 1.5599190144105307e+01 1 0 0
596 1 4.2036198728791776e+00 5.8999902820733956e+00 2.3380702502269983e+01 0 0 1
128 1 1.5959572913157278e+00 1.1967431399876460e+01 2.4146260263358414e+01 2 0 1
1588 1 1.1895800481539622e+01 4.5694203462019480e+00 2.0344057409780810e+01 -1 0 1
2266 1 8.1678941042677149e+00 4.2494406156193625e+00 2.4092088620886830e+01 0 0 1
2020 1 7.0654468603687892e-01 3.2720731907939360e+00 1.8580820854906257e+01 1 1 0
2135 1 3.7290436633750228e+00 8.9763638633131233e+00 2.0439498368597818e+01 0 0 0
3030 1 2.6126900744576087e+00 7.7471033218037277e+00 2.4443126740935838e+01 0 0 1
792 2 8.6134999999999984e+00 1.0656442593567498e+01 2.6805634258815410e+01 0 0 0
6719 1 3.0832269262591456e+00 6.5344875019798208e+00 2.0931639836247001e+01 2 2 1
3259 1 6.2759804581146108e+00 7.7834765566565975e+00 2.1208601726110970e+01 -1 0 1
6332 1 6.3874489147683429e+00 6.0941683307686914e+00 2.4586137663175716e+01 0 0 1
3533 1 7.4875787147768191e+00 8.4440027887406774e+00 2.3536290584682991e+01 -1 1 0
4939 1 1.0525194607488494e+01 5.4569539763543888e+00 2.3107832293649079e+01 0 0 1
6335 1 1.0355513992370961e+01 8.0124982222836021e+00 2.3713667532461848e+01 -1 1 1
137 1 9.1283230688558969e+00 5.9072004666296314e+00 1.9287985387838560e+01 0 0 0
575 1 4.6083228628626083e+00 1.1415740298224568e+01 1.9090406536059149e+01 1 -1 1
5108 1 3.3907648635154031e+00 1.0094243214702082e+01 2.2877796903974115e+01 0 -1 1
3313 1 6.1001313886396167e+00 1.0649050588953475e+01 2.3790933691301603e+01 0 2 1
5565 1 4.6639107528111809e+00 1.5160838474019158e+00 2.4065527601803591e+01 0 1 1
4803 1 6.4748167601238498e+00 1.1416304901698574e+01 2.0947113915236333e+01 1 0 1
3358 1 1.5080415262773816e-01 9.4343768015653451e-01 1.6991864718301397e+01 0 1 1
4808 1 1.0874589984449745e+01 1.0056334328289410e+01 2.1542397380979402e+01 -1 0 0
794 2 9.8440000000000012e+00 1.1366872099805333e+01 2.6805634258815410e+01 0 0 0
618 2 0.0000000000000000e+00 2.8417180249513345e+00 2.6805634258815410e+01 0 0 0
620 2 0.0000000000000000e+00 0.0000000000000000e+00 2.6805634258815410e+01 0 0 0
622 2 1.2305000000000001e+00 7.1042950623783474e-01 2.6805634258815410e+01 0 0 0
629 2 1.2305000000000001e+00 2.1312885187134998e+00 2.6805634258815410e+01 0 0 0
631 2 2.4610000000000003e+00 2.8417180249513345e+00 2.6805634258815410e+01 0 0 0
633 2 2.4610000000000003e+00 0.0000000000000000e+00 2.6805634258815410e+01 0 0 0
635 2 3.6915000000000004e+00 7.1042950623783474e-01 2.6805634258815410e+01 0 0 0
650 2 3.6914999999999996e+00 2.1312885187134998e+00 2.6805634258815410e+01 0 0 0
652 2 4.9220000000000006e+00 2.8417180249513332e+00 2.6805634258815410e+01 0 0 0
654 2 4.9220000000000006e+00 0.0000000000000000e+00 2.6805634258815410e+01 0 0 0
656 2 6.1524999999999999e+00 7.1042950623783407e-01 2.6805634258815410e+01 0 0 0
679 2 6.1524999999999999e+00 2.1312885187134989e+00 2.6805634258815410e+01 0 0 0
681 2 7.3829999999999991e+00 2.8417180249513345e+00 2.6805634258815410e+01 0 0 0
683 2 7.3829999999999991e+00 0.0000000000000000e+00 2.6805634258815410e+01 0 0 0
685 2 8.6134999999999984e+00 7.1042950623783407e-01 2.6805634258815410e+01 0 0 0
716 2 8.6134999999999984e+00 2.1312885187135002e+00 2.6805634258815410e+01 0 0 0
718 2 9.8440000000000012e+00 2.8417180249513332e+00 2.6805634258815410e+01 0 0 0
720 2 9.8440000000000012e+00 0.0000000000000000e+00 2.6805634258815410e+01 0 0 0
722 2 1.1074500000000002e+01 7.1042950623783330e-01 2.6805634258815410e+01 0 0 0
761 2 1.1074500000000002e+01 2.1312885187135002e+00 2.6805634258815410e+01 0 0 0
623 2 0.0000000000000000e+00 7.1042950623783341e+00 2.6805634258815410e+01 0 0 0
625 2 0.0000000000000000e+00 4.2625770374269996e+00 2.6805634258815410e+01 0 0 0
627 2 1.2305000000000001e+00 4.9730065436648339e+00 2.6805634258815410e+01 0 0 0
642 2 1.2305000000000001e+00 6.3938655561404980e+00 2.6805634258815410e+01 0 0 0
644 2 2.4610000000000003e+00 7.1042950623783341e+00 2.6805634258815410e+01 0 0 0
646 2 2.4610000000000003e+00 4.2625770374269996e+00 2.6805634258815410e+01 0 0 0
648 2 3.6914999999999996e+00 4.9730065436648339e+00 2.6805634258815410e+01 0 0 0
671 2 3.6914999999999996e+00 6.3938655561404980e+00 2.6805634258815410e+01 0 0 0
673 2 4.9220000000000006e+00 7.1042950623783341e+00 2.6805634258815410e+01 0 0 0
675 2 4.9220000000000006e+00 4.2625770374269978e+00 2.6805634258815410e+01 0 0 0
677 2 6.1524999999999999e+00 4.9730065436648339e+00 2.6805634258815410e+01 0 0 0
708 2 6.1524999999999999e+00 6.3938655561404980e+00 2.6805634258815410e+01 0 0 0
710 2 7.3830000000000009e+00 7.1042950623783341e+00 2.6805634258815410e+01 0 0 0
712 2 7.3829999999999991e+00 4.2625770374269996e+00 2.6805634258815410e+01 0 0 0
714 2 8.6135000000000002e+00 4.9730065436648339e+00 2.6805634258815410e+01 0 0 0
753 2 8.6135000000000002e+00 6.3938655561404980e+00 2.6805634258815410e+01 0 0 0
755 2 9.8440000000000012e+00 7.1042950623783341e+00 2.6805634258815410e+01 0 0 0
757 2 9.8440000000000012e+00 4.2625770374270004e+00 2.6805634258815410e+01 0 0 0
759 2 1.1074500000000002e+01 4.9730065436648339e+00 2.6805634258815410e+01 0 0 0
800 2 1.1074500000000002e+01 6.3938655561404980e+00 2.6805634258815410e+01 0 0 0
636 2 0.0000000000000000e+00 1.1366872099805333e+01 2.6805634258815410e+01 0 0 0
638 2 0.0000000000000000e+00 8.5251540748539991e+00 2.6805634258815410e+01 0 0 0
640 2 1.2305000000000001e+00 9.2355835810918343e+00 2.6805634258815410e+01 0 0 0
663 2 1.2305000000000001e+00 1.0656442593567498e+01 2.6805634258815410e+01 0 0 0
665 2 2.4610000000000003e+00 1.1366872099805333e+01 2.6805634258815410e+01 0 0 0
667 2 2.4610000000000003e+00 8.5251540748539991e+00 2.6805634258815410e+01 0 0 0
669 2 3.6915000000000004e+00 9.2355835810918343e+00 2.6805634258815410e+01 0 0 0
700 2 3.6914999999999996e+00 1.0656442593567499e+01 2.6805634258815410e+01 0 0 0
749 2 7.3830000000000009e+00 8.5251540748539991e+00 2.6805634258815410e+01 0 0 0
706 2 6.1524999999999999e+00 9.2355835810918343e+00 2.6805634258815410e+01 0 0 0
747 2 7.3829999999999991e+00 1.1366872099805333e+01 2.6805634258815410e+01 0 0 0
702 2 4.9220000000000006e+00 1.1366872099805333e+01 2.6805634258815410e+01 0 0 0
745 2 6.1524999999999999e+00 1.0656442593567499e+01 2.6805634258815410e+01 0 0 0
5618 1 2.6463192145097730e-01 6.5593578540861133e+00 2.1631402606112456e+01 1 2 0
1716 1 5.8548589559244109e+00 3.6168856382549730e-01 1.9278958041006955e+01 0 0 0
3732 1 3.1818069295969797e+00 6.1589925339398044e-01 1.9964450640516379e+01 1 1 0
3234 1 5.0010846476407522e+00 7.5766564557727403e+00 1.5362359071905544e+01 0 -1 1
84 1 4.1621374710085171e+00 3.9216154362956129e-01 1.5445817519660041e+01 0 1 1
619 2 0.0000000000000000e+00 1.4208590124756650e+00 3.0031000000000585e+01 0 0 0
621 2 0.0000000000000000e+00 0.0000000000000000e+00 3.0031000000000585e+01 0 0 0
628 2 1.2305000000000001e+00 3.5521475311891644e+00 3.0031000000000585e+01 0 0 0
630 2 1.2305000000000001e+00 2.1312885187134998e+00 3.0031000000000585e+01 0 0 0
632 2 2.4610000000000003e+00 1.4208590124756650e+00 3.0031000000000585e+01 0 0 0
634 2 2.4610000000000003e+00 0.0000000000000000e+00 3.0031000000000585e+01 0 0 0
649 2 3.6914999999999996e+00 3.5521475311891644e+00 3.0031000000000585e+01 0 0 0
651 2 3.6914999999999996e+00 2.1312885187134998e+00 3.0031000000000585e+01 0 0 0
947 2 0.0000000000000000e+00 2.8417180249513345e+00 3.3256365741184538e+01 0 0 0
948 2 0.0000000000000000e+00 0.0000000000000000e+00 3.3256365741184538e+01 0 0 0
949 2 1.2305000000000001e+00 7.1042950623783474e-01 3.3256365741184538e+01 0 0 0
953 2 1.2305000000000001e+00 2.1312885187134998e+00 3.3256365741184538e+01 0 0 0
954 2 2.4610000000000003e+00 2.8417180249513345e+00 3.3256365741184538e+01 0 0 0
955 2 2.4610000000000003e+00 0.0000000000000000e+00 3.3256365741184538e+01 0 0 0
956 2 3.6915000000000004e+00 7.1042950623783474e-01 3.3256365741184538e+01 0 0 0
964 2 3.6914999999999996e+00 2.1312885187134998e+00 3.3256365741184538e+01 0 0 0
653 2 4.9220000000000006e+00 1.4208590124756650e+00 3.0031000000000585e+01 0 0 0
655 2 4.9220000000000006e+00 0.0000000000000000e+00 3.0031000000000585e+01 0 0 0
678 2 6.1524999999999999e+00 3.5521475311891644e+00 3.0031000000000585e+01 0 0 0
680 2 6.1524999999999999e+00 2.1312885187134989e+00 3.0031000000000585e+01 0 0 0
682 2 7.3829999999999991e+00 1.4208590124756659e+00 3.0031000000000585e+01 0 0 0
684 2 7.3829999999999991e+00 0.0000000000000000e+00 3.0031000000000585e+01 0 0 0
965 2 4.9220000000000006e+00 2.8417180249513332e+00 3.3256365741184538e+01 0 0 0
966 2 4.9220000000000006e+00 0.0000000000000000e+00 3.3256365741184538e+01 0 0 0
967 2 6.1524999999999999e+00 7.1042950623783407e-01 3.3256365741184538e+01 0 0 0
979 2 6.1524999999999999e+00 2.1312885187134989e+00 3.3256365741184538e+01 0 0 0
980 2 7.3829999999999991e+00 2.8417180249513345e+00 3.3256365741184538e+01 0 0 0
981 2 7.3829999999999991e+00 0.0000000000000000e+00 3.3256365741184538e+01 0 0 0
715 2 8.6134999999999984e+00 3.5521475311891657e+00 3.0031000000000585e+01 0 0 0
717 2 8.6134999999999984e+00 2.1312885187135002e+00 3.0031000000000585e+01 0 0 0
719 2 9.8440000000000012e+00 1.4208590124756659e+00 3.0031000000000585e+01 0 0 0
721 2 9.8440000000000012e+00 0.0000000000000000e+00 3.0031000000000585e+01 0 0 0
760 2 1.1074500000000002e+01 3.5521475311891644e+00 3.0031000000000585e+01 0 0 0
762 2 1.1074500000000002e+01 2.1312885187135002e+00 3.0031000000000585e+01 0 0 0
982 2 8.6134999999999984e+00 7.1042950623783407e-01 3.3256365741184538e+01 0 0 0
998 2 8.6134999999999984e+00 2.1312885187135002e+00 3.3256365741184538e+01 0 0 0
999 2 9.8440000000000012e+00 2.8417180249513332e+00 3.3256365741184538e+01 0 0 0
1000 2 9.8440000000000012e+00 0.0000000000000000e+00 3.3256365741184538e+01 0 0 0
1001 2 1.1074500000000002e+01 7.1042950623783330e-01 3.3256365741184538e+01 0 0 0
1021 2 1.1074500000000002e+01 2.1312885187135002e+00 3.3256365741184538e+01 0 0 0
624 2 0.0000000000000000e+00 5.6834360499026637e+00 3.0031000000000585e+01 0 0 0
626 2 0.0000000000000000e+00 4.2625770374269996e+00 3.0031000000000585e+01 0 0 0
641 2 1.2305000000000001e+00 7.8147245686161639e+00 3.0031000000000585e+01 0 0 0
643 2 1.2305000000000001e+00 6.3938655561404980e+00 3.0031000000000585e+01 0 0 0
645 2 2.4610000000000003e+00 5.6834360499026637e+00 3.0031000000000585e+01 0 0 0
647 2 2.4610000000000003e+00 4.2625770374269996e+00 3.0031000000000585e+01 0 0 0
670 2 3.6914999999999996e+00 7.8147245686161639e+00 3.0031000000000585e+01 0 0 0
672 2 3.6914999999999996e+00 6.3938655561404980e+00 3.0031000000000585e+01 0 0 0
950 2 0.0000000000000000e+00 7.1042950623783341e+00 3.3256365741184538e+01 0 0 0
951 2 0.0000000000000000e+00 4.2625770374269996e+00 3.3256365741184538e+01 0 0 0
952 2 1.2305000000000001e+00 4.9730065436648339e+00 3.3256365741184538e+01 0 0 0
960 2 1.2305000000000001e+00 6.3938655561404980e+00 3.3256365741184538e+01 0 0 0
961 2 2.4610000000000003e+00 7.1042950623783341e+00 3.3256365741184538e+01 0 0 0
962 2 2.4610000000000003e+00 4.2625770374269996e+00 3.3256365741184538e+01 0 0 0
963 2 3.6914999999999996e+00 4.9730065436648339e+00 3.3256365741184538e+01 0 0 0
975 2 3.6914999999999996e+00 6.3938655561404980e+00 3.3256365741184538e+01 0 0 0
674 2 4.9220000000000006e+00 5.6834360499026637e+00 3.0031000000000585e+01 0 0 0
676 2 4.9220000000000006e+00 4.2625770374269978e+00 3.0031000000000585e+01 0 0 0
707 2 6.1524999999999999e+00 7.8147245686161639e+00 3.0031000000000585e+01 0 0 0
709 2 6.1524999999999999e+00 6.3938655561404980e+00 3.0031000000000585e+01 0 0 0
711 2 7.3829999999999991e+00 5.6834360499026637e+00 3.0031000000000585e+01 0 0 0
713 2 7.3829999999999991e+00 4.2625770374269996e+00 3.0031000000000585e+01 0 0 0
976 2 4.9220000000000006e+00 7.1042950623783341e+00 3.3256365741184538e+01 0 0 0
977 2 4.9220000000000006e+00 4.2625770374269978e+00 3.3256365741184538e+01 0 0 0
978 2 6.1524999999999999e+00 4.9730065436648339e+00 3.3256365741184538e+01 0 0 0
994 2 6.1524999999999999e+00 6.3938655561404980e+00 3.3256365741184538e+01 0 0 0
995 2 7.3830000000000009e+00 7.1042950623783341e+00 3.3256365741184538e+01 0 0 0
996 2 7.3829999999999991e+00 4.2625770374269996e+00 3.3256365741184538e+01 0 0 0
752 2 8.6135000000000002e+00 7.8147245686161639e+00 3.0031000000000585e+01 0 0 0
754 2 8.6135000000000002e+00 6.3938655561404980e+00 3.0031000000000585e+01 0 0 0
756 2 9.8440000000000012e+00 5.6834360499026637e+00 3.0031000000000585e+01 0 0 0
758 2 9.8440000000000012e+00 4.2625770374270004e+00 3.0031000000000585e+01 0 0 0
799 2 1.1074500000000002e+01 7.8147245686161639e+00 3.0031000000000585e+01 0 0 0
801 2 1.1074500000000002e+01 6.3938655561404980e+00 3.0031000000000585e+01 0 0 0
997 2 8.6135000000000002e+00 4.9730065436648339e+00 3.3256365741184538e+01 0 0 0
1017 2 8.6135000000000002e+00 6.3938655561404980e+00 3.3256365741184538e+01 0 0 0
1018 2 9.8440000000000012e+00 7.1042950623783341e+00 3.3256365741184538e+01 0 0 0
1019 2 9.8440000000000012e+00 4.2625770374270004e+00 3.3256365741184538e+01 0 0 0
1020 2 1.1074500000000002e+01 4.9730065436648339e+00 3.3256365741184538e+01 0 0 0
1041 2 1.1074500000000002e+01 6.3938655561404980e+00 3.3256365741184538e+01 0 0 0
637 2 0.0000000000000000e+00 9.9460130873296642e+00 3.0031000000000585e+01 0 0 0
639 2 0.0000000000000000e+00 8.5251540748539991e+00 3.0031000000000585e+01 0 0 0
662 2 1.2305000000000001e+00 1.2077301606043163e+01 3.0031000000000585e+01 0 0 0
664 2 1.2305000000000001e+00 1.0656442593567498e+01 3.0031000000000585e+01 0 0 0
666 2 2.4610000000000003e+00 9.9460130873296642e+00 3.0031000000000585e+01 0 0 0
668 2 2.4610000000000003e+00 8.5251540748539991e+00 3.0031000000000585e+01 0 0 0
699 2 3.6914999999999996e+00 1.2077301606043163e+01 3.0031000000000585e+01 0 0 0
701 2 3.6914999999999996e+00 1.0656442593567499e+01 3.0031000000000585e+01 0 0 0
957 2 0.0000000000000000e+00 1.1366872099805333e+01 3.3256365741184538e+01 0 0 0
958 2 0.0000000000000000e+00 8.5251540748539991e+00 3.3256365741184538e+01 0 0 0
959 2 1.2305000000000001e+00 9.2355835810918343e+00 3.3256365741184538e+01 0 0 0
971 2 1.2305000000000001e+00 1.0656442593567498e+01 3.3256365741184538e+01 0 0 0
972 2 2.4610000000000003e+00 1.1366872099805333e+01 3.3256365741184538e+01 0 0 0
973 2 2.4610000000000003e+00 8.5251540748539991e+00 3.3256365741184538e+01 0 0 0
974 2 3.6915000000000004e+00 9.2355835810918343e+00 3.3256365741184538e+01 0 0 0
990 2 3.6914999999999996e+00 1.0656442593567499e+01 3.3256365741184538e+01 0 0 0
703 2 4.9220000000000006e+00 9.9460130873296642e+00 3.0031000000000585e+01 0 0 0
705 2 4.9220000000000006e+00 8.5251540748539991e+00 3.0031000000000585e+01 0 0 0
744 2 6.1524999999999999e+00 1.2077301606043163e+01 3.0031000000000585e+01 0 0 0
746 2 6.1524999999999999e+00 1.0656442593567499e+01 3.0031000000000585e+01 0 0 0
748 2 7.3830000000000009e+00 9.9460130873296642e+00 3.0031000000000585e+01 0 0 0
750 2 7.3830000000000009e+00 8.5251540748539991e+00 3.0031000000000585e+01 0 0 0
991 2 4.9220000000000006e+00 1.1366872099805333e+01 3.3256365741184538e+01 0 0 0
992 2 4.9220000000000006e+00 8.5251540748539991e+00 3.3256365741184538e+01 0 0 0
993 2 6.1524999999999999e+00 9.2355835810918343e+00 3.3256365741184538e+01 0 0 0
1013 2 6.1524999999999999e+00 1.0656442593567499e+01 3.3256365741184538e+01 0 0 0
1014 2 7.3829999999999991e+00 1.1366872099805333e+01 3.3256365741184538e+01 0 0 0
1015 2 7.3830000000000009e+00 8.5251540748539991e+00 3.3256365741184538e+01 0 0 0
791 2 8.6135000000000002e+00 1.2077301606043163e+01 3.0031000000000585e+01 0 0 0
793 2 8.6134999999999984e+00 1.0656442593567498e+01 3.0031000000000585e+01 0 0 0
795 2 9.8440000000000012e+00 9.9460130873296642e+00 3.0031000000000585e+01 0 0 0
797 2 9.8440000000000012e+00 8.5251540748539956e+00 3.0031000000000585e+01 0 0 0
838 2 1.1074500000000002e+01 1.2077301606043163e+01 3.0031000000000585e+01 0 0 0
840 2 1.1074500000000002e+01 1.0656442593567498e+01 3.0031000000000585e+01 0 0 0
1016 2 8.6134999999999984e+00 9.2355835810918343e+00 3.3256365741184538e+01 0 0 0
1037 2 8.6134999999999984e+00 1.0656442593567498e+01 3.3256365741184538e+01 0 0 0
1038 2 9.8440000000000012e+00 1.1366872099805333e+01 3.3256365741184538e+01 0 0 0
1039 2 9.8440000000000012e+00 8.5251540748539956e+00 3.3256365741184538e+01 0 0 0
1040 2 1.1074500000000002e+01 9.2355835810918343e+00 3.3256365741184538e+01 0 0 0
1061 2 1.1074500000000002e+01 1.0656442593567498e+01 3.3256365741184538e+01 0 0 0
1062 2 1.2304999999999998e+01 1.1366872099805333e+01 3.3256365741184538e+01 0 0 0
1823 1 4.9748964547708638e+00 1.6689744616216995e+00 3.7895717570217386e+01 1 1 0
294 1 2.7455214650672084e+00 3.1860267221952321e+00 3.8670448055524645e+01 0 2 -1
5346 1 2.0160970933543809e+00 5.0909291006897357e+00 3.6825311138896126e+01 0 0 -1
4740 1 1.0517820224948167e+01 7.7842741851323201e+00 4.4299096065431783e+01 1 0 0
6614 1 8.7806928455056568e+00 2.2908037067652067e+00 3.5778639806899250e+01 0 1 0
4842 1 6.8940257878077311e+00 3.4765811891767417e+00 3.7233092280739896e+01 0 0 0
3429 1 9.1396905703326894e+00 7.2900958810359617e-01 4.0565516509142000e+01 0 0 0
1602 1 8.0775625662326664e+00 3.0569093264155978e+00 3.9595505751141843e+01 0 -1 -1
5282 1 1.1294241636819164e+01 1.4829070396402555e+00 3.6424784324470238e+01 2 0 -1
5602 1 1.1063448123905660e+01 7.5462506282049036e-01 3.8923956743025329e+01 0 1 0
6495 1 5.8674983239881362e+00 3.5937569922928430e+00 4.1663058116163796e+01 0 2 -1
3381 1 3.9037408364262873e+00 6.8149177657268396e+00 3.7618947848941829e+01 0 0 0
1742 1 4.5249665433074870e+00 6.5908643904246400e+00 4.0370699728027901e+01 -1 0 0
5430 1 5.2195623171022278e+00 2.7954137561121439e-01 3.9950863577231402e+01 0 0 -1
4749 1 6.0046189671398071e+00 5.9795527280987439e+00 3.6320856720397188e+01 0 -1 0
6407 1 8.4048585503930617e+00 7.0784234668995740e+00 3.6454188231269640e+01 0 1 0
200 1 9.9537812897102356e+00 5.1436248145961505e+00 3.9087824619989860e+01 0 0 -1
1467 1 1.0261518916624649e+01 4.9716813145217458e+00 3.5747879188881939e+01 0 1 0
94 1 8.4722329317453831e+00 9.9932590831545003e+00 3.5931195681006798e+01 -1 0 0
3479 1 9.7366555124857843e+00 1.0691426912171833e+01 4.4253325391254009e+01 1 -1 0
4886 1 2.6287523831998074e+00 9.1851799574085469e+00 3.6826599348051303e+01 -1 0 0
3951 1 1.1928988894969956e+01 1.1255089466373596e+01 3.9500430447907391e+01 0 0 0
3992 1 3.6076432608899363e+00 1.0957078106958866e+01 4.0705003588808211e+01 0 -2 0
1668 1 1.1278558268561127e+01 1.1821704710413147e+01 3.6755057279795992e+01 1 0 0
363 1 4.6987951513501054e+00 4.5507302903787278e-01 4.2718437233011471e+01 1 1 -1
396 1 5.6041063212238003e+00 9.4759710627031879e+00 3.5808374050319060e+01 0 -1 -1
5308 1 8.7147435279342489e-01 5.5102778723569497e+00 4.2669612213806701e+01 2 -1 -1
5005 1 9.2033161540080002e+00 7.8758453960787795e+00 3.9084283375969605e+01 1 1 0
5019 1 6.8960135072394237e+00 8.0374571596122770e+00 4.0668581291059411e+01 0 0 0
1612 1 5.1537576939725838e-01 9.8648913987203848e+00 3.5337565028945534e+01 0 1 0
3177 1 2.6344796761147218e+00 2.7115627591442726e+00 4.3402834301428911e+01 -1 -1 0
2119 1 6.4924379001322583e+00 7.1506029826694055e+00 4.4086798108754635e+01 1 0 -1
481 1 6.1967210958791430e+00 2.2952387933197986e+00 4.4417900968961007e+01 0 1 0
36 1 5.9812971928966112e+00 1.0214856250905125e+01 4.1493984247468063e+01 0 1 -1
3921 1 1.1997873085171348e+01 2.9689531450984754e+00 4.3079907654657205e+01 1 0 -1
206 1 6.8550661473035523e+00 1.0070740080231042e+01 4.4083803038736519e+01 1 0 -1
1886 1 1.0151899213906400e+01 7.5295936353864945e-01 4.3187226594271721e+01 -1 0 -1
2258 1 3.5681154944766456e+00 4.0037120872285010e+00 4.1053729702131520e+01 0 1 0
3433 1 2.5895511198058041e+00 8.4199661134471100e+00 4.4064672384414834e+01 0 -1 -1
2106 1 7.5805103025546936e+00 5.6945150382176486e+00 4.1999193543752568e+01 0 1 -1
1628 1 1.1797880065473231e+01 8.4990005837448077e+00 3.9344189150308765e+01 0 0 0
2005 1 4.8043773737598405e+00 1.1942119436705671e+01 3.6508389024765322e+01 0 0 -1
5174 1 1.0304094493693627e+01 5.4895926899773118e+00 4.2172369255664407e+01 1 0 0
1919 1 8.7862064771241200e-01 1.7520055056875876e+00 3.9306696186294900e+01 -1 0 -1
6595 1 2.5121550741773842e+00 8.5233977523056232e+00 4.1282452415073323e+01 0 2 0
185 1 2.8318839338862367e+00 1.1545940351460960e+01 3.8290820730409280e+01 0 0 0
3312 1 1.2259362761564581e+01 7.3086906191331904e+00 3.6795435259943332e+01 -1 1 -1
3895 1 9.4455859444844101e+00 3.7176359801358911e+00 4.4665833365666145e+01 0 0 -1
417 1 1.8639804338992703e+00 3.4202784664347083e+00 4.8012437283945857e+01 0 1 -1
5419 1 9.9419144179950758e-01 5.7514961010779695e+00 5.7815132453757130e+01 1 0 -1
1375 1 5.8381822776447541e+00 3.0657620050366563e+00 4.8040081802800444e+01 0 0 0
3216 1 2.1925962073981645e-01 2.5769377227688639e+00 5.5603316758893584e+01 2 1 0
459 1 1.0470121509896751e+01 9.3141114622522228e+00 5.5941829883014606e+01 0 0 -1
1624 1 8.5061136185812281e+00 1.5717216618476912e+00 4.8375033637191720e+01 -1 0 -1
4887 1 4.5953967739022890e+00 1.1320163802363416e+01 5.4432261182942625e+01 0 0 0
3957 1 4.3128703918679312e+00 1.7127892390703117e+00 5.1600406668281551e+01 1 1 0
3050 1 1.8084256608171962e+00 5.4686620899758855e+00 4.9668853300696227e+01 0 1 -1
4701 1 3.9485903901096031e+00 3.9938375663142938e+00 4.5796379492094530e+01 1 -1 0
1380 1 4.0660263471190516e+00 7.6266938047754778e+00 4.8097591100680830e+01 -1 1 0
1510 1 8.4789435741033188e+00 6.6144555893735513e+00 4.5820349534553657e+01 2 0 -1