
# Create simulation box and atoms

read_data data.graphite_substrate_500
  orthogonal box = (0 0 -0.518223) to (49.22 49.0196 60.5802)
  4 by 4 by 4 MPI processor grid
  reading atoms ...
  6750 atoms
  reading velocities ...
  6750 velocities
group water type 1
3990 atoms in group water
group graphite type 2
2760 atoms in group graphite

# Define potential

pair_style sw
pair_coeff * * mWC.sw mW C
Reading potential file mWC.sw with DATE: 2019-02-27


# Fix graphite atoms in place

fix 5 graphite setforce 0.0 0.0 0.0
velocity graphite set 0.0 0.0 0.0


# Equilibration of molecular water

# Add velocity/set timestep

velocity	    water create ${TEMP} ${SEED} rot yes dist gaussian
velocity	    water create 225 ${SEED} rot yes dist gaussian
velocity	    water create 225 3631 rot yes dist gaussian
timestep	    5.0

# Define output

compute			1 water msd
compute			3 water temp
thermo	    	50
thermo_style	custom step temp press vol etotal ke pe c_1[4] c_3

# Neighbor lists

neigh_modify    delay 0 every 1 check yes

# Set fixes

fix             1 water momentum 10 linear 1 1 1 rescale
fix             2 water nve
fix             3 water temp/csvr ${TEMP} ${TEMP} 500.0 ${SEED}
fix             3 water temp/csvr 225 ${TEMP} 500.0 ${SEED}
fix             3 water temp/csvr 225 225 500.0 ${SEED}
fix             3 water temp/csvr 225 225 500.0 3631
fix             4 water press/berendsen z ${PRES} ${PRES} 1000.0 modulus 20000
fix             4 water press/berendsen z -500 ${PRES} 1000.0 modulus 20000
fix             4 water press/berendsen z -500 -500 1000.0 modulus 20000

# Run 0.5 ns equilibration

dump		    1 all atom 2000 ${DIR}/eq.${NAME}-${TEMP}.dump
dump		    1 all atom 2000 run_15/eq.${NAME}-${TEMP}.dump
dump		    1 all atom 2000 run_15/eq.het_freeze_15-${TEMP}.dump
dump		    1 all atom 2000 run_15/eq.het_freeze_15-225.dump

reset_timestep  0

run	            100000
Neighbor list info ...
  update every 1 steps, delay 0 steps, check yes
  max neighbors/atom: 2000, page size: 100000
  master list distance cutoff = 7.76
  ghost atom cutoff = 7.76
  binsize = 3.88, bins = 13 13 16
  1 neighbor lists, perpetual/occasional/extra = 1 0 0
  (1) pair sw, perpetual
      attributes: full, newton on
      pair build: full/bin/atomonly
      stencil: full/bin/3d
      bin: standard
Per MPI rank memory allocation (min/avg/max) = 4.083 | 4.203 | 4.508 Mbytes
Step Temp Press Volume TotEng KinEng PotEng c_1[4] c_3 
       0    132.98637   -1273.0418    147415.06    -35990.25    2675.3515   -38665.602            0          225 
      50    170.80426   -1177.7821    146948.32   -36388.901    3436.1524   -39825.053   0.83674894    288.98419 
     100    167.97981    -1091.112    146635.96   -36731.953    3379.3317   -40111.284    1.8210914    284.20551 
     150     159.6557   -1467.6238    146153.78   -37069.318    3211.8715   -40281.189    2.6844936    270.12192 
     200    157.83598   -1287.5694    145754.71   -37356.524    3175.2634   -40531.788    3.3830514    267.04313 
     250    157.77416   -1270.3553    145325.18   -37621.058    3174.0195   -40795.077    4.1252647    266.93853 
     300    150.65429   -1154.9608    144998.47   -37812.862    3030.7858   -40843.648    4.8528661    254.89241 
     350    149.69769   -1359.1787    144754.68   -38034.184    3011.5414   -41045.725    5.5379791    253.27394 
     400    145.43039    -1218.678    144486.09   -38161.594    2925.6939   -41087.288    6.1371469    246.05407 
     450    146.17374   -1210.8101    144247.57   -38265.545    2940.6483   -41206.193    6.5762153    247.31175 
     500    145.89847   -800.41842    144029.57   -38410.093    2935.1105   -41345.204    7.1391716    246.84601 
     550    143.40359   -984.60822    143872.28   -38508.308    2884.9198   -41393.228     7.649009    242.62492 
     600    140.99039   -854.47789    143696.77   -38665.857    2836.3723   -41502.229    8.1399411    238.54203 
     650    140.31346   -929.68317     143605.7   -38727.635    2822.7542    -41550.39    8.5691513    237.39673 
     700    139.42464   -975.71172    143401.32   -38783.282    2804.8735   -41588.156    9.0192424    235.89294 
     750    138.03276   -1012.8823    143304.51   -38875.157    2776.8722   -41652.029    9.4290596      233.538 
     800     138.3077   -819.30058    143159.31   -38942.247    2782.4033    -41724.65    9.8831498    234.00317 
     850    139.66395   -870.12076    143110.56   -39015.194    2809.6877   -41824.882    10.238469    236.29782 
     900    137.36666   -749.87721    143035.07   -39026.028    2763.4721     -41789.5    10.581085    232.41103 
     950    134.74751   -817.16478     142900.5   -39073.043    2710.7814   -41783.825    11.029726    227.97969 
    1000    134.11408   -729.47748    142819.51   -39141.742    2698.0384    -41839.78    11.335686    226.90799 
    1050    132.62567   -891.91356    142727.27   -39170.912    2668.0952   -41839.008    11.695771    224.38973 
    1100     135.1753   -646.36889    142607.01   -39176.592    2719.3873   -41895.979    12.043239    228.70346 
    1150    134.24258   -720.61218    142543.91   -39179.418    2700.6234   -41880.041    12.326893    227.12539 
    1200    135.11301   -712.35335     142597.8   -39145.946    2718.1343   -41864.081    12.651249    228.59808 
    1250    135.41704   -670.55332    142539.84   -39140.739    2724.2506    -41864.99    12.952432    229.11246 
    1300    135.31666   -790.70491     142491.9   -39172.867    2722.2311   -41895.098    13.202169    228.94263 
    1350    134.58945    -667.2993    142434.12   -39203.502    2707.6014   -41911.104    13.445585    227.71225 
    1400    138.87315   -798.98776    142411.76   -39213.975    2793.7787   -42007.754    13.713327    234.95986 
    1450     136.2744   -683.14439    142357.77   -39246.771    2741.4985   -41988.269    13.946418    230.56303 
    1500    132.94434   -626.74447     142376.3   -39315.697    2674.5061   -41990.203    14.052709     224.9289 
    1550    135.24264   -656.87552    142409.52   -39309.114    2720.7421   -42029.857    14.325518     228.8174 
    1600    133.47534   -631.37676    142353.58   -39352.708    2685.1885   -42037.896    14.657002     225.8273 
    1650    134.15301   -697.40276    142358.28   -39341.699    2698.8214   -42040.521    14.835943    226.97384 
    1700    133.85525     -726.768    142344.76   -39379.581    2692.8313   -42072.413    15.080291    226.47006 
    1750    132.33867   -680.54323    142340.77   -39356.264    2662.3215   -42018.586    15.339704    223.90416 
    1800    134.80754   -859.11499    142364.78   -39368.098    2711.9889   -42080.087    15.666349    228.08124 
    1850    134.09935   -605.09979    142368.49   -39395.131    2697.7419   -42092.872    16.126205    226.88305 
    1900    131.63397   -728.69366    142337.89   -39407.609    2648.1447   -42055.754     16.41866    222.71187 
    1950    134.21921   -716.98762    142300.14   -39381.038    2700.1532   -42081.191    16.572631    227.08584 
    2000    134.46392   -396.97864    142308.77   -39405.506    2705.0762   -42110.582    16.751677    227.49988 
    2050    132.97107   -465.37913    142370.95   -39373.377    2675.0437   -42048.421    16.972312    224.97411 
    2100    136.67572   -667.20225    142437.87   -39379.731    2749.5719   -42129.303    17.283318    231.24202 
    2150    134.16666   -525.63635    142427.17   -39355.534    2699.0961    -42054.63    17.574032    226.99694 
    2200    133.47747   -734.08262    142431.63   -39434.283    2685.2313   -42119.514    17.768433     225.8309 
    2250    133.83351    -656.2798    142475.26   -39439.163    2692.3939   -42131.557    18.004877    226.43328 
    2300     134.5369   -684.26592     142447.8   -39421.604    2706.5443   -42128.149    18.295736    227.62334 
    2350    132.02183   -576.87135    142404.67   -39476.263    2655.9474   -42132.211    18.600507    223.36809 
    2400    133.39654   -664.07287    142445.16   -39474.667    2683.6032    -42158.27    18.749163    225.69397 
    2450    134.35577    -663.5484    142474.13   -39489.555    2702.9004   -42192.455    19.008377    227.31689 
    2500    133.66845   -631.80827    142544.49   -39470.836    2689.0732    -42159.91    19.309978    226.15401 
    2550    131.19159   -649.75359    142623.27   -39488.764    2639.2451    -42128.01    19.551676    221.96341 
    2600    134.02623   -581.88986    142688.05    -39532.57    2696.2709   -42228.841    19.694155    226.75934 
    2650    132.40348   -606.83346    142662.56   -39510.136    2663.6252   -42173.761    19.941129     224.0138 
    2700    132.81697   -652.94845     142620.7   -39518.386    2671.9436    -42190.33    20.205316    224.71339 
    2750    134.70766   -683.45564     142607.6   -39495.505    2709.9796   -42205.484    20.499638    227.91226 
    2800    135.06389   -531.20327    142702.99   -39495.152     2717.146   -42212.298    20.649301    228.51496 
    2850    133.97254   -655.31983    142801.24   -39515.161    2695.1908   -42210.351    20.831116     226.6685 
    2900    133.66446   -744.05172    142832.36   -39531.731    2688.9931   -42220.724    21.023569    226.14727 
    2950    134.66619   -607.78136    142825.44   -39553.094    2709.1453    -42262.24    21.144432    227.84209 
    3000     132.4952   -1037.5277    142840.99   -39585.434    2665.4704   -42250.904    21.533884    224.16899 
    3050    132.24905   -654.11151    142772.78   -39549.566    2660.5185   -42210.084    21.652223    223.75252 
    3100    132.24776   -781.46461    142826.36   -39580.116    2660.4926   -42240.609    21.724203    223.75035 
    3150    132.94043    -783.5213    142840.45     -39551.7    2674.4274   -42226.128    21.875529    224.92228 
    3200    132.95179    -659.7804    142811.81   -39522.893     2674.656   -42197.549    22.092708     224.9415 
    3250    132.92186   -717.33029    142762.25   -39495.991    2674.0537   -42170.045    22.287745    224.89085 
    3300    132.99713   -636.41348    142777.02   -39478.706     2675.568   -42154.274    22.479006    225.01821 
    3350    131.37893   -750.39132    142777.82   -39520.178    2643.0138   -42163.192    22.747728    222.28036 
    3400     132.0262   -645.46859     142744.6   -39503.135    2656.0354   -42159.171    23.034449    223.37549 
    3450     132.4002   -503.54017    142783.25   -39540.113    2663.5593   -42203.672    23.174796    224.00826 
    3500    132.51771   -681.35313     142858.3   -39500.978    2665.9233   -42166.902    23.251892    224.20707 
    3550    137.03891   -575.64844    142890.96   -39472.419    2756.8786   -42229.297    23.498716    231.85651 
    3600    133.91029    -633.7068    142895.63   -39464.549    2693.9385   -42158.488    23.787928    226.56319 
    3650     135.3865   -850.39034    142870.52   -39444.362    2723.6362   -42167.998    24.186277     229.0608 
    3700    133.09454   -453.90564     142812.5   -39492.094    2677.5277   -42169.622    24.410131    225.18302 
    3750    130.22703   -498.91758    142899.39   -39548.901    2619.8406   -42168.742    24.525484    220.33147 
    3800    131.69634   -682.44434    142918.96   -39556.324    2649.3994   -42205.724    24.624813     222.8174 
    3850    133.84241   -456.40334    142974.43   -39532.865    2692.5729   -42225.437    24.714156    226.44834 
    3900    135.73649   -676.52645     143039.5    -39536.55     2730.677   -42267.227    24.832131    229.65294 
    3950    132.30609    -742.5605    143079.01   -39533.115     2661.666   -42194.781    25.012383    223.84904 
    4000    133.74883   -682.95287    143073.08   -39556.843    2690.6904   -42247.534    25.230811    226.29001 
    4050    132.48921   -789.63387    143047.88    -39531.26      2665.35    -42196.61    25.517426    224.15886 
    4100    131.47859   -661.46757    143019.32   -39587.767    2645.0188   -42232.786    25.761596    222.44899 
    4150    134.85537   -632.31703    142973.62   -39558.524    2712.9512   -42271.475    26.058891    228.16217 
    4200    132.61944   -466.05634    143040.84    -39578.07      2667.97    -42246.04    26.135057     224.3792 
    4250    132.68338   -715.08336    143087.31   -39581.406    2669.2561   -42250.662    26.231394    224.48737 
    4300    132.77058   -731.73249     143031.7   -39577.591    2671.0104   -42248.601    26.394729    224.63491 
    4350     132.2023   -486.73889    143036.65   -39578.933     2659.578   -42238.511    26.509748    223.67343 
    4400    132.37672   -728.43226    142991.61   -39573.332     2663.087   -42236.419    26.683214    223.96854 
    4450    133.16468   -681.19712    142984.88    -39579.18    2678.9388   -42258.119    26.821564    225.30169 
    4500    133.51146   -738.07835    143067.52   -39563.478    2685.9151   -42249.393    26.780776    225.88841 
    4550    133.51133   -658.57352    143132.18   -39578.188    2685.9124   -42264.101    26.850039    225.88818 
    4600     136.9214     -884.944    143034.32   -39541.838    2754.5146   -42296.352    27.170078     231.6577 
    4650     136.1446   -657.11864    143071.11   -39483.752    2738.8872   -42222.639    27.452849    230.34342 
    4700    134.81717   -837.57378    143064.58   -39498.594    2712.1827   -42210.777    27.845979    228.09754 
    4750    134.02672   -556.80418    143050.41    -39530.28    2696.2809   -42226.561    28.078161    226.76018 
    4800    133.44362   -839.86439    143093.71   -39532.201    2684.5503   -42216.751    28.164556    225.77363 
    4850    133.98953   -803.27919       143068   -39522.714    2695.5327   -42218.247    28.395519    226.69726 
    4900    133.22259   -520.30633    143060.26   -39519.518    2680.1037   -42199.622    28.573369    225.39966 
    4950    133.05565   -715.51054    143067.48   -39540.198    2676.7454   -42216.944    28.874894    225.11722 
    5000    135.50239   -714.96712     143033.5   -39507.378    2725.9677   -42233.346     29.26928    229.25687 
    5050    135.04311   -678.56441    143070.47   -39478.979     2716.728   -42195.707    29.525497    228.47981 
    5100    136.88401    -759.6188     143092.2   -39462.155    2753.7623   -42215.918     29.71345    231.59443 
    5150    133.88835   -711.90156    143039.85   -39455.559    2693.4971   -42149.056    29.977224    226.52606 
    5200    135.96342   -818.53657    143071.74   -39472.242    2735.2423   -42207.484    30.114697    230.03688 
    5250    134.19738   -798.64951     143067.4    -39481.88     2699.714   -42181.594     30.39278    227.04891 
    5300    134.59404   -957.61934    142959.92   -39484.183    2707.6939   -42191.877    30.721565    227.72003 
    5350     131.9024   -912.23963    142824.35   -39526.083    2653.5447   -42179.628    31.042809    223.16602 
    5400    132.76497   -880.54306    142808.15   -39501.794    2670.8976   -42172.692    31.327961    224.62542 
    5450    132.14117   -706.52948    142724.79    -39529.72    2658.3482   -42188.068    31.590352       223.57 
    5500    131.84937   -620.02063    142656.43   -39523.442     2652.478    -42175.92     31.99912    223.07631 
    5550    134.11591   -683.13753    142633.07   -39525.622    2698.0751   -42223.697    32.276768    226.91108 
    5600    132.70458   -724.39472    142673.71   -39584.313    2669.6826   -42253.996    32.628499    224.52323 
    5650    131.17637   -419.71791    142732.19   -39605.264    2638.9389   -42244.202    32.932134    221.93765 
    5700     131.8943   -694.03312    142844.68   -39591.254    2653.3818   -42244.636    33.203907    223.15232 
    5750    133.90902   -552.63211    142842.62   -39547.197    2693.9129    -42241.11    33.393498    226.56103 
    5800    133.36596   -544.42677    142831.43   -39560.058    2682.9881   -42243.046    33.500614    225.64224 
    5850    133.34233   -546.98022    142839.81   -39589.214    2682.5127   -42271.727     33.78387    225.60226 
    5900    132.46485   -676.09993    142906.95   -39620.859    2664.8599   -42285.719    33.953572    224.11764 
    5950    130.10055   -548.89593    142951.25   -39672.445    2617.2961   -42289.741    34.246143    220.11747 
    6000    128.33966   -785.66762    142944.55   -39691.988    2581.8714   -42273.859    34.497315    217.13822 
    6050    128.34584   -727.18461    142947.23   -39716.473    2581.9957   -42298.468    34.665658    217.14868 
    6100    129.01505   -712.01005    142923.06   -39729.052    2595.4585   -42324.511    34.878547    218.28091 
    6150    130.28026   -580.35007    142960.63   -39702.178    2620.9115   -42323.089    35.075981    220.42154 
    6200      132.758   -833.06149    142929.67   -39699.251    2670.7573   -42370.008    35.479775    224.61362 
    6250    130.82254   -761.90313    142945.76   -39723.752    2631.8207   -42355.573    35.606682    221.33901 
    6300    133.42822   -748.16779    143028.81   -39682.365    2684.2405   -42366.606    35.683935    225.74757 
    6350    134.33342   -924.26041    143012.93   -39662.951    2702.4509   -42365.402    35.878219    227.27908 
    6400    132.20699   -754.64328    142951.13    -39651.73    2659.6723   -42311.402    36.001121    223.68136 
    6450     130.7235   -676.04825    142934.88   -39682.412    2629.8283   -42312.241    36.125886    221.17145 
    6500    128.48809   -775.40312    142980.67   -39689.013    2584.8574    -42273.87     36.28495    217.38935 
    6550    129.56633   -796.47563    142926.03   -39687.508    2606.5489   -42294.057    36.413411    219.21362 
    6600    130.03211   -846.94338       142915   -39692.347    2615.9192   -42308.266    36.658523    220.00168 
    6650    128.21449   -763.93379    142767.51   -39703.928    2579.3534   -42283.281    36.951103    216.92645 
    6700    130.09668   -660.07319    142722.19   -39711.825    2617.2182   -42329.044    37.170834    220.11092 
    6750    131.56421   -562.17154     142755.1   -39665.629    2646.7412    -42312.37    37.528751    222.59384 
    6800    131.39319   -726.30919    142814.16   -39693.327    2643.3009   -42336.628    37.705585     222.3045 
    6850    132.70834   -444.72839    142826.45    -39628.03    2669.7583   -42297.788    37.906919     224.5296 
    6900    132.70384    -609.2906    142876.13   -39679.125    2669.6678   -42348.793    37.996879    224.52199 
    6950    132.08132   -645.86486    142851.46   -39614.139    2657.1442   -42271.283    38.255754    223.46874 
    7000    132.93868   -604.06223    142850.24   -39646.853    2674.3923   -42321.245    38.400373    224.91932 
    7050    133.00054   -634.69644     142850.6   -39655.589    2675.6367   -42331.226     38.52938    225.02398 
    7100     133.8721   -561.95387     142874.7    -39568.78    2693.1702    -42261.95    38.574262    226.49857 
    7150    135.73097   -511.41996    142926.94   -39558.207     2730.566   -42288.773    38.757993    229.64359 
    7200    133.92803   -469.58084    142983.48   -39604.841    2694.2954   -42299.137    39.040944     226.5932 
    7250    132.81938   -554.39033    142949.18   -39621.684    2671.9921   -42293.676    39.152002    224.71747 
    7300     134.7597   -557.29474    143000.78   -39607.844    2711.0265   -42318.871    39.344943     228.0003 
    7350    133.36444   -529.75398    143039.68   -39592.886    2682.9573   -42275.843     39.58464    225.63965 
    7400    130.40551   -782.20926    143054.01   -39655.092    2623.4313   -42278.524    39.881096    220.63345 
    7450    132.55422   -640.07918    142992.54   -39629.266    2666.6578   -42295.924    40.065783    224.26885 
    7500    132.33785   -405.25373    143102.97   -39620.694    2662.3049   -42282.999    40.006558    223.90277 
    7550    131.63128   -550.53513     143164.7   -39654.496    2648.0905   -42302.587     40.09423    222.70732 
    7600    133.94149   -669.97178     143234.3    -39627.12    2694.5662   -42321.686    40.234083    226.61597 
    7650    132.35584   -589.94249    143366.27   -39688.247     2662.667   -42350.914    40.423502    223.93321 
    7700    135.76775   -515.22976    143372.33   -39633.049    2731.3059   -42364.355    40.534588    229.70582 
    7750    133.21713   -732.46831    143487.24   -39662.226    2679.9938    -42342.22    40.711351    225.39042 
    7800    132.84798   -624.99594    143495.03   -39652.218    2672.5676   -42324.786    40.927726    224.76586 
    7850    133.84213   -739.60653    143542.68   -39613.669    2692.5674   -42306.236    40.996703    226.44787 
    7900     130.6758   -696.44312    143610.14   -39685.303    2628.8686   -42314.172    41.020934    221.09074 
    7950    131.76045   -694.53717    143604.77    -39682.35    2650.6891    -42333.04    41.138057    222.92586 
    8000     130.2519   -663.63748    143577.43   -39740.896    2620.3409   -42361.237    41.364511    220.37355 
    8050    131.47426   -700.39731    143573.96   -39689.399    2644.9316   -42334.331    41.679389    222.44165 
    8100    131.72825   -808.27382    143585.56   -39698.776    2650.0414   -42348.818    41.945344    222.87139 
    8150    130.66756   -792.53279    143576.41   -39724.537    2628.7029   -42353.239    42.203059     221.0768 
    8200    131.10947   -855.39599    143577.84   -39720.337     2637.593    -42357.93    42.383004    221.82447 
    8250    132.02743   -620.48555    143524.59   -39722.936    2656.0602   -42378.996    42.491097    223.37757 
    8300    130.43927   -687.89958    143457.91   -39757.895    2624.1103   -42382.005    42.603233    220.69055 
    8350    130.48383   -635.28676    143450.24   -39747.894    2625.0068   -42372.901    42.611236    220.76595 
    8400    128.84907   -698.40359     143500.5   -39734.632    2592.1196   -42326.751     42.64292     218.0001 
    8450    132.61999   -669.32267     143548.7   -39749.888    2667.9809   -42417.869    42.850532    224.38012 
    8500     131.4853   -638.82652    143523.36   -39767.341    2645.1538   -42412.495    43.069722    222.46034 
    8550    131.57874   -558.85839    143550.33     -39724.9    2647.0335   -42371.934     43.15667    222.61842 
    8600    132.92949   -684.25678    143685.26   -39705.533    2674.2073    -42379.74    43.331683    224.90377 
    8650    128.80606   -792.01051    143691.54   -39748.249    2591.2542   -42339.504     43.56653    217.92732 
    8700    129.59289    -725.1909    143636.21    -39820.97    2607.0833   -42428.053    43.655489    219.25857 
    8750    133.22305   -638.92994    143692.92   -39777.969     2680.113   -42458.082    43.798351    225.40044 
    8800    130.78653   -672.47676    143733.62   -39711.923    2631.0963   -42343.019     44.00266    221.27808 
    8850    133.71033   -775.57192    143733.32   -39725.665    2689.9158   -42415.581    44.074418    226.22487 
    8900    136.15288   -706.90799    143747.11   -39655.492    2739.0537   -42394.546    44.249322    230.35742 
    8950     134.3956   -778.03286    143722.38    -39687.79    2703.7017   -42391.492    44.545886    227.38428 
    9000    132.83855   -485.16516    143658.97   -39644.097    2672.3778   -42316.475    44.818261     224.7499 
    9050    134.94407   -664.24128    143600.74   -39590.552    2714.7357   -42305.288     45.02409    228.31225 
    9100     135.6424   -857.24255    143570.04   -39651.006    2728.7843    -42379.79    45.018574    229.49375 
    9150    135.34398   -558.76683    143597.68    -39587.79    2722.7807   -42310.571     45.18758    228.98884 
    9200    135.74911    -478.1449    143686.28   -39608.422     2730.931   -42339.353    45.278072    229.67429 
    9250    135.72111   -696.18584    143678.61   -39604.108    2730.3677   -42334.476     45.31407    229.62692 
    9300    133.80651   -634.01588    143666.71   -39578.786    2691.8508   -42270.637    45.503868     226.3876 
    9350    132.32431   -771.20884    143605.29    -39640.11    2662.0326   -42302.143    45.686394    223.87986 
    9400    136.31293   -794.59811    143605.56   -39574.071    2742.2735   -42316.344    45.648954    230.62821 
    9450    134.99119   -760.27509    143634.02   -39546.327    2715.6835   -42262.011    45.832739    228.39196 
    9500    135.74066   -925.37953    143683.61   -39533.926    2730.7609   -42264.687    45.988033    229.65999 
    9550    136.16679   -729.00541    143566.24   -39546.048    2739.3336   -42285.381    46.085749    230.38096 
    9600    135.34291   -914.02505    143575.11   -39559.473    2722.7593   -42282.232     46.27477    228.98704 
    9650    135.38049   -775.95183    143509.11    -39533.49    2723.5152   -42257.005    46.347337    229.05062 
    9700    132.57235   -806.39845    143531.18   -39564.706    2667.0225   -42231.728    46.552306    224.29952 
    9750    134.89981   -659.45539    143475.64   -39628.216    2713.8452   -42342.062    46.709221    228.23736 
    9800    134.64772   -515.06459    143512.19   -39636.053    2708.7738   -42344.827    46.842087    227.81085 
    9850    135.63402   -696.03028    143505.57   -39607.594    2728.6157    -42336.21    46.977013    229.47957 
    9900    134.34932   -692.89769    143490.48    -39556.66    2702.7707    -42259.43    47.078769    227.30599 
    9950     132.2729   -741.41086    143492.23   -39640.597    2660.9984   -42301.595    47.152043    223.79289 
   10000    135.13283   -660.12173    143543.86   -39645.754     2718.533   -42364.287     47.16356    228.63161 
   10050    132.44205   -742.15729    143562.27   -39644.363    2664.4012   -42308.764      47.0883    224.07906 
   10100     134.4586   -775.82929     143507.2   -39616.558    2704.9692   -42321.527    47.107531    227.49088 
   10150    134.88334   -578.16167    143488.65    -39571.52    2713.5138   -42285.033    47.437842    228.20949 
   10200    133.90088   -721.53246    143462.17   -39581.388    2693.7491   -42275.137    47.605264    226.54726 
   10250    130.14718   -645.99573     143435.1   -39655.779    2618.2342   -42274.013    47.681622    220.19637 
   10300     131.6493   -515.68347    143477.01   -39663.225    2648.4531   -42311.678    47.630026    222.73781 
   10350    131.09785   -835.32819    143479.95   -39654.322    2637.3592   -42291.681    47.767038     221.8048 
   10400    136.47771   -721.79708    143394.81   -39621.773    2745.5885   -42367.361    47.709201    230.90701 
   10450    131.92286   -764.96994    143382.25   -39648.849    2653.9565   -42302.805    47.961798    223.20065 
   10500    132.46608    -900.8078    143413.96   -39708.936    2664.8847   -42373.821    48.102479    224.11973 
   10550    129.48977   -926.82336    143285.92    -39735.17    2605.0087   -42340.179     48.37102    219.08409 
   10600    132.65909   -775.41407    143233.36    -39682.61    2668.7675   -42351.378    48.593583    224.44627 
   10650    129.87513   -873.02514    143224.24   -39665.081    2612.7611   -42277.843    48.759578    219.73608 
   10700    132.30733    -656.1367    143192.45   -39578.624    2661.6911   -42240.315     49.14107    223.85114 
   10750    131.11372   -677.20294    143167.82    -39557.31    2637.6785   -42194.989    49.276369    221.83165 
   10800    134.12194   -760.95686    143149.51   -39529.954    2698.1964    -42228.15    49.333716    226.92128 
   10850    131.00773   -809.00073     143103.2   -39508.358    2635.5463   -42143.904     49.56892    221.65233 
   10900    133.54454   -641.07619    143082.98   -39487.016    2686.5805   -42173.597    49.551467    225.94437 
   10950    132.16436   -837.95346    143095.31   -39480.441    2658.8149   -42139.256    49.716544    223.60925 
   11000    132.46421   -679.32525    143113.22   -39482.942     2664.847   -42147.789    49.891371    224.11655 
   11050    135.94904   -857.81497    143093.04   -39448.492     2734.953   -42183.445    50.048377    230.01255 
   11100    133.23596   -850.49832    143029.25   -39475.265    2680.3728   -42155.638    50.293717    225.42229 
   11150    133.20944   -762.29664    142969.55   -39486.691    2679.8392    -42166.53    50.484312    225.37742 
   11200    135.25761   -633.89394    142971.67   -39486.475    2721.0432   -42207.518     50.75602    228.84272 
   11250    131.10597   -656.14757    143055.52   -39533.292    2637.5227   -42170.815    51.009331    221.81855 
   11300    134.03307   -733.23371    143150.96   -39560.318    2696.4085   -42256.727    51.125481    226.77092 
   11350    130.83171   -670.06036    143125.52   -39615.299    2632.0053   -42247.304    51.233198    221.35453 
   11400     132.8959   -689.47509    143111.61    -39579.02    2673.5316   -42252.551    51.384775    224.84694 
   11450    130.34803   -891.37584     143142.1   -39596.639    2622.2748   -42218.914    51.443066    220.53619 
   11500    134.96045   -785.15264    143163.79    -39532.17    2715.0651   -42247.235    51.670666    228.33995 
   11550     131.6279   -791.13635    143148.64   -39530.316    2648.0225   -42178.338    51.784121     222.7016 
   11600    136.14162    -853.6694     143145.5   -39495.758    2738.8273   -42234.586    51.945643    230.33838 
   11650    132.83539   -819.50458    143097.86   -39522.141    2672.3142   -42194.455    52.177791    224.74455 
   11700    134.23777   -681.26496    143092.11   -39519.347    2700.5265   -42219.873    52.577266    227.11724 
   11750    132.57875   -641.45642    143025.26   -39526.436    2667.1513   -42193.587    52.959869    224.31035 
   11800    135.05816   -749.38573     143017.1   -39495.905    2717.0308   -42212.936    53.346263    228.50527 
   11850    135.61147   -676.93241    142972.79   -39450.875    2728.1619   -42179.037     53.49952    229.44141 
   11900    134.15704   -508.32696    143009.67   -39459.142    2698.9025   -42158.044    53.671745    226.98066 
   11950    134.62123   -795.06965    142940.38   -39499.626    2708.2409   -42207.867    53.858396    227.76603 
   12000    132.31739   -765.42755    142899.39   -39493.259    2661.8933   -42155.153    54.141507    223.86815 
   12050    133.75426    -571.3458    142849.76   -39481.296    2690.7996   -42172.096    54.342032     226.2992 
   12100    133.00859   -583.91489    142874.33   -39491.366    2675.7986   -42167.164     54.60845     225.0376 
   12150    134.34495   -746.38128    142854.51   -39460.938    2702.6828    -42163.62     54.71136    227.29859 
   12200    131.98667   -749.38092    142888.35   -39520.029    2655.2402   -42175.269    54.787891    223.30862 
   12250    134.58413   -668.92871     142863.7   -39495.387    2707.4944   -42202.881    54.999312    227.70325 
   12300    132.10096   -730.32801    142824.38   -39476.695    2657.5393   -42134.234     54.99392    223.50197 
   12350    133.79772   -628.18799    142812.22   -39495.217    2691.6739   -42186.891    55.006298    226.37273 
   12400    136.78966   -627.70774     142864.7   -39458.219    2751.8643   -42210.084    55.030843    231.43481 
   12450    136.33044   -689.29775    142863.75    -39427.39    2742.6258   -42170.016    55.159736    230.65784 
   12500    132.96831   -781.04814    142852.19   -39434.813    2674.9883   -42109.802    55.394131    224.96945 
   12550    133.15833   -694.92113    142854.84   -39463.255    2678.8111   -42142.066    55.646448    225.29095 
   12600    135.52659   -825.89483    142847.47   -39456.182    2726.4544   -42182.636    55.796702    229.29781 
   12650    137.09137   -790.92485     142867.5   -39411.636    2757.9339    -42169.57     56.00132    231.94527 
   12700    135.78195   -628.47672    142916.72   -39410.407    2731.5916   -42141.999    56.025549    229.72985 
   12750    135.63709   -597.01233     143001.2   -39379.717    2728.6774   -42108.394    56.116686    229.48477 
   12800    132.39558   -599.82167    143044.51   -39439.417    2663.4664   -42102.884    56.330077    224.00044 
   12850    133.64416   -919.80047    143018.15   -39440.962    2688.5847   -42129.547    56.757243    226.11292 
   12900    134.91364   -786.80851    142961.57   -39398.155    2714.1235   -42112.278    56.968177    228.26076 
   12950     134.7057   -949.09404    143031.98   -39435.987    2709.9401   -42145.927    57.115505    227.90894 
   13000    136.49326   -939.81751    142967.17   -39402.035    2745.9015   -42147.936    57.416714    230.93333 
   13050    135.48662   -694.98539    142933.58   -39415.793    2725.6503   -42141.444    57.655115    229.23018 
   13100    135.28499   -604.64792     142965.2   -39456.649     2721.594   -42178.243    57.895674    228.88904 
   13150    136.15836   -714.24694    143017.38   -39462.931     2739.164   -42202.095    58.106482     230.3667 
   13200    136.47992     -801.832     143081.2    -39476.74    2745.6331   -42222.373    58.268038    230.91075 
   13250    133.54555   -694.59429    143011.86   -39471.222    2686.6009   -42157.823    58.435533    225.94608 
   13300    133.96467   -653.81832    143044.94   -39479.003    2695.0325   -42174.036    58.768173    226.65519 
   13350    133.74178   -677.65593    143093.78   -39560.123    2690.5485   -42250.672    59.017301    226.27808 
   13400     129.6264   -878.18686    143030.44   -39548.669    2607.7574   -42156.426    59.268059    219.31526 
   13450    132.77072   -690.89915    142999.69   -39459.418    2671.0131   -42130.431    59.698607    224.63514 
   13500    133.52229   -944.24992    143005.89   -39535.192    2686.1329   -42221.325    59.900719    225.90672 
   13550    131.68392   -654.57387    142982.76   -39539.028    2649.1496   -42188.177    59.973933    222.79639 
   13600     133.6276   -729.71677    142979.86   -39486.855    2688.2516   -42175.106    60.263261    226.08491 
   13650    135.81673   -900.22801    142966.45   -39508.917    2732.2913   -42241.208    60.457354     229.7887 
   13700    134.35891   -722.70808    142949.36   -39511.736    2702.9636     -42214.7     60.65749    227.32221 
   13750    134.78732   -692.25469    143015.15   -39492.049    2711.5821   -42203.631    60.714536    228.04703 
   13800    134.95791   -846.05683    142983.39   -39480.604     2715.014   -42195.617    61.080645    228.33565 
   13850    130.89648   -626.35439    142886.21   -39507.409    2633.3082   -42140.717    61.159215    221.46411 
   13900     131.2566   -593.92975    142895.77   -39511.153    2640.5529   -42151.706    61.103485     222.0734 
   13950    133.30187   -678.61783    142972.93   -39503.874    2681.6987   -42185.573    61.099028     225.5338 
   14000    134.30256   -734.41644    142977.26   -39493.066    2701.8299   -42194.896    61.258929    227.22686 
   14050    133.26235   -883.88312    142971.41   -39480.443    2680.9036   -42161.347    61.330075    225.46693 
   14100    132.16281   -684.56723    142945.96    -39533.24    2658.7837   -42192.024    61.444488    223.60662 
   14150    133.69925   -714.04703    142921.99   -39517.841    2689.6929   -42207.534     61.52221    226.20613 
   14200    135.03797   -751.91386    142934.05    -39491.33    2716.6246   -42207.954    61.735381    228.47111 
   14250    135.16248   -658.52933    142960.96    -39463.23    2719.1294   -42182.359    61.902221    228.68176 
   14300    133.83518   -439.72888    142964.71   -39489.655    2692.4275   -42182.083    62.262149    226.43611 
   14350    134.32384   -724.70743    142966.36   -39468.547    2702.2581   -42170.805    62.213323    227.26287 
   14400    135.80821   -634.29022    142950.74   -39395.638    2732.1199   -42127.758    62.269907    229.77428 
   14450    132.96142   -733.94243    142940.31    -39455.83    2674.8497    -42130.68    62.314326    224.95779 
   14500    132.15665   -604.27254    142895.64   -39454.223    2658.6598   -42112.882    62.520389     223.5962 
   14550    135.02283   -575.24998    142933.96   -39446.453    2716.3201   -42162.774    62.676531     228.4455 
   14600     135.1664   -616.44804    142984.92   -39411.845    2719.2084   -42131.053    62.810158    228.68841 
   14650    136.28831   -604.24172    143043.48   -39416.006    2741.7784   -42157.784     62.94915    230.58657 
   14700    136.08928   -561.58854    143085.51   -39346.847    2737.7743   -42084.622    63.183873    230.24982 
   14750    136.59042   -738.23618    143085.86   -39381.224    2747.8561    -42129.08    63.450471    231.09771 
   14800    137.01624   -727.88038    143080.14   -39362.707    2756.4223    -42119.13    63.737076    231.81814 
   14850    136.40242   -730.57667    143064.06   -39380.996    2744.0739    -42125.07     63.79414    230.77963 
   14900    134.33125   -698.53568    143013.11   -39445.795    2702.4071   -42148.203    63.920286     227.2754 
   14950    137.85957   -684.22402    143052.59   -39474.981     2773.388   -42248.369    64.058136    233.24498 
   15000    133.83334   -858.57464    143096.61   -39538.969    2692.3905    -42231.36    64.276605      226.433 
   15050    133.89152   -550.85826    143109.59   -39535.482    2693.5608   -42229.043    64.578825    226.53142 
   15100    135.54018   -776.97861    143082.72   -39489.174    2726.7278   -42215.902    64.622487     229.3208 
   15150     130.6849   -567.06474    143052.55   -39508.951    2629.0518   -42138.003    64.875444    221.10614 
   15200    132.62919   -747.79095     143059.4   -39510.501     2668.166   -42178.667    65.078096    224.39569 
   15250    133.17874   -659.80471    143069.48   -39530.184    2679.2215   -42209.406    65.284555    225.32547 
   15300    136.56948   -879.66495     143072.9   -39507.561    2747.4347   -42254.996    65.510046    231.06227 
   15350    133.17207   -727.58182    143040.25   -39546.465    2679.0875   -42225.553    65.915638     225.3142 
   15400    133.51677   -906.35368    142970.87   -39537.778    2686.0219     -42223.8    66.167272    225.89739 
   15450    131.66342   -794.93805    142970.78   -39477.163    2648.7372     -42125.9    66.450105     222.7617 
   15500    130.26493   -704.48329    142925.17   -39501.478    2620.6031   -42122.081    66.821114    220.39559 
   15550    135.15913   -661.87893    142994.51   -39508.072     2719.062   -42227.134    67.128401     228.6761 
   15600    133.98579   -666.61255    143026.07   -39490.793    2695.4574   -42186.251    67.631628    226.69092 
   15650    135.14559   -615.99642    143095.55   -39452.626    2718.7896   -42171.415    67.804306    228.65319 
   15700    133.94362    -791.1482    143096.88   -39450.529     2694.609   -42145.138    67.988575    226.61957 
   15750    134.04942   -601.88615    143087.15   -39474.226    2696.7376   -42170.964    68.343405    226.79859 
   15800    133.63032   -616.57138    143079.63   -39503.529    2688.3062   -42191.836    68.365321     226.0895 
   15850    136.81711   -548.23893     143168.3   -39461.364    2752.4165    -42213.78    68.591435    231.48125 
   15900    131.82791   -686.55106    143181.21   -39476.266    2652.0463   -42128.312    68.946226    223.04001 
   15950    135.71769   -825.26646    143116.32   -39518.809    2730.2989   -42249.108    69.188679    229.62113 
   16000     134.8095   -646.68805    143101.71   -39516.017    2712.0284   -42228.045    69.280917    228.08457 
   16050    131.30647   -732.45834    143070.99   -39528.844    2641.5562     -42170.4    69.518972    222.15778 
   16100     133.3781    -489.4502    143082.64   -39524.986    2683.2321   -42208.218    69.568749    225.66277 
   16150    133.72012   -680.41357    143057.88   -39488.869    2690.1127   -42178.982      69.6274    226.24143 
   16200    134.99885   -685.65194    143006.34   -39503.875    2715.8376   -42219.713    70.023463    228.40492 
   16250    135.68351   -648.33454    142939.65    -39510.37    2729.6113   -42239.981    70.198891    229.56331 
   16300    134.76176   -735.83163    142896.16   -39523.395     2711.068   -42234.463    70.245622    228.00379 
   16350    135.66729    -575.2414    142879.84   -39524.531    2729.2849   -42253.816    70.387485    229.53586 
   16400    133.25505   -641.86036    142875.33   -39571.684    2680.7567   -42252.441    70.496161    225.45458 
   16450    133.19824   -661.30106    142873.19   -39540.691    2679.6138   -42220.305    70.798829    225.35846 
   16500    133.47988   -571.82295    142914.29   -39542.822    2685.2798   -42228.102    71.117396    225.83498 
   16550    134.06441   -607.23613    142914.11    -39526.84     2697.039   -42223.879    71.300236    226.82394 
   16600    134.14392   -661.19638    142904.43     -39543.3    2698.6386   -42241.939    71.408107    226.95847 
   16650    132.19554   -625.70759     142958.6   -39548.682    2659.4421   -42208.124    71.755844      223.662 
   16700    134.46658   -925.54354    142942.07   -39542.684    2705.1297   -42247.814    72.264807    227.50438 
   16750    133.57464   -676.11796    142856.61   -39545.187     2687.186   -42232.373    72.153127    225.99529 
   16800    133.90656   -791.95662    142805.67   -39599.442    2693.8636   -42293.306     72.37297    226.55688 
   16850    134.54592   -961.86831    142752.61   -39588.511    2706.7258   -42295.237    72.764327    227.63861 
   16900    133.31383   -834.38607    142747.12   -39604.445    2681.9392   -42286.385     73.09037    225.55403 
   16950    134.20846     -589.796    142733.86   -39597.279    2699.9369   -42297.216    73.393098    227.06766 
   17000     133.4066   -724.60505    142833.97   -39581.699    2683.8056   -42265.505    73.785966      225.711 
   17050    134.79805   -533.49164    142994.77   -39547.457     2711.798   -42259.255    74.141423    228.06519 
   17100    133.82473   -587.52761    143023.74   -39550.624    2692.2172   -42242.841    74.364189    226.41842 
   17150    135.35481   -625.32228    143092.85    -39555.34    2722.9985   -42278.338    74.446286    229.00717 
   17200    133.31736   -783.25824    143094.36   -39632.997    2682.0102   -42315.007    74.456852       225.56 
   17250    131.25481    -624.2718    143105.36   -39605.887    2640.5169   -42246.404    74.617611    222.07037 
   17300    133.73288   -656.55681    143110.87   -39584.075    2690.3696   -42274.445    74.732895    226.26303 
   17350    136.31259    -655.7835    143189.27    -39574.17    2742.2667   -42316.437    74.961749    230.62764 
   17400     134.1592    -673.1745    143244.12   -39600.535     2698.946    -42299.48    75.177782    226.98432 
   17450    133.80036   -726.95632    143213.25   -39637.044    2691.7271   -42328.771    75.486705     226.3772 
   17500    132.31565   -552.81407    143228.56   -39647.322    2661.8584    -42309.18    75.399241    223.86521 
   17550    132.10746   -599.63052       143281   -39654.418      2657.67   -42312.088    75.525265    223.51297 
   17600    133.43436   -595.63108    143260.71    -39625.38    2684.3639   -42309.744    75.631865    225.75795 
   17650    134.36443   -647.82033    143191.64   -39652.999    2703.0747   -42356.074    75.877993    227.33155 
   17700    135.82137   -638.83255    143244.92   -39702.683    2732.3846   -42435.067    76.065642    229.79655 
   17750    132.61232   -792.09576    143250.08   -39717.635    2667.8266   -42385.461     76.37982    224.36714 
   17800    134.71682   -629.57047    143291.23   -39674.058    2710.1639   -42384.222     76.43107    227.92776 
   17850    131.27221   -558.92685    143268.74   -39666.951    2640.8669   -42307.818     76.52724    222.09981 
   17900    134.94165   -559.74347    143324.06   -39696.729     2714.687   -42411.416    76.716783    228.30815 
   17950    131.97633   -871.19234    143245.48   -39651.445     2655.032   -42306.477      76.8799    223.29111 
   18000    134.43366   -647.76115    143171.98   -39642.673    2704.4673   -42347.141    76.796791    227.44867 
   18050    130.41169    -612.6547    143183.59   -39663.821    2623.5556   -42287.377    76.856203     220.6439 
   18100    135.15188   -609.49065    143212.03   -39607.965    2718.9163   -42326.881    76.909226    228.66384 
   18150    134.74412   -636.66488    143247.21   -39575.818    2710.7131   -42286.532     77.06537    227.97395 
   18200    133.34563   -670.16279    143234.89   -39575.913     2682.579   -42258.492    77.440191    225.60783 
   18250     134.9222   -599.60103    143203.47   -39544.568    2714.2957   -42258.864    77.445022    228.27524 
   18300    135.22163   -574.17168    143228.02   -39563.422    2720.3194   -42283.741    77.578406    228.78185 
   18350    135.36415   -757.74138    143212.75   -39559.744    2723.1865   -42282.931     77.80254    229.02297 
   18400    134.15232   -728.08407    143239.08   -39599.714    2698.8075   -42298.521    78.107306    226.97267 
   18450    129.94801   -616.47265    143217.34   -39631.942    2614.2274    -42246.17    78.501541    219.85939 
   18500     134.1157    -582.4253    143262.29   -39617.972    2698.0708   -42316.043    78.719743    226.91072 
   18550    132.01141   -496.09276    143335.13   -39610.899    2655.7378   -42266.637    78.917767    223.35046 
   18600    134.98543   -754.89916    143361.51     -39613.3    2715.5675   -42328.868    79.190788    228.38221 
   18650    132.23138   -693.73146    143404.62   -39644.889    2660.1631   -42305.052    79.605847    223.72263 
   18700    131.95606   -573.97629    143501.75   -39647.673    2654.6243   -42302.297    79.732488    223.25681 
   18750    134.83375   -611.14895    143545.11   -39592.844    2712.5163    -42305.36      80.0449     228.1256 
   18800     132.3408   -662.68206    143560.44   -39626.864    2662.3644   -42289.229    80.204228    223.90777 
   18850    132.47467   -707.46207    143590.84   -39634.162    2665.0574   -42299.219    80.336298    224.13425 
   18900    132.29956   -777.79041    143556.24   -39660.459    2661.5347   -42321.994    80.688594    223.83799 
   18950    132.39338   -496.24056    143525.29    -39609.19    2663.4222   -42272.613    80.857325    223.99673 
   19000    131.31677   -832.64001    143565.55   -39648.033    2641.7634   -42289.797    81.079861     222.1752 
   19050    133.97049   -766.89743     143473.5   -39609.479    2695.1496   -42304.629    81.181022    226.66504 
   19100     132.1166   -661.95649    143415.67   -39619.565     2657.854   -42277.419    81.487552    223.52844 
   19150    135.86608   -686.62221    143328.29    -39584.57    2733.2842   -42317.854    81.764461     229.8722 
   19200    135.83966   -683.49685    143313.96   -39580.989    2732.7525   -42313.741    81.861039    229.82749 
   19250    134.72474   -620.58375    143355.51   -39577.767    2710.3233    -42288.09    82.106031    227.94116 
   19300    132.93679   -654.23313    143343.81   -39621.236    2674.3541    -42295.59    82.298279    224.91611 
   19350    135.05544   -626.59896    143327.63   -39623.467     2716.976   -42340.443    82.640637    228.50066 
   19400    136.31309   -593.18224    143356.16   -39668.879    2742.2769   -42411.156    82.733714     230.6285 
   19450    133.01308   -562.70609    143378.92   -39606.803    2675.8889   -42282.692    82.831036     225.0452 
   19500    134.52236    -626.5494    143369.65   -39598.157    2706.2517   -42304.409    83.025526    227.59874 
   19550    132.51722   -645.97236    143388.11   -39601.793    2665.9134   -42267.707    83.087317    224.20624 
   19600    132.12904   -655.50463    143417.64   -39606.691    2658.1042   -42264.795    83.216476    223.54948 
   19650        136.5   -762.83932    143411.08   -39584.669    2746.0369   -42330.706    83.327529    230.94472 
   19700    134.13495   -804.88561    143428.43   -39592.688    2698.4581   -42291.146    83.196617    226.94329 
   19750    133.32885   -573.41678    143414.65   -39572.567    2682.2415   -42254.809    83.316284    225.57945 
   19800    133.70125   -681.98507    143444.73   -39556.723    2689.7332   -42246.456    83.521789    226.20951 
   19850     135.5356   -618.61296    143374.19   -39576.788    2726.6357   -42303.424    83.962929    229.31305 
   19900    134.98355   -592.00034    143292.26   -39599.467    2715.5298   -42314.996    84.388874    228.37903 
   19950    134.84501   -656.75497    143254.01     -39582.2    2712.7428   -42294.942    84.517464    228.14465 
   20000    134.33835   -752.26026    143216.47   -39580.737    2702.5501   -42283.287    84.729466    227.28742 
   20050    136.06629     -665.635    143213.59   -39571.507    2737.3118   -42308.819    84.794611    230.21093 
   20100    133.59993   -607.34015    143310.44   -39554.177    2687.6948   -42241.871    85.155297    226.03808 
   20150    133.57638   -687.01632    143327.09   -39608.931    2687.2212   -42296.152    85.380576    225.99825 
   20200    131.02379   -725.01429    143253.85   -39616.553    2635.8695   -42252.422     85.81529    221.67951 
   20250    134.95327    -438.9419    143312.43   -39570.738    2714.9207   -42285.658    85.918433    228.32781 
   20300      135.826   -487.97896    143382.46   -39560.829    2732.4778   -42293.307    85.949332    229.80438 
   20350    134.35919   -633.85304    143428.49   -39588.037    2702.9692   -42291.006    86.126282    227.32267 
   20400    133.53838   -665.91867    143382.31   -39601.617    2686.4565   -42288.074    86.033909    225.93394 
   20450    137.60293   -507.27276    143445.11   -39596.625    2768.2251    -42364.85    86.214747    232.81077 
   20500    133.69932    -647.3586    143490.75   -39587.894    2689.6944   -42277.588    86.431359    226.20625 
   20550    132.25253   -820.38215    143492.45   -39664.029    2660.5886   -42324.617    86.562073    223.75842 
   20600    131.29663   -634.27003    143451.86   -39619.434    2641.3583   -42260.793    86.722497    222.14113 
   20650    132.22663   -659.26669    143466.56   -39615.795    2660.0674   -42275.862    86.960305    223.71459 
   20700    129.93608   -551.90508    143495.78   -39662.404    2613.9875   -42276.391    87.005289    219.83922 
   20750    129.75762   -776.61214    143497.36   -39705.188    2610.3972   -42315.586    87.069529    219.53727 
   20800     134.0778   -770.17191     143502.6   -39679.829    2697.3085   -42377.138    87.199302     226.8466 
   20850    131.17071   -591.90556    143523.32   -39647.615    2638.8251   -42286.441      87.3176    221.92809 
   20900     134.2029   -921.68816    143518.52   -39651.758    2699.8251   -42351.583    87.482252    227.05825 
   20950    135.69645   -889.73091    143523.59   -39620.319    2729.8716   -42350.191     87.78872    229.58519 
   21000    133.15415    -715.6927    143540.97   -39634.066    2678.7268   -42312.793    88.243358    225.28387 
   21050    134.65355   -681.03742     143487.3    -39652.93    2708.8911   -42361.821    88.447213    227.82071 
   21100    132.02023   -766.94751    143468.51   -39672.994    2655.9153   -42328.909    88.634093    223.36539 
   21150    133.91562   -691.57206    143377.05    -39668.76    2694.0458   -42362.806    88.912402    226.57221 
   21200    134.88347   -570.14553     143354.5   -39693.386    2713.5164   -42406.903    89.104801    228.20971 
   21250    136.29554   -633.41811    143368.28    -39696.41    2741.9237   -42438.334    89.231188    230.59879 
   21300    131.40844   -769.92452    143351.54   -39712.969    2643.6075   -42356.576    89.295812    222.33029 
   21350    132.02779   -651.99376    143365.16   -39696.359    2656.0673   -42352.426    89.710726    223.37817 
   21400    129.57149   -808.10422    143384.08   -39706.773    2606.6528   -42313.426     89.83732    219.22236 
   21450    132.60622   -736.96107    143393.79   -39667.984     2667.704   -42335.688     90.06854    224.35683 
   21500    134.05187   -700.60494    143328.52   -39673.524    2696.7867    -42370.31    90.194537    226.80272 
   21550    131.07063   -816.66389    143350.35   -39735.168    2636.8116    -42371.98    90.514296    221.75875 
   21600     134.4898   -770.87542    143285.33   -39704.974    2705.5969   -42410.571    90.774402    227.54367 
   21650    132.68447   -796.62843    143250.86    -39746.62    2669.2781   -42415.898    90.718345    224.48922 
   21700    132.90244   -883.90752    143212.57   -39718.511     2673.663   -42392.174    90.776619      224.858 
   21750    131.80681   -603.90252    143196.18   -39709.254    2651.6217   -42360.875    90.948267     223.0043 
   21800    131.67525   -700.37105    143229.66   -39700.957    2648.9752   -42349.932     91.17341    222.78172 
   21850    132.10529   -651.91617    143214.74   -39680.064    2657.6265    -42337.69    91.337948    223.50931 
   21900    133.52484   -748.11865    143197.71    -39724.08    2686.1843   -42410.264    91.401524    225.91105 
   21950    130.88865    -818.4634     143207.5    -39703.83    2633.1507   -42336.981    91.457586    221.45087 
   22000    133.51219    -793.3624    143194.38   -39730.665    2685.9297   -42416.595    91.820969    225.88964 
   22050    133.90922    -652.5087    143170.79   -39721.299    2693.9169   -42415.216    91.827743    226.56137 
   22100    133.04817   -568.52247    143217.45    -39702.44    2676.5948   -42379.035    91.835872    225.10456 
   22150    134.02557   -949.16446    143196.36   -39719.426    2696.2577   -42415.684    91.982492    226.75823 
   22200    130.79565   -638.59876    143116.79   -39720.933    2631.2799   -42352.212    92.147248    221.29352 
   22250    134.99682   -716.10442    143105.02   -39666.342    2715.7967   -42382.139    92.303369    228.40148 
   22300     131.0324   -591.61852    143102.95   -39678.657    2636.0427     -42314.7     92.39211    221.69408 
   22350    132.35571   -714.79538    143090.28   -39648.292    2662.6642   -42310.956    92.551395    223.93298 
   22400    134.99373   -693.43726    143081.17   -39631.284    2715.7346   -42347.018    92.811155    228.39626 
   22450    135.23274   -518.05517    143093.81   -39606.827     2720.543    -42327.37    93.102484    228.80065 
   22500    134.02127   -561.58502    143028.53   -39660.866    2696.1712   -42357.037    93.346272    226.75096 
   22550     134.6478   -512.25441    143012.74   -39682.031    2708.7755   -42390.806    93.326255    227.81099 
   22600    131.86584   -463.01598    143107.18   -39712.724    2652.8094   -42365.533    93.075365    223.10418 
   22650    135.72999   -784.04092    143130.61   -39642.588    2730.5463   -42373.134    93.285925    229.64194 
   22700    132.95983   -781.80771    143109.05   -39645.376    2674.8177   -42320.194    93.517824     224.9551 
   22750    132.12378    -564.6786    143101.67   -39685.518    2657.9984   -42343.517    93.804795    223.54058 
   22800    133.71211   -470.09986    143117.27   -39700.664    2689.9516   -42390.615    93.886854    226.22788 
   22850    129.66657    -794.8078    143076.62   -39727.142    2608.5655   -42335.708    94.335842    219.38322 
   22900    129.96656   -733.74441    143003.36   -39702.424    2614.6006   -42317.025    94.370875    219.89078 
   22950    133.94195   -551.43971    143037.31   -39710.485    2694.5754    -42405.06    94.595546    226.61675 
   23000    133.16291   -725.15118    143096.23    -39702.15    2678.9032   -42381.053    94.653052     225.2987 
   23050    134.48239   -663.71837    143093.63   -39701.301    2705.4476   -42406.748    94.751387    227.53112 
   23100    131.84669   -708.43187    143077.43    -39689.09    2652.4241   -42341.514    94.681076    223.07178 
   23150    129.87416   -863.59933    143026.18   -39714.171    2612.7417   -42326.913    94.756863    219.73444 
   23200    131.85656   -740.36056    142889.83   -39714.545    2652.6227   -42367.167    94.777108    223.08848 
   23250    132.57573   -528.94762    142891.82   -39665.533    2667.0905   -42332.624    95.139902    224.30524 
   23300    132.46753   -561.11057    142961.44   -39682.208    2664.9138   -42347.122    95.228932    224.12218 
   23350    132.31545   -559.43265    143014.96    -39730.67    2661.8543   -42392.524    95.373889    223.86487 
   23400    131.05717   -813.27475    143011.41   -39718.716    2636.5409   -42355.257    95.682324    221.73598 
   23450     133.1224   -657.03623    142938.76   -39687.323    2678.0881   -42365.411    95.724963    225.23014 
   23500    133.66625   -302.38892     143006.8   -39678.704    2689.0291   -42367.733    95.826881     226.1503 
   23550    136.52611   -517.11363    143051.53   -39609.315    2746.5623   -42355.877    95.981899     230.9889 
   23600     134.9639   -701.99424    143161.32   -39627.763    2715.1344   -42342.897    96.329729    228.34578 
   23650    134.56145   -719.48127    143165.55   -39568.394    2707.0383   -42275.433     96.68709    227.66489 
   23700    134.25638   -578.92103    143196.76   -39618.879     2700.901    -42319.78    96.814128    227.14874 
   23750    132.65667   -749.56332    143195.14   -39649.505    2668.7188   -42318.224    96.916994    224.44218 
   23800    134.81767   -495.98651    143195.07   -39643.428    2712.1928   -42355.621    97.012232    228.09839 
   23850    135.22841   -551.22692    143231.91   -39657.679    2720.4557   -42378.135    97.136925    228.79331 
   23900    132.17539   -771.42998    143231.64   -39681.579    2659.0368   -42340.615    97.315227    223.62791 
   23950    132.77756    -804.1524    143219.14   -39698.642    2671.1508   -42369.793     97.39901    224.64671 
   24000    132.60317   -572.02233    143209.92   -39692.601    2667.6425   -42360.243    97.494587    224.35166 
   24050     132.5033   -667.03282    143140.44    -39711.59    2665.6335   -42377.223    97.575136     224.1827 
   24100    131.36604   -629.98172    143149.93   -39707.164    2642.7546   -42349.918    97.628492    222.25856 
   24150    130.51556    -633.1316    143161.53   -39696.132    2625.6451   -42321.777    97.963337    220.81964 
   24200    134.37519   -749.16715     143126.7     -39710.9    2703.2912   -42414.191    98.009035    227.34975 
   24250    131.80823    -690.9776    143062.51    -39697.29    2651.6504    -42348.94    98.431236    223.00671 
   24300    131.29308   -810.61057    142911.88   -39701.964    2641.2868    -42343.25    98.663441    222.13512 
   24350    133.56641   -600.58906    142878.83   -39667.019    2687.0206    -42354.04    98.978309    225.98138 
   24400    130.75108   -664.31858     142899.6   -39700.065    2630.3831   -42330.448    99.191967    221.21811 
   24450    132.17829   -557.57458    142944.05   -39684.903     2659.095   -42343.998    99.172813     223.6328 
   24500    132.39261   -741.39799     142956.2   -39675.807    2663.4066   -42339.213    99.387542    223.99542 
   24550    131.46599   -686.69062    142942.42   -39680.925    2644.7653    -42325.69    99.879496    222.42767 
   24600    132.90284   -635.47195    142960.22   -39717.468    2673.6713    -42391.14    100.19745    224.85869 
   24650    132.76747   -662.77181    142931.33   -39712.042    2670.9479    -42382.99    100.26204    224.62965 
   24700    129.48237   -599.54885    142916.05   -39749.054    2604.8599   -42353.913    100.51249    219.07157 
   24750     133.8501   -645.57899    142830.33   -39754.792    2692.7277   -42447.519    100.69299    226.46136 
   24800    134.27383   -451.66564    142862.74   -39705.101     2701.252   -42406.353    100.81461    227.17825 
   24850    132.57056   -585.25754    142934.38   -39765.498    2666.9865   -42432.484    100.86764    224.29649 
   24900    131.02564   -632.97139    142988.15   -39754.296    2635.9066   -42390.203    100.92641    221.68264 
   24950    132.27689   -569.42967    142926.12   -39739.507    2661.0786   -42400.585    101.28539    223.79963 
   25000    130.78065   -621.10321    142916.74   -39719.397    2630.9781   -42350.375    101.54814    221.26814 
   25050    135.34803   -808.64465    142899.57   -39675.957    2722.8622   -42398.819    101.67995     228.9957 
   25100    131.60034   -694.84873     142883.4    -39713.25    2647.4682   -42360.719    101.74868    222.65498 
   25150    133.50209   -758.27181    142925.32   -39689.561    2685.7265   -42375.287    101.76797    225.87255 
   25200    130.07685   -937.41039    142891.62   -39722.437    2616.8193   -42339.256    101.97551    220.07737 
   25250    133.61003   -840.99375    142911.39   -39672.445    2687.8981   -42360.343    101.75461    226.05518 
   25300    134.09617   -543.85358    142904.07   -39664.492     2697.678    -42362.17    101.82706    226.87768 
   25350    135.60901   -806.07148     142904.2   -39639.272    2728.1125   -42367.385    102.05568    229.43726 
   25400     132.6333   -764.51882    142983.87   -39671.331    2668.2488    -42339.58    102.32335    224.40265 
   25450    133.32092   -753.80671     142889.7   -39689.496    2682.0818   -42371.577     102.2295    225.56603 
   25500    131.77859   -741.53525    142908.73   -39680.831    2651.0541   -42331.885    102.54882    222.95656 
   25550    131.55975   -623.27215    142862.81   -39682.469    2646.6516    -42329.12    102.76398     222.5863 
   25600    131.87592   -599.82366    142948.01   -39656.787    2653.0121   -42309.799    102.92255    223.12123 
   25650    133.17335   -443.43053    143067.72   -39654.187    2679.1131     -42333.3    102.93361    225.31635 
   25700    133.53316   -463.10608    143173.21   -39671.278    2686.3515    -42357.63     103.3568    225.92511 
   25750    130.62158   -648.56776    143220.21   -39699.895    2627.7779   -42327.673    103.27689      220.999 
   25800    132.08094   -617.87128    143203.18   -39709.053    2657.1367    -42366.19    103.39407    223.46811 
   25850     128.7609   -588.03597    143257.69   -39765.315    2590.3458   -42355.661    103.39416    217.85093 
   25900    132.48992   -609.00847     143259.6   -39718.634    2665.3643   -42383.998    103.62921    224.16006 
   25950    130.86344   -652.36254    143314.01    -39721.06    2632.6435   -42353.703    103.74359     221.4082 
   26000    131.93909   -750.61028    143326.73   -39703.289    2654.2829   -42357.572    103.80941    223.22811 
   26050    134.52488   -788.37988    143319.58   -39713.292    2706.3026   -42419.595    103.96402    227.60302 
   26100    130.15425   -599.14723    143313.92   -39687.283    2618.3765    -42305.66    103.90926    220.20834 
   26150    133.42751   -564.12572    143366.76   -39651.259    2684.2263   -42335.486    104.13509    225.74638 
   26200    132.48184   -716.42591    143421.17   -39675.258    2665.2017    -42340.46    104.17711    224.14639 
   26250    132.67221   -894.33952    143394.77   -39727.978    2669.0315   -42397.009    104.20549    224.46848 
   26300    131.45171   -632.92003    143293.12    -39733.79    2644.4781   -42378.268     104.3725    222.40351 
   26350    131.42792     -758.299    143232.69   -39720.551    2643.9994   -42364.551    104.89773    222.36325 
   26400    133.44268   -794.30866    143249.16   -39754.849    2684.5313    -42439.38    105.26962    225.77203 
   26450    132.77796   -712.39408    143143.81   -39730.465     2671.159   -42401.624    105.42286     224.6474 
   26500    132.27917   -673.79807     143105.2   -39718.494    2661.1245   -42379.618    105.45297    223.80349 
   26550    127.88628    -572.4854    143077.67   -39760.922    2572.7505   -42333.673    105.45073    216.37114 
   26600    131.25169   -717.58677    142964.22   -39733.347    2640.4543   -42373.802    105.63533     222.0651 
   26650    130.76319   -630.33738    142997.83   -39737.794    2630.6268   -42368.421    105.99028     221.2386 
   26700    132.91803   -679.48648    142959.57   -39700.937    2673.9767   -42374.914    106.22137    224.88437 
   26750    132.27317   -751.24047    142924.36   -39722.812    2661.0038   -42383.816     106.2393    223.79334 
   26800    131.92746   -629.77247    142929.12   -39716.039    2654.0489   -42370.088    106.12253    223.20842 
   26850    132.00157   -473.87447    142936.74   -39688.652    2655.5398   -42344.192    106.18684    223.33381 
   26900    131.43698   -677.61489     142995.2   -39681.344    2644.1816   -42325.526    106.31018    222.37858 
   26950    133.48832   -650.29235    143026.56   -39653.256    2685.4496   -42338.706     106.5382    225.84925 
   27000    135.47679   -519.15234    143020.54    -39586.07    2725.4525   -42311.523    106.58577    229.21355 
   27050    131.56214   -519.48035    143078.51   -39637.576    2646.6996   -42284.276    106.68217    222.59034 
   27100    132.54459   -714.82815    143121.64   -39681.957     2666.464   -42348.421    106.73372    224.25255 
   27150    130.73823   -639.01846    143152.08   -39702.228    2630.1247   -42332.352    106.67395    221.19637 
   27200    131.82004   -658.43865     143156.1   -39695.327    2651.8879   -42347.215    106.92658    223.02668 
   27250    133.00978   -759.31456    143173.37    -39674.27    2675.8226   -42350.093    107.27956    225.03962 
   27300    129.70626   -538.32877    143155.57   -39702.912     2609.364   -42312.276    107.61563    219.45038 
   27350    129.95245   -723.24035    143132.55   -39721.286    2614.3167   -42335.603    107.70694     219.8669 
   27400    131.87901   -548.52024    143088.68   -39718.282    2653.0743   -42371.356    107.82582    223.12646 
   27450    134.23171   -728.22378     143014.3   -39691.829    2700.4047   -42392.234    107.83946      227.107 
   27500    131.09054   -685.52685    142989.74    -39724.28    2637.2123   -42361.492     107.9262    221.79245 
   27550    132.36548   -454.08881    143068.08   -39731.421    2662.8608   -42394.282    107.93543    223.94951 
   27600     132.3542   -538.09489    143140.67   -39734.378    2662.6339   -42397.012    108.10881    223.93044 
   27650    130.69697   -711.67705    143061.01   -39746.525    2629.2946    -42375.82    108.19242    221.12656 
   27700    131.15349   -536.21816    143015.57   -39738.843    2638.4786   -42377.321    108.40942    221.89894 
   27750     133.5981   -612.05549    143029.19    -39668.55    2687.6581   -42356.208    108.85406      226.035 
   27800    134.59951   -474.60929    143012.51   -39679.528     2707.804   -42387.332    109.03487    227.72929 
   27850     133.8858   -607.84528    143089.85   -39660.101    2693.4458   -42353.547    109.19141    226.52175 
   27900    132.32733   -400.95954    143122.46   -39683.653    2662.0933   -42345.746    109.57996    223.88497 
   27950    133.77861   -669.30469    143209.52   -39664.762    2691.2894   -42356.051    109.82771    226.34039 
   28000    132.86144    -595.8717    143236.64    -39675.35    2672.8383   -42348.188    109.91234    224.78863 
   28050    132.13732   -454.85339     143308.2   -39679.545    2658.2707   -42337.816    109.94798    223.56349 
   28100    130.00526   -761.23415    143393.45   -39713.815    2615.3791   -42329.194    110.12157    219.95625 
   28150    132.12342   -734.46439    143364.62   -39723.801    2657.9913   -42381.793     110.2774    223.53998 
   28200    135.16821    -707.4563    143361.04   -39685.431    2719.2447   -42404.675    110.42338    228.69146 
   28250    132.45984   -782.18495    143350.14   -39625.425    2664.7592   -42290.184    110.57537    224.10917 
   28300    134.82625   -761.37842    143296.34   -39653.909    2712.3652   -42366.274    110.53619    228.11289 
   28350    133.28144   -825.92607       143271   -39659.017    2681.2876   -42340.304    110.76468    225.49923 
   28400    133.26809   -803.84514    143202.27   -39665.367    2681.0192   -42346.387     111.1765    225.47665 
   28450    136.12091   -761.47929    143207.43   -39596.147    2738.4107   -42334.558    111.12447    230.30334 
   28500    132.12197   -444.03142     143260.3   -39621.435     2657.962   -42279.397    111.37237    223.53752 
   28550    134.15414   -695.37414    143316.54   -39624.652    2698.8441   -42323.496    111.72873    226.97575 
   28600    132.54081   -918.60217     143279.9   -39624.274     2666.388   -42290.662    112.00622    224.24616 
   28650    135.41662   -877.17375    143268.41   -39607.938    2724.2422    -42332.18     112.0391    229.11176 
   28700    131.48604   -878.65675    143256.45   -39646.018    2645.1687   -42291.187    112.46496    222.46159 
   28750    134.96086   -716.64743    143258.34   -39641.864    2715.0734   -42356.937    112.47941    228.34065 
   28800    133.73028   -739.62684    143335.03     -39660.4    2690.3173   -42350.718    112.60004    226.25863 
   28850    132.81952   -858.72028    143374.85   -39631.708    2671.9949   -42303.703    112.80147     224.7177 
   28900    132.49628   -768.73046    143366.31   -39633.229    2665.4922   -42298.722    113.08484    224.17082 
   28950    133.34202    -820.6591    143298.92   -39601.501    2682.5064   -42284.008    113.46929    225.60173 
   29000    132.91729   -593.82601    143245.86   -39641.029    2673.9619   -42314.991     113.6762    224.88313 
   29050     129.4357   -649.83619     143193.3    -39682.71     2603.921   -42286.631    113.70252    218.99261 
   29100    132.60879   -679.09306    143125.09   -39665.206    2667.7557   -42332.962     113.9008    224.36118 
   29150    131.93135   -782.11067    143080.31    -39695.35    2654.1272   -42349.477    114.04129    223.21501 
   29200     132.5765   -626.96077    143053.55   -39711.466     2667.106   -42378.572    114.24758    224.30654 
   29250    131.75195   -745.58917    143026.32   -39677.781    2650.5181   -42328.299    114.61222    222.91148 
   29300    133.35444   -654.96449    142999.55   -39734.417    2682.7563   -42417.174    114.92545    225.62275 
   29350    130.98907   -682.84474    143021.52   -39649.142    2635.1709   -42284.313    115.05774    221.62077 
   29400    136.05931     -571.786    142992.59   -39576.375    2737.1714   -42313.546    115.27364    230.19912 
   29450    134.32114   -706.57266    143123.27   -39592.908    2702.2037   -42295.112    115.48823     227.2583 
   29500    131.24134   -697.63438    143158.73   -39581.549    2640.2459   -42221.795     115.5877    222.04758 
   29550    135.98274   -700.55744    143189.01   -39487.151     2735.631   -42222.782      115.698    230.06957 
   29600    136.43721   -761.84451    143236.42   -39500.355    2744.7738   -42245.128    115.45667    230.83849 
   29650    133.14121   -558.58861    143248.88   -39492.211    2678.4665   -42170.678    115.37408    225.26197 
   29700    134.15077   -621.85517     143305.3   -39569.671    2698.7764   -42268.447    115.59126    226.97006 
   29750    134.32014   -660.50514    143300.33    -39569.56    2702.1837   -42271.743    115.93137    227.25661 
   29800     131.8381   -534.82445    143213.62   -39581.548    2652.2514   -42233.799    116.19494    223.05725 
   29850    130.79659   -697.64275    143151.66   -39608.823    2631.2988   -42240.121    116.44536    221.29512 
   29900    133.58954   -574.59951    143095.46   -39604.642    2687.4859   -42292.128    116.71074    226.02051 
   29950    131.35001   -496.49369    143162.34   -39617.384    2642.4322   -42259.816    116.86506    222.23145 
   30000    131.29856   -457.66376    143129.21   -39690.351    2641.3972   -42331.748    116.80342     222.1444 
   30050    132.41386    -690.1796    143138.27   -39686.127    2663.8342   -42349.961    116.59302    224.03138 
   30100    131.94883   -514.07199    143127.85   -39629.901    2654.4788    -42284.38    116.78903    223.24458 
   30150    135.06137   -635.80617    143123.93   -39638.463    2717.0954   -42355.558    117.07695     228.5107 
   30200    132.53744   -547.02591     143092.3    -39624.76    2666.3202   -42291.081    117.48412    224.24045 
   30250    133.04357   -548.61419    143173.93   -39618.259    2676.5023   -42294.761    117.29295    225.09678 
   30300    132.46174    -674.7187    143180.17     -39614.1    2664.7974   -42278.898    117.46945    224.11238 
   30350    133.34829   -681.44021    143143.83   -39598.819    2682.6326   -42281.452    117.55913    225.61234 
   30400    131.04672   -612.26252    143122.54   -39615.086    2636.3307   -42251.416    117.97203     221.7183 
   30450    128.56326   -724.43275    143066.72   -39653.639    2586.3698   -42240.009    118.14266    217.51653 
   30500    133.35886   -579.73495    143036.97   -39653.393    2682.8452   -42336.239    118.38287    225.63023 
   30550    134.62301   -440.34273    142996.45   -39620.125    2708.2766   -42328.401     118.5179    227.76904 
   30600    133.39065   -267.73673    143080.67   -39606.761    2683.4846   -42290.245    118.63653      225.684 
   30650     133.8629   -766.66143    143108.39   -39679.641    2692.9851   -42372.626    118.56378      226.483 
   30700    130.21109   -693.71538    143046.68   -39677.814      2619.52   -42297.334    118.68815     220.3045 
   30750     130.7192   -669.64168    143028.01    -39705.35    2629.7418   -42335.092    119.00948    221.16417 
   30800    133.22396   -596.45356    143085.33   -39622.345    2680.1313   -42302.476    119.14987    225.40199 
   30850    134.69457   -809.27361    143007.08   -39619.259    2709.7163   -42328.975    119.41145    227.89012 
   30900    134.49547    -698.5488    143015.67   -39549.661    2705.7109   -42255.372    119.73836    227.55326 
   30950    132.98068   -528.05958    143153.66   -39499.217    2675.2371   -42174.454    119.87757    224.99037 
   31000    135.23033   -962.27816    143137.96    -39541.46    2720.4944   -42261.955    120.00628    228.79657 
   31050    134.42282   -748.63907    143081.05   -39552.213    2704.2494   -42256.462    120.44656    227.43034 
   31100    134.50376   -499.40035    143028.93   -39530.992    2705.8776   -42236.869    120.70611    227.56728 
   31150    132.73159   -639.33821    143028.73   -39510.064    2670.2261    -42180.29    120.92527    224.56894 
   31200    135.22561   -734.08236    143017.87   -39507.044    2720.3994   -42227.444    121.49625    228.78858 
   31250    135.46264   -574.38842    143027.09   -39516.279     2725.168   -42241.447    121.65532    229.18962 
   31300    132.04874   -650.36356    143087.71   -39521.601    2656.4888    -42178.09    121.86051    223.41362 
   31350    135.37624   -776.63164    143139.02   -39506.236    2723.4298   -42229.665    121.78873    229.04344 
   31400    132.78587   -747.69286     143129.7   -39513.588     2671.318   -42184.906    121.76031    224.66078 
   31450    134.51352   -911.63461     143062.6   -39564.474    2706.0739   -42270.548    121.93444    227.58378 
   31500     130.5096   -701.79895    143007.13   -39577.688    2625.5252   -42203.213    122.25525    220.80955 
   31550    133.73281   -757.11346     142944.3   -39561.637     2690.368   -42252.005    122.55515     226.2629 
   31600    133.21904   -867.27205    142826.89   -39567.018    2680.0324    -42247.05    123.05245    225.39367 
   31650    131.92394   -660.00221    142808.15   -39574.548    2653.9781   -42228.526    123.42256    223.20247 
   31700    133.87223   -713.52893    142735.12   -39582.859    2693.1729   -42276.032    123.87503     226.4988 
   31750    131.14542   -734.14021     142665.7   -39545.353    2638.3162   -42183.669    124.02776    221.88529 
   31800    134.86964   -609.55872    142671.58   -39459.973    2713.2383   -42173.211    124.18393    228.18632 
   31850    134.05888   -651.19397    142660.42   -39457.169    2696.9278   -42154.097    124.33019    226.81459 
   31900    137.85922   -742.23519     142720.5   -39443.513     2773.381   -42216.894    124.24555    233.24438 
   31950    133.75672   -866.22514    142700.59   -39513.385    2690.8491   -42204.234    124.43453    226.30336 
   32000    131.39711   -810.38636    142604.52   -39559.309    2643.3797   -42202.689    124.52671    222.31113 
   32050    133.10569   -481.79218    142556.88   -39560.013    2677.7519   -42237.765    124.56024    225.20188 
   32100    132.02784   -675.92706    142667.24   -39586.905    2656.0683   -42242.973    124.75919    223.37826 
   32150     132.5555   -445.30668    142701.39   -39592.164    2666.6835   -42258.848    125.12717    224.27101 
   32200    132.38155   -731.21865     142854.5   -39586.251    2663.1842   -42249.435    125.03384    223.97671 
   32250    133.04513   -677.43732    142896.77   -39559.466    2676.5336       -42236    125.36696    225.09941 
   32300    133.58045   -635.59307    142897.08   -39542.778    2687.3029   -42230.081    125.56709    226.00512 
   32350    132.70222   -561.55106    142903.62   -39540.588    2669.6352   -42210.223    125.72864    224.51925 
   32400    134.92915    -705.9464    142940.13   -39520.773    2714.4354   -42235.209    125.84366    228.28699 
   32450    134.07982   -830.17678    142883.19   -39536.111    2697.3491    -42233.46    125.94482    226.85002 
   32500    132.06762   -658.84459    142826.57   -39578.742    2656.8685   -42235.611    125.87877    223.44556 
   32550    133.33491   -581.93638    142893.55   -39544.926    2682.3633   -42227.289    125.98703     225.5897 
   32600    134.00064   -638.42657    142935.36   -39510.485    2695.7562   -42206.241     126.0214    226.71605 
   32650    132.41304   -600.51274    142911.52   -39532.536    2663.8176   -42196.353    126.15306    224.02999 
   32700    133.80525   -626.51019    142914.39   -39539.092    2691.8255   -42230.917    126.34153    226.38547 
   32750    134.33303   -537.79133       142971   -39521.738    2702.4429   -42224.181     126.2964    227.27842 
   32800    131.38047   -465.20351     143048.1   -39573.142    2643.0449   -42216.187    126.40968    222.28297 
   32850    133.34995   -665.73139    143095.64   -39581.688    2682.6658   -42264.353    126.49767    225.61514 
   32900    131.71459   -657.64588    143138.55   -39561.876    2649.7665   -42211.643    126.34845    222.84827 
   32950    133.91677    -775.8689    143135.69   -39568.171    2694.0689    -42262.24    126.54199    226.57415 
   33000    132.96413   -870.17632    143101.94   -39579.498    2674.9042   -42254.402    126.70628    224.96238 
   33050    133.83994   -1152.2739    143011.95   -39557.442    2692.5233   -42249.965    127.09629    226.44416 
   33100    131.06165   -748.76527    142942.57   -39597.575     2636.631   -42234.206    126.91194    221.74356 
   33150    132.71553   -669.80043     142960.4   -39574.137     2669.903    -42244.04    127.31879    224.54177 
   33200    132.74231   -895.76523    142925.26   -39530.338    2670.4417   -42200.779     127.6415    224.58707 
   33250    132.94663   -633.70639    142969.53    -39509.01    2674.5522   -42183.562    127.93335    224.93277 
   33300    135.42909   -856.12403    142975.25    -39490.86    2724.4929   -42215.353    128.03559    229.13284 
   33350    134.84058    -689.7506    142892.09   -39547.231    2712.6536   -42259.885    128.25183    228.13715 
   33400    133.94904   -740.21723    142861.99   -39541.597    2694.7181   -42236.316    128.32801    226.62875 
   33450    134.69484    -845.9039    142850.45   -39569.535    2709.7217   -42279.256    128.38687    227.89057 
   33500    133.03272   -692.40936    142838.06   -39540.425     2676.284   -42216.709    128.57969    225.07842 
   33550    134.09133   -655.99165    142847.97   -39537.028    2697.5806   -42234.609    128.68818    226.86949 
   33600    132.40244    -692.6798    142841.99   -39585.825    2663.6044   -42249.429    129.06257    224.01205 
   33650    133.07562   -651.99798     142916.4   -39605.929     2677.147   -42283.076    129.34532      225.151 
   33700    134.58791    -835.3572     142831.4   -39562.189    2707.5706    -42269.76    129.54523    227.70966 
   33750    136.04939   -698.83647    142865.72   -39534.017    2736.9719   -42270.989    129.72821    230.18234 
   33800    133.01076   -761.82418    142935.16   -39557.896    2675.8422   -42233.738    129.62299    225.04127 
   33850    133.84558   -764.23575    143005.55   -39566.216    2692.6367   -42258.852     129.5347     226.4537 
   33900    132.38463   -541.38958    143020.28   -39614.416    2663.2461   -42277.662    129.68077    223.98192 
   33950    134.28673   -827.08834    143029.37    -39601.76    2701.5115   -42303.272    129.94398    227.20008 
[...]
   92000    135.58927   -680.56791    142467.71   -39587.985    2727.7153   -42315.701    335.92254    229.40385 
   92050    132.32629   -682.98583    142433.09   -39604.228    2662.0724   -42266.301    336.12381    223.88321 
   92100    134.26554   -563.06188    142443.92   -39571.963    2701.0852   -42273.048     336.4849    227.16423 
   92150    131.40653   -731.72689    142412.32   -39578.111    2643.5692   -42221.681    336.85544    222.32707 
   92200     130.5744   -732.10202    142411.17   -39567.505    2626.8288   -42194.333    337.41219    220.91919 
   92250    132.98783   -680.39579     142422.4   -39541.615     2675.381   -42216.996    337.26767    225.00248 
   92300    132.19455   -672.41868     142430.4   -39576.848    2659.4222    -42236.27    337.47727    223.66032 
   92350    132.18538   -443.23946     142417.6   -39556.296    2659.2377   -42215.534    337.86281    223.64481 
   92400    133.03156   -781.19887    142346.26   -39591.627    2676.2607   -42267.888     338.2351    225.07646 
   92450    133.66469   -608.95873    142413.52   -39618.684    2688.9977   -42307.682    338.32522    226.14766 
   92500     133.8286   -597.24196    142504.37   -39633.454    2692.2951    -42325.75    338.38369    226.42497 
   92550    132.13772   -564.87214    142594.19   -39604.817    2658.2789   -42263.096    338.33039    223.56417 
   92600    134.91262   -595.92267     142595.8   -39617.243    2714.1028   -42331.346    338.76673    228.25902 
   92650    135.71179   -469.39809    142585.45   -39601.114    2730.1803   -42331.294    339.09803    229.61115 
   92700    131.91102   -445.97737    142735.81   -39597.669    2653.7183   -42251.387    339.59438    223.18062 
   92750    131.15555   -605.99992    142806.26   -39585.873    2638.5202   -42224.394    339.55689    221.90244 
   92800    133.28092   -572.19501    142774.82   -39614.388    2681.2772   -42295.665    339.46072    225.49836 
   92850    132.04816   -560.26663     142839.3   -39629.965    2656.4771   -42286.442    339.65261    223.41264 
   92900    129.94133   -494.40918    142850.56   -39630.533     2614.093   -42244.626    339.58773    219.84809 
   92950     133.2817   -472.14572    142963.84   -39609.776    2681.2929   -42291.069    339.70453    225.49967 
   93000    132.87938   -577.36374    143042.41   -39619.164    2673.1991   -42292.363    339.93394    224.81898 
   93050    134.46827   -606.36377    143061.71   -39607.505    2705.1637   -42312.669    340.06916    227.50723 
   93100    135.00764   -655.05255    143058.36   -39661.831    2716.0144   -42377.845    339.72945    228.41979 
   93150    131.71948   -896.04736    143045.53   -39675.662    2649.8648   -42325.527    340.28097    222.85654 
   93200    136.55901   -504.99273     143009.4    -39623.48    2747.2241   -42370.704    340.43347    231.04456 
   93250    134.81651   -394.66807    143069.58   -39584.361    2712.1695    -42296.53    340.81378    228.09643 
   93300    133.42414   -604.02287     143087.8   -39593.279    2684.1583   -42277.438    340.53457    225.74066 
   93350    130.53894   -625.82384    143075.98   -39611.159    2626.1155   -42237.275    340.63982    220.85919 
   93400    130.33219    -482.4126    143062.29   -39620.211    2621.9562   -42242.168    341.09654    220.50939 
   93450    130.36829   -871.60614    143042.27   -39654.009    2622.6823   -42276.691    341.27464    220.57046 
   93500    131.58578   -572.73907    142952.83   -39672.366    2647.1753   -42319.541    341.69569    222.63034 
   93550    133.63536   -509.79745    142985.62   -39614.854    2688.4077   -42303.262     341.2299    226.09804 
   93600    135.67999   -420.14609     143108.5   -39622.756    2729.5404   -42352.296    341.35816    229.55734 
   93650    132.74574   -547.36616    143184.88   -39702.615    2670.5107   -42373.125    341.17636    224.59288 
   93700    132.83643    -381.3734    143240.55   -39722.255    2672.3351    -42394.59    340.92923    224.74632 
   93750    132.42512   -616.94842     143275.1   -39672.392    2664.0607   -42336.453    341.47808    224.05043 
   93800    132.11214   -732.91099    143263.22   -39687.951    2657.7643   -42345.715    341.86873     223.5209 
   93850    132.35247   -691.01622    143177.08   -39708.275    2662.5991   -42370.874    341.88653     223.9275 
   93900    130.35078   -584.58053    143229.22   -39717.126    2622.3302   -42339.456    341.70752    220.54085 
   93950      130.905   -770.01847    143260.02    -39678.93    2633.4796    -42312.41    341.94964    221.47853 
   94000    132.27517   -647.63593     143175.6   -39631.217    2661.0439   -42292.261    342.30195    223.79672 
   94050    131.23519   -729.62974    143078.21   -39659.785    2640.1222   -42299.907    342.16572    222.03718 
   94100    133.04179   -827.53772    143098.99   -39646.165    2676.4665   -42322.632    342.15801    225.09377 
   94150    132.85134    -557.0609    143069.45   -39641.444    2672.6351   -42314.079    342.51549    224.77154 
   94200    131.16954   -578.05239    143159.09   -39659.066    2638.8015   -42297.867    342.83078     221.9261 
   94250    133.43053   -940.39595    143144.66   -39629.854     2684.287   -42314.141    343.07674    225.75148 
   94300    133.10102   -772.71735    143149.69   -39597.019     2677.658   -42274.677    343.42344    225.19397 
   94350    131.32116   -793.28518    143080.17   -39586.873    2641.8517   -42228.725    343.92945    222.18263 
   94400    131.89291   -739.50264    142961.08   -39580.767    2653.3538   -42234.121    344.38657    223.14997 
   94450    133.55873   -417.62236    143013.14    -39540.19    2686.8661   -42227.056    345.00468    225.96839 
   94500    135.48251    -546.8916    142979.34   -39549.397    2725.5676   -42274.964    345.25021    229.22322 
   94550    136.46897   -499.24648    143129.53   -39535.563    2745.4127   -42280.976    346.18681    230.89222 
   94600    132.77272   -372.94876    143161.01   -39590.151    2671.0534   -42261.204     346.6746    224.63853 
   94650     136.0234   -529.62423    143185.23   -39587.666    2736.4491   -42324.115    347.42712    230.13837 
   94700    130.79326    -644.7581    143234.06   -39637.488    2631.2317   -42268.719    347.79435    221.28947 
   94750    133.48925   -638.77014     143243.8   -39589.958    2685.4683   -42275.426    348.32758    225.85083 
   94800    136.84688   -685.09382    143260.23   -39530.919    2753.0154   -42283.934    348.47262    231.53161 
   94850     131.1101    -567.6995    143285.93   -39536.815    2637.6057    -42174.42    348.87273    221.82553 
   94900    134.57437   -691.46884    143223.42   -39518.079    2707.2981   -42225.378    348.73419    227.68674 
   94950    135.79609   -584.09029    143272.33   -39543.046    2731.8761   -42274.922    348.89673    229.75377 
   95000    134.42859   -754.63532    143258.04   -39557.356    2704.3655   -42261.721     348.8981    227.44011 
   95050    131.80302    -762.5825    143205.11   -39559.455    2651.5455       -42211    349.01631    222.99788 
   95100    132.52094    -574.0432    143186.27   -39564.528    2665.9883   -42230.516    349.26283    224.21254 
   95150     130.9617   -733.35814    143138.57   -39576.434    2634.6203   -42211.055     349.3156    221.57446 
   95200    133.39561   -902.73136    142995.08   -39620.008    2683.5845   -42303.593    349.85102     225.6924 
   95250    132.54422   -624.94775    142914.79   -39588.655    2666.4566   -42255.111    349.27708    224.25193 
   95300    131.94119   -542.28267    142960.42    -39601.13    2654.3252   -42255.455    349.51242    223.23166 
   95350    135.81147   -562.29551    142896.29   -39615.487    2732.1854   -42347.673    349.53489    229.77979 
   95400    132.17344   -601.32736    142925.66   -39628.434    2658.9975   -42287.432    350.03801    223.62461 
   95450    134.01573   -689.99303    142902.85   -39661.214    2696.0598   -42357.274    350.06422    226.74159 
   95500    131.94539   -737.79812     142864.1   -39671.382    2654.4098   -42325.792    350.08602    223.23877 
   95550    132.05511   -646.15422    142871.73   -39634.884    2656.6169     -42291.5    350.38127    223.42439 
   95600    133.47529   -712.78138    142949.75   -39625.739    2685.1875   -42310.927    350.67179    225.82721 
   95650    135.63606   -251.87983    143010.06   -39567.119    2728.6567   -42295.775    350.55954    229.48302 
   95700    133.46014   -660.91488    143057.43   -39556.441    2684.8827   -42241.323    350.84526    225.80158 
   95750    132.24369   -681.20567    143009.83   -39553.129    2660.4108    -42213.54    351.31444    223.74347 
   95800    132.94767   -733.73906    143019.25   -39548.334     2674.573   -42222.907     351.5743    224.93452 
   95850      133.944   -808.01476    143049.77   -39572.662    2694.6168   -42267.279    351.96024    226.62023 
   95900    133.46579    -648.6018    143078.03    -39547.63    2684.9963   -42232.627    351.97054    225.81113 
   95950    132.28785    -595.6603    143055.48   -39514.744    2661.2991   -42176.043    352.12477    223.81817 
   96000    132.85636   -562.05784    143013.73   -39534.712     2672.736   -42207.448    352.60749    224.78003 
   96050    133.27463   -557.65887    143019.22    -39595.43    2681.1507    -42276.58    352.39816    225.48771 
   96100    132.89348   -599.68906    143044.03   -39666.762    2673.4829   -42340.245    352.55908    224.84284 
   96150    131.68254   -758.36297    143002.79   -39675.818    2649.1217    -42324.94    352.43827    222.79404 
   96200    132.71288   -852.20452    142974.12   -39646.526    2669.8496   -42316.376    352.79492    224.53728 
   96250    131.61305   -954.56667    142925.68   -39646.808    2647.7239   -42294.532    353.20461    222.67649 
   96300    132.28725    -655.6695     142927.1   -39573.833     2661.287    -42235.12    353.42758    223.81715 
   96350    135.57468   -713.98054    143003.28   -39560.172    2727.4219   -42287.594     353.7279    229.37918 
   96400    131.42889   -399.12987     143100.7     -39577.6    2644.0189   -42221.619     354.0669    222.36489 
   96450    134.60019   -536.19853    143287.95   -39603.835    2707.8175   -42311.653    353.68547    227.73043 
   96500     131.3016   -648.27358    143337.62   -39657.092    2641.4582    -42298.55    353.61459    222.14954 
   96550    134.37933   -840.14171    143326.38   -39599.635    2703.3744    -42303.01    353.64418    227.35676 
   96600    134.24503   -749.48735     143340.6   -39603.322    2700.6727   -42303.995    353.85656    227.12954 
   96650    134.64163   -718.23037    143350.08   -39572.054    2708.6512   -42280.705    353.66682    227.80054 
   96700    132.23499    -597.9414    143355.53   -39586.506    2660.2357   -42246.741    353.73903    223.72874 
   96750    134.07691   -662.90318    143400.95   -39587.425    2697.2906   -42284.715    354.09303     226.8451 
   96800    132.73722    -593.5343     143391.9   -39559.838    2670.3394   -42230.178    353.98724    224.57847 
   96850    135.59966   -640.00225    143345.46   -39534.428    2727.9244   -42262.352    353.96785    229.42144 
   96900    133.60575    -737.8047    143315.62   -39552.153    2687.8119   -42239.965    353.97016    226.04793 
   96950    135.68892   -809.81559    143239.76   -39534.165    2729.7202   -42263.885    354.20536    229.57246 
   97000    134.88922   -732.95559    143199.27    -39556.92     2713.632   -42270.552    354.23872    228.21943 
   97050    134.65537   -583.58838    143224.34   -39544.845    2708.9277   -42253.773    354.10983    227.82379 
   97100    134.08374   -579.90304    143264.68   -39598.217     2697.428   -42295.644    354.31812    226.85665 
   97150    133.11376   -680.93992    143233.03   -39592.067    2677.9144   -42269.981    354.65282    225.21554 
   97200    132.23811   -969.95155     143139.1   -39615.541    2660.2984   -42275.839    354.53555    223.73402 
   97250     132.6943   -714.31239    143066.86   -39610.229     2669.476   -42279.705    354.99709    224.50586 
   97300    132.24821   -714.14452    143084.31   -39607.975    2660.5017   -42268.476    354.78953    223.75112 
   97350    133.25903   -611.60342    143144.53   -39653.551    2680.8368   -42334.388    354.98549    225.46132 
   97400    133.75762   -829.23534    143125.35   -39623.666    2690.8671   -42314.533    355.24958    226.30488 
   97450    134.64742   -505.90001     143059.3   -39578.685    2708.7676   -42287.453    355.62067    227.81033 
   97500    133.15488   -681.53191    143023.94   -39607.571    2678.7416   -42286.312    355.72015     225.2851 
   97550     137.2537   -763.65561    143003.58   -39567.179    2761.1995   -42328.379    355.71495    232.21991 
   97600    130.95025   -564.87511     142990.4   -39606.136      2634.39   -42240.526    355.84353    221.55509 
   97650    132.59038   -561.68373    143040.32   -39608.454    2667.3853    -42275.84    355.73078    224.33003 
   97700    132.84236   -631.83782    143044.85   -39558.576    2672.4544    -42231.03    356.11642    224.75635 
   97750     132.5226   -848.62237    143097.85   -39605.293    2666.0216   -42271.314    356.27866    224.21534 
   97800     133.3251    -515.9578    143087.93    -39614.48    2682.1659   -42296.646     356.5855    225.57309 
   97850    131.89047    -418.3007    143137.81   -39635.481    2653.3049   -42288.786    356.76532    223.14585 
   97900    132.28034    -651.8258    143124.56   -39621.183     2661.148   -42282.331     356.7071    223.80547 
   97950    131.13857   -443.30475    143192.39   -39618.345    2638.1784   -42256.523    356.88043     221.8737 
   98000    132.14466   -528.66785    143240.43   -39619.831    2658.4185   -42278.249    357.13671    223.57592 
   98050    133.65867   -680.46253    143187.67   -39633.089    2688.8766   -42321.966    357.40276    226.13747 
   98100    132.05918   -734.89343    143151.06   -39627.004    2656.6989   -42283.702    357.88132    223.43129 
   98150    132.28347   -578.30082    143160.92    -39622.17     2661.211   -42283.381    358.00296    223.81077 
   98200    132.61194   -762.70859     143230.8   -39633.985     2667.819   -42301.804    358.11969     224.3665 
   98250     132.7256   -640.85647    143153.82   -39685.693    2670.1055   -42355.798    358.32664     224.5588 
   98300     130.9875    -852.6127    143129.14   -39714.894    2635.1393   -42350.033    358.69392    221.61811 
   98350    132.00971   -575.12083    143121.37   -39703.854    2655.7037   -42359.558    358.51582     223.3476 
   98400    131.98051   -625.36981    143190.39   -39701.815    2655.1163   -42356.931    359.18412    223.29819 
   98450    135.11794   -654.36672    143197.88   -39637.853    2718.2334   -42356.087     359.6108    228.60642 
   98500    133.96351   -466.06492    143224.38   -39600.546    2695.0092   -42295.556    359.65205    226.65323 
   98550    133.52842   -558.59882    143335.87   -39618.898    2686.2563   -42305.154    360.01565     225.9171 
   98600    134.31056    -784.6888    143403.12   -39617.041     2701.991   -42319.032    360.05343    227.24041 
   98650    134.32467   -588.67788    143397.66   -39579.731    2702.2748   -42282.006    360.05226    227.26427 
   98700    133.26301   -678.57869    143379.33   -39611.666    2680.9168   -42292.583    360.32067    225.46804 
   98750    132.39202   -550.66248    143437.27   -39591.702    2663.3947   -42255.096    360.56401    223.99442 
   98800    137.13795   -727.70837    143440.35   -39558.563     2758.871   -42317.434    360.64479    232.02408 
   98850    135.48793   -554.67838    143453.76    -39582.62    2725.6768   -42308.297    360.52251    229.23241 
   98900    134.00051    -586.7738    143449.61   -39568.352    2695.7534   -42264.105    360.59902    226.71582 
   98950    136.01817   -720.22032    143459.02   -39538.215    2736.3437   -42274.558    361.44977    230.12951 
   99000    131.26151   -789.83525       143438   -39619.538    2640.6517   -42260.189    362.06222    222.08171 
   99050    134.40522   -645.59487    143412.87   -39578.312    2703.8953   -42282.207    362.25942    227.40056 
   99100    133.38458   -778.54289    143428.91    -39622.98    2683.3626   -42306.343    362.99587    225.67374 
   99150    135.38231   -878.61174    143382.89   -39590.188    2723.5518    -42313.74    363.19087    229.05369 
   99200    132.03859   -599.59895    143374.15   -39576.033    2656.2846   -42232.318    363.65686    223.39645 
   99250    134.04477   -583.03325    143418.96   -39577.987    2696.6438   -42274.631    363.64944    226.79071 
   99300    133.72668   -593.98691    143428.58   -39587.726    2690.2448   -42277.971    364.25026    226.25254 
   99350    136.64706   -543.48087    143430.28   -39596.793    2748.9954   -42345.788    364.74639    231.19353 
   99400    133.91521   -589.14689    143478.36   -39514.248    2694.0376   -42208.285     364.7977    226.57152 
   99450    134.11052   -508.28232    143478.26   -39559.365    2697.9666   -42257.331    364.83234    226.90195 
   99500    134.40114   -879.51024    143521.58   -39552.615    2703.8131   -42256.428     365.3905    227.39365 
   99550    132.45528   -774.72537    143415.49   -39621.189    2664.6674   -42285.856    365.76032    224.10145 
   99600    136.18216   -790.46869    143381.06   -39577.907    2739.6428    -42317.55    365.94869    230.40697 
   99650    135.66395   -754.98983    143296.98    -39559.22    2729.2178   -42288.438    366.19202    229.53022 
   99700    132.79087   -733.85895    143300.33   -39591.903    2671.4185   -42263.322    366.67968    224.66923 
   99750    132.63928   -614.04717    143315.72   -39641.143     2668.369   -42309.512    366.80659    224.41276 
   99800    135.43855   -796.52297    143312.92   -39581.212    2724.6833   -42305.895    366.94063    229.14885 
   99850    132.34176   -807.17502    143237.85   -39575.675    2662.3837   -42238.059    367.02334    223.90939 
   99900    135.23361   -774.37803    143230.26   -39584.129    2720.5604   -42304.689    367.23047    228.80211 
   99950    135.70631   -751.19918    143152.86   -39604.046      2730.07   -42334.116    367.36776    229.60188 
  100000    132.67366   -730.87991     143142.5   -39622.438    2669.0606   -42291.498    367.26179    224.47092 
Loop time of 188.279 on 64 procs for 100000 steps with 6750 atoms

Performance: 229.447 ns/day, 0.105 hours/ns, 531.127 timesteps/s
100.0% CPU use with 64 MPI tasks x no OpenMP threads

MPI task timing breakdown:
Section |  min time  |  avg time  |  max time  |%varavg| %total
---------------------------------------------------------------
Pair    | 35.1       | 88.843     | 148.04     | 563.1 | 47.19
Neigh   | 1.2914     | 2.6092     | 4.8869     |  88.0 |  1.39
Comm    | 27.097     | 84.778     | 140.8      | 556.8 | 45.03
Output  | 0.12857    | 0.13012    | 0.1436     |   0.5 |  0.07
Modify  | 7.0258     | 11.183     | 19.497     | 134.1 |  5.94
Other   |            | 0.736      |            |       |  0.39

Nlocal:    105.469 ave 174 max 68 min
Histogram: 30 2 0 10 6 0 0 0 4 12
Nghost:    997.672 ave 1344 max 681 min
Histogram: 32 0 0 0 0 0 0 0 11 21
Neighs:    0 ave 0 max 0 min
Histogram: 64 0 0 0 0 0 0 0 0 0
FullNghs:  12547.5 ave 27383 max 4277 min
Histogram: 32 0 0 0 16 0 0 0 2 14

Total # of neighbors = 803040
Ave neighs/atom = 118.969
Neighbor list builds = 6140
Dangerous builds = 0

write_data		${DIR}/data.eq-${NAME}-${TEMP}
write_data		run_15/data.eq-${NAME}-${TEMP}
write_data		run_15/data.eq-het_freeze_15-${TEMP}
write_data		run_15/data.eq-het_freeze_15-225
undump          1

reset_timestep  0

unfix           2
unfix           3
unfix           4


################################################
#######         Run Simulation         #########
################################################

log				${DIR}/log.run_${NAME}
log				run_15/log.run_${NAME}
log				run_15/log.run_het_freeze_15
