LAMMPS data file via write_data, version 16 Mar 2018, timestep = 100000

6736 atoms
2 atom types

0.0000000000000000e+00 4.9219999999999999e+01 xlo xhi
0.0000000000000000e+00 4.9019635930410494e+01 ylo yhi
9.3016748304254904e-01 5.9131832516955747e+01 zlo zhi

Masses

1 18.015
2 12.01

Atoms # atomic

5278 1 9.2807869417268707e-01 2.2767565182043414e+00 4.1197379643036971e+00 0 0 0
5277 1 1.2992363458372689e+00 4.2053328818349750e-01 1.8715226933085223e+00 2 0 0
5550 1 5.4105442763809171e+00 2.4526889454117375e+00 2.8809193067083116e+00 1 1 0
4739 1 8.1750822045460403e+00 6.7579217743074427e-01 4.1827993461419641e+00 1 0 1
2966 1 9.3931066136582757e+00 3.0703016547132793e+00 3.7968380653361238e+00 1 0 1
3390 1 1.1906952108007479e+01 5.0582910615524412e-01 4.2552696684656874e+00 -1 0 1
1527 1 1.5816737833296060e+00 5.6741752785610657e+00 3.9380139161807928e+00 1 1 1
5320 1 5.6044000969594811e-02 4.2308965278045179e+00 1.8313704422748418e+00 0 1 0
6544 1 4.2700620765913300e-02 7.9161802461844886e+00 3.7634835666784188e+00 -1 0 1
2072 1 3.6095835555445825e+00 4.7013120722380828e+00 1.9794317715185397e+00 0 1 0
3872 1 7.2004511862768457e+00 4.8851048066861935e+00 3.3373408779941509e+00 1 0 1
3355 1 4.5575978379482081e+00 7.3858833803445716e+00 3.0885492057745152e+00 0 1 0
5158 1 9.8742093744049821e+00 6.9041910088913694e+00 2.6265289862284331e+00 1 1 0
5260 1 1.2010763800365112e+01 7.6390874932455128e+00 1.0961514414293663e+00 0 1 1
4803 1 3.7496165538384085e-01 1.2210990975257339e+01 2.0811162846043185e+00 1 0 1
4714 1 2.1145955444647080e+00 8.7639533791059154e+00 2.1955582629175603e+00 1 0 1
6541 1 2.6079184234575341e+00 1.1665050499775747e+01 3.8764211333653629e+00 1 1 1
5496 1 4.6474255012358645e+00 1.1052874347777927e+01 2.5889560412628714e+00 0 1 1
1529 1 6.9497433214496036e+00 1.0600554552729626e+01 3.6769441635900186e+00 1 0 1
3343 1 5.6086123327412922e+00 8.6092559560871731e+00 1.1231354803853744e+00 0 0 1
3628 1 8.7204092364261054e+00 9.7520435913005645e+00 1.6537583433723313e+00 1 1 0
1840 1 1.1100694865070146e+01 9.9246680268870122e+00 3.6372099985726294e+00 0 0 0
3372 1 3.2691459209557681e+00 1.4350983719312334e+01 4.3845761364112192e+00 1 0 1
1905 1 7.7071091801655740e+00 1.3163379949037806e+01 3.4660048481996486e+00 0 0 1
374 1 4.3543190154946085e+00 1.5731246833339577e+01 2.1703115253872038e+00 0 0 0
5685 1 6.4230894291756560e+00 1.4224329427834148e+01 1.3145048086361488e+00 1 0 1
278 1 1.0404011232377345e+01 1.2500236475345138e+01 2.3907462051651294e+00 0 0 0
3059 1 2.8177462610246780e+00 2.7731366709324314e+00 5.8903712730532689e+00 0 0 0
3620 1 1.9123889571796404e+00 1.0916390607660744e+00 7.8789845434429706e+00 0 0 0
5139 1 5.6308443049365779e+00 9.4712079139146765e-01 5.1351241391457743e+00 0 0 0
1391 1 6.7122744611676213e+00 1.5818888647156140e+00 7.8429004477177005e+00 1 0 1
68 1 5.2621194924444792e+00 4.0770067672633541e+00 7.7259929251572776e+00 0 0 0
164 1 9.1245379408421812e+00 3.5331812253563775e+00 6.6328564071731702e+00 0 0 0
27 1 9.4024829017447420e+00 1.1477189625623581e+00 8.6136312098733363e+00 1 1 0
3448 1 1.7023893361676659e+00 5.0412639363799761e+00 6.7576135332400815e+00 0 0 0
5520 1 5.5918155675433860e+00 8.0723051910213783e+00 5.4618839605765146e+00 1 0 1
2236 1 7.4868258160740186e+00 5.5897334376734920e+00 5.9152601253209616e+00 0 0 0
5268 1 9.9507432134493463e+00 7.8270930397254537e+00 5.5215020563458026e+00 0 0 0
1424 1 1.2098475530470232e+01 4.3885367893930640e+00 7.0357511222665439e+00 0 0 1
2980 1 1.1844978443886397e+01 6.9966351108959071e+00 7.6031125632906269e+00 0 1 0
5014 1 3.4764724992312588e+00 9.7791814718960772e+00 6.1562060238698546e+00 0 0 1
2106 1 2.1966469213795206e+00 8.7313645571200311e+00 8.5328660703852499e+00 0 1 0
151 1 5.1556312932276747e+00 1.1270174406611698e+01 7.6624170779997893e+00 0 0 0
1636 1 7.6375211004132568e+00 9.8334873885127667e+00 6.7654477456774123e+00 0 0 1
5414 1 9.6967078364540580e+00 1.1516392071319080e+01 5.9972824775248501e+00 0 1 0
1412 1 2.7309019907432006e+00 1.5281315283188203e+01 7.5266010274870183e+00 0 0 1
6604 1 1.0685882811012759e+00 1.6263883709183521e+01 4.9437560840984727e+00 0 -1 0
2122 1 7.6837232238421702e+00 1.4606793454410285e+01 5.6985743299896967e+00 1 0 0
455 1 5.4219747000803924e+00 1.4014153574338129e+01 7.3076931561644196e+00 0 1 0
1650 1 1.0678619772591777e+01 1.4285708558739246e+01 5.3728804187663721e+00 0 0 1
1955 1 8.9842056889145034e+00 1.4598407608884369e+01 8.4331724082520800e+00 0 0 0
327 1 2.6067969594839386e+00 1.6043213248822914e+00 1.0500395274067211e+01 0 1 0
4734 1 4.9239320560849640e+00 2.8521293036745810e-01 9.6112794138308040e+00 1 1 1
1346 1 5.9893191681600220e+00 2.0615401278421235e+00 1.1749445244970696e+01 0 1 1
314 1 1.2001742622791969e+01 2.7204531115310520e+00 9.0602373782886989e+00 0 0 0
5471 1 1.0401765646999891e+01 2.2327876914881100e+00 1.2052510130807134e+01 1 0 1
302 1 9.5611644221435987e-01 6.2769375010342117e+00 9.5096948859588455e+00 0 0 0
1402 1 3.0881246047036983e+00 4.1970816789518537e+00 9.1856412176663120e+00 0 1 1
5360 1 4.1676470666844381e+00 6.7917466271669777e+00 1.0062279703425906e+01 1 1 0
2182 1 6.9384373149963645e+00 6.1799440700677870e+00 9.1383617793853524e+00 0 1 0
3766 1 8.3349078943636385e+00 4.5840795901402522e+00 1.1005060829912853e+01 0 0 0
3646 1 1.1423387252731576e+01 5.4187891348545021e+00 1.1077437777723944e+01 0 0 0
6559 1 1.1034084996608415e+01 8.1061685115918447e+00 9.7717214939419819e+00 -1 0 1
3596 1 2.2784922838716515e+00 8.8593462829109164e+00 1.2147668456735957e+01 1 0 0
4964 1 1.9913338991285361e+00 1.1863096256625381e+01 1.0015623866150179e+01 0 0 0
1701 1 7.4469263565342931e+00 1.1713016533681616e+01 1.0603592655851990e+01 0 0 1
6714 1 4.6976316595979721e+00 1.0273772127816128e+01 1.0179879709810105e+01 1 1 0
145 1 9.8771779053420374e+00 1.2091262795640423e+01 9.0767782849635221e+00 0 0 0
24 1 8.3149437723642095e+00 8.6858155328016071e+00 9.3992253394268808e+00 0 0 0
4939 1 7.4557627893173317e-01 1.3842760211907173e+01 8.8321454380651794e+00 1 0 1
378 1 6.6531754258820825e+00 1.4500309960820807e+01 9.8409005837886934e+00 0 0 0
3382 1 4.3402514730446686e+00 1.3499940517219745e+01 1.1234516048139543e+01 0 0 1
3710 1 1.1644960898379402e+01 1.5947172807353112e+01 1.0017421441357158e+01 0 0 0
2195 1 1.1844883116979968e+01 1.3069093322307415e+01 1.0863512596125929e+01 0 1 0
3590 1 1.0435234416616661e+00 1.5573776119808009e+00 1.5398898190862008e+01 1 0 0
5143 1 2.0538554414204859e+00 3.9073676702573437e+00 1.3439056254712563e+01 0 0 0
214 1 4.0801297399958925e+00 2.1214531977799833e+00 1.3690526204174903e+01 0 0 0
3526 1 8.0232795206299148e+00 1.6572083792716472e+00 1.3488138074470694e+01 1 1 0
1936 1 5.1971919373278102e+00 3.2073047258221701e+00 1.5807314622203810e+01 0 1 0
2167 1 7.6748139350884070e+00 3.7942498594219130e+00 1.5158974952390771e+01 0 0 0
3530 1 1.1102894774470425e+01 2.4963195945873709e-01 1.6312967839134991e+01 0 0 0
2173 1 1.2262808882617520e+00 5.6862361962884380e+00 1.5532187042738988e+01 1 1 0
109 1 3.6155690815391899e+00 6.4246833229644720e+00 1.2743044492831929e+01 0 0 1
390 1 4.8032382000364731e+00 7.5320228927338198e+00 1.6348508961686626e+01 0 0 0
586 1 5.8395734818899481e+00 7.5553493783205150e+00 1.3960467997928330e+01 0 0 1
1991 1 7.9481405062109118e+00 6.0503341323088167e+00 1.3574306375188064e+01 1 1 0
2003 1 9.7347227527014404e+00 7.3594118975195233e+00 1.5189777580887629e+01 0 0 0
3349 1 1.1937560379507685e+01 6.4280632378678195e+00 1.3832830090172754e+01 0 1 1
468 1 1.9879213678378040e+00 8.2649188017905733e+00 1.5793922478038047e+01 0 0 0
3241 1 1.6663252244532972e-01 9.8997704871725247e+00 1.4169878772628486e+01 0 0 1
1749 1 1.1071736083000550e+00 1.2032556120058031e+01 1.2733281417282301e+01 1 1 0
3487 1 4.6877772430560540e+00 1.0121341421254789e+01 1.3140476045978399e+01 1 0 0
1659 1 7.7258137698108573e+00 9.6766226636741628e+00 1.4617747693078892e+01 0 0 1
4805 1 7.9684421094584277e+00 1.1900853694329850e+01 1.3092686507087750e+01 1 0 1
1935 1 1.0223563166668747e+01 1.1481556636050081e+01 1.6195689688589013e+01 1 1 0
1917 1 1.2039859137064877e+01 1.0968139876489053e+01 1.4012990123467773e+01 0 1 0
336 1 1.3158801776115414e+00 1.5959309682181079e+01 1.3785972204121940e+01 0 0 0
281 1 3.5650033225072169e+00 1.2425032767507771e+01 1.4243386063040088e+01 0 0 0
5011 1 3.8029121882639112e+00 1.5605503213613840e+01 1.2603016260600572e+01 0 0 1
198 1 6.4043952989055866e+00 1.3737113970327828e+01 1.3504120382811063e+01 0 0 1
171 1 7.5227829873101211e+00 1.6321026886810817e+01 1.2886861357186946e+01 0 0 0
1357 1 7.4459693802680134e+00 1.3777224902843550e+01 1.5971272746598190e+01 1 0 1
195 1 9.9484107077104316e+00 1.4742144889704260e+01 1.6448988070579826e+01 0 1 0
3544 1 1.0542378865649683e+01 1.2980348627424787e+01 1.3057901675169282e+01 0 0 0
2189 1 1.1869990620717219e+01 1.5327765024142618e+01 1.4304634014810603e+01 -1 0 0
2078 1 1.0999668917768728e+00 4.0714234869158696e+00 1.9004324782512512e+01 0 1 0
277 1 2.9311293795867370e+00 1.1506724780115006e-01 1.6642575480029812e+01 0 0 0
294 1 5.2337785020989216e+00 8.7229414668780070e-01 1.7469679260778801e+01 0 1 0
2090 1 7.8068259467414745e+00 2.1967763606913056e+00 1.8442619809229132e+01 0 0 0
6607 1 4.7324219717342881e+00 2.0616035551521850e+00 2.0291658004401889e+01 1 1 1
5583 1 1.1773344020400659e+01 3.2414943759116630e+00 1.6563819106389285e+01 0 1 0
1764 1 1.0088849023899231e+01 2.2487753834193658e-01 1.8769607571665361e+01 0 0 0
329 1 3.5222644800105476e+00 5.0359111145705118e+00 1.6995212393061507e+01 0 1 0
211 1 7.1717275360813275e+00 6.5431320765831993e+00 1.7776790942049942e+01 0 0 0
1756 1 4.8673142258727697e+00 4.8388633004128998e+00 1.9455315176164280e+01 0 1 0
1987 1 8.8580898547438327e+00 4.4730383554339346e+00 1.7637817209886187e+01 0 1 0
1670 1 1.1128229360526483e+01 4.8652241322461647e+00 1.9467597682001827e+01 0 0 0
3431 1 8.2869302519703325e+00 7.8116492841881673e+00 1.9996538779871905e+01 0 0 1
222 1 2.0993135418526805e+00 1.0344427223298238e+01 1.8100220968032271e+01 0 0 0
3699 1 4.9656446118874840e+00 9.5491560754373417e+00 1.7960207973914152e+01 1 0 0
1766 1 7.3186683117967926e+00 1.1169247098613457e+01 1.7103322626638878e+01 0 1 0
1772 1 8.6027545537082357e+00 1.0669416219993058e+01 1.9397784955791973e+01 1 0 0
257 1 1.0054540999906500e+01 8.6589707450518301e+00 1.7890835837132435e+01 0 0 0
2037 1 2.7404673922509524e+00 1.5314848818832036e+01 1.6504662993736019e+01 1 1 0
2002 1 3.4404852476817105e+00 1.4298278153516547e+01 2.0165361335452257e+01 1 1 1
4922 1 2.8773055128706573e+00 1.2733408391378399e+01 1.7211484722946707e+01 1 0 1
5440 1 6.4979753217043787e-02 1.3469826442720102e+01 1.7639882372959356e+01 1 1 0
3376 1 5.5836637582682842e+00 1.5425508724077911e+01 1.7148069842410379e+01 1 1 1
1954 1 1.0156875279092612e+01 1.3755877086645292e+01 1.9230931201053888e+01 0 1 0
125 1 1.8779446949449750e+00 2.2442075371583656e+00 2.0887461407413348e+01 0 0 0
3380 1 5.5875247315990662e-01 2.1265681941309538e+00 2.4174448563670087e+01 0 0 0
5347 1 2.9220730576990408e+00 7.2628209093587037e-01 2.3484699220939397e+01 1 1 0
1771 1 7.4977523615272998e+00 1.5019755545345768e+00 2.1216782622503008e+01 1 1 0
284 1 8.1051278958769046e+00 1.0599830872382696e+00 2.4005593805415309e+01 0 0 0
3287 1 4.8161807283968967e+00 2.8246108544436779e+00 2.3839105227706792e+01 1 0 0
5168 1 1.0499399898572378e+01 2.1056839264188740e+00 2.1194222879867706e+01 0 0 0
69 1 3.0406553328613821e+00 5.0054563121845517e+00 2.3291355120466669e+01 0 1 1
3612 1 3.5498091159005324e-01 7.7785989204059343e+00 2.3609328926440998e+01 1 1 0
1999 1 2.5086445172186957e+00 6.0045429871773504e+00 2.0637634445894701e+01 0 1 0
3513 1 7.0054583845665075e+00 4.2428425640507976e+00 2.1913204200026478e+01 0 0 1
3508 1 5.6208332467800481e+00 7.2043987981102164e+00 2.1278849838883907e+01 0 0 1
259 1 4.3456494900200653e+00 7.2466384927296881e+00 2.3547311873025453e+01 0 1 0
519 1 9.5348856485451154e+00 7.6742868243873010e+00 2.3164002893203925e+01 1 1 0
4863 1 9.5751182040950393e+00 5.5542542894689202e+00 2.1525842389054340e+01 1 0 1
5354 1 1.1151757472627882e+01 4.7020873486446062e+00 2.4152984363011267e+01 0 1 0
5547 1 2.5852566208462711e+00 1.0472455073061065e+01 2.1449219517355843e+01 1 1 0
3435 1 2.9271432033420024e+00 9.5342890508575877e+00 2.4163488150188947e+01 0 0 0
5180 1 9.5032876888582396e-01 8.4547882874178200e+00 2.0988808620815163e+01 0 1 0
5441 1 7.7472783809375718e+00 1.0059163402866545e+01 2.3558130259507372e+01 1 1 0
5482 1 4.9469310947553593e+00 9.6805702356037724e+00 2.0575977592673755e+01 0 0 0
3763 1 6.9172917028893721e+00 1.0927860193317523e+01 2.1351773149619508e+01 0 0 1
316 1 9.8583361186771210e+00 1.1173973063428363e+01 2.3964857705138201e+01 -1 0 0
3439 1 1.0677585429707790e+01 1.1336234060553865e+01 2.1064399266180214e+01 -1 0 0
3527 1 1.2885976070168308e+00 1.3868728098733190e+01 2.3975894004741573e+01 0 0 1
3703 1 1.7999142690242798e+00 1.2901014436490938e+01 2.1657427083817243e+01 0 0 1
4926 1 4.8655297250090470e+00 1.6206291739220873e+01 2.1183141262400294e+01 0 0 1
1 1 5.7139252087979235e+00 1.3665113102972319e+01 2.4106923181330512e+01 1 0 0
1798 1 6.3158547253490784e+00 1.3557401698562513e+01 2.1474924574651403e+01 0 -1 0
196 1 9.7797560412194677e+00 1.4014959015671193e+01 2.3246205183642314e+01 1 0 0
2014 1 8.5012599638893018e+00 1.5206333234749714e+01 2.1061177234965264e+01 0 1 0
616 2 0.0000000000000000e+00 2.8417180249513345e+00 2.6823435933258729e+01 0 0 0
618 2 0.0000000000000000e+00 0.0000000000000000e+00 2.6823435933258729e+01 0 0 0
620 2 1.2305000000000001e+00 7.1042950623783474e-01 2.6823435933258729e+01 0 0 0
627 2 1.2305000000000001e+00 2.1312885187134998e+00 2.6823435933258729e+01 0 0 0
629 2 2.4610000000000003e+00 2.8417180249513345e+00 2.6823435933258729e+01 0 0 0
631 2 2.4610000000000003e+00 0.0000000000000000e+00 2.6823435933258729e+01 0 0 0
633 2 3.6915000000000004e+00 7.1042950623783474e-01 2.6823435933258729e+01 0 0 0
648 2 3.6914999999999996e+00 2.1312885187134998e+00 2.6823435933258729e+01 0 0 0
650 2 4.9220000000000006e+00 2.8417180249513332e+00 2.6823435933258729e+01 0 0 0
652 2 4.9220000000000006e+00 0.0000000000000000e+00 2.6823435933258729e+01 0 0 0
654 2 6.1524999999999999e+00 7.1042950623783407e-01 2.6823435933258729e+01 0 0 0
677 2 6.1524999999999999e+00 2.1312885187134989e+00 2.6823435933258729e+01 0 0 0
679 2 7.3829999999999991e+00 2.8417180249513345e+00 2.6823435933258729e+01 0 0 0
681 2 7.3829999999999991e+00 0.0000000000000000e+00 2.6823435933258729e+01 0 0 0
683 2 8.6134999999999984e+00 7.1042950623783407e-01 2.6823435933258729e+01 0 0 0
714 2 8.6134999999999984e+00 2.1312885187135002e+00 2.6823435933258729e+01 0 0 0
716 2 9.8440000000000012e+00 2.8417180249513332e+00 2.6823435933258729e+01 0 0 0
718 2 9.8440000000000012e+00 0.0000000000000000e+00 2.6823435933258729e+01 0 0 0
720 2 1.1074500000000002e+01 7.1042950623783330e-01 2.6823435933258729e+01 0 0 0
759 2 1.1074500000000002e+01 2.1312885187135002e+00 2.6823435933258729e+01 0 0 0
3624 1 1.0713368065450872e+01 1.4223364034731925e+00 2.4372782489337389e+01 0 1 0
5127 1 5.2974971803287685e-01 5.0019755516638860e+00 2.4514931328511775e+01 1 0 0
621 2 0.0000000000000000e+00 7.1042950623783341e+00 2.6823435933258729e+01 0 0 0
623 2 0.0000000000000000e+00 4.2625770374269996e+00 2.6823435933258729e+01 0 0 0
625 2 1.2305000000000001e+00 4.9730065436648339e+00 2.6823435933258729e+01 0 0 0
640 2 1.2305000000000001e+00 6.3938655561404980e+00 2.6823435933258729e+01 0 0 0
642 2 2.4610000000000003e+00 7.1042950623783341e+00 2.6823435933258729e+01 0 0 0
644 2 2.4610000000000003e+00 4.2625770374269996e+00 2.6823435933258729e+01 0 0 0
646 2 3.6914999999999996e+00 4.9730065436648339e+00 2.6823435933258729e+01 0 0 0
669 2 3.6914999999999996e+00 6.3938655561404980e+00 2.6823435933258729e+01 0 0 0
2077 1 6.8489548136526457e+00 6.9242336849534185e+00 2.4493264253795676e+01 1 0 0
671 2 4.9220000000000006e+00 7.1042950623783341e+00 2.6823435933258729e+01 0 0 0
673 2 4.9220000000000006e+00 4.2625770374269978e+00 2.6823435933258729e+01 0 0 0
675 2 6.1524999999999999e+00 4.9730065436648339e+00 2.6823435933258729e+01 0 0 0
706 2 6.1524999999999999e+00 6.3938655561404980e+00 2.6823435933258729e+01 0 0 0
708 2 7.3830000000000009e+00 7.1042950623783341e+00 2.6823435933258729e+01 0 0 0
710 2 7.3829999999999991e+00 4.2625770374269996e+00 2.6823435933258729e+01 0 0 0
1727 1 7.8894298708578390e+00 4.1091564092999295e+00 2.4606125242642165e+01 1 0 0
712 2 8.6135000000000002e+00 4.9730065436648339e+00 2.6823435933258729e+01 0 0 0
751 2 8.6135000000000002e+00 6.3938655561404980e+00 2.6823435933258729e+01 0 0 0
753 2 9.8440000000000012e+00 7.1042950623783341e+00 2.6823435933258729e+01 0 0 0
755 2 9.8440000000000012e+00 4.2625770374270004e+00 2.6823435933258729e+01 0 0 0
757 2 1.1074500000000002e+01 4.9730065436648339e+00 2.6823435933258729e+01 0 0 0
798 2 1.1074500000000002e+01 6.3938655561404980e+00 2.6823435933258729e+01 0 0 0
253 1 1.2237913709234167e+01 7.7459340931024174e+00 2.4443517789627137e+01 0 0 0
634 2 0.0000000000000000e+00 1.1366872099805333e+01 2.6823435933258729e+01 0 0 0
636 2 0.0000000000000000e+00 8.5251540748539991e+00 2.6823435933258729e+01 0 0 0
638 2 1.2305000000000001e+00 9.2355835810918343e+00 2.6823435933258729e+01 0 0 0
661 2 1.2305000000000001e+00 1.0656442593567498e+01 2.6823435933258729e+01 0 0 0
663 2 2.4610000000000003e+00 1.1366872099805333e+01 2.6823435933258729e+01 0 0 0
665 2 2.4610000000000003e+00 8.5251540748539991e+00 2.6823435933258729e+01 0 0 0
667 2 3.6915000000000004e+00 9.2355835810918343e+00 2.6823435933258729e+01 0 0 0
698 2 3.6914999999999996e+00 1.0656442593567499e+01 2.6823435933258729e+01 0 0 0
700 2 4.9220000000000006e+00 1.1366872099805333e+01 2.6823435933258729e+01 0 0 0
702 2 4.9220000000000006e+00 8.5251540748539991e+00 2.6823435933258729e+01 0 0 0
704 2 6.1524999999999999e+00 9.2355835810918343e+00 2.6823435933258729e+01 0 0 0
743 2 6.1524999999999999e+00 1.0656442593567499e+01 2.6823435933258729e+01 0 0 0
745 2 7.3829999999999991e+00 1.1366872099805333e+01 2.6823435933258729e+01 0 0 0
747 2 7.3830000000000009e+00 8.5251540748539991e+00 2.6823435933258729e+01 0 0 0
4971 1 5.4900087526295875e+00 1.0865219891066269e+01 2.4573774196073813e+01 1 0 1
749 2 8.6134999999999984e+00 9.2355835810918343e+00 2.6823435933258729e+01 0 0 0
790 2 8.6134999999999984e+00 1.0656442593567498e+01 2.6823435933258729e+01 0 0 0
792 2 9.8440000000000012e+00 1.1366872099805333e+01 2.6823435933258729e+01 0 0 0
794 2 9.8440000000000012e+00 8.5251540748539956e+00 2.6823435933258729e+01 0 0 0
796 2 1.1074500000000002e+01 9.2355835810918343e+00 2.6823435933258729e+01 0 0 0
837 2 1.1074500000000002e+01 1.0656442593567498e+01 2.6823435933258729e+01 0 0 0
839 2 1.2304999999999998e+01 1.1366872099805333e+01 2.6823435933258729e+01 0 0 0
655 2 0.0000000000000000e+00 1.5629449137232333e+01 2.6823435933258729e+01 0 0 0
657 2 0.0000000000000000e+00 1.2787731112280996e+01 2.6823435933258729e+01 0 0 0
659 2 1.2305000000000001e+00 1.3498160618518829e+01 2.6823435933258729e+01 0 0 0
690 2 1.2305000000000001e+00 1.4919019630994494e+01 2.6823435933258729e+01 0 0 0
692 2 2.4610000000000003e+00 1.5629449137232328e+01 2.6823435933258729e+01 0 0 0
694 2 2.4610000000000003e+00 1.2787731112280996e+01 2.6823435933258729e+01 0 0 0
696 2 3.6915000000000004e+00 1.3498160618518829e+01 2.6823435933258729e+01 0 0 0
735 2 3.6915000000000004e+00 1.4919019630994494e+01 2.6823435933258729e+01 0 0 0
3861 1 3.5183060948576297e+00 1.5070776329720969e+01 2.4494397476220424e+01 0 1 0
115 1 8.0457326159632565e+00 1.5384766855241523e+01 2.4551914088461398e+01 1 1 0
737 2 4.9220000000000006e+00 1.5629449137232333e+01 2.6823435933258729e+01 0 0 0
739 2 4.9220000000000006e+00 1.2787731112280996e+01 2.6823435933258729e+01 0 0 0
741 2 6.1524999999999990e+00 1.3498160618518829e+01 2.6823435933258729e+01 0 0 0
782 2 6.1524999999999990e+00 1.4919019630994494e+01 2.6823435933258729e+01 0 0 0
784 2 7.3829999999999991e+00 1.5629449137232333e+01 2.6823435933258729e+01 0 0 0
786 2 7.3829999999999991e+00 1.2787731112280996e+01 2.6823435933258729e+01 0 0 0
788 2 8.6135000000000002e+00 1.3498160618518835e+01 2.6823435933258729e+01 0 0 0
829 2 8.6135000000000002e+00 1.4919019630994494e+01 2.6823435933258729e+01 0 0 0
831 2 9.8440000000000012e+00 1.5629449137232328e+01 2.6823435933258729e+01 0 0 0
833 2 9.8440000000000012e+00 1.2787731112280996e+01 2.6823435933258729e+01 0 0 0
835 2 1.1074500000000002e+01 1.3498160618518829e+01 2.6823435933258729e+01 0 0 0
871 2 1.1074500000000002e+01 1.4919019630994494e+01 2.6823435933258729e+01 0 0 0
617 2 0.0000000000000000e+00 1.4208590124756650e+00 3.0030999999999306e+01 0 0 0
619 2 0.0000000000000000e+00 0.0000000000000000e+00 3.0030999999999306e+01 0 0 0
626 2 1.2305000000000001e+00 3.5521475311891644e+00 3.0030999999999306e+01 0 0 0
628 2 1.2305000000000001e+00 2.1312885187134998e+00 3.0030999999999306e+01 0 0 0
630 2 2.4610000000000003e+00 1.4208590124756650e+00 3.0030999999999306e+01 0 0 0
632 2 2.4610000000000003e+00 0.0000000000000000e+00 3.0030999999999306e+01 0 0 0
647 2 3.6914999999999996e+00 3.5521475311891644e+00 3.0030999999999306e+01 0 0 0
649 2 3.6914999999999996e+00 2.1312885187134998e+00 3.0030999999999306e+01 0 0 0
651 2 4.9220000000000006e+00 1.4208590124756650e+00 3.0030999999999306e+01 0 0 0
653 2 4.9220000000000006e+00 0.0000000000000000e+00 3.0030999999999306e+01 0 0 0
676 2 6.1524999999999999e+00 3.5521475311891644e+00 3.0030999999999306e+01 0 0 0
678 2 6.1524999999999999e+00 2.1312885187134989e+00 3.0030999999999306e+01 0 0 0
680 2 7.3829999999999991e+00 1.4208590124756659e+00 3.0030999999999306e+01 0 0 0
682 2 7.3829999999999991e+00 0.0000000000000000e+00 3.0030999999999306e+01 0 0 0
713 2 8.6134999999999984e+00 3.5521475311891657e+00 3.0030999999999306e+01 0 0 0
715 2 8.6134999999999984e+00 2.1312885187135002e+00 3.0030999999999306e+01 0 0 0
717 2 9.8440000000000012e+00 1.4208590124756659e+00 3.0030999999999306e+01 0 0 0
719 2 9.8440000000000012e+00 0.0000000000000000e+00 3.0030999999999306e+01 0 0 0
758 2 1.1074500000000002e+01 3.5521475311891644e+00 3.0030999999999306e+01 0 0 0
760 2 1.1074500000000002e+01 2.1312885187135002e+00 3.0030999999999306e+01 0 0 0
622 2 0.0000000000000000e+00 5.6834360499026637e+00 3.0030999999999306e+01 0 0 0
624 2 0.0000000000000000e+00 4.2625770374269996e+00 3.0030999999999306e+01 0 0 0
639 2 1.2305000000000001e+00 7.8147245686161639e+00 3.0030999999999306e+01 0 0 0
641 2 1.2305000000000001e+00 6.3938655561404980e+00 3.0030999999999306e+01 0 0 0
643 2 2.4610000000000003e+00 5.6834360499026637e+00 3.0030999999999306e+01 0 0 0
645 2 2.4610000000000003e+00 4.2625770374269996e+00 3.0030999999999306e+01 0 0 0
668 2 3.6914999999999996e+00 7.8147245686161639e+00 3.0030999999999306e+01 0 0 0
670 2 3.6914999999999996e+00 6.3938655561404980e+00 3.0030999999999306e+01 0 0 0
672 2 4.9220000000000006e+00 5.6834360499026637e+00 3.0030999999999306e+01 0 0 0
674 2 4.9220000000000006e+00 4.2625770374269978e+00 3.0030999999999306e+01 0 0 0
705 2 6.1524999999999999e+00 7.8147245686161639e+00 3.0030999999999306e+01 0 0 0
707 2 6.1524999999999999e+00 6.3938655561404980e+00 3.0030999999999306e+01 0 0 0
709 2 7.3829999999999991e+00 5.6834360499026637e+00 3.0030999999999306e+01 0 0 0
711 2 7.3829999999999991e+00 4.2625770374269996e+00 3.0030999999999306e+01 0 0 0
750 2 8.6135000000000002e+00 7.8147245686161639e+00 3.0030999999999306e+01 0 0 0
752 2 8.6135000000000002e+00 6.3938655561404980e+00 3.0030999999999306e+01 0 0 0
754 2 9.8440000000000012e+00 5.6834360499026637e+00 3.0030999999999306e+01 0 0 0
756 2 9.8440000000000012e+00 4.2625770374270004e+00 3.0030999999999306e+01 0 0 0
797 2 1.1074500000000002e+01 7.8147245686161639e+00 3.0030999999999306e+01 0 0 0
799 2 1.1074500000000002e+01 6.3938655561404980e+00 3.0030999999999306e+01 0 0 0
635 2 0.0000000000000000e+00 9.9460130873296642e+00 3.0030999999999306e+01 0 0 0
637 2 0.0000000000000000e+00 8.5251540748539991e+00 3.0030999999999306e+01 0 0 0
660 2 1.2305000000000001e+00 1.2077301606043163e+01 3.0030999999999306e+01 0 0 0
662 2 1.2305000000000001e+00 1.0656442593567498e+01 3.0030999999999306e+01 0 0 0
664 2 2.4610000000000003e+00 9.9460130873296642e+00 3.0030999999999306e+01 0 0 0
666 2 2.4610000000000003e+00 8.5251540748539991e+00 3.0030999999999306e+01 0 0 0
697 2 3.6914999999999996e+00 1.2077301606043163e+01 3.0030999999999306e+01 0 0 0
699 2 3.6914999999999996e+00 1.0656442593567499e+01 3.0030999999999306e+01 0 0 0
701 2 4.9220000000000006e+00 9.9460130873296642e+00 3.0030999999999306e+01 0 0 0
703 2 4.9220000000000006e+00 8.5251540748539991e+00 3.0030999999999306e+01 0 0 0
742 2 6.1524999999999999e+00 1.2077301606043163e+01 3.0030999999999306e+01 0 0 0
744 2 6.1524999999999999e+00 1.0656442593567499e+01 3.0030999999999306e+01 0 0 0
746 2 7.3830000000000009e+00 9.9460130873296642e+00 3.0030999999999306e+01 0 0 0
748 2 7.3830000000000009e+00 8.5251540748539991e+00 3.0030999999999306e+01 0 0 0
789 2 8.6135000000000002e+00 1.2077301606043163e+01 3.0030999999999306e+01 0 0 0
791 2 8.6134999999999984e+00 1.0656442593567498e+01 3.0030999999999306e+01 0 0 0
793 2 9.8440000000000012e+00 9.9460130873296642e+00 3.0030999999999306e+01 0 0 0
795 2 9.8440000000000012e+00 8.5251540748539956e+00 3.0030999999999306e+01 0 0 0
836 2 1.1074500000000002e+01 1.2077301606043163e+01 3.0030999999999306e+01 0 0 0
838 2 1.1074500000000002e+01 1.0656442593567498e+01 3.0030999999999306e+01 0 0 0
656 2 0.0000000000000000e+00 1.4208590124756663e+01 3.0030999999999306e+01 0 0 0
658 2 0.0000000000000000e+00 1.2787731112280996e+01 3.0030999999999306e+01 0 0 0
691 2 1.2305000000000001e+00 1.4919019630994494e+01 3.0030999999999306e+01 0 0 0
693 2 2.4610000000000003e+00 1.4208590124756663e+01 3.0030999999999306e+01 0 0 0
695 2 2.4610000000000003e+00 1.2787731112280996e+01 3.0030999999999306e+01 0 0 0
736 2 3.6915000000000004e+00 1.4919019630994494e+01 3.0030999999999306e+01 0 0 0
738 2 4.9220000000000006e+00 1.4208590124756663e+01 3.0030999999999306e+01 0 0 0
740 2 4.9220000000000006e+00 1.2787731112280996e+01 3.0030999999999306e+01 0 0 0
783 2 6.1524999999999990e+00 1.4919019630994494e+01 3.0030999999999306e+01 0 0 0
785 2 7.3830000000000009e+00 1.4208590124756663e+01 3.0030999999999306e+01 0 0 0
787 2 7.3829999999999991e+00 1.2787731112280996e+01 3.0030999999999306e+01 0 0 0
872 2 1.1074500000000002e+01 1.4919019630994494e+01 3.0030999999999306e+01 0 0 0
830 2 8.6135000000000002e+00 1.4919019630994494e+01 3.0030999999999306e+01 0 0 0
832 2 9.8440000000000012e+00 1.4208590124756663e+01 3.0030999999999306e+01 0 0 0
870 2 1.1074500000000002e+01 1.6339878643470161e+01 3.0030999999999306e+01 0 0 0
834 2 9.8440000000000012e+00 1.2787731112280996e+01 3.0030999999999306e+01 0 0 0
874 2 1.2304999999999998e+01 1.4208590124756658e+01 3.0030999999999306e+01 0 0 0
945 2 0.0000000000000000e+00 2.8417180249513345e+00 3.3238564066738149e+01 0 0 0
946 2 0.0000000000000000e+00 0.0000000000000000e+00 3.3238564066738149e+01 0 0 0
947 2 1.2305000000000001e+00 7.1042950623783474e-01 3.3238564066738149e+01 0 0 0
951 2 1.2305000000000001e+00 2.1312885187134998e+00 3.3238564066738149e+01 0 0 0
952 2 2.4610000000000003e+00 2.8417180249513345e+00 3.3238564066738149e+01 0 0 0
953 2 2.4610000000000003e+00 0.0000000000000000e+00 3.3238564066738149e+01 0 0 0
954 2 3.6915000000000004e+00 7.1042950623783474e-01 3.3238564066738149e+01 0 0 0
962 2 3.6914999999999996e+00 2.1312885187134998e+00 3.3238564066738149e+01 0 0 0
6524 1 9.7738112418038470e-01 3.2110659844773624e+00 3.5684959892310246e+01 1 0 0
963 2 4.9220000000000006e+00 2.8417180249513332e+00 3.3238564066738149e+01 0 0 0
964 2 4.9220000000000006e+00 0.0000000000000000e+00 3.3238564066738149e+01 0 0 0
965 2 6.1524999999999999e+00 7.1042950623783407e-01 3.3238564066738149e+01 0 0 0
977 2 6.1524999999999999e+00 2.1312885187134989e+00 3.3238564066738149e+01 0 0 0
978 2 7.3829999999999991e+00 2.8417180249513345e+00 3.3238564066738149e+01 0 0 0
979 2 7.3829999999999991e+00 0.0000000000000000e+00 3.3238564066738149e+01 0 0 0
3898 1 8.7540705761086244e+00 7.6413468436144183e-01 3.5740874337811562e+01 1 0 0
980 2 8.6134999999999984e+00 7.1042950623783407e-01 3.3238564066738149e+01 0 0 0
996 2 8.6134999999999984e+00 2.1312885187135002e+00 3.3238564066738149e+01 0 0 0
997 2 9.8440000000000012e+00 2.8417180249513332e+00 3.3238564066738149e+01 0 0 0
998 2 9.8440000000000012e+00 0.0000000000000000e+00 3.3238564066738149e+01 0 0 0
999 2 1.1074500000000002e+01 7.1042950623783330e-01 3.3238564066738149e+01 0 0 0
1019 2 1.1074500000000002e+01 2.1312885187135002e+00 3.3238564066738149e+01 0 0 0
948 2 0.0000000000000000e+00 7.1042950623783341e+00 3.3238564066738149e+01 0 0 0
949 2 0.0000000000000000e+00 4.2625770374269996e+00 3.3238564066738149e+01 0 0 0
950 2 1.2305000000000001e+00 4.9730065436648339e+00 3.3238564066738149e+01 0 0 0
958 2 1.2305000000000001e+00 6.3938655561404980e+00 3.3238564066738149e+01 0 0 0
959 2 2.4610000000000003e+00 7.1042950623783341e+00 3.3238564066738149e+01 0 0 0
960 2 2.4610000000000003e+00 4.2625770374269996e+00 3.3238564066738149e+01 0 0 0
961 2 3.6914999999999996e+00 4.9730065436648339e+00 3.3238564066738149e+01 0 0 0
973 2 3.6914999999999996e+00 6.3938655561404980e+00 3.3238564066738149e+01 0 0 0
974 2 4.9220000000000006e+00 7.1042950623783341e+00 3.3238564066738149e+01 0 0 0
975 2 4.9220000000000006e+00 4.2625770374269978e+00 3.3238564066738149e+01 0 0 0
976 2 6.1524999999999999e+00 4.9730065436648339e+00 3.3238564066738149e+01 0 0 0
992 2 6.1524999999999999e+00 6.3938655561404980e+00 3.3238564066738149e+01 0 0 0
993 2 7.3830000000000009e+00 7.1042950623783341e+00 3.3238564066738149e+01 0 0 0
994 2 7.3829999999999991e+00 4.2625770374269996e+00 3.3238564066738149e+01 0 0 0
995 2 8.6135000000000002e+00 4.9730065436648339e+00 3.3238564066738149e+01 0 0 0
1015 2 8.6135000000000002e+00 6.3938655561404980e+00 3.3238564066738149e+01 0 0 0