LAMMPS data file via write_data, version 16 Mar 2018, timestep = 6000000

6736 atoms
2 atom types

0.0000000000000000e+00 4.9219999999999999e+01 xlo xhi
0.0000000000000000e+00 4.9019635930410494e+01 ylo yhi
5.0208598197586696e-01 5.9559914018012726e+01 zlo zhi

Masses

1 18.015
2 12.01

Atoms # atomic

6440 1 2.2529069628793010e+00 1.0255628298129391e+00 1.9411881882182616e+00 1 -1 1
2196 1 8.4681768040724736e-01 3.4643956567561771e+00 2.5993484356000995e+00 -2 3 0
280 1 4.8117028613423880e+00 8.4684818866040168e-01 2.9742082247866253e+00 -4 4 0
5541 1 5.7588606195653673e+00 3.1933846027568173e+00 2.0116186404093614e+00 4 -2 1
5551 1 8.1102392549974827e+00 2.9675715913870357e+00 2.9020831162379959e+00 1 1 0
3272 1 9.7793525450284999e+00 8.0144385282610808e-01 1.9527921665012313e+00 -1 0 1
1669 1 1.9951187878385281e+00 5.5442778761038820e+00 1.6783019189763930e+00 -1 3 0
1560 1 7.4567810521153810e-01 7.6127304120185197e+00 2.9489911971756375e+00 4 -1 0
6614 1 4.4955456220042622e+00 5.5341557381563984e+00 2.4729945470457615e+00 0 -2 1
5119 1 5.8437253345105340e+00 7.7756471814309531e+00 1.5108206406127140e+00 0 -1 0
368 1 8.1345651403954449e+00 7.1561414012980959e+00 2.8016643683919926e+00 -1 -2 0
1939 1 9.5672558376815324e+00 4.9889464459051149e+00 1.8226296550777323e+00 0 2 0
3003 1 2.2557543465972283e+00 9.8470677842413874e+00 1.7472124491686716e+00 -2 1 1
6418 1 4.9181449257936611e+00 1.0176911883500468e+01 2.5781990111009621e+00 2 -1 1
6717 1 5.7482296718528945e+00 1.2424019499618838e+01 1.9491763117824696e+00 -3 2 0
327 1 8.1977209363524999e+00 1.1828749878448908e+01 2.6412688165912974e+00 -4 -2 0
6360 1 9.3616319867219016e+00 9.4037709557869302e+00 2.0501217478646145e+00 2 -1 1
6393 1 1.2060264220901720e+01 3.3479391976837919e-01 1.0075094943556548e+01 2 3 1
3811 1 1.1160205910745007e+00 1.2282079173445233e+01 2.7732474185196061e+00 2 0 0
331 1 2.1431868383466472e+00 1.4425613016734573e+01 1.7191759495887677e+00 -1 2 0
211 1 4.5969191850610791e+00 1.4700649386689429e+01 2.7041360031669290e+00 -1 -1 0
81 1 9.6807572129310184e+00 1.3836058612847376e+01 1.9335946392213941e+00 1 -2 1
1657 1 1.1996584677569773e+01 4.8978981645333031e+00 1.0105426060409513e+01 0 0 1
3210 1 6.7142248610560151e-01 3.5350824646046983e+00 5.5308831028824006e+00 0 -1 1
3043 1 3.2781064027524391e+00 3.2449508332183550e+00 6.0000598700238923e+00 2 0 1
1390 1 7.1500192458812677e+00 1.0374547552363240e+00 6.7481544324652027e+00 3 -2 1
3597 1 4.6195495350401119e+00 1.1509899856537613e+00 5.6854904633188470e+00 -1 -1 0
114 1 8.4338486686231526e+00 3.1687010370636002e+00 5.6598360177446247e+00 4 -1 0
5203 1 1.0760022297908513e+01 2.8149409609588090e+00 6.3932652885592560e+00 -2 -2 1
5274 1 3.2819296300957125e-02 1.4384070256914640e+01 6.4640405171512789e+00 0 1 1
3567 1 3.3343029242916424e+00 7.3627783888003959e+00 6.5784423874637232e+00 5 1 0
3615 1 8.6542444096647331e-01 7.8559248613059021e+00 5.4362263543149716e+00 -1 -1 0
219 1 4.6106371148581839e+00 5.4183148388974125e+00 5.3019932224290169e+00 -2 -1 0
6453 1 7.0349230043659041e+00 5.3039138703911330e+00 6.2371523270977933e+00 2 0 1
2219 1 8.5202452579060495e+00 7.3152482543607755e+00 5.3384453519191437e+00 -1 2 0
5098 1 1.0866868800070485e+01 7.2921657494430319e+00 6.7206144274367858e+00 1 1 1
1549 1 7.1997824681544857e+00 9.6442060187741632e+00 8.8340730967115935e+00 -1 4 1
5420 1 3.4830523258705721e+00 1.1868557318216329e+01 6.1455676747567605e+00 2 -1 0
5047 1 1.1419019644899924e+00 1.2040214674630443e+01 5.3749875232711402e+00 1 0 1
1853 1 4.6792636626517599e+00 9.7015316837534264e+00 5.3296542435056207e+00 -1 2 0
4972 1 7.3268239751695852e+00 9.5555758002055384e+00 6.2973237709662646e+00 2 4 1
1399 1 8.6352135997584281e+00 1.1677338661232051e+01 1.0056850232143164e+01 1 -3 1
501 1 8.3313324879997630e+00 1.1911694135188990e+01 5.5811556218705327e+00 4 -1 0
5 1 1.1054033414370876e+01 1.1747225197791298e+01 6.3799630516658974e+00 3 -3 1
2024 1 4.7387335177184555e+00 1.4364509118736908e+01 5.3926459888332898e+00 -1 -1 0
5381 1 7.1906691398233900e+00 1.4246609851621621e+01 6.5714860726612363e+00 0 3 0
4693 1 4.6631374460438240e+00 1.3947535834266564e+01 9.7741646440558245e+00 -1 1 1
3659 1 7.3497022829758638e+00 1.4212618549975099e+01 9.2509741842999063e+00 3 -4 0
3681 1 1.1059329439539731e+00 3.1803109806400580e+00 9.7869488754300296e+00 2 0 0
1559 1 3.6425213642966039e+00 2.9806763466449127e+00 9.0674320629464162e+00 -4 0 1
1503 1 4.8930028705007427e+00 1.0837227312833202e+00 9.9558873526970988e+00 -3 3 1
2065 1 7.2509862915911070e+00 8.2750718155830250e-01 9.2885390838692725e+00 6 2 0
3815 1 8.4484360346223752e+00 2.7707546014203777e+00 9.7996016880370522e+00 -2 -2 1
3731 1 1.0797292481787418e+01 2.7229206648251894e+00 8.8040174351025513e+00 0 0 1
5577 1 3.0086729611284295e+00 7.3988838930858245e+00 9.2938488495258618e+00 -2 2 0
253 1 6.7198413723256645e-01 7.6890292120100350e+00 1.0213342325575054e+01 1 1 0
3719 1 4.4951435025999551e+00 5.2498738480006093e+00 9.6884898961450592e+00 2 1 0
1682 1 7.2326100966781954e+00 5.1359119906781361e+00 9.1130162097970668e+00 1 -1 1
1825 1 8.2520610356553252e+00 7.6003195572582927e+00 9.9877252699488341e+00 1 -4 1
3112 1 1.1155624424185456e+01 1.1616318314946058e+01 9.1689645494409522e+00 1 0 1
3765 1 1.1101936618364762e+01 7.2173040265115134e+00 9.4280346500735313e+00 -1 -3 1
1856 1 9.3878558183147454e-01 1.2043085777936318e+01 1.0137625023220203e+01 5 3 1
3667 1 3.5305953629785285e+00 1.1697423907385829e+01 9.0739517223851269e+00 -2 1 1
3401 1 4.6622232430899446e+00 9.3981954693765459e+00 9.7730181912751242e+00 -1 1 0
6422 1 1.1897174760784585e+01 9.4725564156995077e+00 2.8642820623527139e+00 2 3 1
1671 1 1.2101388606575869e+01 1.3764749568317008e+01 2.7347652501248541e+00 1 0 1
4979 1 8.6320290138439528e+00 1.6226632522769499e+01 5.4435404867211936e+00 4 2 0
5288 1 8.2178187501799140e+00 1.6132287870611389e+01 2.5855772118186575e+00 0 1 0
4840 1 1.2184813917159293e+01 4.9905589136314825e+00 2.8701323294698562e+00 -2 0 1
113 1 1.2019021273627175e+01 5.0472771190065622e+00 5.4820408571197508e+00 -3 2 0
5512 1 1.2208320816649145e+01 5.9657162675034459e-01 3.0162350608547412e+00 2 0 1
557 1 1.2257374613020120e+01 1.3750296657819751e+01 5.5431948625555396e+00 2 2 1
3914 1 1.2285265189245116e+01 9.4850051049488062e+00 1.0132369258740839e+01 3 -2 1
5461 1 3.4040097859604481e+00 1.6274123346070020e+01 9.0240478195871585e+00 0 0 0
3616 1 1.1155756484323192e+01 1.6048887938813255e+01 6.5310077329092300e+00 -1 1 0
1840 1 1.0875235035728521e+01 1.6254726628363834e+01 9.3425402103338779e+00 -1 1 0
1946 1 4.7010739591551056e+00 1.4045494016814908e+01 1.2298769950921791e+01 0 0 1
580 1 3.3633675424843483e+00 2.8970063240051407e+00 1.3729491307893799e+01 2 2 1
3512 1 3.4957233115694795e+00 3.2105767996705681e+00 1.6317952644326283e+01 2 1 0
2270 1 1.1072006445886348e+01 1.6060290607431803e+01 2.0476611934293789e+01 3 -3 1
319 1 7.3275060235883549e+00 5.1700417304960555e-01 1.3969677303279735e+01 1 2 0
5086 1 1.1116880714098857e+01 1.6228003968252583e+01 1.6197854623601675e+01 5 1 0
4820 1 7.1816287824980254e+00 8.1448483802959581e-01 1.6611441659429634e+01 -2 -1 1
3348 1 1.1364573884630385e+01 2.6664213067145051e+00 1.3367751606246950e+01 1 -2 0
1572 1 1.1336721749748571e+01 2.7333649073510973e+00 1.6104080979742442e+01 0 2 1
406 1 1.0756007810691404e+01 1.6304541946690527e+01 1.3612269830673203e+01 3 1 0
300 1 3.0927613067150528e+00 7.5965433455919760e+00 1.3646849170185098e+01 0 -1 0
1762 1 1.0904928055183344e+01 1.1641314630813572e+01 2.0850565971327637e+01 0 1 0
5418 1 7.1027117643214535e+00 4.9846059464850478e+00 1.3459021882416394e+01 1 3 0
3356 1 5.8594013485545897e+00 1.6227484224912125e+01 1.9632395256675064e+01 -2 -2 1
5133 1 7.3587154571467677e+00 5.1858936500267783e+00 1.6169253009572920e+01 4 -1 1
6541 1 1.0471579235677002e+01 7.3004296038097127e+00 1.3616147942165922e+01 -1 4 1
1938 1 1.0393781032003995e+01 1.5151633121804482e+01 2.2981105557727837e+01 2 -1 0
3242 1 3.4734958988317213e+00 1.2100713872102475e+01 1.3450555838318179e+01 0 1 1
6543 1 7.0943225020854594e+00 9.8059389525074376e+00 1.3733291319174453e+01 2 -3 1
4935 1 8.7459316858355223e+00 1.1929879900611123e+01 1.2788082840772756e+01 3 2 1
5556 1 7.5507124422879377e+00 1.0117210304292591e+01 2.3692766314001098e+01 -1 0 0
4892 1 1.0978239394676001e+01 1.1630749588829859e+01 1.3834520045783970e+01 3 1 1
3323 1 1.0683772167328859e+01 1.1636872182550794e+01 1.6528500205742521e+01 1 1 1
2978 1 7.4650594635287950e+00 9.6828137300103130e+00 2.0977091902684812e+01 3 1 0
221 1 7.6336189709870235e+00 4.9786212707715505e+00 2.3776347574121342e+01 2 -2 0
4695 1 7.2848345188419454e+00 1.3986435759179308e+01 1.3668531181972494e+01 -2 -3 1
3545 1 3.1743208060931529e+00 1.6255715975662824e+01 1.3520233193821882e+01 0 3 0
5160 1 4.4075290449333036e+00 5.4045817642637646e+00 1.2749709895260798e+01 4 0 1
2022 1 7.7040495468129722e+00 1.4658268022980955e+01 2.3501111796937206e+01 2 4 0
6560 1 3.8042631197799581e+00 1.1992919434071228e+01 2.3620011602729981e+01 -2 1 1
3851 1 2.3569890225905499e+00 8.6904143438102188e-01 1.6766114303704921e+01 1 -1 0
3706 1 2.1702483480210657e+00 7.1398629842919215e-01 1.9603834811457375e+01 -2 -1 0
6544 1 6.0759895626131977e+00 3.1020579315729204e+00 1.6934317139975008e+01 3 1 1
3559 1 6.0944002621187865e+00 3.1835026863447862e+00 1.9942318105820092e+01 0 1 1
3034 1 9.9901329717186460e+00 4.8258704408327296e-01 1.7136201068734298e+01 1 0 1
5375 1 1.0114079453807543e+01 4.0734172791491985e-01 2.0053310979800248e+01 2 1 0
32 1 3.3360718760796244e+00 7.5588495278367711e+00 1.6210317174189647e+01 -1 -1 0
5251 1 1.9055154332118229e+00 5.4521830491519188e+00 1.7236852154601756e+01 -3 2 0
6432 1 2.2721818872582769e+00 5.0811110893279094e+00 2.0058225159224396e+01 1 1 1
5544 1 5.8494934411352304e+00 7.1638540439706917e+00 1.6986430334758428e+01 4 2 0
6510 1 6.3472369374509601e+00 7.3911160538617757e+00 1.9730694760977769e+01 3 0 1
5079 1 1.0721335663742700e+01 6.8988346793563942e+00 1.6371367696464944e+01 -1 1 0
184 1 9.5888148828172319e+00 4.7364517561418200e+00 1.7470313742948726e+01 2 -4 0
5334 1 9.8907618541002957e+00 4.7479617591890522e+00 2.0168653804757380e+01 -2 0 1
4986 1 2.1639465871115084e+00 9.8665409781450162e+00 1.7219067210360198e+01 1 0 1
3711 1 2.3388427577833504e+00 9.4838253301562894e+00 1.9866703355521000e+01 -3 -3 0
3818 1 7.1512952288375251e+00 9.3218228705123174e+00 1.6247449095035407e+01 3 -1 0
6365 1 6.1024846273434745e+00 1.1843661941481333e+01 1.7091076889135060e+01 0 1 1
5553 1 6.3343771080559259e+00 1.1843079738444940e+01 1.9836096862214646e+01 4 1 0
5415 1 9.6530342724313254e+00 9.1374970852063058e+00 1.7262648219512869e+01 1 1 0
615 1 9.7816264470916447e+00 9.3995596968348600e+00 2.0117134850126916e+01 -2 -3 1
3895 1 3.3569642999911249e+00 1.1852340580549539e+01 1.6400813703196569e+01 4 0 1
3535 1 2.1864974310467078e+00 1.4057238257807358e+01 1.7387657448391664e+01 2 -1 1
4908 1 7.4604296412365212e+00 1.4015189545915746e+01 1.6369371903815278e+01 -2 2 1
1630 1 9.5581170806765436e-01 3.0791470458349290e+00 1.2637729337914921e+01 0 1 1
217 1 9.7471571393631553e+00 1.3860911356733505e+01 1.9642158457845380e+01 1 2 0
6678 1 9.8576417367377207e+00 1.4048458414641576e+01 1.7046700825783205e+01 0 0 1
2278 1 3.8493211710929960e+00 2.6087883515878616e+00 2.3730806512707257e+01 2 2 1
3757 1 3.5774176191046467e+00 2.8105252007894697e+00 2.1046119808541484e+01 5 -2 1
1495 1 7.5286978516059699e+00 4.7069982835401608e-01 2.3260766345333472e+01 1 1 1
328 1 7.4213957977338705e+00 7.7565806722096731e-01 2.0473630673221816e+01 -2 -1 0
6577 1 5.3048130027917817e-01 7.8224072527860287e+00 1.2899870581906995e+01 3 -1 1
6640 1 1.1274136298506178e+01 2.7072996787475989e+00 2.3911793510387220e+01 -1 0 0
1709 1 1.1394148169463719e+01 2.7322531772712360e+00 2.1032453600059739e+01 0 2 1
2023 1 3.9506001552353309e+00 7.3200913093649298e+00 2.0490552238364764e+01 3 -5 0
142 1 3.9131417220687794e+00 7.3383697803092556e+00 2.3061851873633064e+01 1 0 1
315 1 1.2121964930031481e+01 1.3828787406659256e+01 1.2803739999238697e+01 2 6 0
1891 1 1.1061314236506947e+01 7.7116577654950458e+00 2.3818480309386693e+01 3 0 0
193 1 7.4684395097150507e+00 5.1977556041378987e+00 2.1082647518616497e+01 0 0 0
3693 1 2.4922480223588934e+00 1.4081240914135014e+01 1.9956575853433872e+01 0 -3 0
5350 1 1.0690126724724037e+01 7.2449396137068014e+00 2.1312489339222573e+01 1 4 0
2184 1 6.1990972629816383e+00 7.6403346316950271e+00 2.4057940530947079e+01 -4 1 0
3574 1 3.6628123711268961e+00 1.1766459260717344e+01 2.0798678420705148e+01 3 2 0
42 1 4.5069369070721148e+00 9.5690319519272684e+00 1.2722637857838290e+01 -2 -2 0
3614 1 7.0302817519963856e+00 1.4185624579185767e+01 2.0828234168384494e+01 5 -1 1
497 1 4.8352300511981801e+00 6.7821098405184788e-01 1.2675650717755319e+01 1 2 0
3793 1 8.2267501308912525e+00 7.2680673613922337e+00 1.2770007114868747e+01 -2 -2 1
100 1 9.7448257764603063e-01 1.2324803853014659e+01 1.2690156833240312e+01 0 -2 0
5507 1 1.1469839289541802e+01 1.2212039922691879e+01 2.3235656208737041e+01 -1 2 0
5111 1 8.5487013029511552e+00 2.4646012584406098e+00 1.2738843875973236e+01 0 3 0
1307 1 2.6821809533288388e-03 1.4353545772433167e+01 2.1104174963069493e+01 3 -2 1
6677 1 1.2109991274197366e+01 5.1236838769935256e+00 1.2930115981383572e+01 2 1 0
3788 1 3.1618282565396152e+00 1.6079405988206283e+01 1.6138030978491834e+01 2 -3 1
394 1 1.1897381035057490e+01 9.3186171418472235e+00 1.2839345102987664e+01 -2 -1 0
5665 1 2.2348093058003826e-01 1.0034231418420861e+01 2.3533416157874953e+01 0 -2 1
432 1 1.0564105112204913e-01 1.4047659659448167e+01 2.3609252695270293e+01 0 4 1
1668 1 8.2300802944867097e+00 1.6330515958228844e+01 1.2623762618251728e+01 3 1 0
5534 1 2.8780565800817062e+00 9.5939217252792961e+00 2.4032893128573434e+01 -1 -2 0
616 2 0.0000000000000000e+00 2.8417180249513345e+00 2.6776251755974869e+01 0 0 0
618 2 0.0000000000000000e+00 0.0000000000000000e+00 2.6776251755974869e+01 0 0 0
620 2 1.2305000000000001e+00 7.1042950623783474e-01 2.6776251755974869e+01 0 0 0
627 2 1.2305000000000001e+00 2.1312885187134998e+00 2.6776251755974869e+01 0 0 0
629 2 2.4610000000000003e+00 2.8417180249513345e+00 2.6776251755974869e+01 0 0 0
631 2 2.4610000000000003e+00 0.0000000000000000e+00 2.6776251755974869e+01 0 0 0
633 2 3.6915000000000004e+00 7.1042950623783474e-01 2.6776251755974869e+01 0 0 0
648 2 3.6914999999999996e+00 2.1312885187134998e+00 2.6776251755974869e+01 0 0 0
397 1 9.7521136930194778e+00 2.7189150987608235e-01 2.4249777010097585e+01 -2 0 0
650 2 4.9220000000000006e+00 2.8417180249513332e+00 2.6776251755974869e+01 0 0 0
652 2 4.9220000000000006e+00 0.0000000000000000e+00 2.6776251755974869e+01 0 0 0
654 2 6.1524999999999999e+00 7.1042950623783407e-01 2.6776251755974869e+01 0 0 0
677 2 6.1524999999999999e+00 2.1312885187134989e+00 2.6776251755974869e+01 0 0 0
679 2 7.3829999999999991e+00 2.8417180249513345e+00 2.6776251755974869e+01 0 0 0
681 2 7.3829999999999991e+00 0.0000000000000000e+00 2.6776251755974869e+01 0 0 0
683 2 8.6134999999999984e+00 7.1042950623783407e-01 2.6776251755974869e+01 0 0 0
714 2 8.6134999999999984e+00 2.1312885187135002e+00 2.6776251755974869e+01 0 0 0
716 2 9.8440000000000012e+00 2.8417180249513332e+00 2.6776251755974869e+01 0 0 0
718 2 9.8440000000000012e+00 0.0000000000000000e+00 2.6776251755974869e+01 0 0 0
720 2 1.1074500000000002e+01 7.1042950623783330e-01 2.6776251755974869e+01 0 0 0
759 2 1.1074500000000002e+01 2.1312885187135002e+00 2.6776251755974869e+01 0 0 0
1058 2 1.1074500000000002e+01 1.3498160618518829e+01 3.3285748244016830e+01 0 0 0
621 2 0.0000000000000000e+00 7.1042950623783341e+00 2.6776251755974869e+01 0 0 0
623 2 0.0000000000000000e+00 4.2625770374269996e+00 2.6776251755974869e+01 0 0 0
625 2 1.2305000000000001e+00 4.9730065436648339e+00 2.6776251755974869e+01 0 0 0
640 2 1.2305000000000001e+00 6.3938655561404980e+00 2.6776251755974869e+01 0 0 0
642 2 2.4610000000000003e+00 7.1042950623783341e+00 2.6776251755974869e+01 0 0 0
644 2 2.4610000000000003e+00 4.2625770374269996e+00 2.6776251755974869e+01 0 0 0
646 2 3.6914999999999996e+00 4.9730065436648339e+00 2.6776251755974869e+01 0 0 0
669 2 3.6914999999999996e+00 6.3938655561404980e+00 2.6776251755974869e+01 0 0 0
671 2 4.9220000000000006e+00 7.1042950623783341e+00 2.6776251755974869e+01 0 0 0
673 2 4.9220000000000006e+00 4.2625770374269978e+00 2.6776251755974869e+01 0 0 0
675 2 6.1524999999999999e+00 4.9730065436648339e+00 2.6776251755974869e+01 0 0 0
706 2 6.1524999999999999e+00 6.3938655561404980e+00 2.6776251755974869e+01 0 0 0
708 2 7.3830000000000009e+00 7.1042950623783341e+00 2.6776251755974869e+01 0 0 0
710 2 7.3829999999999991e+00 4.2625770374269996e+00 2.6776251755974869e+01 0 0 0
4829 1 1.0144812796875136e+01 1.0187832871937678e+01 2.4486246499872593e+01 -1 2 1
712 2 8.6135000000000002e+00 4.9730065436648339e+00 2.6776251755974869e+01 0 0 0
751 2 8.6135000000000002e+00 6.3938655561404980e+00 2.6776251755974869e+01 0 0 0
753 2 9.8440000000000012e+00 7.1042950623783341e+00 2.6776251755974869e+01 0 0 0
755 2 9.8440000000000012e+00 4.2625770374270004e+00 2.6776251755974869e+01 0 0 0
757 2 1.1074500000000002e+01 4.9730065436648339e+00 2.6776251755974869e+01 0 0 0
798 2 1.1074500000000002e+01 6.3938655561404980e+00 2.6776251755974869e+01 0 0 0
634 2 0.0000000000000000e+00 1.1366872099805333e+01 2.6776251755974869e+01 0 0 0
636 2 0.0000000000000000e+00 8.5251540748539991e+00 2.6776251755974869e+01 0 0 0
638 2 1.2305000000000001e+00 9.2355835810918343e+00 2.6776251755974869e+01 0 0 0
661 2 1.2305000000000001e+00 1.0656442593567498e+01 2.6776251755974869e+01 0 0 0
663 2 2.4610000000000003e+00 1.1366872099805333e+01 2.6776251755974869e+01 0 0 0
665 2 2.4610000000000003e+00 8.5251540748539991e+00 2.6776251755974869e+01 0 0 0
667 2 3.6915000000000004e+00 9.2355835810918343e+00 2.6776251755974869e+01 0 0 0
698 2 3.6914999999999996e+00 1.0656442593567499e+01 2.6776251755974869e+01 0 0 0
700 2 4.9220000000000006e+00 1.1366872099805333e+01 2.6776251755974869e+01 0 0 0
702 2 4.9220000000000006e+00 8.5251540748539991e+00 2.6776251755974869e+01 0 0 0
704 2 6.1524999999999999e+00 9.2355835810918343e+00 2.6776251755974869e+01 0 0 0
743 2 6.1524999999999999e+00 1.0656442593567499e+01 2.6776251755974869e+01 0 0 0
745 2 7.3829999999999991e+00 1.1366872099805333e+01 2.6776251755974869e+01 0 0 0
747 2 7.3830000000000009e+00 8.5251540748539991e+00 2.6776251755974869e+01 0 0 0
749 2 8.6134999999999984e+00 9.2355835810918343e+00 2.6776251755974869e+01 0 0 0
790 2 8.6134999999999984e+00 1.0656442593567498e+01 2.6776251755974869e+01 0 0 0
792 2 9.8440000000000012e+00 1.1366872099805333e+01 2.6776251755974869e+01 0 0 0
794 2 9.8440000000000012e+00 8.5251540748539956e+00 2.6776251755974869e+01 0 0 0
796 2 1.1074500000000002e+01 9.2355835810918343e+00 2.6776251755974869e+01 0 0 0
837 2 1.1074500000000002e+01 1.0656442593567498e+01 2.6776251755974869e+01 0 0 0
839 2 1.2304999999999998e+01 1.1366872099805333e+01 2.6776251755974869e+01 0 0 0
655 2 0.0000000000000000e+00 1.5629449137232333e+01 2.6776251755974869e+01 0 0 0
657 2 0.0000000000000000e+00 1.2787731112280996e+01 2.6776251755974869e+01 0 0 0
659 2 1.2305000000000001e+00 1.3498160618518829e+01 2.6776251755974869e+01 0 0 0
690 2 1.2305000000000001e+00 1.4919019630994494e+01 2.6776251755974869e+01 0 0 0
692 2 2.4610000000000003e+00 1.5629449137232328e+01 2.6776251755974869e+01 0 0 0
694 2 2.4610000000000003e+00 1.2787731112280996e+01 2.6776251755974869e+01 0 0 0
696 2 3.6915000000000004e+00 1.3498160618518829e+01 2.6776251755974869e+01 0 0 0
735 2 3.6915000000000004e+00 1.4919019630994494e+01 2.6776251755974869e+01 0 0 0
737 2 4.9220000000000006e+00 1.5629449137232333e+01 2.6776251755974869e+01 0 0 0
739 2 4.9220000000000006e+00 1.2787731112280996e+01 2.6776251755974869e+01 0 0 0
741 2 6.1524999999999990e+00 1.3498160618518829e+01 2.6776251755974869e+01 0 0 0
782 2 6.1524999999999990e+00 1.4919019630994494e+01 2.6776251755974869e+01 0 0 0
784 2 7.3829999999999991e+00 1.5629449137232333e+01 2.6776251755974869e+01 0 0 0
786 2 7.3829999999999991e+00 1.2787731112280996e+01 2.6776251755974869e+01 0 0 0
788 2 8.6135000000000002e+00 1.3498160618518835e+01 2.6776251755974869e+01 0 0 0
829 2 8.6135000000000002e+00 1.4919019630994494e+01 2.6776251755974869e+01 0 0 0
831 2 9.8440000000000012e+00 1.5629449137232328e+01 2.6776251755974869e+01 0 0 0
833 2 9.8440000000000012e+00 1.2787731112280996e+01 2.6776251755974869e+01 0 0 0
835 2 1.1074500000000002e+01 1.3498160618518829e+01 2.6776251755974869e+01 0 0 0
871 2 1.1074500000000002e+01 1.4919019630994494e+01 2.6776251755974869e+01 0 0 0
617 2 0.0000000000000000e+00 1.4208590124756650e+00 3.0030999999994489e+01 0 0 0
619 2 0.0000000000000000e+00 0.0000000000000000e+00 3.0030999999994489e+01 0 0 0
626 2 1.2305000000000001e+00 3.5521475311891644e+00 3.0030999999994489e+01 0 0 0
628 2 1.2305000000000001e+00 2.1312885187134998e+00 3.0030999999994489e+01 0 0 0
630 2 2.4610000000000003e+00 1.4208590124756650e+00 3.0030999999994489e+01 0 0 0
632 2 2.4610000000000003e+00 0.0000000000000000e+00 3.0030999999994489e+01 0 0 0
647 2 3.6914999999999996e+00 3.5521475311891644e+00 3.0030999999994489e+01 0 0 0
649 2 3.6914999999999996e+00 2.1312885187134998e+00 3.0030999999994489e+01 0 0 0
651 2 4.9220000000000006e+00 1.4208590124756650e+00 3.0030999999994489e+01 0 0 0
653 2 4.9220000000000006e+00 0.0000000000000000e+00 3.0030999999994489e+01 0 0 0
676 2 6.1524999999999999e+00 3.5521475311891644e+00 3.0030999999994489e+01 0 0 0
678 2 6.1524999999999999e+00 2.1312885187134989e+00 3.0030999999994489e+01 0 0 0
680 2 7.3829999999999991e+00 1.4208590124756659e+00 3.0030999999994489e+01 0 0 0
682 2 7.3829999999999991e+00 0.0000000000000000e+00 3.0030999999994489e+01 0 0 0
713 2 8.6134999999999984e+00 3.5521475311891657e+00 3.0030999999994489e+01 0 0 0
715 2 8.6134999999999984e+00 2.1312885187135002e+00 3.0030999999994489e+01 0 0 0
717 2 9.8440000000000012e+00 1.4208590124756659e+00 3.0030999999994489e+01 0 0 0
719 2 9.8440000000000012e+00 0.0000000000000000e+00 3.0030999999994489e+01 0 0 0
758 2 1.1074500000000002e+01 3.5521475311891644e+00 3.0030999999994489e+01 0 0 0
760 2 1.1074500000000002e+01 2.1312885187135002e+00 3.0030999999994489e+01 0 0 0
622 2 0.0000000000000000e+00 5.6834360499026637e+00 3.0030999999994489e+01 0 0 0
624 2 0.0000000000000000e+00 4.2625770374269996e+00 3.0030999999994489e+01 0 0 0
639 2 1.2305000000000001e+00 7.8147245686161639e+00 3.0030999999994489e+01 0 0 0
641 2 1.2305000000000001e+00 6.3938655561404980e+00 3.0030999999994489e+01 0 0 0
643 2 2.4610000000000003e+00 5.6834360499026637e+00 3.0030999999994489e+01 0 0 0
645 2 2.4610000000000003e+00 4.2625770374269996e+00 3.0030999999994489e+01 0 0 0
668 2 3.6914999999999996e+00 7.8147245686161639e+00 3.0030999999994489e+01 0 0 0
670 2 3.6914999999999996e+00 6.3938655561404980e+00 3.0030999999994489e+01 0 0 0
672 2 4.9220000000000006e+00 5.6834360499026637e+00 3.0030999999994489e+01 0 0 0
674 2 4.9220000000000006e+00 4.2625770374269978e+00 3.0030999999994489e+01 0 0 0
705 2 6.1524999999999999e+00 7.8147245686161639e+00 3.0030999999994489e+01 0 0 0
707 2 6.1524999999999999e+00 6.3938655561404980e+00 3.0030999999994489e+01 0 0 0
709 2 7.3829999999999991e+00 5.6834360499026637e+00 3.0030999999994489e+01 0 0 0
711 2 7.3829999999999991e+00 4.2625770374269996e+00 3.0030999999994489e+01 0 0 0
750 2 8.6135000000000002e+00 7.8147245686161639e+00 3.0030999999994489e+01 0 0 0
752 2 8.6135000000000002e+00 6.3938655561404980e+00 3.0030999999994489e+01 0 0 0
754 2 9.8440000000000012e+00 5.6834360499026637e+00 3.0030999999994489e+01 0 0 0
756 2 9.8440000000000012e+00 4.2625770374270004e+00 3.0030999999994489e+01 0 0 0
797 2 1.1074500000000002e+01 7.8147245686161639e+00 3.0030999999994489e+01 0 0 0
799 2 1.1074500000000002e+01 6.3938655561404980e+00 3.0030999999994489e+01 0 0 0
635 2 0.0000000000000000e+00 9.9460130873296642e+00 3.0030999999994489e+01 0 0 0
637 2 0.0000000000000000e+00 8.5251540748539991e+00 3.0030999999994489e+01 0 0 0
660 2 1.2305000000000001e+00 1.2077301606043163e+01 3.0030999999994489e+01 0 0 0
662 2 1.2305000000000001e+00 1.0656442593567498e+01 3.0030999999994489e+01 0 0 0
664 2 2.4610000000000003e+00 9.9460130873296642e+00 3.0030999999994489e+01 0 0 0
666 2 2.4610000000000003e+00 8.5251540748539991e+00 3.0030999999994489e+01 0 0 0
697 2 3.6914999999999996e+00 1.2077301606043163e+01 3.0030999999994489e+01 0 0 0
699 2 3.6914999999999996e+00 1.0656442593567499e+01 3.0030999999994489e+01 0 0 0
701 2 4.9220000000000006e+00 9.9460130873296642e+00 3.0030999999994489e+01 0 0 0
703 2 4.9220000000000006e+00 8.5251540748539991e+00 3.0030999999994489e+01 0 0 0
742 2 6.1524999999999999e+00 1.2077301606043163e+01 3.0030999999994489e+01 0 0 0
744 2 6.1524999999999999e+00 1.0656442593567499e+01 3.0030999999994489e+01 0 0 0
746 2 7.3830000000000009e+00 9.9460130873296642e+00 3.0030999999994489e+01 0 0 0
748 2 7.3830000000000009e+00 8.5251540748539991e+00 3.0030999999994489e+01 0 0 0
789 2 8.6135000000000002e+00 1.2077301606043163e+01 3.0030999999994489e+01 0 0 0
791 2 8.6134999999999984e+00 1.0656442593567498e+01 3.0030999999994489e+01 0 0 0
793 2 9.8440000000000012e+00 9.9460130873296642e+00 3.0030999999994489e+01 0 0 0
795 2 9.8440000000000012e+00 8.5251540748539956e+00 3.0030999999994489e+01 0 0 0
836 2 1.1074500000000002e+01 1.2077301606043163e+01 3.0030999999994489e+01 0 0 0
838 2 1.1074500000000002e+01 1.0656442593567498e+01 3.0030999999994489e+01 0 0 0
656 2 0.0000000000000000e+00 1.4208590124756663e+01 3.0030999999994489e+01 0 0 0
658 2 0.0000000000000000e+00 1.2787731112280996e+01 3.0030999999994489e+01 0 0 0
691 2 1.2305000000000001e+00 1.4919019630994494e+01 3.0030999999994489e+01 0 0 0
693 2 2.4610000000000003e+00 1.4208590124756663e+01 3.0030999999994489e+01 0 0 0
695 2 2.4610000000000003e+00 1.2787731112280996e+01 3.0030999999994489e+01 0 0 0
736 2 3.6915000000000004e+00 1.4919019630994494e+01 3.0030999999994489e+01 0 0 0
738 2 4.9220000000000006e+00 1.4208590124756663e+01 3.0030999999994489e+01 0 0 0
740 2 4.9220000000000006e+00 1.2787731112280996e+01 3.0030999999994489e+01 0 0 0
783 2 6.1524999999999990e+00 1.4919019630994494e+01 3.0030999999994489e+01 0 0 0
785 2 7.3830000000000009e+00 1.4208590124756663e+01 3.0030999999994489e+01 0 0 0
787 2 7.3829999999999991e+00 1.2787731112280996e+01 3.0030999999994489e+01 0 0 0
872 2 1.1074500000000002e+01 1.4919019630994494e+01 3.0030999999994489e+01 0 0 0
870 2 1.1074500000000002e+01 1.6339878643470161e+01 3.0030999999994489e+01 0 0 0
834 2 9.8440000000000012e+00 1.2787731112280996e+01 3.0030999999994489e+01 0 0 0
874 2 1.2304999999999998e+01 1.4208590124756658e+01 3.0030999999994489e+01 0 0 0
832 2 9.8440000000000012e+00 1.4208590124756663e+01 3.0030999999994489e+01 0 0 0
830 2 8.6135000000000002e+00 1.4919019630994494e+01 3.0030999999994489e+01 0 0 0
945 2 0.0000000000000000e+00 2.8417180249513345e+00 3.3285748244016830e+01 0 0 0
946 2 0.0000000000000000e+00 0.0000000000000000e+00 3.3285748244016830e+01 0 0 0
947 2 1.2305000000000001e+00 7.1042950623783474e-01 3.3285748244016830e+01 0 0 0
951 2 1.2305000000000001e+00 2.1312885187134998e+00 3.3285748244016830e+01 0 0 0
952 2 2.4610000000000003e+00 2.8417180249513345e+00 3.3285748244016830e+01 0 0 0
953 2 2.4610000000000003e+00 0.0000000000000000e+00 3.3285748244016830e+01 0 0 0
954 2 3.6915000000000004e+00 7.1042950623783474e-01 3.3285748244016830e+01 0 0 0
962 2 3.6914999999999996e+00 2.1312885187134998e+00 3.3285748244016830e+01 0 0 0
3140 1 5.6377897800601540e+00 1.6186729681759168e+01 3.5752405839827006e+01 2 -5 0
963 2 4.9220000000000006e+00 2.8417180249513332e+00 3.3285748244016830e+01 0 0 0
964 2 4.9220000000000006e+00 0.0000000000000000e+00 3.3285748244016830e+01 0 0 0
965 2 6.1524999999999999e+00 7.1042950623783407e-01 3.3285748244016830e+01 0 0 0
977 2 6.1524999999999999e+00 2.1312885187134989e+00 3.3285748244016830e+01 0 0 0
978 2 7.3829999999999991e+00 2.8417180249513345e+00 3.3285748244016830e+01 0 0 0
979 2 7.3829999999999991e+00 0.0000000000000000e+00 3.3285748244016830e+01 0 0 0
980 2 8.6134999999999984e+00 7.1042950623783407e-01 3.3285748244016830e+01 0 0 0
996 2 8.6134999999999984e+00 2.1312885187135002e+00 3.3285748244016830e+01 0 0 0
997 2 9.8440000000000012e+00 2.8417180249513332e+00 3.3285748244016830e+01 0 0 0
998 2 9.8440000000000012e+00 0.0000000000000000e+00 3.3285748244016830e+01 0 0 0
999 2 1.1074500000000002e+01 7.1042950623783330e-01 3.3285748244016830e+01 0 0 0
1019 2 1.1074500000000002e+01 2.1312885187135002e+00 3.3285748244016830e+01 0 0 0
1055 2 8.6135000000000002e+00 1.4919019630994494e+01 3.3285748244016830e+01 0 0 0
948 2 0.0000000000000000e+00 7.1042950623783341e+00 3.3285748244016830e+01 0 0 0
949 2 0.0000000000000000e+00 4.2625770374269996e+00 3.3285748244016830e+01 0 0 0
950 2 1.2305000000000001e+00 4.9730065436648339e+00 3.3285748244016830e+01 0 0 0
958 2 1.2305000000000001e+00 6.3938655561404980e+00 3.3285748244016830e+01 0 0 0
959 2 2.4610000000000003e+00 7.1042950623783341e+00 3.3285748244016830e+01 0 0 0
960 2 2.4610000000000003e+00 4.2625770374269996e+00 3.3285748244016830e+01 0 0 0
961 2 3.6914999999999996e+00 4.9730065436648339e+00 3.3285748244016830e+01 0 0 0
973 2 3.6914999999999996e+00 6.3938655561404980e+00 3.3285748244016830e+01 0 0 0
1056 2 9.8440000000000012e+00 1.5629449137232328e+01 3.3285748244016830e+01 0 0 0
974 2 4.9220000000000006e+00 7.1042950623783341e+00 3.3285748244016830e+01 0 0 0
975 2 4.9220000000000006e+00 4.2625770374269978e+00 3.3285748244016830e+01 0 0 0
976 2 6.1524999999999999e+00 4.9730065436648339e+00 3.3285748244016830e+01 0 0 0
992 2 6.1524999999999999e+00 6.3938655561404980e+00 3.3285748244016830e+01 0 0 0
993 2 7.3830000000000009e+00 7.1042950623783341e+00 3.3285748244016830e+01 0 0 0
994 2 7.3829999999999991e+00 4.2625770374269996e+00 3.3285748244016830e+01 0 0 0
1057 2 9.8440000000000012e+00 1.2787731112280996e+01 3.3285748244016830e+01 0 0 0