LAMMPS data file via write_data, version 16 Mar 2018, timestep = 8000000

6368 atoms
2 atom types

0.0000000000000000e+00 4.9219999999999999e+01 xlo xhi
0.0000000000000000e+00 4.9019635930410494e+01 ylo yhi
1.5271575075000712e+00 5.8534842492491933e+01 zlo zhi

Masses

1 18.015
2 12.01

Atoms # atomic

5164 1 1.8757279896050252e+00 3.0613618278073540e+00 5.1319437199371460e+00 -1 -2 0
6272 1 2.5339124404477049e+00 3.6033071805871248e+00 2.5680618789561303e+00 2 1 0
1875 1 3.8943128012975659e+00 1.0662886143791639e+00 6.1339820573330908e+00 2 0 0
6147 1 5.9768543944690933e+00 2.6166403455730327e+00 4.9673264567740487e+00 0 1 1
3147 1 6.3454266352459747e+00 2.6028409018903704e+00 2.1589255265730114e+00 2 0 1
448 1 8.1588195669388472e+00 7.8715807744481447e-01 5.5553399610811196e+00 2 -1 0
3508 1 1.0749374226123502e+01 1.6616694980552544e+00 4.7164233233258841e+00 0 2 0
49 1 1.1058316107815083e+01 4.1416875451750954e+00 5.6991823030772819e+00 0 1 0
4859 1 1.2885684984394701e+00 3.2962391959467879e-01 1.2255494027337267e+01 0 2 0
1821 1 2.4610470071078847e+00 5.7564037517472668e+00 5.6771171914694314e+00 2 2 0
3149 1 3.7907227641159841e-01 7.5593614704064471e+00 4.7646451907557426e+00 1 1 0
4880 1 6.5344245005365786e-01 7.8402128140348522e+00 2.1768496117864142e+00 2 1 0
2833 1 4.8185745344864106e+00 6.8600467764736051e+00 4.7992326886419372e+00 0 0 1
3027 1 6.6467319733684187e+00 5.1006021815430929e+00 5.8724970362682978e+00 -3 0 0
2863 1 5.1569692761092449e+00 6.9733107084313755e+00 1.8532842928897315e+00 2 0 1
4667 1 9.0374156836117905e+00 5.8537985317402210e+00 4.8229379750183545e+00 1 0 1
419 1 9.4314590177477911e+00 6.0751014229030718e+00 2.1634330548747291e+00 -1 1 0
5353 1 7.0062131039104059e-01 1.0202000574881559e+01 5.8114666287981436e+00 1 0 1
1530 1 3.0594545413120864e+00 1.1411077833473529e+01 5.0656209221490887e+00 0 1 0
115 1 3.3580672950533645e+00 1.1556325189764996e+01 2.2031646945810914e+00 -2 -1 0
1810 1 5.1802720422772826e+00 9.7837248737752116e+00 5.6552055346918380e+00 0 -2 0
2845 1 7.7830633759430228e+00 1.0575639563406108e+01 4.8789284039349061e+00 1 3 1
2102 1 8.3010726123204428e+00 1.0773521251289644e+01 2.2136803087655688e+00 0 2 0
3362 1 1.2245261501045908e+00 1.2795854970475082e+01 9.6842341005861350e+00 -1 0 0
4577 1 9.4548234953406531e+00 8.5199041777212408e+00 5.6084854562863846e+00 2 -1 1
6287 1 8.8655260515003551e+00 1.5416435192506569e+01 1.2287359554727905e+01 1 -2 1
470 1 1.9105419839635118e-01 4.6023517169650283e+00 1.2463860293850477e+01 2 0 1
3676 1 1.9775684794430251e+00 1.5600988342863443e+01 5.1490742772975810e+00 2 -2 0
2856 1 2.1621457763014229e+00 1.5768254410901227e+01 2.3658143852394127e+00 2 -2 0
5205 1 3.8768147559804031e+00 1.3870048139776081e+01 6.0738268012895436e+00 0 1 0
4647 1 6.2201063042860500e+00 1.4741027648428370e+01 5.0582290061807811e+00 2 1 0
2927 1 6.6478987804334437e+00 1.4988686165955947e+01 2.2815583194290747e+00 1 0 1
1704 1 8.0177766027823925e+00 1.3061648933302914e+01 5.8271141581117725e+00 -1 2 0
3348 1 1.0784498888844295e+01 1.4402887028256171e+01 2.4310180538329780e+00 4 0 0
4787 1 1.0505474961666152e+01 1.3984563410844313e+01 5.1007629936320757e+00 -2 1 1
3107 1 4.3032891067200216e+00 1.6153023265051335e+01 1.2766669112095835e+01 1 0 1
3125 1 3.8706261031898457e+00 1.1719962092142189e+00 8.9163517171611151e+00 0 0 1
3509 1 4.2176485929320044e+00 4.0688339040292707e+00 9.2807211375542806e+00 2 4 0
5282 1 1.1854057789195867e+00 9.3903616333021731e-02 9.5547431491374848e+00 1 2 0
6046 1 4.5305789127333824e+00 3.9843070652650385e+00 1.2122281379401626e+01 0 1 0
4630 1 8.1575010380257105e+00 6.0229024260486408e-01 8.2815343324279844e+00 1 -2 1
1572 1 8.4987266415198199e+00 3.2283224298470463e+00 1.2232977316775452e+01 -1 1 1
4458 1 8.5136592604231325e+00 3.0735564495672403e+00 9.2768970917861573e+00 0 -1 0
276 1 8.0903649738148591e+00 1.2567725118657492e+01 8.5614307088548394e+00 1 -1 0
4666 1 2.3838615850631659e+00 5.7864958020366108e+00 8.3195580989026734e+00 1 0 1
4805 1 8.9454902143433657e+00 1.4998748794976867e+01 9.6002964839961642e+00 -2 0 1
4472 1 6.7656361710959816e+00 5.2846337272696209e+00 8.5545969860329265e+00 -1 0 1
1333 1 7.1026804805536754e+00 7.9680275395959566e+00 9.6300758422393731e+00 0 -1 1
4610 1 7.0998097492487036e+00 7.3400358327399777e+00 1.2350867076074410e+01 1 -1 1
1713 1 1.0918725852052781e+01 4.3317404210090871e+00 8.5231523317532094e+00 1 1 0
3262 1 1.1482848372135448e+01 6.6678082886157179e+00 1.1969921129927940e+01 1 1 0
38 1 1.1634831640204723e+01 7.0318945315477226e+00 8.9961242371732411e+00 0 -2 1
3233 1 3.0227445359199883e+00 8.4953058124404262e+00 1.2038451942509505e+01 0 0 0
3436 1 2.8590495845739565e+00 8.3192531955818598e+00 9.3219966627900241e+00 0 1 0
4956 1 8.0294039166900599e-01 1.0048204719580205e+01 8.5025385490015157e+00 1 1 0
6308 1 5.5832016117977377e+00 1.2141374725313446e+01 9.5733487192091413e+00 1 0 1
5273 1 5.1376389498134234e+00 9.6751695425474278e+00 8.4671851093007149e+00 0 3 0
3480 1 6.1139093139641467e+00 1.1713659959065204e+01 1.2319560527429305e+01 1 0 0
404 1 1.0116046319241647e+01 1.1189267091638287e+01 1.2270557072235361e+01 0 -1 0
1852 1 1.0328678194542876e+01 1.1168868287693344e+01 9.4782126913143010e+00 -2 -1 0
1690 1 9.6099027882870924e+00 8.9542454333025869e+00 8.5586970279720624e+00 -1 1 1
3164 1 3.6296927303624780e+00 1.3903946677372943e+01 8.8797005251120531e+00 -1 0 1
6102 1 1.6209000479681475e+00 1.2443174372863121e+01 1.2348212538813403e+01 -1 1 1
4491 1 1.0668422056044914e+01 1.4700078057254962e+00 2.0295261496218875e+00 0 0 1
1249 1 4.6123992038831210e+00 1.6290476459571035e+01 9.8020540261252656e+00 0 -1 1
1401 1 1.2085889174281707e+01 9.6904708885950939e+00 2.4958956571307609e+00 -1 0 1
4571 1 1.2039865376661970e+01 9.3813864053075413e+00 5.2080066734235846e+00 1 0 1
4973 1 1.1512111112793502e+01 4.1872723430194991e+00 1.5432276899869402e+00 -1 -2 0
3173 1 9.5718576668549404e-01 1.0700883371072512e+01 1.6070905203990997e+00 2 0 1
2869 1 2.3864299444770154e-01 4.4534342834454081e+00 9.6089407676481287e+00 1 -2 1
3504 1 7.2649675805647607e-01 7.2604191497290254e+00 1.2861219754143221e+01 0 3 0
1765 1 1.2022183414547266e+01 9.4564841560040520e+00 1.2865787833571611e+01 -2 2 0
285 1 1.9311871428831753e+00 2.8666682604543094e+00 1.6292884841648682e+01 2 -1 1
268 1 4.7124718270123287e+00 6.4144574007358885e+00 1.2994391824669494e+01 1 0 0
30 1 8.0953639298729829e+00 1.2891881407548444e+01 2.3557672219089650e+01 0 -1 0
6218 1 6.2564083595760174e+00 2.3327482737628715e+00 1.5807430030055963e+01 1 0 1
1820 1 4.3306170361465011e+00 3.8786243210695779e+00 1.6911807960546742e+01 1 -1 0
5279 1 6.1405681048598026e+00 2.1096222295168370e+00 1.3218881113866752e+01 1 0 1
3244 1 8.8157670714629557e+00 3.2497069112958767e+00 1.7014861825302585e+01 2 0 1
3048 1 1.0510854291744478e+01 1.4847909704227704e+00 1.5984501493762565e+01 1 0 1
1883 1 6.3280386741215260e+00 1.4484809200072903e+01 1.3378645737278449e+01 1 2 0
4946 1 7.8786975716398233e-01 7.2699445248462800e+00 1.5723625734867971e+01 2 -1 0
4782 1 1.1828767179736076e+01 7.0168188385051673e+00 2.4044635139609671e+01 0 2 1
1844 1 1.9526253212868074e+00 2.5343021016963868e-01 2.4326493184040281e+01 -2 2 0
2008 1 1.1926251957186199e+01 9.1351435201159106e+00 1.5710620420749541e+01 1 -2 0
353 1 4.7955723989166978e+00 6.3516335593330027e+00 1.5736855615303153e+01 1 0 0
6022 1 7.3286986394188407e+00 7.2427084183506629e+00 1.7055990226906431e+01 1 -1 1
3294 1 9.3416650882832446e+00 5.6222598872477558e+00 1.6063959294991591e+01 0 1 0
5244 1 1.1577669962454847e+01 6.7315807732255788e+00 1.6856551726626890e+01 0 -2 1
3109 1 1.0553290714055484e+01 1.4502364420340974e+00 1.3308078104031580e+01 1 1 1
1752 1 3.1254517009822220e+00 8.3017027870770104e+00 1.6721320491934566e+01 1 1 0
2829 1 3.6968960907965442e+00 1.0822326412788390e+01 1.5884429635086770e+01 0 2 1
3334 1 3.5771798250872346e+00 1.0935166268131786e+01 1.3274381427766896e+01 -1 -1 0
29 1 7.8616057683380678e+00 9.8132443897923274e+00 1.6000298416096534e+01 -1 3 0
5094 1 6.0114154406544440e+00 1.1823914475464521e+01 1.6969163766182330e+01 0 0 0
1579 1 7.6090176687675397e+00 9.8227533844867629e+00 1.3097318240003689e+01 1 2 1
4698 1 1.4829862704309655e+00 1.9000048915318460e-01 1.9803998157090778e+01 3 1 1
4651 1 1.0051567076244423e+01 1.1052362397175560e+01 1.7171558320501383e+01 -2 1 1
5172 1 9.2268904549153419e+00 5.7766604341775709e+00 1.3232721482096192e+01 2 -2 0
5997 1 1.6302097335381638e+00 1.2359925976921613e+01 1.6683976138114158e+01 0 3 0
5112 1 2.1716864075868250e+00 1.5173879908772451e+01 1.6219100294791822e+01 0 1 0
4671 1 2.0477009553414902e+00 1.5131280673324920e+01 1.3512505818139404e+01 2 0 1
26 1 6.3941680216027024e+00 1.4677814087219545e+01 1.6422866725334210e+01 2 1 0
2865 1 4.4641997829544859e+00 1.5714000191947610e+01 2.4202329358422514e+01 -2 1 1
6260 1 8.7282198409469167e+00 1.5762981417141042e+01 1.7115550759558211e+01 1 1 1
1252 1 1.0264573800886271e+01 1.3717519505609781e+01 1.6034415836297462e+01 -1 0 1
120 1 2.1277186500896406e+00 2.9175474777952961e+00 1.3301033803530704e+01 -1 1 1
6336 1 4.1558260008340175e+00 1.4322572639256599e+00 2.3202532545864972e+01 1 2 1
1807 1 4.0078132718637614e+00 1.3927535488391427e+00 2.0517159091426663e+01 1 1 0
1361 1 8.8709380190649405e+00 1.5481249497814680e+01 1.9980872189504201e+01 1 -2 1
3240 1 1.1388636839903992e+01 1.6126838837015701e+01 2.3004802959099393e+01 -1 1 1
5355 1 4.5031573449764757e+00 3.9336659977119472e+00 1.9691682635269419e+01 1 0 1
6245 1 8.2505851607627694e+00 1.0072321966780020e+00 2.3329626476074978e+01 -3 2 1
3483 1 1.0550638591347401e+01 1.3807168697995706e+01 1.3489737154659947e+01 -1 -1 0
1762 1 8.1846856442099902e+00 5.2403650029738003e-01 2.0750853183395829e+01 1 1 0
6028 1 8.8197370963229336e+00 2.9774681578274937e+00 1.9712529282774486e+01 -1 1 1
263 1 2.5750048052535290e+00 5.7910248463859428e+00 2.3094177717923465e+01 1 1 0
1552 1 2.6048065487950458e+00 5.5246725653563677e+00 2.0459565512076871e+01 -1 -1 1
4747 1 3.1603098866405439e+00 8.0453778177920281e+00 1.9612621894565329e+01 0 2 0
6244 1 1.1158791706384850e+00 3.8174537999134178e-01 1.7023915817791163e+01 3 1 1
3377 1 6.5221105577082010e+00 5.2422908212237491e+00 2.3397563437165012e+01 0 0 0
3124 1 6.7913575426233317e+00 4.8200287728231999e+00 2.0832434199228793e+01 -1 0 0
1982 1 7.0189916736255586e+00 7.2776612995493011e+00 1.9644062958716884e+01 0 1 0
3464 1 1.6803923415587980e+00 1.2658515645836047e+01 1.9597563879657987e+01 -1 2 0
6271 1 1.1235453288664058e+01 4.3553016643597990e+00 2.3362638491777997e+01 2 1 1
498 1 1.1259182305884185e+01 4.2012509774064029e+00 2.0521148577421325e+01 0 1 0
3706 1 1.1462878170967851e+01 6.9360377567085534e+00 1.9694997479311901e+01 1 1 1
6340 1 4.5097615221898151e+00 1.6168562231540129e+01 1.9712849870967585e+01 1 -2 1
332 1 1.1318277012923064e+00 9.9090161497044722e+00 2.3404785139310444e+01 0 -1 0
31 1 9.3860362306902512e-01 9.6970588933680109e+00 2.0574703013618279e+01 -1 0 0
3026 1 3.9464235467040658e+00 1.3771704856906467e+01 2.0512136088759718e+01 1 0 1
4857 1 5.7946734587692657e+00 1.1942489601808056e+01 1.9779949238149268e+01 -3 -1 1
4507 1 5.3216256435039737e+00 9.3873054019590221e+00 2.3165337019144182e+01 2 0 1
1470 1 5.3637780194506677e+00 9.3217922963183462e+00 2.0603651307648413e+01 1 3 1
2080 1 1.4128629322337345e+00 1.2419628467823205e+01 2.3925009728021170e+01 -1 -1 1
4687 1 8.1025111830496375e+00 1.2861464037198864e+01 2.0780284395909028e+01 0 2 0
281 1 1.0157146799805288e+01 1.1103120436439287e+01 1.9825778730345910e+01 -1 2 0
1548 1 9.4531444168020329e+00 8.7036003800559527e+00 2.0284099704546829e+01 0 2 1
4427 1 9.7590737145973705e+00 8.5376612338746760e+00 2.2959470491458788e+01 1 0 1
5068 1 4.0696279270548148e+00 1.3323761232204134e+01 2.3323134372072772e+01 0 -1 0
117 1 8.9660843322335282e+00 1.5410912908561180e+01 2.4173551572837273e+01 -1 0 0
5109 1 5.2014363468695160e-02 4.6566451988814146e+00 1.6918416854417107e+01 1 -1 0
6050 1 7.3111406621010975e+00 7.8975091355006866e+00 2.3994761576810724e+01 0 2 1
508 1 2.9574143206743559e+00 8.3131501317863563e+00 2.4103401728286769e+01 2 -3 1
5224 1 1.6689397105110274e-01 4.5984325057980255e+00 2.3726553196965384e+01 0 -1 0
3345 1 5.9335228117303895e+00 1.1729693535088053e+01 2.4240301888269624e+01 0 1 0
5191 1 4.1101418488793673e+00 4.0507487957001889e+00 2.4044651242779448e+01 3 0 0
556 2 0.0000000000000000e+00 2.8417180249513345e+00 2.6807379842859646e+01 0 0 0
558 2 0.0000000000000000e+00 0.0000000000000000e+00 2.6807379842859646e+01 0 0 0
560 2 1.2305000000000001e+00 7.1042950623783474e-01 2.6807379842859646e+01 0 0 0
567 2 1.2305000000000001e+00 2.1312885187134998e+00 2.6807379842859646e+01 0 0 0
569 2 2.4610000000000003e+00 2.8417180249513345e+00 2.6807379842859646e+01 0 0 0
571 2 2.4610000000000003e+00 0.0000000000000000e+00 2.6807379842859646e+01 0 0 0
573 2 3.6915000000000004e+00 7.1042950623783474e-01 2.6807379842859646e+01 0 0 0
588 2 3.6914999999999996e+00 2.1312885187134998e+00 2.6807379842859646e+01 0 0 0
557 2 0.0000000000000000e+00 1.4208590124756650e+00 3.0030999999995988e+01 0 0 0
559 2 0.0000000000000000e+00 0.0000000000000000e+00 3.0030999999995988e+01 0 0 0
566 2 1.2305000000000001e+00 3.5521475311891644e+00 3.0030999999995988e+01 0 0 0
568 2 1.2305000000000001e+00 2.1312885187134998e+00 3.0030999999995988e+01 0 0 0
570 2 2.4610000000000003e+00 1.4208590124756650e+00 3.0030999999995988e+01 0 0 0
572 2 2.4610000000000003e+00 0.0000000000000000e+00 3.0030999999995988e+01 0 0 0
587 2 3.6914999999999996e+00 3.5521475311891644e+00 3.0030999999995988e+01 0 0 0
589 2 3.6914999999999996e+00 2.1312885187134998e+00 3.0030999999995988e+01 0 0 0
590 2 4.9220000000000006e+00 2.8417180249513332e+00 2.6807379842859646e+01 0 0 0
592 2 4.9220000000000006e+00 0.0000000000000000e+00 2.6807379842859646e+01 0 0 0
594 2 6.1524999999999999e+00 7.1042950623783407e-01 2.6807379842859646e+01 0 0 0
617 2 6.1524999999999999e+00 2.1312885187134989e+00 2.6807379842859646e+01 0 0 0
619 2 7.3829999999999991e+00 2.8417180249513345e+00 2.6807379842859646e+01 0 0 0
621 2 7.3829999999999991e+00 0.0000000000000000e+00 2.6807379842859646e+01 0 0 0
591 2 4.9220000000000006e+00 1.4208590124756650e+00 3.0030999999995988e+01 0 0 0
593 2 4.9220000000000006e+00 0.0000000000000000e+00 3.0030999999995988e+01 0 0 0
616 2 6.1524999999999999e+00 3.5521475311891644e+00 3.0030999999995988e+01 0 0 0
618 2 6.1524999999999999e+00 2.1312885187134989e+00 3.0030999999995988e+01 0 0 0
620 2 7.3829999999999991e+00 1.4208590124756659e+00 3.0030999999995988e+01 0 0 0
622 2 7.3829999999999991e+00 0.0000000000000000e+00 3.0030999999995988e+01 0 0 0
623 2 8.6134999999999984e+00 7.1042950623783407e-01 2.6807379842859646e+01 0 0 0
654 2 8.6134999999999984e+00 2.1312885187135002e+00 2.6807379842859646e+01 0 0 0
656 2 9.8440000000000012e+00 2.8417180249513332e+00 2.6807379842859646e+01 0 0 0
658 2 9.8440000000000012e+00 0.0000000000000000e+00 2.6807379842859646e+01 0 0 0
660 2 1.1074500000000002e+01 7.1042950623783330e-01 2.6807379842859646e+01 0 0 0
699 2 1.1074500000000002e+01 2.1312885187135002e+00 2.6807379842859646e+01 0 0 0
653 2 8.6134999999999984e+00 3.5521475311891657e+00 3.0030999999995988e+01 0 0 0
655 2 8.6134999999999984e+00 2.1312885187135002e+00 3.0030999999995988e+01 0 0 0
657 2 9.8440000000000012e+00 1.4208590124756659e+00 3.0030999999995988e+01 0 0 0
659 2 9.8440000000000012e+00 0.0000000000000000e+00 3.0030999999995988e+01 0 0 0
698 2 1.1074500000000002e+01 3.5521475311891644e+00 3.0030999999995988e+01 0 0 0
700 2 1.1074500000000002e+01 2.1312885187135002e+00 3.0030999999995988e+01 0 0 0
995 2 8.6135000000000002e+00 1.4919019630994494e+01 3.3254620157118183e+01 0 0 0
561 2 0.0000000000000000e+00 7.1042950623783341e+00 2.6807379842859646e+01 0 0 0
563 2 0.0000000000000000e+00 4.2625770374269996e+00 2.6807379842859646e+01 0 0 0
565 2 1.2305000000000001e+00 4.9730065436648339e+00 2.6807379842859646e+01 0 0 0
580 2 1.2305000000000001e+00 6.3938655561404980e+00 2.6807379842859646e+01 0 0 0
582 2 2.4610000000000003e+00 7.1042950623783341e+00 2.6807379842859646e+01 0 0 0
584 2 2.4610000000000003e+00 4.2625770374269996e+00 2.6807379842859646e+01 0 0 0
586 2 3.6914999999999996e+00 4.9730065436648339e+00 2.6807379842859646e+01 0 0 0
609 2 3.6914999999999996e+00 6.3938655561404980e+00 2.6807379842859646e+01 0 0 0
562 2 0.0000000000000000e+00 5.6834360499026637e+00 3.0030999999995988e+01 0 0 0
564 2 0.0000000000000000e+00 4.2625770374269996e+00 3.0030999999995988e+01 0 0 0
579 2 1.2305000000000001e+00 7.8147245686161639e+00 3.0030999999995988e+01 0 0 0
581 2 1.2305000000000001e+00 6.3938655561404980e+00 3.0030999999995988e+01 0 0 0
583 2 2.4610000000000003e+00 5.6834360499026637e+00 3.0030999999995988e+01 0 0 0
585 2 2.4610000000000003e+00 4.2625770374269996e+00 3.0030999999995988e+01 0 0 0
608 2 3.6914999999999996e+00 7.8147245686161639e+00 3.0030999999995988e+01 0 0 0
610 2 3.6914999999999996e+00 6.3938655561404980e+00 3.0030999999995988e+01 0 0 0
611 2 4.9220000000000006e+00 7.1042950623783341e+00 2.6807379842859646e+01 0 0 0
613 2 4.9220000000000006e+00 4.2625770374269978e+00 2.6807379842859646e+01 0 0 0
615 2 6.1524999999999999e+00 4.9730065436648339e+00 2.6807379842859646e+01 0 0 0
646 2 6.1524999999999999e+00 6.3938655561404980e+00 2.6807379842859646e+01 0 0 0
648 2 7.3830000000000009e+00 7.1042950623783341e+00 2.6807379842859646e+01 0 0 0
650 2 7.3829999999999991e+00 4.2625770374269996e+00 2.6807379842859646e+01 0 0 0
612 2 4.9220000000000006e+00 5.6834360499026637e+00 3.0030999999995988e+01 0 0 0
614 2 4.9220000000000006e+00 4.2625770374269978e+00 3.0030999999995988e+01 0 0 0
645 2 6.1524999999999999e+00 7.8147245686161639e+00 3.0030999999995988e+01 0 0 0
647 2 6.1524999999999999e+00 6.3938655561404980e+00 3.0030999999995988e+01 0 0 0
649 2 7.3829999999999991e+00 5.6834360499026637e+00 3.0030999999995988e+01 0 0 0
651 2 7.3829999999999991e+00 4.2625770374269996e+00 3.0030999999995988e+01 0 0 0
652 2 8.6135000000000002e+00 4.9730065436648339e+00 2.6807379842859646e+01 0 0 0
691 2 8.6135000000000002e+00 6.3938655561404980e+00 2.6807379842859646e+01 0 0 0
693 2 9.8440000000000012e+00 7.1042950623783341e+00 2.6807379842859646e+01 0 0 0
695 2 9.8440000000000012e+00 4.2625770374270004e+00 2.6807379842859646e+01 0 0 0
697 2 1.1074500000000002e+01 4.9730065436648339e+00 2.6807379842859646e+01 0 0 0
738 2 1.1074500000000002e+01 6.3938655561404980e+00 2.6807379842859646e+01 0 0 0
690 2 8.6135000000000002e+00 7.8147245686161639e+00 3.0030999999995988e+01 0 0 0
692 2 8.6135000000000002e+00 6.3938655561404980e+00 3.0030999999995988e+01 0 0 0
694 2 9.8440000000000012e+00 5.6834360499026637e+00 3.0030999999995988e+01 0 0 0
696 2 9.8440000000000012e+00 4.2625770374270004e+00 3.0030999999995988e+01 0 0 0
737 2 1.1074500000000002e+01 7.8147245686161639e+00 3.0030999999995988e+01 0 0 0
739 2 1.1074500000000002e+01 6.3938655561404980e+00 3.0030999999995988e+01 0 0 0
574 2 0.0000000000000000e+00 1.1366872099805333e+01 2.6807379842859646e+01 0 0 0
576 2 0.0000000000000000e+00 8.5251540748539991e+00 2.6807379842859646e+01 0 0 0
578 2 1.2305000000000001e+00 9.2355835810918343e+00 2.6807379842859646e+01 0 0 0
601 2 1.2305000000000001e+00 1.0656442593567498e+01 2.6807379842859646e+01 0 0 0
603 2 2.4610000000000003e+00 1.1366872099805333e+01 2.6807379842859646e+01 0 0 0
605 2 2.4610000000000003e+00 8.5251540748539991e+00 2.6807379842859646e+01 0 0 0
607 2 3.6915000000000004e+00 9.2355835810918343e+00 2.6807379842859646e+01 0 0 0
638 2 3.6914999999999996e+00 1.0656442593567499e+01 2.6807379842859646e+01 0 0 0
575 2 0.0000000000000000e+00 9.9460130873296642e+00 3.0030999999995988e+01 0 0 0
577 2 0.0000000000000000e+00 8.5251540748539991e+00 3.0030999999995988e+01 0 0 0
600 2 1.2305000000000001e+00 1.2077301606043163e+01 3.0030999999995988e+01 0 0 0
602 2 1.2305000000000001e+00 1.0656442593567498e+01 3.0030999999995988e+01 0 0 0
604 2 2.4610000000000003e+00 9.9460130873296642e+00 3.0030999999995988e+01 0 0 0
606 2 2.4610000000000003e+00 8.5251540748539991e+00 3.0030999999995988e+01 0 0 0
637 2 3.6914999999999996e+00 1.2077301606043163e+01 3.0030999999995988e+01 0 0 0
639 2 3.6914999999999996e+00 1.0656442593567499e+01 3.0030999999995988e+01 0 0 0
640 2 4.9220000000000006e+00 1.1366872099805333e+01 2.6807379842859646e+01 0 0 0
642 2 4.9220000000000006e+00 8.5251540748539991e+00 2.6807379842859646e+01 0 0 0
644 2 6.1524999999999999e+00 9.2355835810918343e+00 2.6807379842859646e+01 0 0 0
683 2 6.1524999999999999e+00 1.0656442593567499e+01 2.6807379842859646e+01 0 0 0
685 2 7.3829999999999991e+00 1.1366872099805333e+01 2.6807379842859646e+01 0 0 0
687 2 7.3830000000000009e+00 8.5251540748539991e+00 2.6807379842859646e+01 0 0 0
641 2 4.9220000000000006e+00 9.9460130873296642e+00 3.0030999999995988e+01 0 0 0
643 2 4.9220000000000006e+00 8.5251540748539991e+00 3.0030999999995988e+01 0 0 0
682 2 6.1524999999999999e+00 1.2077301606043163e+01 3.0030999999995988e+01 0 0 0
684 2 6.1524999999999999e+00 1.0656442593567499e+01 3.0030999999995988e+01 0 0 0
686 2 7.3830000000000009e+00 9.9460130873296642e+00 3.0030999999995988e+01 0 0 0
688 2 7.3830000000000009e+00 8.5251540748539991e+00 3.0030999999995988e+01 0 0 0
689 2 8.6134999999999984e+00 9.2355835810918343e+00 2.6807379842859646e+01 0 0 0
730 2 8.6134999999999984e+00 1.0656442593567498e+01 2.6807379842859646e+01 0 0 0
732 2 9.8440000000000012e+00 1.1366872099805333e+01 2.6807379842859646e+01 0 0 0
734 2 9.8440000000000012e+00 8.5251540748539956e+00 2.6807379842859646e+01 0 0 0
736 2 1.1074500000000002e+01 9.2355835810918343e+00 2.6807379842859646e+01 0 0 0
777 2 1.1074500000000002e+01 1.0656442593567498e+01 2.6807379842859646e+01 0 0 0
779 2 1.2304999999999998e+01 1.1366872099805333e+01 2.6807379842859646e+01 0 0 0
729 2 8.6135000000000002e+00 1.2077301606043163e+01 3.0030999999995988e+01 0 0 0
731 2 8.6134999999999984e+00 1.0656442593567498e+01 3.0030999999995988e+01 0 0 0
733 2 9.8440000000000012e+00 9.9460130873296642e+00 3.0030999999995988e+01 0 0 0
735 2 9.8440000000000012e+00 8.5251540748539956e+00 3.0030999999995988e+01 0 0 0
776 2 1.1074500000000002e+01 1.2077301606043163e+01 3.0030999999995988e+01 0 0 0
778 2 1.1074500000000002e+01 1.0656442593567498e+01 3.0030999999995988e+01 0 0 0
595 2 0.0000000000000000e+00 1.5629449137232333e+01 2.6807379842859646e+01 0 0 0
597 2 0.0000000000000000e+00 1.2787731112280996e+01 2.6807379842859646e+01 0 0 0
599 2 1.2305000000000001e+00 1.3498160618518829e+01 2.6807379842859646e+01 0 0 0
630 2 1.2305000000000001e+00 1.4919019630994494e+01 2.6807379842859646e+01 0 0 0
632 2 2.4610000000000003e+00 1.5629449137232328e+01 2.6807379842859646e+01 0 0 0
634 2 2.4610000000000003e+00 1.2787731112280996e+01 2.6807379842859646e+01 0 0 0
636 2 3.6915000000000004e+00 1.3498160618518829e+01 2.6807379842859646e+01 0 0 0
675 2 3.6915000000000004e+00 1.4919019630994494e+01 2.6807379842859646e+01 0 0 0
596 2 0.0000000000000000e+00 1.4208590124756663e+01 3.0030999999995988e+01 0 0 0
598 2 0.0000000000000000e+00 1.2787731112280996e+01 3.0030999999995988e+01 0 0 0
631 2 1.2305000000000001e+00 1.4919019630994494e+01 3.0030999999995988e+01 0 0 0
633 2 2.4610000000000003e+00 1.4208590124756663e+01 3.0030999999995988e+01 0 0 0
635 2 2.4610000000000003e+00 1.2787731112280996e+01 3.0030999999995988e+01 0 0 0
676 2 3.6915000000000004e+00 1.4919019630994494e+01 3.0030999999995988e+01 0 0 0
677 2 4.9220000000000006e+00 1.5629449137232333e+01 2.6807379842859646e+01 0 0 0
679 2 4.9220000000000006e+00 1.2787731112280996e+01 2.6807379842859646e+01 0 0 0
681 2 6.1524999999999990e+00 1.3498160618518829e+01 2.6807379842859646e+01 0 0 0
722 2 6.1524999999999990e+00 1.4919019630994494e+01 2.6807379842859646e+01 0 0 0
724 2 7.3829999999999991e+00 1.5629449137232333e+01 2.6807379842859646e+01 0 0 0
726 2 7.3829999999999991e+00 1.2787731112280996e+01 2.6807379842859646e+01 0 0 0
678 2 4.9220000000000006e+00 1.4208590124756663e+01 3.0030999999995988e+01 0 0 0
680 2 4.9220000000000006e+00 1.2787731112280996e+01 3.0030999999995988e+01 0 0 0
723 2 6.1524999999999990e+00 1.4919019630994494e+01 3.0030999999995988e+01 0 0 0
725 2 7.3830000000000009e+00 1.4208590124756663e+01 3.0030999999995988e+01 0 0 0
727 2 7.3829999999999991e+00 1.2787731112280996e+01 3.0030999999995988e+01 0 0 0
728 2 8.6135000000000002e+00 1.3498160618518835e+01 2.6807379842859646e+01 0 0 0
769 2 8.6135000000000002e+00 1.4919019630994494e+01 2.6807379842859646e+01 0 0 0
771 2 9.8440000000000012e+00 1.5629449137232328e+01 2.6807379842859646e+01 0 0 0
773 2 9.8440000000000012e+00 1.2787731112280996e+01 2.6807379842859646e+01 0 0 0
775 2 1.1074500000000002e+01 1.3498160618518829e+01 2.6807379842859646e+01 0 0 0
811 2 1.1074500000000002e+01 1.4919019630994494e+01 2.6807379842859646e+01 0 0 0
770 2 8.6135000000000002e+00 1.4919019630994494e+01 3.0030999999995988e+01 0 0 0
772 2 9.8440000000000012e+00 1.4208590124756663e+01 3.0030999999995988e+01 0 0 0
774 2 9.8440000000000012e+00 1.2787731112280996e+01 3.0030999999995988e+01 0 0 0
810 2 1.1074500000000002e+01 1.6339878643470161e+01 3.0030999999995988e+01 0 0 0
812 2 1.1074500000000002e+01 1.4919019630994494e+01 3.0030999999995988e+01 0 0 0
814 2 1.2304999999999998e+01 1.4208590124756658e+01 3.0030999999995988e+01 0 0 0
885 2 0.0000000000000000e+00 2.8417180249513345e+00 3.3254620157118183e+01 0 0 0
886 2 0.0000000000000000e+00 0.0000000000000000e+00 3.3254620157118183e+01 0 0 0
887 2 1.2305000000000001e+00 7.1042950623783474e-01 3.3254620157118183e+01 0 0 0
891 2 1.2305000000000001e+00 2.1312885187134998e+00 3.3254620157118183e+01 0 0 0
892 2 2.4610000000000003e+00 2.8417180249513345e+00 3.3254620157118183e+01 0 0 0
893 2 2.4610000000000003e+00 0.0000000000000000e+00 3.3254620157118183e+01 0 0 0
894 2 3.6915000000000004e+00 7.1042950623783474e-01 3.3254620157118183e+01 0 0 0
902 2 3.6914999999999996e+00 2.1312885187134998e+00 3.3254620157118183e+01 0 0 0
903 2 4.9220000000000006e+00 2.8417180249513332e+00 3.3254620157118183e+01 0 0 0
904 2 4.9220000000000006e+00 0.0000000000000000e+00 3.3254620157118183e+01 0 0 0
905 2 6.1524999999999999e+00 7.1042950623783407e-01 3.3254620157118183e+01 0 0 0
917 2 6.1524999999999999e+00 2.1312885187134989e+00 3.3254620157118183e+01 0 0 0
918 2 7.3829999999999991e+00 2.8417180249513345e+00 3.3254620157118183e+01 0 0 0
919 2 7.3829999999999991e+00 0.0000000000000000e+00 3.3254620157118183e+01 0 0 0
920 2 8.6134999999999984e+00 7.1042950623783407e-01 3.3254620157118183e+01 0 0 0
936 2 8.6134999999999984e+00 2.1312885187135002e+00 3.3254620157118183e+01 0 0 0
937 2 9.8440000000000012e+00 2.8417180249513332e+00 3.3254620157118183e+01 0 0 0
938 2 9.8440000000000012e+00 0.0000000000000000e+00 3.3254620157118183e+01 0 0 0
939 2 1.1074500000000002e+01 7.1042950623783330e-01 3.3254620157118183e+01 0 0 0
959 2 1.1074500000000002e+01 2.1312885187135002e+00 3.3254620157118183e+01 0 0 0
997 2 9.8440000000000012e+00 1.2787731112280996e+01 3.3254620157118183e+01 0 0 0
888 2 0.0000000000000000e+00 7.1042950623783341e+00 3.3254620157118183e+01 0 0 0
889 2 0.0000000000000000e+00 4.2625770374269996e+00 3.3254620157118183e+01 0 0 0
890 2 1.2305000000000001e+00 4.9730065436648339e+00 3.3254620157118183e+01 0 0 0
898 2 1.2305000000000001e+00 6.3938655561404980e+00 3.3254620157118183e+01 0 0 0
899 2 2.4610000000000003e+00 7.1042950623783341e+00 3.3254620157118183e+01 0 0 0
900 2 2.4610000000000003e+00 4.2625770374269996e+00 3.3254620157118183e+01 0 0 0
901 2 3.6914999999999996e+00 4.9730065436648339e+00 3.3254620157118183e+01 0 0 0
913 2 3.6914999999999996e+00 6.3938655561404980e+00 3.3254620157118183e+01 0 0 0
914 2 4.9220000000000006e+00 7.1042950623783341e+00 3.3254620157118183e+01 0 0 0
915 2 4.9220000000000006e+00 4.2625770374269978e+00 3.3254620157118183e+01 0 0 0
916 2 6.1524999999999999e+00 4.9730065436648339e+00 3.3254620157118183e+01 0 0 0
932 2 6.1524999999999999e+00 6.3938655561404980e+00 3.3254620157118183e+01 0 0 0
933 2 7.3830000000000009e+00 7.1042950623783341e+00 3.3254620157118183e+01 0 0 0
934 2 7.3829999999999991e+00 4.2625770374269996e+00 3.3254620157118183e+01 0 0 0
998 2 1.1074500000000002e+01 1.3498160618518829e+01 3.3254620157118183e+01 0 0 0
935 2 8.6135000000000002e+00 4.9730065436648339e+00 3.3254620157118183e+01 0 0 0
955 2 8.6135000000000002e+00 6.3938655561404980e+00 3.3254620157118183e+01 0 0 0
956 2 9.8440000000000012e+00 7.1042950623783341e+00 3.3254620157118183e+01 0 0 0
957 2 9.8440000000000012e+00 4.2625770374270004e+00 3.3254620157118183e+01 0 0 0
958 2 1.1074500000000002e+01 4.9730065436648339e+00 3.3254620157118183e+01 0 0 0
979 2 1.1074500000000002e+01 6.3938655561404980e+00 3.3254620157118183e+01 0 0 0
895 2 0.0000000000000000e+00 1.1366872099805333e+01 3.3254620157118183e+01 0 0 0
896 2 0.0000000000000000e+00 8.5251540748539991e+00 3.3254620157118183e+01 0 0 0
897 2 1.2305000000000001e+00 9.2355835810918343e+00 3.3254620157118183e+01 0 0 0
909 2 1.2305000000000001e+00 1.0656442593567498e+01 3.3254620157118183e+01 0 0 0
910 2 2.4610000000000003e+00 1.1366872099805333e+01 3.3254620157118183e+01 0 0 0
911 2 2.4610000000000003e+00 8.5251540748539991e+00 3.3254620157118183e+01 0 0 0
912 2 3.6915000000000004e+00 9.2355835810918343e+00 3.3254620157118183e+01 0 0 0
928 2 3.6914999999999996e+00 1.0656442593567499e+01 3.3254620157118183e+01 0 0 0
974 2 8.6135000000000002e+00 1.3498160618518835e+01 3.3254620157118183e+01 0 0 0
929 2 4.9220000000000006e+00 1.1366872099805333e+01 3.3254620157118183e+01 0 0 0
930 2 4.9220000000000006e+00 8.5251540748539991e+00 3.3254620157118183e+01 0 0 0
931 2 6.1524999999999999e+00 9.2355835810918343e+00 3.3254620157118183e+01 0 0 0
951 2 6.1524999999999999e+00 1.0656442593567499e+01 3.3254620157118183e+01 0 0 0
952 2 7.3829999999999991e+00 1.1366872099805333e+01 3.3254620157118183e+01 0 0 0
953 2 7.3830000000000009e+00 8.5251540748539991e+00 3.3254620157118183e+01 0 0 0
954 2 8.6134999999999984e+00 9.2355835810918343e+00 3.3254620157118183e+01 0 0 0