LAMMPS data file via write_data, version 16 Mar 2018, timestep = 100000

6368 atoms
2 atom types

0.0000000000000000e+00 4.9219999999999999e+01 xlo xhi
0.0000000000000000e+00 4.9019635930410494e+01 ylo yhi
1.9282762159769007e+00 5.8133723784024554e+01 zlo zhi

Masses

1 18.015
2 12.01

Atoms # atomic

44 1 2.6068399131209752e+00 1.9747256123082804e+00 6.5460878717713129e+00 2 1 0
4723 1 2.6299398177890647e+00 4.0540212946418963e+00 4.4615950487569140e+00 0 2 1
1902 1 9.8843280046569895e+00 1.5306750136787874e+01 3.3430986990788831e+00 1 -1 0
3569 1 3.5100890495944261e+00 2.6522950775944878e+00 2.1378382077714546e+00 0 2 0
4748 1 2.1295198715095656e-01 9.7462695626221301e+00 1.1696228703304131e+01 0 1 1
2856 1 4.9172949007979962e+00 9.3002559542065422e-01 7.0847960696873153e+00 1 0 0
3394 1 8.3913206098271722e+00 2.0616976596747936e+00 4.6160288076763347e+00 1 0 0
2823 1 4.0829180530814204e+00 2.6993747485260738e-01 3.1699780269251963e+00 1 0 1
1843 1 1.0656155746331368e+01 4.5969366862899602e-01 4.9227612352177115e+00 -1 1 0
3572 1 1.0793922587751812e+01 5.3770940336553084e+00 7.2279667692983702e+00 0 0 0
1601 1 5.4996553269983051e-01 1.6059076993590676e+01 1.1666813013794071e+01 -1 0 1
3524 1 1.5927616824003930e+00 7.7316201136522453e+00 7.0343578559608186e+00 1 -1 0
65 1 3.8231256227888797e+00 6.0113239296965562e+00 6.2143312059001001e+00 2 2 1
4605 1 8.0942340955520979e+00 6.7906182494584710e+00 4.0319700658414765e+00 0 1 1
3450 1 8.4286990222371774e+00 4.4305313362948535e+00 6.3197842337347918e+00 1 -1 0
4524 1 7.8580638955171489e+00 4.4629263925166542e+00 2.6887017002061477e+00 1 -1 1
137 1 5.0576685725093187e+00 7.7191969848453850e+00 4.2449562495287561e+00 -1 -2 0
4956 1 1.0460532080515144e+01 7.0156235312290276e+00 4.9721079043172436e+00 0 1 0
1326 1 4.0898704889912016e+00 1.5923602374012495e+01 6.5254244770743730e+00 1 -1 1
1590 1 1.2348774007543413e+00 9.4265243327178627e+00 4.1977326804391684e+00 0 -1 1
3043 1 3.9261716599819327e+00 1.0469747356049407e+01 4.1073270804711077e+00 1 2 1
4600 1 5.5959342179574660e+00 9.3030864431285742e+00 8.3698551660975014e+00 1 -1 1
5036 1 8.2040664393739355e+00 1.1591993181387164e+01 5.7685955748301030e+00 2 2 0
2880 1 7.2823834742775428e+00 9.6491377778640981e+00 3.7511844896556523e+00 1 1 0
3206 1 1.0787071007012425e+01 9.4651703832360710e+00 6.1889949363513281e+00 1 1 0
4684 1 9.7336975577112259e+00 3.3083084638620415e+00 1.2184807241355395e+01 0 -1 1
3156 1 1.1435844620133848e+01 1.3672051550743611e+00 1.1067532177898185e+01 0 2 1
3612 1 2.3267886937415030e+00 1.3281947657012395e+01 3.6803168839094327e+00 1 -1 0
3331 1 6.8669070592014956e+00 1.4515014727076956e+01 9.2852450487736444e+00 0 2 1
3167 1 3.3200414418504870e-01 1.3573905380750261e+01 8.3547732531024330e+00 2 0 1
1313 1 4.5467914231047644e+00 1.3630770822162857e+01 7.8891504068127265e+00 -1 2 1
4922 1 7.6906201049196579e+00 1.4446281018529483e+01 4.6708905287120599e+00 0 0 0
2072 1 5.4088022054778353e+00 1.1631962980519873e+01 6.3559727509731214e+00 3 0 1
505 1 1.0800100994382362e+01 1.4710803786565657e+01 6.8040471400748226e+00 1 0 1
3374 1 9.3527567142300132e+00 1.2232793403915041e+01 2.7797258529459001e+00 1 -1 0
1556 1 1.7159031276637133e+00 1.4971790547275765e+01 5.9560740412014228e+00 0 2 1
5155 1 8.6632030770510244e+00 1.2821420519576380e+01 1.2799753639103871e+01 0 1 0
2893 1 1.1413788038358499e+01 7.5638345461775425e-01 2.3260671857578838e+00 1 2 1
6124 1 3.6217322373642951e+00 2.1891557356869473e+00 1.1525179239964459e+01 2 2 1
3370 1 7.7634793518323866e+00 2.1659515364097355e+00 8.0943864909337044e+00 0 1 0
1390 1 5.8785273988525706e+00 3.2716542939961490e+00 9.9941062501032185e+00 0 2 1
4437 1 1.0256393710233606e+01 1.1247172847609015e+00 8.7811642764496760e+00 0 0 1
26 1 7.9261981438582820e+00 1.5837578628996562e+01 7.0253790128279263e+00 2 0 0
4790 1 7.3407676941539677e+00 1.0699988124000010e+01 1.1929651119414972e+01 2 2 1
1921 1 1.1964530795827052e+01 1.4992651588139715e+01 9.3755445262771069e+00 2 0 0
5050 1 1.5829835688556000e+00 3.9818841698252383e+00 1.1899319971988451e+01 0 1 0
245 1 5.3080133776637153e+00 6.8481886145127584e+00 1.1710963262470466e+01 2 0 1
2871 1 6.1118529754568929e+00 5.2086553954104042e+00 7.4473433601342016e+00 0 1 0
363 1 7.1383677035621478e+00 3.4672097034522249e+00 1.2372017827380150e+01 0 1 0
3375 1 1.0871369783566303e+01 5.7431016634240057e+00 1.1397863816307536e+01 0 0 0
1937 1 9.1955282411549888e+00 1.2766628774287717e+01 8.4135102117921789e+00 1 0 0
1290 1 3.0951078940121762e-01 1.1828648711620477e+01 2.8515526641251752e+00 0 -1 1
1946 1 9.3906955722476422e+00 6.7696543657904140e+00 9.3188118695718209e+00 0 1 0
6269 1 7.4518434787772563e+00 1.4950285785012683e+01 1.1914933653796945e+01 1 1 1
3364 1 1.6980684286515100e+00 8.1726175477676861e+00 9.6637944638852069e+00 1 1 0
6200 1 4.8684078389859406e+00 9.5068139943911572e+00 1.2311262038493167e+01 1 1 1
6191 1 2.3115388821546383e+00 6.4861485035071995e+00 1.1884311943014206e+01 -1 0 1
1624 1 3.4547862309774544e+00 1.0182807213087424e+01 1.0019681368559640e+01 1 1 1
3734 1 4.9644419829379451e+00 1.5360604185345716e+01 3.8149365106406354e+00 1 -1 1
3081 1 7.9603023463097662e+00 1.0372713769598501e+01 9.4116656398701508e+00 0 1 0
144 1 6.8307251444914989e+00 7.1873951574940511e+00 9.4419163292407049e+00 -1 -1 0
244 1 1.0830051782273976e+01 1.2564179531780452e+01 1.0938736058600758e+01 0 1 0
1953 1 1.0269828115044975e+01 9.2704355070461268e+00 8.8968200123900196e+00 0 2 0
6047 1 1.2261350035082922e+01 1.0229789469461160e+01 1.0676272928718376e+01 1 -2 1
6346 1 2.5723605494991628e+00 1.2748055797083175e+01 9.7118424189140775e+00 1 1 1
4992 1 2.5255740787469385e+00 1.3787401908195202e+01 1.2284248852604261e+01 -2 0 0
6035 1 1.9674906518042420e-01 2.2577651720560015e+00 7.9385038415863214e+00 -2 0 1
3145 1 6.2846071318163093e+00 1.7293866978006717e-01 4.7781441015582571e+00 1 1 1
3538 1 1.7567953796198472e+00 2.1039243662832538e-03 4.6292785665270983e+00 1 1 0
6128 1 1.2246617211891119e+01 1.3285088862468983e+00 6.7316114967551490e+00 1 2 1
1986 1 1.0979020557721226e+00 3.1101595303565479e+00 1.6379009907780350e+01 2 0 0
5173 1 1.5712507732493641e+00 6.3699979891380554e-01 2.0905948390255890e+01 2 0 0
442 1 6.5505205598252907e+00 1.8822039690835242e+00 1.7144214996285278e+01 1 -1 0
1611 1 2.5820245358517893e+00 1.5998376174095792e+01 1.8816651947831538e+01 2 1 1
1309 1 8.7832223913954337e+00 1.0739735660457486e+00 1.9551510840437370e+01 0 1 1
2830 1 7.3104337913532491e-01 5.1510753055708252e+00 1.8501429593250190e+01 -1 -1 1
1807 1 1.0793881138420808e+01 1.1506048331080923e+00 1.6015558671459072e+01 0 2 0
5089 1 1.0477805608263465e+01 3.6661095827858774e+00 1.4790365764317002e+01 2 0 0
4532 1 1.1270517044617790e+01 2.0193962390082563e+00 1.8644976196086109e+01 0 1 1
3302 1 4.2484496132305942e+00 8.7854838990385566e+00 1.5027793560458541e+01 1 -1 0
1870 1 5.6497187970451765e+00 5.0517051156017230e+00 1.9521360359749213e+01 0 -1 0
5141 1 1.2187427034379949e+01 1.0388832596647937e+00 2.3098847846395923e+01 0 0 0
3402 1 1.8871375082754442e+00 6.9911397126976240e+00 1.5151952122903388e+01 1 -1 0
3085 1 8.1050607060540880e+00 4.2543675366641285e+00 1.5878804558768767e+01 0 1 1
1320 1 4.1995915859721658e+00 3.3807147551367018e+00 1.7755611481587700e+01 -1 -1 1
1960 1 1.1868347913712588e+01 7.5196211414672964e+00 1.6008718442463554e+01 0 0 0
4870 1 7.5580766305588321e-01 9.0316499345488275e+00 1.9054293746547792e+01 2 2 0
4908 1 1.0567063590444867e+00 4.0273998093568695e+00 2.2759273696075098e+01 -1 1 0
6058 1 9.7222828239673404e+00 1.0897212780291675e+01 1.5568192307528518e+01 0 0 1
1593 1 2.8310627095176555e+00 1.1143384176771050e+01 1.5769074085224016e+01 2 -1 1
1845 1 7.0695610703877163e+00 8.0663452938421809e+00 1.5340875153274190e+01 1 -1 0
4536 1 5.0636724148125269e+00 1.2481124500040988e+01 1.6058391177397997e+01 1 0 1
61 1 9.3330980962605050e+00 8.3437321662754176e+00 1.7420709813731534e+01 1 0 0
3499 1 4.2045728129805928e+00 1.5007787529657395e+00 1.4216824303513002e+01 1 0 0
6139 1 1.1518408413711525e+00 1.1733062273478820e+01 1.3583896342186438e+01 0 1 1
401 1 1.1854949849665005e+01 1.3029085975128355e+01 1.7538350932509353e+01 -2 1 0
119 1 6.2032215878865982e+00 5.4469050534494237e+00 1.4368031261829870e+01 0 0 0
4834 1 6.3354313663849897e+00 4.8130621845349053e-02 2.1570471877517942e+01 1 1 0
251 1 2.6985825735417914e+00 6.3052721710462034e-01 1.6771710130844458e+01 1 2 0
1865 1 7.4128426726532721e+00 1.1130986818929735e+01 1.6881865157191328e+01 2 0 0
288 1 1.0124725603623325e+01 1.3938572737380550e+01 1.5215089521720836e+01 2 0 0
3576 1 7.5686145906455033e+00 1.1032229105283628e+01 2.3043942638705424e+01 2 3 0
4597 1 4.3792942671062134e+00 6.1591728969805148e-01 1.9454485423330958e+01 2 1 1
3621 1 2.4566581184873586e+00 4.9972882702981671e+00 2.0380674475823064e+01 1 1 0
240 1 4.3054099011756755e+00 2.7381906276550940e+00 2.1181511883402614e+01 1 0 0
1432 1 3.2787011500811882e+00 2.8026141951012322e+00 2.3897164704293932e+01 1 2 1
3078 1 8.8573215471810780e+00 1.6214564993246523e+01 1.6428055280831757e+01 0 0 1
2828 1 7.4731812278647789e+00 3.1449882571678902e+00 2.0597461941439928e+01 0 1 1
362 1 1.1622446154808546e+00 7.8622730914043952e+00 2.3699929999779453e+01 0 -1 0
2141 1 3.6077875406376760e+00 4.6166682037959532e+00 1.5283742530250597e+01 -1 2 1
2018 1 7.5123205423186690e+00 8.6035691267751826e+00 2.4329054837560413e+01 2 0 0
177 1 1.0222977761126126e+01 4.8537062304736658e+00 2.3348050518353816e+01 2 0 0
384 1 1.1033577856590364e+00 1.2790123612887282e+01 2.4023324652175472e+01 1 -2 0
1436 1 2.5102223624915219e+00 7.9651795662720408e+00 2.1131051074510889e+01 0 1 0
1710 1 5.3565805792386740e+00 7.3902407760631377e+00 2.1028300799474529e+01 0 0 1
4901 1 7.9222457904099004e+00 5.8697251328096245e+00 1.7872837172959326e+01 2 0 0
6094 1 1.0083053159534147e+01 7.4738615389938099e+00 2.4029852909344683e+01 2 -1 1
6026 1 5.5261327894488010e+00 6.8774377388578385e+00 2.3792913961892257e+01 0 1 1
1560 1 9.2750376640214789e+00 8.2507997224815313e+00 2.0076719499582975e+01 2 -1 0
4807 1 6.7279290088984114e+00 1.4775454285095719e+01 2.3377379840442714e+01 1 0 0
2080 1 9.3693221577782921e+00 5.4568445470701494e+00 2.0672194886817618e+01 0 -1 1
6178 1 7.8990918697124002e+00 1.2328568333053040e+01 1.9341763497151931e+01 0 1 1
1265 1 1.1749342405938668e+00 1.1452849380699421e+01 1.7951857381612022e+01 1 2 0
1641 1 3.5204689327778649e+00 1.1286622796259856e+01 2.3555857042603108e+01 0 1 0
335 1 4.2359667156546346e+00 1.0580510636524950e+01 2.1232456409893096e+01 -1 0 0
3137 1 2.7390500191930052e+00 1.6338953472392817e-01 2.3660940949935490e+01 0 2 1
1483 1 8.9361258886249946e+00 9.2386351219065475e+00 1.3643928797273542e+01 0 -1 1
4824 1 6.9307101733454681e+00 9.6944649830812750e+00 2.0549980601444521e+01 2 -1 0
5152 1 6.1502947790899265e+00 1.5459744843968258e+01 1.6106401026955076e+01 0 0 0
3101 1 9.9255668459072783e+00 1.2692436642400947e+01 2.2905431405100735e+01 -1 2 1
4698 1 9.4487699479025000e+00 1.5095758511081538e+01 2.4021746861875641e+01 3 1 1
2827 1 1.0594263726063074e+01 1.2050292041635851e+01 2.0243911495914087e+01 -2 0 1
4656 1 4.8173899755445628e+00 1.4259757960734319e+01 1.8515085149238338e+01 1 0 1
1729 1 1.5558790006124457e+00 1.4181658216191025e+01 2.1560978853322322e+01 0 1 0
1292 1 2.6966912431316441e+00 1.2703838468838514e+01 1.9672151489659694e+01 0 1 1
1858 1 5.1904549844923373e+00 1.4259603452595160e+01 1.3434955715782277e+01 1 0 0
4721 1 6.7710208938083936e+00 1.4444146592630547e+01 2.0403533002427483e+01 1 -2 0
88 1 7.7098308994397815e+00 3.2418923349928996e+00 2.3299752578987945e+01 -1 0 0
4478 1 1.1425207642303763e+01 7.8956419696947888e+00 1.3258974777502246e+01 1 -1 1
3217 1 1.1799929875195000e+01 9.3477877209358038e+00 2.0635327492198030e+01 2 0 0
6041 1 7.0396300147442199e+00 1.6304941136533095e+00 1.4313128552142180e+01 -1 -2 1
3276 1 1.1663096216147334e+01 4.5767136900354579e+00 1.9230412476686631e+01 2 0 0
2933 1 1.2163783255759693e+01 3.2768079043373985e+00 2.4357052307979245e+01 1 -1 1
6146 1 1.2253218500813064e+01 1.4140927218022600e+01 1.3434186558157865e+01 1 1 1
1407 1 1.2261200988085958e+01 8.8144962622224643e+00 2.3495875275856957e+01 1 1 1
4817 1 2.9414654566309650e-02 3.1810953376169211e+00 1.3942395431064792e+01 1 1 0
1253 1 4.3791005060697330e-02 1.4990033441385611e+01 1.8283006401676989e+01 1 0 1
1779 1 1.2232099830754901e+01 1.1602527171405800e+01 2.3922314772053486e+01 -1 -1 0
4657 1 7.4790762027686037e+00 7.1563671213089086e-01 2.4365240187459669e+01 1 1 1
556 2 0.0000000000000000e+00 2.8417180249513345e+00 2.6852744054865600e+01 0 0 0
558 2 0.0000000000000000e+00 0.0000000000000000e+00 2.6852744054865600e+01 0 0 0
560 2 1.2305000000000001e+00 7.1042950623783474e-01 2.6852744054865600e+01 0 0 0
567 2 1.2305000000000001e+00 2.1312885187134998e+00 2.6852744054865600e+01 0 0 0
569 2 2.4610000000000003e+00 2.8417180249513345e+00 2.6852744054865600e+01 0 0 0
571 2 2.4610000000000003e+00 0.0000000000000000e+00 2.6852744054865600e+01 0 0 0
573 2 3.6915000000000004e+00 7.1042950623783474e-01 2.6852744054865600e+01 0 0 0
588 2 3.6914999999999996e+00 2.1312885187134998e+00 2.6852744054865600e+01 0 0 0
557 2 0.0000000000000000e+00 1.4208590124756650e+00 3.0031000000000713e+01 0 0 0
559 2 0.0000000000000000e+00 0.0000000000000000e+00 3.0031000000000713e+01 0 0 0
566 2 1.2305000000000001e+00 3.5521475311891644e+00 3.0031000000000713e+01 0 0 0
568 2 1.2305000000000001e+00 2.1312885187134998e+00 3.0031000000000713e+01 0 0 0
570 2 2.4610000000000003e+00 1.4208590124756650e+00 3.0031000000000713e+01 0 0 0
572 2 2.4610000000000003e+00 0.0000000000000000e+00 3.0031000000000713e+01 0 0 0
587 2 3.6914999999999996e+00 3.5521475311891644e+00 3.0031000000000713e+01 0 0 0
589 2 3.6914999999999996e+00 2.1312885187134998e+00 3.0031000000000713e+01 0 0 0
590 2 4.9220000000000006e+00 2.8417180249513332e+00 2.6852744054865600e+01 0 0 0
592 2 4.9220000000000006e+00 0.0000000000000000e+00 2.6852744054865600e+01 0 0 0
594 2 6.1524999999999999e+00 7.1042950623783407e-01 2.6852744054865600e+01 0 0 0
617 2 6.1524999999999999e+00 2.1312885187134989e+00 2.6852744054865600e+01 0 0 0
619 2 7.3829999999999991e+00 2.8417180249513345e+00 2.6852744054865600e+01 0 0 0
621 2 7.3829999999999991e+00 0.0000000000000000e+00 2.6852744054865600e+01 0 0 0
591 2 4.9220000000000006e+00 1.4208590124756650e+00 3.0031000000000713e+01 0 0 0
593 2 4.9220000000000006e+00 0.0000000000000000e+00 3.0031000000000713e+01 0 0 0
616 2 6.1524999999999999e+00 3.5521475311891644e+00 3.0031000000000713e+01 0 0 0
618 2 6.1524999999999999e+00 2.1312885187134989e+00 3.0031000000000713e+01 0 0 0
620 2 7.3829999999999991e+00 1.4208590124756659e+00 3.0031000000000713e+01 0 0 0
622 2 7.3829999999999991e+00 0.0000000000000000e+00 3.0031000000000713e+01 0 0 0
623 2 8.6134999999999984e+00 7.1042950623783407e-01 2.6852744054865600e+01 0 0 0
654 2 8.6134999999999984e+00 2.1312885187135002e+00 2.6852744054865600e+01 0 0 0
656 2 9.8440000000000012e+00 2.8417180249513332e+00 2.6852744054865600e+01 0 0 0
658 2 9.8440000000000012e+00 0.0000000000000000e+00 2.6852744054865600e+01 0 0 0
660 2 1.1074500000000002e+01 7.1042950623783330e-01 2.6852744054865600e+01 0 0 0
699 2 1.1074500000000002e+01 2.1312885187135002e+00 2.6852744054865600e+01 0 0 0
653 2 8.6134999999999984e+00 3.5521475311891657e+00 3.0031000000000713e+01 0 0 0
655 2 8.6134999999999984e+00 2.1312885187135002e+00 3.0031000000000713e+01 0 0 0
657 2 9.8440000000000012e+00 1.4208590124756659e+00 3.0031000000000713e+01 0 0 0
659 2 9.8440000000000012e+00 0.0000000000000000e+00 3.0031000000000713e+01 0 0 0
698 2 1.1074500000000002e+01 3.5521475311891644e+00 3.0031000000000713e+01 0 0 0
700 2 1.1074500000000002e+01 2.1312885187135002e+00 3.0031000000000713e+01 0 0 0
561 2 0.0000000000000000e+00 7.1042950623783341e+00 2.6852744054865600e+01 0 0 0
563 2 0.0000000000000000e+00 4.2625770374269996e+00 2.6852744054865600e+01 0 0 0
565 2 1.2305000000000001e+00 4.9730065436648339e+00 2.6852744054865600e+01 0 0 0
580 2 1.2305000000000001e+00 6.3938655561404980e+00 2.6852744054865600e+01 0 0 0
582 2 2.4610000000000003e+00 7.1042950623783341e+00 2.6852744054865600e+01 0 0 0
584 2 2.4610000000000003e+00 4.2625770374269996e+00 2.6852744054865600e+01 0 0 0
586 2 3.6914999999999996e+00 4.9730065436648339e+00 2.6852744054865600e+01 0 0 0
609 2 3.6914999999999996e+00 6.3938655561404980e+00 2.6852744054865600e+01 0 0 0
562 2 0.0000000000000000e+00 5.6834360499026637e+00 3.0031000000000713e+01 0 0 0
564 2 0.0000000000000000e+00 4.2625770374269996e+00 3.0031000000000713e+01 0 0 0
579 2 1.2305000000000001e+00 7.8147245686161639e+00 3.0031000000000713e+01 0 0 0
581 2 1.2305000000000001e+00 6.3938655561404980e+00 3.0031000000000713e+01 0 0 0
583 2 2.4610000000000003e+00 5.6834360499026637e+00 3.0031000000000713e+01 0 0 0
585 2 2.4610000000000003e+00 4.2625770374269996e+00 3.0031000000000713e+01 0 0 0
608 2 3.6914999999999996e+00 7.8147245686161639e+00 3.0031000000000713e+01 0 0 0
610 2 3.6914999999999996e+00 6.3938655561404980e+00 3.0031000000000713e+01 0 0 0
611 2 4.9220000000000006e+00 7.1042950623783341e+00 2.6852744054865600e+01 0 0 0
613 2 4.9220000000000006e+00 4.2625770374269978e+00 2.6852744054865600e+01 0 0 0
615 2 6.1524999999999999e+00 4.9730065436648339e+00 2.6852744054865600e+01 0 0 0
646 2 6.1524999999999999e+00 6.3938655561404980e+00 2.6852744054865600e+01 0 0 0
648 2 7.3830000000000009e+00 7.1042950623783341e+00 2.6852744054865600e+01 0 0 0
650 2 7.3829999999999991e+00 4.2625770374269996e+00 2.6852744054865600e+01 0 0 0
612 2 4.9220000000000006e+00 5.6834360499026637e+00 3.0031000000000713e+01 0 0 0
614 2 4.9220000000000006e+00 4.2625770374269978e+00 3.0031000000000713e+01 0 0 0
645 2 6.1524999999999999e+00 7.8147245686161639e+00 3.0031000000000713e+01 0 0 0
647 2 6.1524999999999999e+00 6.3938655561404980e+00 3.0031000000000713e+01 0 0 0
649 2 7.3829999999999991e+00 5.6834360499026637e+00 3.0031000000000713e+01 0 0 0
651 2 7.3829999999999991e+00 4.2625770374269996e+00 3.0031000000000713e+01 0 0 0
652 2 8.6135000000000002e+00 4.9730065436648339e+00 2.6852744054865600e+01 0 0 0
691 2 8.6135000000000002e+00 6.3938655561404980e+00 2.6852744054865600e+01 0 0 0
693 2 9.8440000000000012e+00 7.1042950623783341e+00 2.6852744054865600e+01 0 0 0
695 2 9.8440000000000012e+00 4.2625770374270004e+00 2.6852744054865600e+01 0 0 0
697 2 1.1074500000000002e+01 4.9730065436648339e+00 2.6852744054865600e+01 0 0 0
738 2 1.1074500000000002e+01 6.3938655561404980e+00 2.6852744054865600e+01 0 0 0
690 2 8.6135000000000002e+00 7.8147245686161639e+00 3.0031000000000713e+01 0 0 0
692 2 8.6135000000000002e+00 6.3938655561404980e+00 3.0031000000000713e+01 0 0 0
694 2 9.8440000000000012e+00 5.6834360499026637e+00 3.0031000000000713e+01 0 0 0
696 2 9.8440000000000012e+00 4.2625770374270004e+00 3.0031000000000713e+01 0 0 0
737 2 1.1074500000000002e+01 7.8147245686161639e+00 3.0031000000000713e+01 0 0 0
739 2 1.1074500000000002e+01 6.3938655561404980e+00 3.0031000000000713e+01 0 0 0
574 2 0.0000000000000000e+00 1.1366872099805333e+01 2.6852744054865600e+01 0 0 0
576 2 0.0000000000000000e+00 8.5251540748539991e+00 2.6852744054865600e+01 0 0 0
578 2 1.2305000000000001e+00 9.2355835810918343e+00 2.6852744054865600e+01 0 0 0
601 2 1.2305000000000001e+00 1.0656442593567498e+01 2.6852744054865600e+01 0 0 0
603 2 2.4610000000000003e+00 1.1366872099805333e+01 2.6852744054865600e+01 0 0 0
605 2 2.4610000000000003e+00 8.5251540748539991e+00 2.6852744054865600e+01 0 0 0
607 2 3.6915000000000004e+00 9.2355835810918343e+00 2.6852744054865600e+01 0 0 0
638 2 3.6914999999999996e+00 1.0656442593567499e+01 2.6852744054865600e+01 0 0 0
575 2 0.0000000000000000e+00 9.9460130873296642e+00 3.0031000000000713e+01 0 0 0
577 2 0.0000000000000000e+00 8.5251540748539991e+00 3.0031000000000713e+01 0 0 0
600 2 1.2305000000000001e+00 1.2077301606043163e+01 3.0031000000000713e+01 0 0 0
602 2 1.2305000000000001e+00 1.0656442593567498e+01 3.0031000000000713e+01 0 0 0
604 2 2.4610000000000003e+00 9.9460130873296642e+00 3.0031000000000713e+01 0 0 0
606 2 2.4610000000000003e+00 8.5251540748539991e+00 3.0031000000000713e+01 0 0 0
637 2 3.6914999999999996e+00 1.2077301606043163e+01 3.0031000000000713e+01 0 0 0
639 2 3.6914999999999996e+00 1.0656442593567499e+01 3.0031000000000713e+01 0 0 0
974 2 8.6135000000000002e+00 1.3498160618518835e+01 3.3209255945133343e+01 0 0 0
640 2 4.9220000000000006e+00 1.1366872099805333e+01 2.6852744054865600e+01 0 0 0
642 2 4.9220000000000006e+00 8.5251540748539991e+00 2.6852744054865600e+01 0 0 0
644 2 6.1524999999999999e+00 9.2355835810918343e+00 2.6852744054865600e+01 0 0 0
683 2 6.1524999999999999e+00 1.0656442593567499e+01 2.6852744054865600e+01 0 0 0
685 2 7.3829999999999991e+00 1.1366872099805333e+01 2.6852744054865600e+01 0 0 0
687 2 7.3830000000000009e+00 8.5251540748539991e+00 2.6852744054865600e+01 0 0 0
641 2 4.9220000000000006e+00 9.9460130873296642e+00 3.0031000000000713e+01 0 0 0
643 2 4.9220000000000006e+00 8.5251540748539991e+00 3.0031000000000713e+01 0 0 0
682 2 6.1524999999999999e+00 1.2077301606043163e+01 3.0031000000000713e+01 0 0 0
684 2 6.1524999999999999e+00 1.0656442593567499e+01 3.0031000000000713e+01 0 0 0
686 2 7.3830000000000009e+00 9.9460130873296642e+00 3.0031000000000713e+01 0 0 0
688 2 7.3830000000000009e+00 8.5251540748539991e+00 3.0031000000000713e+01 0 0 0
689 2 8.6134999999999984e+00 9.2355835810918343e+00 2.6852744054865600e+01 0 0 0
730 2 8.6134999999999984e+00 1.0656442593567498e+01 2.6852744054865600e+01 0 0 0
732 2 9.8440000000000012e+00 1.1366872099805333e+01 2.6852744054865600e+01 0 0 0
734 2 9.8440000000000012e+00 8.5251540748539956e+00 2.6852744054865600e+01 0 0 0
736 2 1.1074500000000002e+01 9.2355835810918343e+00 2.6852744054865600e+01 0 0 0
777 2 1.1074500000000002e+01 1.0656442593567498e+01 2.6852744054865600e+01 0 0 0
779 2 1.2304999999999998e+01 1.1366872099805333e+01 2.6852744054865600e+01 0 0 0
729 2 8.6135000000000002e+00 1.2077301606043163e+01 3.0031000000000713e+01 0 0 0
731 2 8.6134999999999984e+00 1.0656442593567498e+01 3.0031000000000713e+01 0 0 0
733 2 9.8440000000000012e+00 9.9460130873296642e+00 3.0031000000000713e+01 0 0 0
735 2 9.8440000000000012e+00 8.5251540748539956e+00 3.0031000000000713e+01 0 0 0
776 2 1.1074500000000002e+01 1.2077301606043163e+01 3.0031000000000713e+01 0 0 0
778 2 1.1074500000000002e+01 1.0656442593567498e+01 3.0031000000000713e+01 0 0 0
997 2 9.8440000000000012e+00 1.2787731112280996e+01 3.3209255945133343e+01 0 0 0
595 2 0.0000000000000000e+00 1.5629449137232333e+01 2.6852744054865600e+01 0 0 0
597 2 0.0000000000000000e+00 1.2787731112280996e+01 2.6852744054865600e+01 0 0 0
599 2 1.2305000000000001e+00 1.3498160618518829e+01 2.6852744054865600e+01 0 0 0
630 2 1.2305000000000001e+00 1.4919019630994494e+01 2.6852744054865600e+01 0 0 0
632 2 2.4610000000000003e+00 1.5629449137232328e+01 2.6852744054865600e+01 0 0 0
634 2 2.4610000000000003e+00 1.2787731112280996e+01 2.6852744054865600e+01 0 0 0
636 2 3.6915000000000004e+00 1.3498160618518829e+01 2.6852744054865600e+01 0 0 0
675 2 3.6915000000000004e+00 1.4919019630994494e+01 2.6852744054865600e+01 0 0 0
596 2 0.0000000000000000e+00 1.4208590124756663e+01 3.0031000000000713e+01 0 0 0
598 2 0.0000000000000000e+00 1.2787731112280996e+01 3.0031000000000713e+01 0 0 0
631 2 1.2305000000000001e+00 1.4919019630994494e+01 3.0031000000000713e+01 0 0 0
633 2 2.4610000000000003e+00 1.4208590124756663e+01 3.0031000000000713e+01 0 0 0
635 2 2.4610000000000003e+00 1.2787731112280996e+01 3.0031000000000713e+01 0 0 0
676 2 3.6915000000000004e+00 1.4919019630994494e+01 3.0031000000000713e+01 0 0 0
677 2 4.9220000000000006e+00 1.5629449137232333e+01 2.6852744054865600e+01 0 0 0
679 2 4.9220000000000006e+00 1.2787731112280996e+01 2.6852744054865600e+01 0 0 0
681 2 6.1524999999999990e+00 1.3498160618518829e+01 2.6852744054865600e+01 0 0 0
722 2 6.1524999999999990e+00 1.4919019630994494e+01 2.6852744054865600e+01 0 0 0
724 2 7.3829999999999991e+00 1.5629449137232333e+01 2.6852744054865600e+01 0 0 0
726 2 7.3829999999999991e+00 1.2787731112280996e+01 2.6852744054865600e+01 0 0 0
678 2 4.9220000000000006e+00 1.4208590124756663e+01 3.0031000000000713e+01 0 0 0
680 2 4.9220000000000006e+00 1.2787731112280996e+01 3.0031000000000713e+01 0 0 0
723 2 6.1524999999999990e+00 1.4919019630994494e+01 3.0031000000000713e+01 0 0 0
725 2 7.3830000000000009e+00 1.4208590124756663e+01 3.0031000000000713e+01 0 0 0
727 2 7.3829999999999991e+00 1.2787731112280996e+01 3.0031000000000713e+01 0 0 0
728 2 8.6135000000000002e+00 1.3498160618518835e+01 2.6852744054865600e+01 0 0 0
769 2 8.6135000000000002e+00 1.4919019630994494e+01 2.6852744054865600e+01 0 0 0
771 2 9.8440000000000012e+00 1.5629449137232328e+01 2.6852744054865600e+01 0 0 0
773 2 9.8440000000000012e+00 1.2787731112280996e+01 2.6852744054865600e+01 0 0 0
775 2 1.1074500000000002e+01 1.3498160618518829e+01 2.6852744054865600e+01 0 0 0
811 2 1.1074500000000002e+01 1.4919019630994494e+01 2.6852744054865600e+01 0 0 0
770 2 8.6135000000000002e+00 1.4919019630994494e+01 3.0031000000000713e+01 0 0 0
772 2 9.8440000000000012e+00 1.4208590124756663e+01 3.0031000000000713e+01 0 0 0
774 2 9.8440000000000012e+00 1.2787731112280996e+01 3.0031000000000713e+01 0 0 0
810 2 1.1074500000000002e+01 1.6339878643470161e+01 3.0031000000000713e+01 0 0 0
812 2 1.1074500000000002e+01 1.4919019630994494e+01 3.0031000000000713e+01 0 0 0
814 2 1.2304999999999998e+01 1.4208590124756658e+01 3.0031000000000713e+01 0 0 0
885 2 0.0000000000000000e+00 2.8417180249513345e+00 3.3209255945133343e+01 0 0 0
886 2 0.0000000000000000e+00 0.0000000000000000e+00 3.3209255945133343e+01 0 0 0
887 2 1.2305000000000001e+00 7.1042950623783474e-01 3.3209255945133343e+01 0 0 0
891 2 1.2305000000000001e+00 2.1312885187134998e+00 3.3209255945133343e+01 0 0 0
892 2 2.4610000000000003e+00 2.8417180249513345e+00 3.3209255945133343e+01 0 0 0
893 2 2.4610000000000003e+00 0.0000000000000000e+00 3.3209255945133343e+01 0 0 0
894 2 3.6915000000000004e+00 7.1042950623783474e-01 3.3209255945133343e+01 0 0 0
902 2 3.6914999999999996e+00 2.1312885187134998e+00 3.3209255945133343e+01 0 0 0
998 2 1.1074500000000002e+01 1.3498160618518829e+01 3.3209255945133343e+01 0 0 0
903 2 4.9220000000000006e+00 2.8417180249513332e+00 3.3209255945133343e+01 0 0 0
904 2 4.9220000000000006e+00 0.0000000000000000e+00 3.3209255945133343e+01 0 0 0
905 2 6.1524999999999999e+00 7.1042950623783407e-01 3.3209255945133343e+01 0 0 0
917 2 6.1524999999999999e+00 2.1312885187134989e+00 3.3209255945133343e+01 0 0 0
918 2 7.3829999999999991e+00 2.8417180249513345e+00 3.3209255945133343e+01 0 0 0
919 2 7.3829999999999991e+00 0.0000000000000000e+00 3.3209255945133343e+01 0 0 0
920 2 8.6134999999999984e+00 7.1042950623783407e-01 3.3209255945133343e+01 0 0 0
936 2 8.6134999999999984e+00 2.1312885187135002e+00 3.3209255945133343e+01 0 0 0
937 2 9.8440000000000012e+00 2.8417180249513332e+00 3.3209255945133343e+01 0 0 0
938 2 9.8440000000000012e+00 0.0000000000000000e+00 3.3209255945133343e+01 0 0 0
939 2 1.1074500000000002e+01 7.1042950623783330e-01 3.3209255945133343e+01 0 0 0
959 2 1.1074500000000002e+01 2.1312885187135002e+00 3.3209255945133343e+01 0 0 0
888 2 0.0000000000000000e+00 7.1042950623783341e+00 3.3209255945133343e+01 0 0 0
889 2 0.0000000000000000e+00 4.2625770374269996e+00 3.3209255945133343e+01 0 0 0
890 2 1.2305000000000001e+00 4.9730065436648339e+00 3.3209255945133343e+01 0 0 0
898 2 1.2305000000000001e+00 6.3938655561404980e+00 3.3209255945133343e+01 0 0 0
899 2 2.4610000000000003e+00 7.1042950623783341e+00 3.3209255945133343e+01 0 0 0
900 2 2.4610000000000003e+00 4.2625770374269996e+00 3.3209255945133343e+01 0 0 0
901 2 3.6914999999999996e+00 4.9730065436648339e+00 3.3209255945133343e+01 0 0 0
913 2 3.6914999999999996e+00 6.3938655561404980e+00 3.3209255945133343e+01 0 0 0
914 2 4.9220000000000006e+00 7.1042950623783341e+00 3.3209255945133343e+01 0 0 0
915 2 4.9220000000000006e+00 4.2625770374269978e+00 3.3209255945133343e+01 0 0 0
916 2 6.1524999999999999e+00 4.9730065436648339e+00 3.3209255945133343e+01 0 0 0
932 2 6.1524999999999999e+00 6.3938655561404980e+00 3.3209255945133343e+01 0 0 0
933 2 7.3830000000000009e+00 7.1042950623783341e+00 3.3209255945133343e+01 0 0 0
934 2 7.3829999999999991e+00 4.2625770374269996e+00 3.3209255945133343e+01 0 0 0
935 2 8.6135000000000002e+00 4.9730065436648339e+00 3.3209255945133343e+01 0 0 0
955 2 8.6135000000000002e+00 6.3938655561404980e+00 3.3209255945133343e+01 0 0 0
956 2 9.8440000000000012e+00 7.1042950623783341e+00 3.3209255945133343e+01 0 0 0
957 2 9.8440000000000012e+00 4.2625770374270004e+00 3.3209255945133343e+01 0 0 0
958 2 1.1074500000000002e+01 4.9730065436648339e+00 3.3209255945133343e+01 0 0 0
979 2 1.1074500000000002e+01 6.3938655561404980e+00 3.3209255945133343e+01 0 0 0
895 2 0.0000000000000000e+00 1.1366872099805333e+01 3.3209255945133343e+01 0 0 0
896 2 0.0000000000000000e+00 8.5251540748539991e+00 3.3209255945133343e+01 0 0 0
897 2 1.2305000000000001e+00 9.2355835810918343e+00 3.3209255945133343e+01 0 0 0
909 2 1.2305000000000001e+00 1.0656442593567498e+01 3.3209255945133343e+01 0 0 0
910 2 2.4610000000000003e+00 1.1366872099805333e+01 3.3209255945133343e+01 0 0 0
911 2 2.4610000000000003e+00 8.5251540748539991e+00 3.3209255945133343e+01 0 0 0
912 2 3.6915000000000004e+00 9.2355835810918343e+00 3.3209255945133343e+01 0 0 0
928 2 3.6914999999999996e+00 1.0656442593567499e+01 3.3209255945133343e+01 0 0 0
1016 2 1.1074500000000002e+01 1.4919019630994494e+01 3.3209255945133343e+01 0 0 0
929 2 4.9220000000000006e+00 1.1366872099805333e+01 3.3209255945133343e+01 0 0 0
930 2 4.9220000000000006e+00 8.5251540748539991e+00 3.3209255945133343e+01 0 0 0
931 2 6.1524999999999999e+00 9.2355835810918343e+00 3.3209255945133343e+01 0 0 0
951 2 6.1524999999999999e+00 1.0656442593567499e+01 3.3209255945133343e+01 0 0 0
952 2 7.3829999999999991e+00 1.1366872099805333e+01 3.3209255945133343e+01 0 0 0