
# Create simulation box and atoms

read_data data.graphite_ML_1000atm_e
  orthogonal box = (0 0 1.14504) to (49.22 49.0196 58.917)
  4 by 3 by 5 MPI processor grid
  reading atoms ...
  6368 atoms
  reading velocities ...
  6368 velocities
group water type 1
3608 atoms in group water
group graphite type 2
2760 atoms in group graphite

# Define potential

pair_style sw
pair_coeff * * MLC_e.sw mW C


# Fix graphite atoms in place

fix 5 graphite setforce 0.0 0.0 0.0
velocity graphite set 0.0 0.0 0.0


# Equilibration of molecular water

# Add velocity/set timestep

velocity	    water create ${TEMP} ${SEED} rot yes dist gaussian
velocity	    water create 240 ${SEED} rot yes dist gaussian
velocity	    water create 240 32672 rot yes dist gaussian
timestep	    5.0

# Define output

compute			1 water msd
compute			3 water temp
thermo	    	50
thermo_style	custom step temp press vol etotal ke pe c_1[4] c_3

# Neighbor lists

neigh_modify    delay 0 every 1 check yes

# Set fixes

fix             1 water momentum 10 linear 1 1 1 rescale
fix             2 water nve
fix             3 water temp/csvr ${TEMP} ${TEMP} 500.0 ${SEED}
fix             3 water temp/csvr 240 ${TEMP} 500.0 ${SEED}
fix             3 water temp/csvr 240 240 500.0 ${SEED}
fix             3 water temp/csvr 240 240 500.0 32672
fix             4 water press/berendsen z ${PRES} ${PRES} 1000.0 modulus 20000
fix             4 water press/berendsen z -1000 ${PRES} 1000.0 modulus 20000
fix             4 water press/berendsen z -1000 -1000 1000.0 modulus 20000

# Run 0.5 ns equilibration

dump		    1 all atom 2000 ${DIR}/eq.${NAME}-${TEMP}.dump
dump		    1 all atom 2000 run_2/eq.${NAME}-${TEMP}.dump
dump		    1 all atom 2000 run_2/eq.het_freeze_2-${TEMP}.dump
dump		    1 all atom 2000 run_2/eq.het_freeze_2-240.dump

reset_timestep  0

run	            100000
Neighbor list info ...
  update every 1 steps, delay 0 steps, check yes
  max neighbors/atom: 2000, page size: 100000
  master list distance cutoff = 7.76
  ghost atom cutoff = 7.76
  binsize = 3.88, bins = 13 13 15
  1 neighbor lists, perpetual/occasional/extra = 1 0 0
  (1) pair sw, perpetual
      attributes: full, newton on
      pair build: full/bin/atomonly
      stencil: full/bin/3d
      bin: standard
Per MPI rank memory allocation (min/avg/max) = 4.089 | 4.19 | 4.511 Mbytes
Step Temp Press Volume TotEng KinEng PotEng c_1[4] c_3 
       0    135.96356    -1535.679    139389.01    -30592.68    2580.4276   -33173.107            0          240 
      50    183.78692   -1696.9122    138918.24   -31051.623    3488.0584   -34539.681   0.81720292    324.41678 
     100    173.68147   -1777.2732    138502.94   -31473.754    3296.2689   -34770.023    1.8552166    306.57885 
     150     166.4259   -1912.9322    138130.75   -31866.776    3158.5669   -35025.343    2.6542094    293.77148 
     200    162.68231   -1960.5407    137785.88   -32220.673    3087.5179   -35308.191    3.3672482    287.16337 
     250    163.33833    -1708.467    137424.38   -32457.988    3099.9683   -35557.957    4.0454718    288.32135 
     300     156.6327   -1617.8103    137149.01   -32674.364    2972.7034   -35647.067    4.6959067    276.48472 
     350    154.60312   -1633.9212    136863.26   -32854.879    2934.1844   -35789.063     5.247256    272.90215 
     400    152.30213   -1453.3429    136681.29   -33074.356    2890.5143    -35964.87    5.7037631    268.84049 
     450    152.36101   -1435.4415    136500.49    -33213.65    2891.6318   -36105.281    6.1222931    268.94442 
     500    147.69697   -1729.4139    136296.54    -33341.28    2803.1138   -36144.393    6.5424971    260.71156 
     550    148.48354   -1460.4826    136011.37    -33471.73     2818.042   -36289.772     7.009296        262.1 
     600    147.23877    -1601.422    135812.45   -33571.631    2794.4177   -36366.049    7.4104684    259.90275 
     650    145.36462   -1727.4746    135567.69   -33646.742    2758.8486    -36405.59    7.7526212    256.59455 
     700    145.91107   -1127.8333    135463.19   -33720.144    2769.2196   -36489.363     8.052754    257.55913 
     750     143.6952   -1409.9364    135340.48   -33809.058     2727.165   -36536.223    8.4000774    253.64772 
     800    143.91089   -1647.9419    135142.01   -33879.618    2731.2585   -36610.876    8.7401259    254.02846 
     850    140.90591    -1539.912    134893.89   -33993.254    2674.2277   -36667.481    9.1152405    248.72414 
     900    140.54068   -1684.1398    134785.07    -34041.65     2667.296   -36708.946    9.4205382    248.07943 
     950    140.69583   -1450.1333    134675.47   -34101.165    2670.2406   -36771.406    9.6912452     248.3533 
    1000    138.04588   -1454.1617    134505.73   -34140.528    2619.9476   -36760.476    10.055383    243.67567 
    1050    143.05314   -1197.8831    134407.36   -34186.969    2714.9795   -36901.949    10.398726    252.51438 
    1100    138.60193   -1252.7929    134391.09   -34149.584    2630.5008   -36780.085    10.625522    244.65719 
    1150    142.62954   -1550.5659    134339.45   -34157.349      2706.94   -36864.289    10.771044    251.76664 
    1200    137.34577   -1495.3777    134143.53     -34207.5    2606.6604    -36814.16    11.078311    242.43985 
    1250    139.83482   -1284.4869     134019.7   -34267.477    2653.8996   -36921.377    11.294165    246.83347 
    1300    138.06734   -1562.5675    133945.52   -34264.118    2620.3549   -36884.473    11.511131    243.71355 
    1350    139.95528   -1083.7176    133810.33   -34313.649    2656.1857   -36969.835    11.909099    247.04609 
    1400    135.96792   -1230.4957    133818.16   -34345.102    2580.5103   -36925.612     12.15026    240.00769 
    1450    138.02978   -1395.1734    133812.09   -34342.793     2619.642   -36962.435     12.19498    243.64725 
    1500    136.88031   -1171.5608    133766.08   -34367.121    2597.8264   -36964.947    12.350497    241.61822 
    1550     138.8135   -1094.2884    133714.41   -34412.038     2634.516   -37046.554    12.550056    245.03064 
    1600    138.75965   -879.74231    133781.49   -34422.222    2633.4942   -37055.716    12.795249     244.9356 
    1650    136.51775   -1244.4165    133788.06   -34448.216    2590.9455   -37039.162    13.086462    240.97824 
    1700     137.0993   -1243.2101    133847.74   -34441.505    2601.9826   -37043.488    13.230496    242.00478 
    1750    137.77586   -935.33362    133836.21   -34447.656    2614.8229   -37062.479    13.352477    243.19903 
    1800    136.50794   -1008.8286    133929.56   -34450.991    2590.7594   -37041.751     13.50133    240.96093 
    1850    138.96831   -1257.4148    133895.21   -34497.884    2637.4542   -37135.338    13.691548    245.30391 
    1900    135.02081    -1233.959    133847.26   -34524.132    2562.5353   -37086.667    14.000798    238.33587 
    1950    134.46907   -1391.2164     133700.8   -34525.478    2552.0639   -37077.542    14.250407    237.36195 
    2000    137.85612   -1230.3218       133637   -34529.208    2616.3461   -37145.554    14.452059     243.3407 
    2050    137.84234   -1202.2528    133630.04   -34475.642    2616.0846   -37091.726    14.565457    243.31638 
    2100    136.21326   -1277.1716    133632.39   -34467.647    2585.1666   -37052.814    14.895985    240.44076 
    2150    138.78986   -1384.6875    133499.22   -34472.128    2634.0674   -37106.196    15.117769    244.98892 
    2200    137.38051   -1210.4701    133485.05   -34451.932    2607.3196   -37059.251    15.297866    242.50116 
    2250    140.20552   -1345.3171    133433.49   -34450.223     2660.935   -37111.158    15.364555    247.48781 
    2300    139.60645   -1345.0071    133383.43   -34482.798    2649.5653   -37132.363    15.557521    246.43034 
    2350    138.73231   -696.42368    133382.93   -34476.128    2632.9751   -37109.103    15.783105    244.88733 
    2400     135.4299   -1296.6818    133416.75   -34517.232    2570.2995   -37087.531    16.031881      239.058 
    2450    137.18941   -1183.6113    133347.46   -34578.009    2603.6927   -37181.702    16.271796    242.16383 
    2500    135.35342   -1359.9865    133380.43     -34581.3    2568.8479   -37150.148    16.306157    238.92299 
    2550     136.2846   -1117.5832    133421.34   -34572.045    2586.5206   -37158.566    16.436491    240.56669 
    2600    139.73559   -894.65393    133501.23   -34575.376    2652.0162   -37227.393    16.519211     246.6583 
    2650    135.10543   -1329.0035    133592.71   -34562.577    2564.1413   -37126.718    16.596191    238.48524 
    2700    138.76281   -1110.8447    133560.85   -34522.407     2633.554   -37155.961    16.903629    244.94116 
    2750    136.55456   -1320.9039    133521.51   -34576.723    2591.6441   -37168.367    16.935291    241.04322 
    2800     137.2351   -1311.5356    133515.26   -34548.432      2604.56   -37152.992    17.091343     242.2445 
    2850     139.2977   -1375.5931    133573.64    -34556.25    2643.7057   -37199.956    17.254362    245.88535 
    2900    137.51763   -929.10544    133622.56   -34566.687    2609.9221   -37176.609    17.321244    242.74321 
    2950    137.34504   -924.36292    133728.48   -34584.762    2606.6464   -37191.409    17.310192    242.43855 
    3000    137.65183   -980.75938    133718.03    -34587.82     2612.469   -37200.289    17.553681     242.9801 
    3050    139.14737   -1044.6864    133722.14   -34562.449    2640.8526   -37203.301    17.769435       245.62 
    3100    139.85937   -955.75814    133778.88   -34562.922    2654.3655   -37217.288    17.906682     246.8768 
    3150     134.8852    -998.2247    133914.72   -34535.212    2559.9617   -37095.174    18.125155    238.09651 
    3200    139.16716    -995.3457    133953.69   -34572.201    2641.2282   -37213.429    18.181926    245.65493 
    3250    138.01404   -1115.5312     134031.4   -34587.524    2619.3433   -37206.868    18.253337    243.61946 
    3300    137.51831   -1178.8822    134033.95   -34634.138    2609.9348   -37244.073    18.406669     242.7444 
    3350    135.28883   -1444.9393    133959.77   -34618.955    2567.6221   -37186.578    18.684654    238.80898 
    3400    135.40687      -1175.1    133794.85   -34650.259    2569.8624   -37220.122    19.030296    239.01735 
    3450    135.13353   -1158.6035    133796.68   -34621.833    2564.6745   -37186.507    19.117103    238.53484 
    3500    135.04849    -1254.195    133679.31   -34619.462    2563.0606   -37182.523    19.312451    238.38473 
    3550    136.57099   -993.72489    133635.07   -34595.536    2591.9559   -37187.492    19.634853    241.07222 
    3600    139.02206   -1154.2108    133671.77   -34583.903    2638.4743   -37222.377    19.752946    245.39879 
    3650    135.54793   -1080.2485    133670.47   -34638.825    2572.5395   -37211.364    19.804288    239.26634 
    3700     137.0681   -956.29809    133744.84   -34699.629    2601.3904   -37301.019    19.894855     241.9497 
    3750    135.77179    -1235.617    133755.86   -34640.945    2576.7881   -37217.733    20.227439    239.66149 
    3800    133.91893   -1137.0646    133845.78   -34634.686     2541.623   -37176.309    20.340196    236.39086 
    3850    136.77893   -1356.4136    133891.78    -34556.98    2595.9023   -37152.883    20.485096    241.43927 
    3900    137.99201   -1267.9858    133780.76   -34580.367    2618.9253   -37199.292    20.798334    243.58058 
    3950    135.90631    -1045.916    133796.54   -34597.387    2579.3411   -37176.728    20.952309    239.89895 
    4000    138.63549   -1162.7873    133774.07   -34551.722    2631.1376    -37182.86    21.305116    244.71643 
    4050    137.23755   -1089.2159    133759.07   -34533.792    2604.6065   -37138.399    21.528224    242.24882 
    4100    138.18904   -1318.6559    133773.38   -34492.012    2622.6645   -37114.676    21.686373    243.92836 
    4150    138.99085   -1225.3156    133675.32   -34498.869     2637.882   -37136.751    21.921078     245.3437 
    4200    137.64617   -1341.7206     133686.5   -34504.728    2612.3616    -37117.09    22.110794    242.97011 
    4250    137.92944   -1429.7826    133569.69   -34522.731    2617.7377   -37140.469    22.339319    243.47013 
    4300    137.18342   -1150.3843    133453.57   -34556.195    2603.5791   -37159.774    22.382207    242.15327 
    4350    135.50527   -1125.6154    133472.48   -34543.942    2571.7297   -37115.672    22.472692    239.19102 
    4400    136.90749   -1118.8731    133507.64   -34605.497    2598.3423   -37203.839    22.568299     241.6662 
    4450    135.63619   -1077.6944    133540.67   -34616.914    2574.2145   -37191.128    22.757801    239.42213 
    4500    135.49009    -1395.055    133532.08    -34641.83    2571.4417   -37213.271    22.977583    239.16424 
    4550    134.57145    -1096.623    133451.23   -34670.688     2554.007   -37224.695    23.288666    237.54267 
    4600    138.17897   -960.41484    133498.61   -34655.415    2622.4734   -37277.889    23.339119    243.91058 
    4650    135.50752   -1237.6632    133510.54    -34687.75    2571.7725   -37259.523    23.574603    239.19501 
    4700    134.28984    -1233.404    133472.22    -34748.39    2548.6624   -37297.053    23.735221    237.04558 
    4750    134.21969   -1235.2218    133439.68   -34748.418    2547.3311   -37295.749    23.921462    236.92176 
    4800    137.20278   -1197.3781    133493.08   -34737.827    2603.9465   -37341.773    24.073359    242.18744 
    4850    137.97121   -1184.0424    133551.45   -34722.363    2618.5303   -37340.894    24.058358    243.54385 
    4900    138.55672   -651.76912     133666.1   -34696.189    2629.6426   -37325.832    24.028119    244.57738 
    4950    140.03789   -999.89745    133833.05   -34643.791    2657.7536   -37301.544    24.101269    247.19192 
    5000    136.94009   -1090.0704    133912.05   -34694.237     2598.961   -37293.198    24.172664    241.72375 
    5050    138.85519   -994.00432    134002.39   -34692.057    2635.3074   -37327.365    24.321819    245.10425 
    5100    138.90971   -865.77724    134091.36   -34643.669    2636.3421   -37280.011    24.438917    245.20048 
    5150    141.32746   -701.77525    134197.43    -34643.25     2682.228   -37325.478    24.327665    249.46823 
    5200    135.96772   -1079.3922    134241.95   -34700.633    2580.5065    -37281.14    24.423931    240.00733 
    5250    135.63345   -1198.3541    134240.55   -34732.982    2574.1626   -37307.144    24.453842     239.4173 
    5300    136.55552   -1281.3438    134235.38   -34726.172    2591.6623   -37317.834    24.509037    241.04491 
    5350    138.48867    -1329.741    134211.78   -34694.825    2628.3511   -37323.176    24.588362    244.45726 
    5400    138.69672   -1402.3184     134169.5   -34659.729    2632.2997   -37292.028     24.80837    244.82451 
    5450    137.05294   -1322.6639    134077.16   -34685.574    2601.1028   -37286.676    24.988416    241.92295 
    5500    134.68705   -997.78907    134158.88   -34757.419     2556.201    -37313.62    25.108385    237.74674 
    5550    134.25846   -1094.1878    134188.35   -34859.342    2548.0669   -37407.409    25.176073     236.9902 
    5600    135.27549   -1158.9181    134282.07   -34839.086    2567.3688   -37406.454    25.225927    238.78542 
    5650    136.32956   -1247.0589    134242.99   -34768.015    2587.3739   -37355.389     25.34438    240.64605 
    5700    135.09288   -1007.5454     134219.8    -34764.94    2563.9031   -37328.843    25.408095    238.46309 
    5750    136.36399   -1003.1967    134220.47   -34781.273    2588.0274     -37369.3    25.479596    240.70683 
    5800     133.1699   -1168.4895    134265.59   -34834.368    2527.4072   -37361.775    25.653175    235.06869 
    5850    135.63421   -998.96926    134288.97   -34820.015     2574.177   -37394.192    25.715873    239.41864 
    5900    135.62195   -1128.7042    134401.42   -34838.339    2573.9443   -37412.283    25.849685      239.397 
    5950    137.35634   -1280.0184    134436.28   -34777.966    2606.8609   -37384.827    26.053218     242.4585 
    6000    133.54272   -983.65785    134476.08   -34771.957    2534.4828    -37306.44    26.209556    235.72677 
    6050    135.06996   -844.73463    134556.58     -34810.5    2563.4681   -37373.968    26.244619    238.42263 
    6100    134.21975   -1186.9988    134613.96   -34836.609    2547.3322   -37383.941    26.425125    236.92186 
    6150    135.01716   -899.42615       134592   -34791.986    2562.4661   -37354.452    26.629625    238.32943 
    6200    132.36429   -1145.3167    134645.22   -34827.161    2512.1177   -37339.278    26.663994    233.64664 
    6250    135.07577   -1207.5539    134650.65   -34773.131    2563.5784    -37336.71    26.704038    238.43288 
    6300    138.60834   -1016.4742    134686.15   -34712.586    2630.6225   -37343.208    26.887533    244.66851 
    6350    137.20427   -982.56642    134755.27   -34736.574    2603.9748   -37340.549    26.944275    242.19007 
    6400    135.86287   -1105.6587    134798.41   -34738.747    2578.5166   -37317.264    27.012663    239.82226 
    6450     136.4829   -980.41534    134882.42   -34749.911     2590.284   -37340.195    27.028552    240.91672 
    6500    135.94686    -1200.188    134858.22   -34722.928    2580.1106   -37303.038    27.078998    239.97051 
    6550     139.4295   -1293.0499    134851.43   -34702.868     2646.207   -37349.075    27.114258      246.118 
    6600    135.96867   -1088.8288    134843.74   -34693.809    2580.5247   -37274.333    27.242193    240.00902 
    6650    135.57526   -1334.1927    134829.18   -34748.729    2573.0581   -37321.787    27.205549    239.31458 
    6700     137.0561   -1358.2881    134778.33   -34747.172    2601.1626   -37348.335    27.297805    241.92852 
    6750    135.08981   -1134.4393    134736.22   -34722.516    2563.8449   -37286.361    27.408156    238.45767 
    6800    136.34473   -1238.4657     134766.9   -34701.915    2587.6618   -37289.577    27.542788    240.67284 
    6850    135.21093   -884.66674    134828.29   -34766.922    2566.1436   -37333.065    27.610359    238.67147 
    6900    134.49106   -1274.0693    134887.89   -34753.623    2552.4812   -37306.105    27.571831    237.40076 
    6950    136.82554   -1209.2469    134839.51   -34684.388    2596.7869   -37281.174    27.657211    241.52154 
    7000    137.31783   -1344.1651    134851.97   -34655.158      2606.13   -37261.288    27.698314    242.39052 
    7050    137.83953   -1300.3344    134932.23    -34680.49    2616.0314   -37296.521    27.769266    243.31143 
    7100    138.16952   -1187.5286    135001.87   -34706.198    2622.2941   -37328.492    27.862486    243.89391 
    7150    136.71452   -1182.4715    135080.88   -34762.903      2594.68   -37357.583    27.960185    241.32558 
    7200    136.32696   -1043.8139    135072.17    -34761.81    2587.3246   -37349.135    28.130011    240.64147 
    7250    133.95862   -1298.1473    135043.71   -34818.457    2542.3763   -37360.833    28.230792    236.46092 
    7300    135.43898   -1212.2819    135013.23   -34779.194    2570.4718   -37349.666    28.198527    239.07402 
    7350    133.24334   -1261.0159    135081.62   -34759.237    2528.8011   -37288.038    28.212134    235.19833 
    7400     136.5322   -1108.8527    135006.78   -34752.183    2591.2198   -37343.402    28.465541    241.00375 
    7450    137.52586   -1260.6695    134959.67   -34772.615    2610.0782   -37382.693    28.517109    242.75773 
    7500    133.80217   -1055.0933    134946.91   -34798.057    2539.4069   -37337.464    28.616335    236.18475 
    7550    135.04608   -1086.3473     134976.8    -34777.46    2563.0149   -37340.475    28.602617    238.38047 
    7600     137.3546   -1134.2704    135032.14     -34763.1    2606.8279   -37369.928     28.85776    242.45543 
    7650    135.57575   -901.80426    135108.84   -34760.707    2573.0674   -37333.774    28.945231    239.31544 
    7700    138.96407   -1249.8578    135120.65   -34767.114    2637.3737   -37404.487    29.040884    245.29643 
    7750    137.03361   -1164.7455    135155.34   -34740.086    2600.7359   -37340.822    29.091814    241.88883 
    7800    137.73431   -1154.9231    135108.92   -34757.372    2614.0343   -37371.407    29.011599    243.12568 
    7850    139.13476   -992.19377    135129.12   -34765.314    2640.6132   -37405.927    29.103582    245.59773 
    7900    139.08223    -940.8931    135087.79   -34779.891    2639.6162   -37419.507    29.227868      245.505 
    7950    137.37434   -1291.6041    135097.26   -34724.125    2607.2026   -37331.328    29.265207    242.49028 
    8000    135.96241    -1182.623    135001.03   -34757.949    2580.4058   -37338.355    29.614894    239.99797 
    8050    138.76545   -1009.7031    135000.71   -34767.338    2633.6041   -37400.942    29.749889    244.94583 
    8100    135.93173   -1125.5509    135049.75   -34824.191    2579.8236   -37404.014    29.740446    239.94382 
    8150    137.53926   -1171.4656    134963.28   -34812.463    2610.3325   -37422.795    29.840999    242.78139 
    8200    140.67431   -1193.9885    134981.29   -34749.114    2669.8321   -37418.946    30.015294    248.31531 
    8250    138.21816   -1091.9734    134938.44   -34739.496    2623.2172   -37362.713    30.067447    243.97976 
    8300    134.91169   -1213.6341    134945.39   -34800.511    2560.4644   -37360.976    30.135158    238.14326 
    8350    136.97157   -1135.4049    134931.45   -34834.163    2599.5585   -37433.721    30.284814    241.77932 
    8400    133.36413   -1091.9954    134926.86   -34869.991    2531.0935   -37401.084    30.442564    235.41154 
    8450    136.76869    -1161.041    134969.75    -34845.37    2595.7081   -37441.079    30.542873     241.4212 
    8500    135.74078    -1303.405    134992.94    -34824.11    2576.1995    -37400.31    30.712458    239.60675 
    8550     135.8451   -1213.2715    135073.05   -34829.739    2578.1793   -37407.918    30.761706    239.79089 
    8600    139.00853   -1327.6439    135105.47   -34836.264    2638.2176   -37474.482    30.813896    245.37492 
    8650    134.11726   -1228.6814    135126.88   -34888.983     2545.387    -37434.37    31.063106    236.74094 
    8700    138.00982    -1292.245    135137.57   -34857.498    2619.2631   -37476.761    31.208859    243.61201 
    8750    136.72662   -1180.1775    135154.17    -34861.55    2594.9096   -37456.459    31.194248    241.34694 
    8800    135.12033   -956.48916    135235.44   -34915.015    2564.4242    -37479.44    31.326717    238.51155 
    8850    135.29439    -1210.035     135282.1   -34907.471    2567.7276   -37475.198    31.344344    238.81879 
    8900    136.49031   -1126.6663    135356.49   -34904.283    2590.4246   -37494.707    31.464903     240.9298 
    8950    133.89525    -1083.067    135338.77   -34925.335    2541.1736   -37466.508      31.4885    236.34907 
    9000    136.43629   -961.52139    135456.54   -34943.083    2589.3995   -37532.482    31.632153    240.83445 
    9050    137.17009   -924.51351    135549.17   -34939.397    2603.3261   -37542.723    31.904682    242.12974 
    9100    133.32069   -1128.8788    135639.56   -34966.549    2530.2691   -37496.818    32.170411    235.33486 
    9150    134.56801   -1325.7954    135684.87   -34945.872    2553.9417   -37499.814    32.282239     237.5366 
    9200     134.7216   -1000.4348    135701.87   -34924.159    2556.8566   -37481.015     32.25983    237.80771 
    9250    136.70044   -1095.1344    135704.39   -34908.179    2594.4128   -37502.591    32.383082    241.30073 
    9300    138.75659   -1052.5575    135701.83   -34917.935     2633.436   -37551.371    32.558826    244.93019 
    9350    135.02221   -998.30223    135718.14   -34843.828    2562.5619    -37406.39    32.645262    238.33834 
    9400    134.55443   -1242.5937    135705.11   -34862.171     2553.684   -37415.855    32.627698    237.51263 
    9450    139.20105   -1080.0616    135721.65   -34903.126    2641.8713   -37544.998     32.70198    245.71475 
    9500    135.65506   -1334.1052    135643.68   -34917.883    2574.5726   -37492.456     32.90186    239.45543 
    9550    137.00235    -1244.737     135541.9   -34960.352    2600.1427   -37560.495    33.037473    241.83365 
    9600    136.21882   -1096.1167    135562.27   -34937.213    2585.2721   -37522.485    33.091261    240.45057 
    9650    135.52612   -995.50158    135544.37   -34969.875    2572.1256   -37542.001    33.177268    239.22784 
    9700     134.3604   -890.60747    135608.43   -34978.111    2550.0015   -37528.112     33.21106    237.17013 
    9750     132.9561   -1109.4044     135601.4   -35039.378    2523.3495   -37562.728    33.203644    234.69129 
    9800    135.52577   -1220.7092    135622.54   -35006.121    2572.1189    -37578.24    33.111691    239.22722 
    9850     134.3228   -1171.0279    135621.58   -34975.411    2549.2879   -37524.699    33.298785    237.10376 
    9900    134.41805   -1187.2841    135670.46   -34997.902    2551.0956   -37548.997    33.433522    237.27189 
    9950    135.13739   -1174.6961    135654.51   -34966.889    2564.7479   -37531.637    33.468165    238.54166 
   10000    131.51115   -1133.1661     135582.8   -34985.259    2495.9262   -37481.185    33.537895     232.1407 
   10050    133.58245   -856.43084    135565.99   -34958.948    2535.2369   -37494.185    33.732057    235.79691 
   10100    135.02918   -948.19683    135640.96   -35031.229    2562.6941   -37593.924    33.676129    238.35064 
   10150    134.68106   -1256.8797    135674.31   -34998.483    2556.0874    -37554.57    33.610121    237.73616 
   10200    137.93993    -1035.224    135672.82   -34953.601    2617.9368   -37571.538    33.772665    243.48865 
   10250    137.15602   -1261.2434    135600.12   -34913.587    2603.0591   -37516.646    33.863123     242.1049 
   10300    134.84347   -1064.9193    135582.45   -34889.665    2559.1696   -37448.835    33.913075    238.02283 
   10350    135.87053   -1234.7683    135629.04   -34903.463    2578.6619   -37482.125    33.920368    239.83578 
   10400    137.63264   -1068.8009    135638.94   -34922.009    2612.1047   -37534.114    34.221773    242.94621 
   10450    135.29528    -1175.013    135611.12   -34894.355    2567.7445     -37462.1    34.457983    238.82037 
   10500    135.37701   -1283.5595    135613.71   -34892.058    2569.2955   -37461.354    34.647759    238.96463 
   10550    136.81015   -1128.7106    135641.77   -34891.909    2596.4948   -37488.403    34.576378    241.49438 
   10600     136.5389   -912.04689     135635.5   -34907.927    2591.3469   -37499.274    34.624557    241.01557 
   10650    134.62325   -1088.1759    135625.81   -34948.255      2554.99   -37503.245    34.618089     237.6341 
   10700    135.50014   -999.57504    135695.05   -34922.079    2571.6324   -37493.712    34.652147    239.18197 
   10750     133.5555   -1120.9275    135659.51   -34922.604    2534.7254    -37457.33    34.789817    235.74933 
   10800    130.65945   -1126.7733    135652.27   -34929.966    2479.7618   -37409.728    35.013862    230.63729 
   10850    136.35444   -921.37975    135680.41   -34881.016     2587.846   -37468.862    35.055654    240.68997 
   10900    133.89872   -709.15351    135698.29   -34884.928    2541.2395   -37426.167    35.213756    236.35519 
   10950    134.65899   -1078.0863    135697.56   -34910.445    2555.6684   -37466.114    35.411951     237.6972 
   11000    134.19743   -1188.9806    135686.67   -34918.504    2546.9085   -37465.412    35.591751    236.88246 
   11050    134.04031    -1353.186    135604.41   -34883.957    2543.9265   -37427.884    35.803321    236.60511 
   11100      133.698   -1194.5905    135546.59   -34905.206      2537.43   -37442.636    35.877459    236.00088 
   11150    131.99427   -1281.2638    135518.79   -34941.908    2505.0952   -37447.003    36.120359     232.9935 
   11200    137.75124   -1111.7742    135543.79   -34897.235    2614.3557    -37511.59    36.157311    243.15557 
   11250    135.48152   -1080.7998    135621.98    -34945.81     2571.279   -37517.089    36.063596     239.1491 
   11300    134.25072   -978.45948    135692.92   -34922.667      2547.92   -37470.587    36.104107    236.97653 
   11350    133.84577   -1167.0971    135661.36   -34972.438    2540.2344   -37512.672    36.068712    236.26172 
   11400    133.53798    -1123.557    135634.18   -34960.315    2534.3929   -37494.708    36.229611    235.71841 
   11450    133.13196   -1059.3043    135678.13   -34935.672    2526.6872   -37462.359    36.376829    235.00172 
   11500    137.11978   -847.93704    135768.44   -34909.293    2602.3713   -37511.665    36.598731    242.04093 
   11550    137.52993   -1169.0743    135884.39   -34885.199    2610.1554   -37495.355    36.687548    242.76491 
   11600    135.04312    -1400.007    135884.94   -34897.116    2562.9588   -37460.075    36.758708    238.37526 
   11650    135.27724   -1201.3352     135916.9   -34926.151    2567.4021   -37493.553    36.716669    238.78852 
   11700     135.7096   -1366.8804    135909.95   -34958.542    2575.6077   -37534.149    36.768975     239.5517 
   11750    132.23796   -1200.1171    135790.62    -34968.43    2509.7202    -37478.15    36.825635    233.42365 
   11800    135.07906   -1104.6707    135757.15   -35019.549    2563.6408   -37583.189    36.847536    238.43869 
   11850    132.93727   -1072.9346    135816.52   -34961.411    2522.9923   -37484.403    36.987256    234.65806 
   11900    133.75809   -1261.8659    135788.75   -34950.559    2538.5703   -37489.129    37.103085    236.10694 
   11950    135.28467   -1367.8076    135790.45   -34972.522     2567.543   -37540.065    36.974088    238.80163 
   12000    136.55002   -1094.6398    135718.25   -34946.266    2591.5578   -37537.824    36.996047     241.0352 
   12050    137.12291   -1339.9029     135656.2   -34936.644    2602.4306   -37539.075    37.153247    242.04645 
   12100      134.241     -1291.92    135618.17    -34928.15    2547.7354   -37475.885    37.230625    236.95936 
   12150    134.67129   -1110.4254    135583.85   -34948.888    2555.9019    -37504.79    37.392624    237.71891 
   12200    135.70377   -1599.4197    135538.98   -34924.548    2575.4971   -37500.045    37.645211    239.54142 
   12250    133.51608   -1172.3981    135434.03   -34926.244    2533.9773   -37460.221    37.698268    235.67976 
   12300     137.4077   -1229.2297    135441.88    -34926.88    2607.8356   -37534.716    37.964268    242.54916 
   12350    135.54905    -1114.967    135475.91   -34922.835    2572.5607   -37495.395    37.956138    239.26831 
   12400    134.85689   -1232.4917    135505.23   -34874.186    2559.4244   -37433.611    38.149892    238.04653 
   12450    135.99743   -1070.0628    135570.33   -34853.004    2581.0703   -37434.074    38.106907    240.05977 
   12500    139.02777   -1235.6522    135609.54   -34843.243    2638.5826   -37481.825    38.107836    245.40887 
   12550    138.76314   -1300.4581    135676.38   -34886.937    2633.5604   -37520.497    38.189332    244.94176 
   12600    137.44832   -1269.1547    135594.38   -34869.069    2608.6066   -37477.675    38.272544    242.62087 
   12650    138.75363    -1115.253    135628.84   -34918.159    2633.3798   -37551.539    38.370082    244.92496 
   12700    135.96189   -1042.1068    135706.24   -34943.186    2580.3958   -37523.582    38.618713    239.99704 
   12750    132.85364    -961.2012    135739.83   -34964.685     2521.405    -37486.09    38.736176    234.51043 
   12800    135.29182   -1132.7648    135839.89   -34925.394    2567.6788   -37493.073    38.736455    238.81426 
   12850     135.9881   -1201.6598    135852.88   -34988.881    2580.8934   -37569.774    38.836133    240.04332 
   12900    134.79141   -1154.3379    135834.99   -34952.331    2558.1815   -37510.512    38.986828    237.93094 
   12950    136.24251   -1559.7741    135754.62   -34938.576    2585.7217   -37524.298    39.046871    240.49239 
   13000    136.94536   -1388.4207    135806.48   -34970.355    2599.0609   -37569.416    38.965346    241.73304 
   13050    135.01834   -1280.6028    135792.82    -34999.67    2562.4884   -37562.158    39.065727    238.33151 
   13100    134.77375   -1286.8508    135782.83   -35043.243    2557.8463    -37601.09    39.220201    237.89976 
   13150    133.09231   -1053.5708    135751.86   -35002.714    2525.9347   -37528.649    39.162522    234.93173 
   13200    136.55084   -1242.7031    135778.96    -34974.55    2591.5736   -37566.123    39.275973    241.03666 
   13250    135.82639   -1438.7181    135640.75   -34968.833    2577.8242   -37546.658    39.541371    239.75786 
   13300    133.66184   -1096.9871    135616.16   -34919.787    2536.7437    -37456.53    39.653623    235.93705 
   13350    134.28877   -1210.2007    135686.48   -34903.829    2548.6422   -37452.471    39.800251     237.0437 
   13400    138.20455   -1247.2195    135719.26   -34943.701     2622.959    -37566.66     39.79509    243.95575 
   13450    135.76587   -1412.1537    135682.71   -34907.506    2576.6758   -37484.182    39.932433    239.65105 
   13500    135.41931   -1146.5179    135643.63   -34897.334    2570.0984   -37467.432    39.945399     239.0393 
   13550    137.94313   -1005.4223    135599.92   -34886.807    2617.9975   -37504.804    40.179965    243.49429 
   13600    138.88941   -1224.1567    135645.25   -34820.003    2635.9568   -37455.959    40.385676    245.16465 
   13650    134.73083   -1093.3461    135654.99   -34869.886    2557.0319   -37426.918    40.568296    237.82401 
   13700    134.56168   -1224.4737    135653.17   -34910.437    2553.8215   -37464.259    40.691174    237.52542 
   13750     134.9062   -1469.7254    135612.77   -34894.917    2560.3603   -37455.277    40.712696    238.13358 
   13800    135.86116   -991.00722    135659.84   -34914.845    2578.4841   -37493.329    40.856548    239.81923 
   13850    136.65118   -1144.1641    135692.86   -34894.148    2593.4779   -37487.626    41.089833    241.21377 
   13900    139.85421   -1177.2016    135775.05   -34832.373    2654.2676    -37486.64    41.230316    246.86769 
   13950    135.16723   -1278.3943    135705.13   -34882.217    2565.3143   -37447.532    41.309437    238.59434 
   14000    135.25278   -1316.9765    135687.74    -34923.31    2566.9379   -37490.248    41.370429    238.74535 
   14050    133.30233   -1131.2157    135682.61   -34936.384    2529.9206   -37466.305    41.293936    235.30245 
   14100    136.22409   -1403.1344    135615.87   -34922.985    2585.3721   -37508.357    41.440186    240.45987 
   14150     136.3633   -1288.2453    135617.26    -34914.82    2588.0142   -37502.834    41.467959    240.70561 
   14200     134.4151   -1386.3303    135521.79   -34942.462    2551.0397   -37493.501    41.661202    237.26669 
   14250    134.44661   -1441.4514    135433.42   -34924.801    2551.6377   -37476.439    42.006262    237.32231 
   14300    133.34327   -1216.5195    135445.08   -34942.372    2530.6976   -37473.069     42.06336    235.37472 
   14350    136.65037   -1164.9874    135445.76   -34881.118    2593.4625    -37474.58    42.416459    241.21234 
   14400    134.34587   -1423.9645     135463.1   -34926.657    2549.7258   -37476.383    42.709576    237.14448 
   14450    135.12064   -1137.4662       135398   -34979.655      2564.43   -37544.085    42.860516    238.51209 
   14500    134.04995   -1272.7824    135413.78   -34982.925    2544.1095   -37527.034     42.72134    236.62213 
   14550    135.68815   -1246.4232    135513.09    -34968.52    2575.2006   -37543.721    42.668402    239.51384 
   14600    134.31318   -1140.1338    135665.83   -34925.482    2549.1053   -37474.587    42.752028    237.08677 
   14650    136.18976   -1415.2494    135717.17   -34924.722    2584.7206   -37509.443    42.686838    240.39928 
   14700    137.37574   -1383.3332    135642.45   -34891.487    2607.2292   -37498.716    42.804727    242.49275 
   14750    138.67704   -1165.2964     135680.2   -34843.472    2631.9262   -37475.399     42.86776    244.78977 
   14800    137.51131   -1356.4086    135649.19   -34834.821    2609.8021   -37444.623    42.905377    242.73206 
   14850    137.31928   -1253.9365    135618.76   -34889.174    2606.1576   -37495.331    43.131853    242.39309 
   14900    137.81337   -1246.1513    135636.09   -34902.078    2615.5348   -37517.613    43.181059    243.26524 
   14950    133.20112   -1433.1426    135663.17    -34960.52    2527.9998    -37488.52    43.304741     235.1238 
   15000    132.41567   -1214.5639     135741.5   -34963.207    2513.0929     -37476.3    43.429771    233.73734 
   15050      131.921   -1176.1902    135708.14   -34973.774    2503.7047   -37477.478     43.48458    232.86416 
   15100    135.84955   -1225.3471     135683.8   -34907.088    2578.2638   -37485.352    43.579948    239.79874 
   15150     136.3653   -1101.0328    135712.67   -34872.478    2588.0522    -37460.53    43.805566    240.70914 
   15200    138.99768   -1117.0322    135763.53   -34852.946    2638.0116   -37490.958    43.851728    245.35576 
   15250    137.06313   -1050.6267    135820.76   -34869.119    2601.2962   -37470.415    43.935902    241.94094 
   15300    136.20746   -1166.5366    135821.86   -34858.832    2585.0565   -37443.889    44.069872    240.43052 
   15350     138.1224   -1292.5684    135793.71   -34873.992    2621.3999   -37495.392    44.188989    243.81074 
   15400    134.34503    -1387.394    135730.05   -34863.686    2549.7098   -37413.395      44.2612      237.143 
   15450    136.94722   -1317.4458    135661.86   -34829.527    2599.0964   -37428.624    44.425221    241.73634 
   15500     135.6933   -1205.5723    135632.52   -34814.054    2575.2985   -37389.353    44.264875    239.52295 
   15550     137.0929    -1134.689    135635.26   -34827.867    2601.8612   -37429.728    44.351349    241.99348 
   15600     139.4861   -1118.0878    135672.54   -34790.099    2647.2812    -37437.38      44.5581     246.2179 
   15650    134.55475   -1221.0356    135666.75   -34874.194      2553.69   -37427.884    44.835839    237.51319 
   15700    138.64733   -906.69981     135707.9   -34844.257    2631.3624   -37475.619    44.839669    244.73733 
   15750    137.98015    -1156.851    135713.36   -34804.069       2618.7   -37422.769    44.985244    243.55963 
   15800    136.91886   -882.15227    135717.32   -34855.926    2598.5581   -37454.484    45.136182    241.68627 
   15850    138.29382   -1255.5013    135846.32   -34879.089    2624.6532   -37503.742     45.15857    244.11332 
   15900    138.77189   -1216.0583    135822.94   -34899.206    2633.7263   -37532.932    45.392189     244.9572 
   15950    139.78724   -1259.4022    135826.33   -34851.481    2652.9965   -37504.477    45.503388    246.74947 
   16000    136.25767   -1257.6538    135707.51    -34880.26    2586.0094   -37466.269    45.632606    240.51915 
   16050     138.4168   -994.77709    135643.76    -34832.55    2626.9872   -37459.538    45.714917    244.33041 
   16100    137.43583   -1557.3945    135674.16   -34856.962    2608.3695   -37465.331    45.924915    242.59881 
   16150    138.96012   -1345.8292    135641.15   -34842.218    2637.2988   -37479.517    46.094573    245.28946 
   16200    136.48358   -1473.3815    135628.32   -34842.592     2590.297   -37432.889    46.220278    240.91793 
   16250    139.67349   -1281.2098    135554.69   -34847.444    2650.8377   -37498.282    46.085192    246.54868 
   16300    138.04732   -1315.3068    135573.96     -34887.5    2619.9749   -37507.475    46.116074     243.6782 
   16350    134.91122   -1296.2325    135563.81   -34865.434    2560.4555   -37425.889    46.260189    238.14244 
   16400    136.96259   -1104.3493    135585.93   -34919.376     2599.388   -37518.764    46.382979    241.76346 
   16450    133.59083   -1316.1898    135658.66   -34905.479    2535.3961   -37440.875    46.489829    235.81171 
   16500     135.9317   -1233.0882    135656.01   -34906.494     2579.823   -37486.317    46.461092    239.94376 
   16550    137.01392   -1341.4576    135668.91   -34854.828    2600.3622    -37455.19    46.496607    241.85407 
   16600    137.24218   -1282.0624    135670.61   -34886.752    2604.6943   -37491.446    46.723882    242.25699 
   16650    137.52795   -1146.0572     135639.6   -34855.338    2610.1179   -37465.456    46.915919    242.76143 
   16700    138.21547   -1386.4707       135626   -34876.778    2623.1662   -37499.944    47.051718    243.97502 
   16750    138.31373   -1220.0194    135637.06   -34900.077     2625.031   -37525.108    47.148254    244.14846 
   16800    138.15518   -1239.6703    135760.47   -34914.465    2622.0219   -37536.486    47.322931    243.86859 
   16850    137.63402   -909.04793    135745.87   -34929.122     2612.131   -37541.253    47.441366    242.94866 
   16900    134.72555    -1313.832    135753.33    -34940.96    2556.9316   -37497.892    47.489865    237.81468 
   16950    136.85802   -1343.2952    135624.43   -34934.687    2597.4033    -37532.09    47.761525    241.57887 
   17000    136.00892   -1416.3966    135556.91   -34884.959    2581.2884   -37466.247    47.983324    240.08006 
   17050    138.52216   -1153.9111    135523.88   -34893.023    2628.9868    -37522.01    47.975677    244.51638 
   17100    137.41224   -1309.6999    135546.92   -34850.352    2607.9219   -37458.274    48.013926    242.55718 
   17150    139.23315   -1241.6554    135546.68   -34867.109    2642.4805   -37509.589     48.21942     245.7714 
   17200     137.3519   -1129.6484    135505.84   -34890.283    2606.7766   -37497.059    48.358192    242.45066 
   17250    137.53259   -1430.3902    135537.46    -34949.55     2610.206   -37559.756    48.471575    242.76962 
   17300    135.75746   -1099.3221    135481.75   -34953.153    2576.5162   -37529.669    48.477378     239.6362 
   17350    133.90135   -1227.8085    135583.83   -34967.328    2541.2893   -37508.618    48.509997    236.35983 
   17400    133.43663   -1289.3152    135566.42    -34985.18    2532.4695    -37517.65    48.648881    235.53952 
   17450    135.78372   -1302.0582    135582.67   -34972.579    2577.0144   -37549.594    48.654776    239.68254 
   17500    135.89897   -1268.9566    135612.26   -34923.413    2579.2017   -37502.614    48.644501    239.88598 
   17550    139.44464   -1115.9352    135695.35   -34892.543    2646.4944   -37539.037    48.802094    246.14473 
   17600    137.64535   -1353.8143    135701.54   -34847.792     2612.346   -37460.138    49.049867    242.96865 
   17650    137.00553   -1086.3856    135699.64   -34858.003     2600.203   -37458.206    49.319352    241.83926 
   17700    138.71983   -1395.3717    135685.44   -34868.046    2632.7384   -37500.784    49.557414    244.86531 
   17750    134.39427    -1142.586    135657.54   -34891.869    2550.6444   -37442.513    49.796149    237.22992 
   17800    135.77831   -1176.9574    135707.79   -34881.749    2576.9117   -37458.661    49.961458    239.67299 
   17850    136.90777   -1133.3129     135708.6   -34825.336    2598.3475   -37423.683    50.109937    241.66669 
   17900    135.14732   -1086.8569    135747.05   -34912.307    2564.9362   -37477.244    50.139279    238.55918 
   17950    137.71594   -1184.6945    135701.75    -34917.84    2613.6857   -37531.526    50.374191    243.09326 
   18000    134.27551   -1231.2456    135742.47   -34946.324    2548.3904   -37494.714     50.36314    237.02028 
   18050    136.10544   -1271.0447     135691.1   -34908.839    2583.1204    -37491.96    50.632599    240.25045 
   18100    136.10881   -1192.2066    135689.49   -34872.006    2583.1843   -37455.191    50.791737    240.25639 
   18150    139.24949    -1228.565    135662.57   -34885.075    2642.7906   -37527.865    50.869583    245.80025 
   18200    135.84355   -1141.0046    135614.35   -34964.011    2578.1499   -37542.161    51.128243    239.78815 
   18250     134.9706   -816.77415    135721.17   -34915.977    2561.5823   -37477.559    51.154264    238.24724 
   18300    137.10612   -1193.4337    135805.38   -34890.847     2602.112   -37492.959    51.134454    242.01682 
   18350    135.39818   -1171.4322    135810.32   -34866.493    2569.6973   -37436.191    51.290247    239.00199 
   18400    139.21666   -1230.1119    135827.83    -34877.55    2642.1677   -37519.717     51.29148    245.74231 
   18450    137.02565   -1180.6721    135781.36   -34822.725    2600.5847   -37423.309    51.395525    241.87477 
   18500    138.68089   -991.16484    135676.31   -34857.057    2631.9992   -37489.056    51.370697    244.79656 
   18550    136.96134     -952.091    135698.01   -34910.696    2599.3643    -37510.06    51.254013    241.76126 
   18600    136.22982   -1268.3604    135741.66   -34866.086    2585.4808   -37451.567    51.209994    240.46999 
   18650    133.20852   -1263.0948    135732.58   -34892.065    2528.1402   -37420.205    51.373884    235.13686 
   18700    135.36636   -1258.7943    135681.94   -34884.031    2569.0934   -37453.124    51.404428    238.94582 
   18750    136.35945   -1409.1881     135627.1   -34890.352     2587.941   -37478.293     51.46903    240.69881 
   18800    133.08523   -1315.5969    135623.46   -34886.431    2525.8004   -37412.232    51.659108    234.91924 
   18850    135.30143   -1102.7862    135631.56   -34875.632    2567.8611   -37443.493    51.715916    238.83122 
   18900    133.58577   -1423.7095    135586.98    -34862.04    2535.2999    -37397.34    51.978253    235.80276 
   18950    137.44436   -854.44294       135591   -34840.685    2608.5314   -37449.216    51.993629    242.61387 
   19000     135.7415    -1023.208    135686.27   -34861.042    2576.2131   -37437.255    52.128867    239.60802 
   19050    138.36624   -1190.0532    135754.68   -34842.452    2626.0277   -37468.479    52.190728    244.24116 
   19100    134.14016   -1078.2685    135825.55   -34893.866    2545.8216   -37439.688    52.156916    236.78136 
   19150    137.04031   -1152.3096    135813.64   -34914.847    2600.8631    -37515.71     52.22057    241.90066 
   19200    135.37317   -1102.4212    135934.38   -34956.406    2569.2226   -37525.628    52.347082    238.95785 
   19250    133.84431   -1197.8074    135943.57   -34964.478    2540.2067   -37504.685    52.472342    236.25914 
   19300    136.50036   -1208.3391    135896.66   -34962.054    2590.6154   -37552.669    52.640985    240.94754 
   19350    136.66767   -1223.7988    135903.37     -34923.3    2593.7908   -37517.091    53.006352    241.24288 
   19400    135.06823   -1098.5171    135948.14   -34903.465    2563.4353     -37466.9    53.226012    238.41958 
   19450    134.73889   -1090.3412    136094.43    -34957.68    2557.1847   -37514.865    53.332402    237.83823 
   19500    136.00148    -1318.475    136104.26    -34960.02    2581.1472   -37541.167    53.475413    240.06693 
   19550    134.65684   -1318.9123    136007.84    -34982.24    2555.6277   -37537.868    53.727606    237.69341 
   19600    134.53933    -1198.858     135975.4   -34942.405    2553.3974   -37495.802    53.837068    237.48597 
   19650    138.05492   -992.60751    136017.35   -34924.139    2620.1191   -37544.258    53.993401    243.69162 
   19700     137.1954   -1282.7238    135974.77   -34918.439    2603.8065   -37522.245    53.720328    242.17442 
   19750    134.84021   -1366.6107    135953.97   -34939.786    2559.1077   -37498.894    54.064554    238.01708 
   19800    135.91455   -1313.5411    135960.94   -34963.884    2579.4974   -37543.381    54.092233    239.91348 
   19850    134.06521   -1317.7914    135996.91   -34991.109    2544.3991   -37535.509    54.361963    236.64906 
   19900    134.13779   -1088.1368     135964.3   -35066.714    2545.7767   -37612.491     54.69228    236.77719 
   19950    136.81216   -1192.1896    136004.54   -35012.608     2596.533   -37609.141    54.794539    241.49793 
   20000    135.09078   -1082.7742    135947.55   -35009.749    2563.8632   -37573.612    54.870507    238.45938 
   20050    135.19513   -1045.1744    135957.53   -35065.672    2565.8438   -37631.516    54.970814    238.64359 
   20100    135.00416   -1128.0894    135944.33   -35056.463    2562.2193   -37618.682    55.023723    238.30648 
   20150     134.2452     -1055.39    136026.66   -35053.037    2547.8152   -37600.852    55.012822    236.96678 
   20200     134.0497   -1107.1379    136051.23   -35059.638    2544.1049   -37603.743    55.028408     236.6217 
   20250    134.43897   -1158.8107    136078.11   -35009.779    2551.4927   -37561.272    55.199315    237.30882 
   20300    133.95199   -1222.6854    136100.58   -34990.384    2542.2504   -37532.635    55.329485    236.44922 
   20350    133.71212   -1222.8788    136079.64   -34982.038    2537.6979   -37519.736     55.35646     236.0258 
   20400    133.85552   -1352.1648    136118.11   -34982.943    2540.4195   -37523.363    55.357559    236.27893 
   20450    135.29139   -1239.4615    136049.83   -34928.084    2567.6705   -37495.754    55.368164    238.81349 
   20500     134.9851   -1520.9146    135940.83   -34943.779    2561.8575   -37505.637    55.662252    238.27283 
   20550    134.41947    -1257.038    135941.06   -34910.261    2551.1226   -37461.383    55.779084     237.2744 
   20600    133.14753   -1237.2344    135899.57   -34924.846    2526.9826   -37451.829    55.820669    235.02919 
   20650     138.1114   -992.61291    135964.07   -34879.302     2621.191   -37500.493    55.854897    243.79131 
   20700    136.48153   -1207.6125    135902.95   -34894.421    2590.2581   -37484.679    55.935281    240.91431 
   20750    132.56042    -1077.553    135846.27   -34875.808    2515.8401   -37391.648    56.142512    233.99285 
   20800    137.23092   -1184.1605    135792.48   -34832.134    2604.4805   -37436.614    56.069059    242.23711 
   20850    136.74303   -1217.8355    135700.16   -34840.469    2595.2209    -37435.69    56.141166    241.37589 
   20900    135.01776   -1171.9821    135640.08   -34876.955    2562.4774   -37439.433    56.307331    238.33049 
   20950    131.82173   -846.55857    135713.48   -34921.438    2501.8206   -37423.259    56.335055    232.68893 
   21000    135.17994   -1321.0825    135696.32   -34916.123    2565.5554   -37481.679    56.447655    238.61677 
   21050    133.05725   -1081.3744    135586.87   -34921.264    2525.2692   -37446.533    56.373823    234.86983 
   21100    134.54126   -1094.9862    135629.76   -34937.437     2553.434   -37490.871     56.42046    237.48938 
   21150    134.07561    -1291.013    135549.58   -34929.205    2544.5965   -37473.801    56.555395    236.66742 
   21200    136.58456   -1003.1755     135541.6   -34905.338    2592.2135   -37497.552    56.654028    241.09618 
   21250    132.77287   -1133.0103    135505.56   -34941.782     2519.872   -37461.654     56.55753    234.36785 
   21300    137.86276   -902.14931    135550.66   -34958.479    2616.4721   -37574.951    56.770468    243.35242 
   21350    138.67703   -1090.1142    135512.59   -34919.798    2631.9261   -37551.724     56.92986    244.78976 
   21400    133.71441   -1158.4161    135508.37    -34929.12    2537.7413   -37466.861    56.921313    236.02984 
   21450    133.88264   -1026.1738    135488.11   -34978.036    2540.9341   -37518.971    56.852144    236.32679 
   21500     134.4168   -1270.2184    135551.37   -34971.955    2551.0719   -37523.027    56.842077    237.26969 
   21550    133.78766   -1092.9385    135525.95   -34986.322    2539.1316   -37525.453    57.008169    236.15914 
   21600    137.39957   -1238.4501    135514.41   -34946.709    2607.6815   -37554.391     57.28074    242.53482 
   21650    136.41806   -1123.4403    135538.59   -34934.096    2589.0534    -37523.15    57.242593    240.80226 
   21700    135.25548   -948.48386    135536.44   -35006.506     2566.989   -37573.495    57.373985     238.7501 
   21750    132.00537   -1175.3577     135568.1   -35057.033    2505.3058   -37562.339    57.599177    233.01308 
   21800    135.43879   -829.19146    135530.61   -35010.238    2570.4681   -37580.706    57.660572    239.07369 
   21850    137.05122   -999.82489    135587.64   -34968.323      2601.07   -37569.394    57.829473     241.9199 
   21900    137.11785   -1156.2657    135627.34   -34931.299    2602.3346   -37533.634    57.825665    242.03752 
   21950    137.35726   -1329.3584    135593.13   -34897.188    2606.8784   -37504.066     57.82242    242.46013 
   22000     134.8157   -1023.6371    135542.11   -34886.246    2558.6426   -37444.889    57.962799    237.97382 
   22050    138.99492   -1245.4147    135541.99   -34869.183    2637.9591   -37507.142     58.09814    245.35088 
   22100    134.93003   -1288.6344    135524.49   -34911.339    2560.8125   -37472.151    58.404859    238.17564 
   22150    138.52579   -1099.6697    135509.87   -34869.838    2629.0557   -37498.894    58.767974    244.52279 
   22200    138.15869   -1032.9989    135544.39   -34911.563    2622.0885   -37533.651    58.785136    243.87479 
   22250    138.29776   -1128.6399    135618.32    -34906.99     2624.728   -37531.718    58.841383    244.12028 
   22300    137.33468   -884.51706       135675     -34866.8    2606.4498    -37473.25    59.142942    242.42026 
   22350    139.63597   -1108.7514    135715.69    -34826.78    2650.1257   -37476.905     59.16101    246.48246 
   22400    139.82524   -1077.4496    135706.14   -34854.964    2653.7177   -37508.682    59.137347    246.81655 
   22450    136.15227   -940.37066    135769.97    -34842.37     2584.009   -37426.379    59.091935     240.3331 
   22500    136.75582   -998.73324    135850.03   -34881.967    2595.4637   -37477.431    59.321486    241.39847 
   22550    134.98425   -1013.7703    135915.48   -34864.279    2561.8415    -37426.12    59.425153    238.27135 
   22600    137.77022   -1137.1433    135959.79    -34894.37    2614.7158   -37509.086    59.423821    243.18907 
   22650    136.88958   -1271.0866    135939.56   -34887.901    2598.0024   -37485.904    59.692578    241.63459 
   22700    137.43552   -988.85441    135987.83   -34891.695    2608.3636   -37500.058    59.704855    242.59826 
   22750     136.3797   -1448.4615    135967.61    -34895.46    2588.3255   -37483.786    59.719487    240.73456 
   22800    138.92979   -1205.5638    135936.29   -34889.608    2636.7232   -37526.331    59.765436    245.23593 
   22850    137.04055   -1340.6915    135963.99   -34904.439    2600.8676   -37505.306    59.928506    241.90108 
   22900    136.92947   -1291.7298     135914.3   -34891.033    2598.7594   -37489.792     60.12957      241.705 
   22950    137.32914   -1256.4389    135904.69    -34857.85    2606.3447   -37464.195    60.186217    242.41049 
   23000    138.85263   -1029.3929    135928.59   -34874.729    2635.2587   -37509.988    60.133217    245.09971 
   23050    137.20945   -1314.3152    135921.79   -34909.387    2604.0731    -37513.46    60.312058    242.19921 
   23100    135.89573   -1184.2149    135927.96   -34956.019    2579.1403   -37535.159    60.503126    239.88027 
   23150    134.75057   -1224.0623    135936.76   -34939.398    2557.4065   -37496.805    60.449838    237.85885 
   23200    136.93229   -1250.0785    135901.22   -34939.127    2598.8129    -37537.94       60.461    241.70997 
   23250    138.30349    -1265.801    135841.24    -34870.14    2624.8367   -37494.977     60.64264    244.13039 
   23300    136.49168   -1072.5941    135831.64   -34909.521    2590.4506   -37499.971    60.670762    240.93222 
   23350    137.87892   -1241.7366    135847.77   -34956.426    2616.7789   -37573.205    60.796175    243.38095 
   23400    137.42465   -1212.2235    135821.62   -34914.302    2608.1574   -37522.459    60.941208    242.57908 
   23450    137.66657   -1222.6345    135781.05   -34924.843    2612.7488   -37537.592    60.994051    243.00612 
   23500    137.01178   -1018.8957    135780.77   -34958.191    2600.3216   -37558.513      61.1789     241.8503 
   23550    134.26094   -1199.3488     135795.3   -34974.497    2548.1139   -37522.611    61.106353    236.99457 
   23600    135.79983   -1105.6954    135766.91   -34982.979    2577.3203     -37560.3    61.064445    239.71099 
   23650    133.73595   -1150.5561    135837.44   -34997.767    2538.1502   -37535.917    61.034619    236.06787 
   23700    135.08238   -905.08545    135825.14   -35005.661    2563.7038   -37569.365    61.042634    238.44456 
   23750    133.79911   -806.52324    135922.74   -34966.016    2539.3489   -37505.365    61.191363    236.17935 
   23800    133.39578   -969.65346    135970.25   -34907.046    2531.6942   -37438.741     61.36744    235.46741 
   23850    138.39811   -1196.4603    135954.61   -34926.179    2626.6324   -37552.812    61.529038     244.2974 
   23900    134.39706    -1188.198    135952.33   -34951.113    2550.6973    -37501.81    61.492466    237.23485 
   23950    138.97133   -1018.1552     136038.1   -34877.854    2637.5115   -37515.365    61.553798    245.30925 
   24000    138.76912   -1072.6812    136069.11   -34885.087    2633.6738   -37518.761    61.666121    244.95231 
   24050    136.86235   -1304.3516    136047.75   -34884.399    2597.4855   -37481.884    61.662822    241.58651 
   24100    136.78091   -1083.3766    136069.19   -34884.505    2595.9399   -37480.445     61.69039    241.44276 
   24150    138.66954   -1127.3555    136032.61   -34948.379     2631.784   -37580.163     61.91512    244.77654 
   24200    136.29629   -1386.8643    135952.65   -34969.447    2586.7424    -37556.19     61.72174    240.58732 
   24250    137.61052   -1076.7996    135930.87   -34926.378    2611.6849   -37538.063    61.804318    242.90717 
   24300    137.37332   -1173.9126    135925.34   -34956.475    2607.1832   -37563.658    61.894803    242.48847 
   24350    135.22964   -1407.0674    135901.12   -35013.207    2566.4986   -37579.706    61.979306    238.70449 
   24400    137.08788   -1245.9304     135847.2   -35019.994    2601.7658    -37621.76    62.238634    241.98462 
   24450    135.61006   -1130.1712    135867.78   -35049.868    2573.7185   -37623.587    62.183698      239.376 
   24500    134.77789   -1178.5777     135946.2   -35023.855    2557.9251    -37581.78    62.270797    237.90708 
   24550    138.32303   -1008.3304    135984.04   -34999.694    2625.2075   -37624.901    62.252701    244.16488 
   24600     137.0749   -785.27791     136030.3   -35033.047    2601.5196   -37634.567    62.274037    241.96171 
   24650    136.52428   -1009.4941    136056.31   -35036.894    2591.0695   -37627.964    62.373986    240.98977 
   24700    136.09283   -918.92869    136056.34   -35087.978    2582.8811   -37670.859    62.561205    240.22819 
   24750     135.9693   -1073.2269    136149.72   -35114.764    2580.5366     -37695.3    62.604876    240.01013 
   24800    133.28179   -894.52669    136210.42   -35137.496    2529.5307   -37667.027    62.754527    235.26619 
   24850    134.53774   -1409.5182    136206.55   -35100.593    2553.3672    -37653.96     63.11114    237.48317 
   24900    139.34333   -1141.2939    136175.63   -35070.357    2644.5717   -37714.928    63.398505     245.9659 
   24950     136.9568   -1258.6948    136121.76     -35108.7    2599.2781   -37707.978    63.398841    241.75324 
   25000    134.00356   -1188.8029    136155.92   -35139.864    2543.2291   -37683.093    63.435961    236.54024 
   25050    135.56114   -1187.4614    136200.67    -35156.39    2572.7902   -37729.181    63.523042    239.28966 
   25100    136.35592   -1348.6773    136253.73   -35100.539    2587.8742   -37688.414    63.646424    240.69259 
   25150    134.84321   -1221.3009    136223.52   -35096.131    2559.1647   -37655.296    63.698944    238.02238 
   25200    136.09382   -1102.2843    136209.34    -35099.14    2582.8999   -37682.039    63.465455    240.22994 
   25250    134.16652    -1166.697    136072.59   -35125.286    2546.3219   -37671.608    63.862542    236.82789 
   25300    136.16214   -989.54718    136078.24   -35116.472    2584.1965   -37700.669    63.872706    240.35053 
   25350    135.94373   -1052.8434    136151.38    -35078.06    2580.0513   -37658.112    64.101302      239.965 
   25400    136.94218    -921.9682    136186.11   -35064.221    2599.0007   -37663.221    64.364882    241.72744 
   25450    134.08376   -1075.5513    136240.82   -35138.974    2544.7512   -37683.725    64.630317    236.68181 
   25500    133.45591   -1201.2825    136206.42   -35202.156    2532.8353   -37734.991    64.717388    235.57354 
   25550    135.93655   -934.81338     136186.8   -35190.572    2579.9149   -37770.487    64.915674    239.95231 
   25600    133.36365   -1073.5487    136234.32   -35158.866    2531.0844    -37689.95    65.076793    235.41069 
   25650    134.87707   -1079.4358    136157.84   -35169.534    2559.8074   -37729.341    65.221856    238.08215 
   25700    132.87098   -860.96467    136232.74   -35196.963     2521.734   -37718.697    65.471175    234.54103 
   25750    131.93079   -1128.0285    136164.44   -35214.966    2503.8903   -37718.856     65.51753    232.88143 
   25800    133.07514   -1187.7136    136094.27   -35222.893    2525.6087   -37748.502    65.453875    234.90141 
   25850    133.76898   -895.21328    136133.22   -35217.636    2538.7771   -37756.413    65.412206    236.12617 
   25900    133.51757   -1231.7652    136108.79   -35206.715    2534.0056   -37740.721    65.499289    235.68239 
   25950    133.66194   -1137.8203    136000.96   -35216.758    2536.7457   -37753.503    65.598067    235.93723 
   26000    132.86485   -1153.7301    136032.34   -35168.484    2521.6177   -37690.102    65.724442    234.53021 
   26050    134.93314    -1331.397    136041.17   -35095.459    2560.8715   -37656.331    65.851314    238.18112 
   26100    138.94151   -1041.5018    135988.86   -35042.927    2636.9456   -37679.873    65.779226    245.25661 
   26150    137.24136   -1289.1118    135942.74   -35039.174    2604.6788   -37643.852    65.757712    242.25555 
   26200    134.80056   -1188.0743    135928.83   -35064.796    2558.3553   -37623.151    65.502391     237.9471 
   26250    134.56563   -1303.4058    135812.22     -35065.8    2553.8965   -37619.697    65.695581     237.5324 
   26300    136.29879   -1126.6994    135712.46   -35058.535    2586.7899   -37645.325    65.756866    240.59174 
   26350    135.50312   -1149.2337    135680.41    -35081.84     2571.689   -37653.529    65.884353    239.18724 
   26400    135.51155   -894.15321    135658.37   -35116.043     2571.849   -37687.892      65.9859    239.20212 
   26450      132.417   -1140.6959    135713.72   -35114.801    2513.1181   -37627.919     66.18269    233.73968 
   26500    134.15551   -1090.1036    135681.47   -35119.808     2546.113   -37665.921    66.366628    236.80847 
   26550    134.16036   -1084.8676    135696.46   -35128.751     2546.205   -37674.956    66.599892    236.81702 
   26600    135.61288   -1176.6409    135676.61   -35100.504    2573.7722   -37674.276    66.476756    239.38099 
   26650    134.44774    -1262.997    135675.89   -35084.459    2551.6592   -37636.119    66.500531    237.32431 
   26700    133.86797   -1088.2017    135619.07    -35047.81    2540.6558   -37588.466    66.448711     236.3009 
   26750    137.35466    -1339.373    135658.75   -35042.148     2606.829   -37648.977    66.615371    242.45553 
   26800    135.52355   -1162.0012    135634.99   -35051.898    2572.0767   -37623.974    66.617411     239.2233 
   26850    137.01913   -1276.2181    135683.84   -34958.517    2600.4612   -37558.978    66.513381    241.86327 
   26900    139.85216    -924.3703    135669.29   -34946.752    2654.2286   -37600.981    66.574854    246.86407 
   26950     137.7478   -1133.5919    135687.64   -34959.979    2614.2904    -37574.27    66.687247     243.1495 
   27000    136.58572   -1161.5513     135677.8   -34943.879    2592.2354   -37536.114    66.791754    241.09821 
   27050    141.03195   -1154.6438    135657.25   -34958.336    2676.6197   -37634.956    66.751639    248.94662 
   27100    139.34462    -1353.855    135645.28   -34941.347    2644.5961   -37585.943    66.759037    245.96817 
   27150    135.55843   -1191.9894    135594.83   -35015.782    2572.7388   -37588.521    66.776707    239.28488 
   27200    135.55047   -1150.7663    135689.34   -35048.628    2572.5876   -37621.216    66.974055    239.27082 
   27250    133.51407   -1044.2481     135767.3   -35079.392    2533.9392   -37613.332    67.172287    235.67621 
   27300    134.20242    -1416.932    135765.61   -35106.369    2547.0032   -37653.373    67.212191    236.89126 
   27350    134.98186   -1148.5086    135850.77    -35068.26    2561.7961   -37630.056    67.308855    238.26712 
   27400    135.42537    -1075.029    135898.21   -35080.853    2570.2134   -37651.066    67.480116    239.04999 
   27450    134.97708   -1138.8502     135928.1    -35084.02    2561.7053   -37645.726    67.734061    238.25867 
   27500    135.39955   -1269.4454    135907.77   -35109.713    2569.7234   -37679.437     67.72306    239.00442 
   27550    137.48517   -1278.2873    135853.86   -35093.613     2609.306   -37702.919    67.920398    242.68592 
   27600    136.36119   -1136.2485    135685.71   -35089.427    2587.9742   -37677.402    68.055694    240.70189 
   27650    136.15161   -1034.5468     135687.1   -35059.514    2583.9966    -37643.51    67.902779    240.33194 
   27700    136.60827   -1010.6141     135781.9   -35094.862    2592.6635   -37687.526    67.658801    241.13803 
   27750    137.78769   -946.20771    135732.26   -35064.856    2615.0474   -37679.903    67.850135    243.21991 
   27800     135.9317   -1301.4433    135743.44   -35070.086     2579.823   -37649.909    67.990899    239.94376 
   27850    137.54349   -1163.6987    135747.77   -35046.622    2610.4128   -37657.035    68.022863    242.78885 
   27900    131.84059   -1083.3203    135790.48   -35106.691    2502.1785   -37608.869    68.224974    232.72222 
   27950    134.29321   -904.32562    135842.49   -35138.696    2548.7263   -37687.423    68.500172    237.05153 
   28000    137.30078   -1178.6006     135926.3   -35105.213    2605.8064   -37711.019    68.435714    242.36042 
   28050    139.68979   -1261.2407    135871.43   -35093.931    2651.1471   -37745.078    68.488407    246.57747 
   28100    135.47722   -1179.2111    135836.11   -35062.235    2571.1975   -37633.433    68.387021    239.14153 
   28150    138.90615   -1139.9852    135775.36    -35034.72    2636.2745   -37670.995    68.172533     245.1942 
   28200     139.4355   -1277.6543    135815.15   -35053.386     2646.321   -37699.707    68.424836     246.1286 
   28250    133.69526   -1015.5487    135861.89   -35032.486    2537.3779   -37569.864    68.622158    235.99603 
   28300     136.4662   -1218.4377    135884.69   -35085.346    2589.9671   -37675.313    68.724159    240.88724 
   28350    134.17705   -1268.5394    135885.35   -35146.006    2546.5217   -37692.528    68.647484    236.84649 
   28400    136.95495   -1091.8227    135925.67   -35092.628    2599.2431   -37691.871    68.809573    241.74998 
   28450    132.34089   -1060.5501    135924.71   -35109.932    2511.6737   -37621.605    68.901256    233.60534 
   28500     134.7129   -1058.9669    135997.45   -35115.903    2556.6916   -37672.595    69.058625    237.79236 
   28550    133.37778   -1198.9938    135973.71   -35140.947    2531.3526   -37672.299    69.089027    235.43564 
   28600    132.97612    -1222.021    135972.66   -35129.522    2523.7296   -37653.252    69.154755    234.72664 
   28650    135.17066   -1101.4897    136007.11   -35079.994    2565.3794   -37645.373    69.153919    238.60039 
   28700     133.2391   -1166.8962    136049.04   -35067.381    2528.7206   -37596.102    69.258972    235.19084 
   28750    135.53856   -1307.1621    136121.74   -35036.403    2572.3616   -37608.765    69.404213    239.24979 
   28800    132.13947   -1356.4502    136036.54   -35103.688    2507.8509   -37611.539    69.494374    233.24979 
   28850    134.48432   -1129.0142    136013.42   -35070.611    2552.3534   -37622.964    69.568999    237.38888 
   28900    134.73879   -1093.3818    136074.73   -35027.859    2557.1829   -37585.042    69.743654    237.83805 
   28950    138.82968   -1108.5804    136144.54   -35039.073    2634.8232   -37673.896    69.660681    245.05921 
   29000    135.67398   -1249.8195    136205.34   -35055.243    2574.9318   -37630.175    69.750339    239.48884 
   29050    132.86093   -1218.7726    136166.13   -35035.804    2521.5434   -37557.347    69.916727    234.52331 
   29100    136.03398   -1303.3337    136158.74   -35042.615     2581.764   -37624.379     70.15339     240.1243 
   29150    135.82342   -1383.0146    136141.78   -35054.623    2577.7678   -37632.391    70.451406    239.75262 
   29200    135.76589   -1289.2833    136166.03   -35067.076     2576.676   -37643.752    70.463697    239.65107 
   29250    134.34448   -1261.5645    136211.05    -35050.38    2549.6995   -37600.079    70.638437    237.14204 
   29300     137.0764   -1232.5944    136168.36   -34967.635     2601.548   -37569.183    70.992501    241.96436 
   29350    137.63235   -1128.3767    136156.79   -35011.523    2612.0993   -37623.622    71.068929    242.94571 
   29400    135.41591   -1068.0552    136163.86   -35020.701    2570.0339   -37590.735    71.382765     239.0333 
   29450    137.34163   -1203.4292    136234.47   -34965.022    2606.5817   -37571.604    71.388846    242.43253 
   29500    137.53181   -1191.9159    136332.96   -35003.046    2610.1911   -37613.237    71.440085    242.76824 
   29550    135.36089   -1226.7317       136374   -35008.092    2568.9896   -37577.082     71.54589    238.93617 
   29600    136.16594   -1234.2194    136277.88   -35051.788    2584.2685   -37636.056    71.570567    240.35723 
   29650    134.85056   -1330.4807    136268.15   -35036.404    2559.3042   -37595.708    71.787336    238.03535 
   29700    133.35493   -1261.6955    136276.63   -35049.972    2530.9189   -37580.891    71.711727    235.39529 
   29750    134.62389   -1283.6349    136280.72   -35065.199    2555.0023   -37620.202    71.843319    237.63525 
   29800    135.34412   -1315.3882    136162.12   -35070.734    2568.6713   -37639.405    72.117568    238.90657 
   29850    130.93804   -1163.1336    136088.87   -35112.895    2485.0492   -37597.944    72.309791    231.12906 
   29900    134.11975   -1154.8625    136026.12   -35094.837    2545.4344   -37640.271    72.211769    236.74535 
   29950    133.79736   -1129.0746    136062.84   -35071.374    2539.3158   -37610.689    72.256658    236.17627 
   30000    133.03048    -1163.736    136056.15   -35084.183    2524.7612   -37608.944    72.263009    234.82258 
   30050    137.28594   -1371.2938    136035.02   -34990.511    2605.5248   -37596.036    72.310939    242.33423 
   30100     136.8946   -1337.3359    136064.27   -35022.664    2598.0976   -37620.762     72.47017    241.64344 
   30150    135.37615   -1168.6272     136095.2   -35031.738    2569.2792   -37601.017    72.459471    238.96311 
   30200    135.84157   -1056.7793    136052.75   -35073.903    2578.1124   -37652.015    72.581435    239.78466 
   30250    135.79354   -1336.8816    136082.04   -35060.341    2577.2008   -37637.541    72.390456    239.69988 
   30300    134.89217   -1285.9236    136031.56   -35052.392    2560.0939   -37612.486    72.221433     238.1088 
   30350    135.23332   -932.05124    136052.01    -35025.23    2566.5686   -37591.799    72.274105      238.711 
   30400    138.74671   -984.76978     136075.1   -34998.539    2633.2484   -37631.787    72.306216    244.91275 
   30450    136.41317   -908.58269    136070.04   -34975.178    2588.9607   -37564.139    72.306972    240.79364 
   30500     135.9637   -1004.2962    136125.32   -34971.128    2580.4303   -37551.558    72.177273    240.00024 
   30550    134.86213   -1182.7419    136093.99   -34981.932    2559.5237   -37541.455     71.99934    238.05577 
   30600    134.93631   -1160.8212    136004.77   -34995.535    2560.9316   -37556.467    71.883022    238.18671 
   30650    134.34833   -1351.9425    135949.05   -35029.317    2549.7724    -37579.09    71.946795    237.14882 
   30700     134.9967   -1262.6424    135850.41   -35014.349    2562.0778   -37576.426    72.055548    238.29332 
   30750     134.2259   -1200.6666    135814.77    -35033.35    2547.4488   -37580.799    72.115846    236.93271 
   30800    136.67748   -1154.2958    135801.73   -35039.961    2593.9769   -37633.938    72.190205    241.26019 
   30850    133.90784   -1045.7719    135794.58    -35027.15    2541.4125   -37568.563    72.286918    236.37128 
   30900    137.63621   -1045.4779    135910.53   -35042.375    2612.1726   -37654.547    72.218966    242.95253 
   30950    135.84583   -985.18898    135924.86   -35023.156    2578.1932   -37601.349    72.331232    239.79218 
   31000    138.54643   -1099.9919    135997.48    -35010.32    2629.4475   -37639.768    72.471926    244.55923 
   31050     135.0888   -1222.8521       136022    -35052.51    2563.8258   -37616.336      72.7995    238.45589 
   31100    135.35713   -1311.0065    135996.46    -35064.62    2568.9182   -37633.538    72.893368    238.92953 
   31150    137.37611   -1112.5875    135979.77   -35044.861    2607.2361   -37652.097    72.976766     242.4934 
   31200    135.91897   -1249.7117    135904.22   -35044.422    2579.5813   -37624.003    73.142596    239.92129 
   31250    135.25572    -1202.508    135881.84   -35073.534    2566.9936   -37640.528    73.207088    238.75053 
   31300    138.90384   -1146.5975    135877.81   -35038.548    2636.2307   -37674.779    73.263322    245.19012 
   31350    136.20022   -1204.4144    135890.42   -34999.924    2584.9191   -37584.843    73.200065    240.41774 
   31400    138.19645   -1013.4204    135946.69   -34984.596    2622.8052   -37607.401    73.611821    243.94144 
   31450    136.27689   -1085.3145    135939.69   -35005.994    2586.3742   -37592.368    73.747532    240.55308 
   31500    137.46264   -1076.5027    135933.19   -34994.108    2608.8783   -37602.986    73.878842    242.64613 
   31550    137.31351   -1216.8869     135874.3   -34989.813     2606.048   -37595.861    74.096488     242.3829 
   31600    134.92645   -1042.3381    135874.31   -34997.058    2560.7444   -37557.802    73.991131    238.16931 
   31650    136.76985   -1261.5225       135837   -34957.834    2595.7299   -37553.564    74.033337    241.42323 
   31700    134.07326    -1254.724     135674.6   -35046.554    2544.5519   -37591.106    74.040501    236.66327 
   31750    136.23661   -1030.8405     135641.5   -35020.173    2585.6098   -37605.783     74.29824    240.48198 
   31800    133.67357   -1008.6802    135645.65   -35035.646    2536.9664   -37572.612    74.245792    235.95776 
   31850    137.15606   -1050.1273    135710.81   -35022.953    2603.0599   -37626.013    74.251807    242.10498 
   31900    136.96193   -1054.6482    135725.65   -35024.343    2599.3754   -37623.718     74.48736    241.76229 
   31950    136.34666   -1080.0762    135767.49   -34984.647    2587.6983   -37572.345    74.660523    240.67623 
   32000    136.71278   -965.66492    135841.96    -35007.05     2594.647   -37601.697    74.447395    241.32251 
   32050    134.84685   -1257.5787    135856.29   -35027.447    2559.2338   -37586.681    74.509554    238.02881 
   32100    136.88285    -1135.671    135874.67   -34988.924    2597.8747   -37586.799    74.351972    241.62271 
   32150    133.58459   -1232.8354    135953.34   -34995.098    2535.2776   -37530.375    74.416583    235.80069 
   32200    137.08134   -1260.1461    135987.56   -34897.346    2601.6417   -37498.987      74.4563    241.97308 
   32250    138.13397   -1134.2177    135943.64   -34914.098    2621.6195   -37535.718    74.553426    243.83117 
   32300     140.5073   -1235.0909    135988.68   -34842.806    2666.6625   -37509.469    74.619405    248.02052 
   32350    139.08509    -1225.982    135991.41   -34896.557    2639.6705   -37536.227    74.534053    245.51005 
   32400    139.30774   -1134.5081    135962.56   -34856.292    2643.8962   -37500.188    74.821881    245.90307 
   32450    140.44745   -1210.9921    135946.14   -34854.474    2665.5265       -37520    74.868721    247.91487 
   32500    137.78553   -1127.1827     135950.2   -34891.676    2615.0064   -37506.683     74.88878     243.2161 
   32550    136.22588   -1141.5126     136042.1   -34924.669    2585.4061   -37510.075    74.839848    240.46304 
   32600    136.11572   -993.21145    136103.69   -34892.931    2583.3155   -37476.247     74.90601    240.26859 
   32650    135.05361   -1454.7558    136032.76   -34947.377    2563.1578   -37510.534    75.079147    238.39377 
   32700    135.12687   -1187.3534    135926.15   -34966.948    2564.5483   -37531.496    75.270219    238.52309 
   32750    136.22051   -1339.5077    135875.28   -34951.902    2585.3042   -37537.206    75.547087    240.45356 
   32800    137.50752   -1211.8046    135800.76   -34985.662    2609.7302   -37595.392    75.434228    242.72537 
   32850    136.29322   -919.79072    135771.36   -35007.868    2586.6841   -37594.552    75.531715     240.5819 
   32900    134.07192   -1364.8079    135736.76   -35011.051    2544.5264   -37555.577     75.42381    236.66091 
   32950    136.62917   -1023.8706    135721.01    -34992.71    2593.0601    -37585.77    75.490466    241.17492 
   33000    136.65741   -1166.9584    135811.92   -35042.156     2593.596   -37635.752    75.440455    241.22476 
   33050    135.96668    -1270.843    135834.65   -34988.576    2580.4868   -37569.062    75.686077     240.0055 
   33100    133.42618   -1142.5945    135838.13   -35051.524    2532.2711   -37583.795    75.993203    235.52106 
   33150    136.32839   -1166.5865    135825.47    -35025.46    2587.3516   -37612.812     76.19487    240.64399 
   33200    136.33489    -947.3065    135734.27   -34984.842     2587.475   -37572.317    76.370048    240.65546 
   33250    135.18655    -1359.433    135744.56   -34985.564    2565.6808   -37551.245    76.264508    238.62843 
   33300    133.16825   -1247.9137    135634.19   -34989.929     2527.376   -37517.305    76.159622    235.06578 
   33350    133.89393    -965.0455    135601.84   -34981.959    2541.1485   -37523.108    76.128139    236.34673 
   33400    139.28844   -1116.3883    135696.64   -34953.767    2643.5299   -37597.297    76.318168      245.869 
   33450    133.91518   -1144.5464    135729.58   -35020.419    2541.5517   -37561.971    76.417846    236.38423 
   33500    134.64701   -1249.6793     135796.8   -35019.921     2555.441   -37575.362    76.746101    237.67604 
   33550    136.04715   -1192.8679     135823.1   -35002.273    2582.0141   -37584.287    76.679581    240.14755 
   33600    135.00977   -1445.3068    135753.66    -34995.49    2562.3259   -37557.816      76.6894     238.3164 
   33650    136.38081   -1144.8821    135711.22   -34952.016    2588.3466   -37540.363    76.757188    240.73653 
   33700    137.25807   -1290.1709    135784.55   -34937.786    2604.9959   -37542.782    76.997998    242.28504 
   33750    139.56199   -1177.2262    135838.87   -34875.057    2648.7215   -37523.778    76.863677    246.35186 
   33800    138.65696   -1157.9357    135913.53   -34892.837    2631.5452   -37524.382    76.940773    244.75433 
   33850    135.60014    -1257.729    135868.85   -34932.266    2573.5302   -37505.796    76.886793    239.35849 
   33900    135.76022   -1124.7893    135840.28   -34868.635    2576.5684   -37445.203    76.849855    239.64106 
   33950    136.28469   -1027.7419    135860.69    -34902.06    2586.5222   -37488.582    76.674651    240.56684 
[...]
   92000    135.11757   -1340.2293     135881.5   -34959.228    2564.3718   -37523.599    189.16014    238.50668 
   92050    138.02407    -1310.742    135852.04   -34951.406    2619.5337    -37570.94    189.54433    243.63717 
   92100    134.61476   -1240.2439    135765.27   -34973.423    2554.8289   -37528.252      189.832    237.61912 
   92150    137.84483   -1210.3955    135682.13   -34971.214     2616.132   -37587.346     190.1861    243.32078 
   92200    137.92329   -1274.1694    135660.37   -34912.644     2617.621   -37530.265    190.15303    243.45928 
   92250    139.17931   -1081.5991    135707.25    -34874.83    2641.4588   -37516.288    190.06678    245.67638 
   92300    138.44833   -1166.6965    135723.78   -34898.924    2627.5856   -37526.509    190.19758    244.38606 
   92350    135.61137   -1038.5253    135734.04   -34970.174    2573.7435   -37543.918    190.39729    239.37832 
   92400    135.42844   -1237.6473    135750.66   -34967.513    2570.2717   -37537.784     190.4367    239.05542 
   92450    137.89982    -870.6688    135797.87   -34973.919    2617.1756   -37591.095    190.55984    243.41785 
   92500    137.02968   -1180.4403       135873   -34958.106    2600.6613   -37558.767    190.88384    241.88188 
   92550    138.78326   -1084.6339    135849.24   -34970.049    2633.9422   -37603.991    190.97231    244.97728 
   92600    138.86575   -904.90246    135871.29    -34918.57    2635.5078   -37554.078     191.0714    245.12289 
   92650     140.8941   -954.87676    135838.37   -34930.538    2674.0034   -37604.542    191.23351    248.70328 
   92700    139.85278   -1156.7604    135848.01   -34962.371    2654.2405   -37616.611    191.47549    246.86517 
   92750    137.15201   -1400.4577    135779.58   -34958.329    2602.9831   -37561.312    191.44723    242.09783 
   92800    137.68125   -1240.7961    135713.05    -34908.28    2613.0273   -37521.307    191.36897    243.03202 
   92850    137.28845   -1424.8551    135606.65   -34926.172    2605.5725   -37531.745    191.33783    242.33867 
   92900    138.04626   -1187.8825    135570.98    -34909.46    2619.9548   -37529.415    191.34909    243.67633 
   92950    138.93065   -1146.0327    135547.56     -34861.7    2636.7394    -37498.44    191.22347    245.23743 
   93000    138.36953   -1140.9361     135555.5   -34864.476    2626.0901   -37490.566    191.45191    244.24697 
   93050    139.09665   -1121.0348    135652.24   -34913.485    2639.8899   -37553.375    191.76297    245.53046 
   93100    137.34981    -1176.116    135637.95   -34876.992    2606.7369   -37483.729    191.84522    242.44697 
   93150    138.25963   -1360.1496    135640.52   -34863.886    2624.0044   -37487.891     192.2608    244.05298 
   93200    138.53783   -1127.4991       135737   -34915.561    2629.2842   -37544.845    192.08108    244.54404 
   93250    138.15998   -955.40136     135741.2   -34882.959    2622.1131   -37505.072      192.005    243.87707 
   93300    136.33381   -1264.2679    135729.67   -34956.687    2587.4546   -37544.142    192.25294    240.65356 
   93350    135.36584   -1311.2511    135756.09   -34982.456    2569.0835    -37551.54    192.53688    238.94491 
   93400    137.09346   -1318.5814    135683.85   -34955.684    2601.8717   -37557.556    192.70266    241.99447 
   93450    136.26604   -1316.2283    135635.12   -34906.058    2586.1684   -37492.227    192.74805    240.53393 
   93500    137.78473   -1371.2379    135553.75   -34926.936    2614.9912   -37541.927     192.8769    243.21468 
   93550    137.11065   -1201.3278    135511.06   -34901.677     2602.198   -37503.875    193.29512    242.02481 
   93600    138.30048   -1249.4825    135480.43   -34915.823    2624.7796   -37540.602    193.75427    244.12508 
   93650    136.44993   -1316.4818    135398.87    -34926.01    2589.6583   -37515.668    193.90393    240.85853 
   93700    134.74915   -1029.0677    135436.17   -34990.011    2557.3795    -37547.39    193.97403    237.85635 
   93750    135.36595   -1207.7311    135488.14    -34979.42    2569.0857   -37548.506    194.11663    238.94511 
   93800    138.26693   -1212.8928    135544.89   -34955.962    2624.1429   -37580.105    193.98643    244.06586 
   93850    133.05139   -1223.8542    135526.96   -35042.304    2525.1581   -37567.463    194.63191     234.8595 
   93900    133.85765   -1388.3235    135533.69   -35023.223    2540.4599   -37563.683    194.86123    236.28269 
   93950    136.87955   -1106.0695    135544.32   -35008.138     2597.812    -37605.95    194.68171    241.61688 
   94000    135.51542   -1187.7261    135542.19   -35039.469    2571.9224   -37611.391    195.12541    239.20894 
   94050    136.52328   -1166.4703    135563.02   -35009.106    2591.0505   -37600.156    195.47438    240.98801 
   94100     136.5163   -1313.6186     135564.7   -34976.228    2590.9179   -37567.146    195.72629    240.97568 
   94150    136.61942   -1209.5254    135520.28   -34979.801    2592.8751   -37572.676    195.61464    241.15771 
   94200    139.98317   -1261.5396    135559.27   -34954.554    2656.7151   -37611.269    195.19478    247.09533 
   94250    138.84786    -1228.225    135566.63   -34934.701    2635.1682    -37569.87     195.3966    245.09131 
   94300    135.73381    -1338.225    135511.48   -34956.051    2576.0671   -37532.118    195.78031    239.59444 
   94350    135.60074   -1408.6451    135558.11   -35010.972    2573.5417   -37584.513    195.92298    239.35955 
   94400    135.78233    -1000.877    135574.41   -34972.704    2576.9881   -37549.692    195.85499    239.68009 
   94450    135.16991   -1052.5681    135606.13   -34973.309    2565.3651   -37538.674    195.90386    238.59906 
   94500    136.62697   -964.78393    135687.29   -34977.583    2593.0183   -37570.602    195.92675    241.17103 
   94550    136.04071   -1109.4773    135742.99   -35001.642    2581.8919   -37583.534    195.91205    240.13618 
   94600    134.62325   -1155.3632    135756.11   -35039.785      2554.99   -37594.775    195.75986     237.6341 
   94650    133.42483   -1224.3167    135779.77   -35056.688    2532.2455   -37588.934     195.7309    235.51869 
   94700    134.35257   -1094.2171    135794.55   -35043.032    2549.8529   -37592.885    195.81949    237.15631 
   94750    134.69628   -986.88325    135840.02   -35027.117    2556.3761   -37583.493    195.77738    237.76302 
   94800    136.72736   -1180.4374     135916.8   -34972.843    2594.9236   -37567.766    196.20026    241.34824 
   94850    135.21939   -1114.6362    135929.69   -34979.666    2566.3041    -37545.97    196.52994     238.6864 
   94900     135.5009   -1085.6619     135900.8     -34957.2    2571.6469   -37528.847    196.28327    239.18332 
   94950    137.72631   -1220.6001    135840.12   -34975.119    2613.8824   -37589.001    196.77392    243.11156 
   95000    136.15962   -1083.2064    135820.92   -34992.764    2584.1486   -37576.913    197.07664    240.34608 
   95050    135.01998   -1119.3263    135881.34   -34937.785    2562.5195   -37500.305    196.88166    238.33441 
   95100    140.10666   -1027.1605    135905.33    -34924.35    2659.0587   -37583.409    197.20439     247.3133 
   95150    135.11952   -1246.5469    135861.12   -34915.345    2564.4087   -37479.754    197.60451    238.51011 
   95200    141.31802    -1320.684    135781.72    -34861.54    2682.0489   -37543.589    197.79648    249.45157 
   95250    137.78078   -1204.1229     135682.1   -34935.356    2614.9163   -37550.272    198.27652    243.20771 
   95300    135.99411   -1205.1993    135687.19   -34954.402    2581.0074   -37535.409    198.48872    240.05392 
   95350    137.15715   -1204.6776    135713.61   -34994.276    2603.0806   -37597.356    198.59084     242.1069 
   95400    136.22602    -1230.037    135745.42   -34965.218    2585.4088   -37550.627    198.93984    240.46329 
   95450    136.16605   -1074.6669    135738.56   -35036.454    2584.2707   -37620.725    199.05046    240.35743 
   95500     137.9807   -1136.2866    135780.83   -34967.557    2618.7106   -37586.268    199.20655    243.56062 
   95550    135.08605   -1207.6849     135744.6   -35010.683    2563.7736   -37574.456    199.09912    238.45104 
   95600    137.88589   -1137.3958     135735.6   -34999.629    2616.9111    -37616.54    199.30614    243.39325 
   95650    134.88558   -1231.5244    135739.93   -34979.077    2559.9688   -37539.046    199.14832    238.09716 
   95700    134.10964   -1202.1667    135642.58   -34965.662    2545.2423   -37510.904    199.18434    236.72749 
   95750    135.50179   -1328.2509     135537.8   -34926.261    2571.6637   -37497.924    198.64843    239.18488 
   95800    140.23017   -896.46909    135533.89   -34909.285    2661.4028   -37570.687    198.48929    247.53132 
   95850    135.60966   -1352.2577    135540.88    -34931.36     2573.711   -37505.071    198.65089     239.3753 
   95900    138.04911   -1090.3104    135550.13   -34904.912     2620.009   -37524.921    198.58451    243.68137 
   95950    135.23539   -1189.9096    135603.87   -34915.008    2566.6077   -37481.615     198.3958    238.71464 
   96000    137.08439   -1100.2473    135591.79   -34938.112    2601.6996   -37539.811     198.1251    241.97846 
   96050    134.20823   -1327.0505    135630.67   -34924.626    2547.1135   -37471.739    198.12431    236.90152 
   96100    138.63586   -1264.3219    135567.86   -34881.917    2631.1446   -37513.061    198.00419    244.71708 
   96150    138.94804   -911.03275    135572.19   -34869.024    2637.0695   -37506.093    197.85738    245.26814 
   96200    138.09572   -1270.6959    135654.16   -34866.483    2620.8936   -37487.377    197.96287    243.76365 
   96250     139.2279   -1283.8545    135590.89   -34874.351    2642.3808   -37516.732    198.21132    245.76213 
   96300    136.43793   -1230.5846    135478.18   -34870.725    2589.4306   -37460.156    198.26158    240.83734 
   96350    139.08545   -1040.3891    135405.07   -34819.643    2639.6774   -37459.321    198.37606    245.51069 
   96400    139.63515   -947.73735    135431.96   -34842.339    2650.1101   -37492.449    198.21063    246.48101 
   96450    139.73052    -1329.753     135427.2   -34816.599    2651.9201   -37468.519    198.27068    246.64936 
   96500    139.07056   -1078.4488    135346.55   -34814.376    2639.3948   -37453.771    198.59622    245.48441 
   96550    137.56627   -1190.0655    135327.88   -34819.871    2610.8451   -37430.716    198.57453    242.82906 
   96600    138.85517   -1060.5689    135233.92   -34802.518    2635.3069   -37437.825    198.80568    245.10421 
   96650     137.5263   -1055.1267    135202.68   -34822.531    2610.0866   -37432.618    198.91527    242.75852 
   96700     138.4249   -822.53885     135152.1   -34828.227     2627.141   -37455.368    199.57801    244.34471 
   96750    140.19281   -1153.0372    135157.38   -34863.126    2660.6938    -37523.82    199.69087    247.46538 
   96800    138.22848   -1080.0995    135151.27   -34863.739    2623.4131   -37487.152    199.55142    243.99799 
   96850     135.9116   -1158.6027    135209.48   -34935.878    2579.4414    -37515.32    199.60254    239.90827 
   96900    136.15595     -1127.69    135290.55   -34945.449    2584.0789   -37529.528    199.77191     240.3396 
   96950    134.32863   -1165.9596    135336.12   -34935.463    2549.3985   -37484.861    200.12933    237.11405 
   97000    134.40443    -1141.417    135353.67   -34908.675    2550.8371   -37459.513    200.21996    237.24785 
   97050      136.798   -1111.7548    135421.25   -34910.233    2596.2643   -37506.498    200.15107    241.47293 
   97100    138.75031    -1119.275    135459.75   -34895.528    2633.3169   -37528.845    200.34429    244.91911 
   97150    134.47582   -1198.1145    135414.76   -34904.636    2552.1921   -37456.829    200.56098    237.37388 
   97200    134.39841   -1044.9111    135501.69   -34950.765     2550.723   -37501.488      200.561    237.23723 
   97250    135.40471   -1057.4473     135536.3   -34976.727    2569.8212   -37546.548    200.45917    239.01352 
   97300    138.42995   -962.85378    135622.17   -34975.736    2627.2368   -37602.972    200.49741    244.35361 
   97350    135.98141   -1215.8067    135602.19   -34953.968    2580.7665   -37534.735    200.77979    240.03151 
   97400    135.56144   -1370.5386    135553.45   -34967.913    2572.7958   -37540.709    200.91171    239.29018 
   97450    133.17224   -1091.2174    135483.33   -35032.037    2527.4516   -37559.488    201.16857    235.07282 
   97500    134.05659   -1273.8631    135524.05    -35015.89    2544.2356   -37560.126    201.77363    236.63385 
   97550    134.66112   -1207.3243    135508.21   -35073.119    2555.7089   -37628.828    201.94776    237.70096 
   97600    130.09033   -1125.9118    135456.89   -35100.639    2468.9606   -37569.599    202.34662    229.63269 
   97650    131.90767   -1114.2093    135420.71   -35085.995    2503.4515   -37589.447    202.34544    232.84062 
   97700    132.64315   -1040.4154    135382.36   -35085.471    2517.4102   -37602.882    202.88261    234.13889 
   97750    132.77169   -1242.6033    135359.87    -35087.24    2519.8497    -37607.09     202.9848    234.36578 
   97800    134.55826   -1240.1399    135328.48   -35030.391    2553.7567   -37584.148    203.15653    237.51939 
   97850    133.55414   -1064.3989    135306.03   -35033.827    2534.6997   -37568.527    203.62663    235.74694 
   97900     133.3076   -1098.7757     135345.8   -35069.088    2530.0207   -37599.109    203.93382    235.31176 
   97950    136.38796   -946.20463       135405   -35018.142    2588.4822   -37606.624    204.35109    240.74914 
   98000    135.95505   -1163.9667    135456.66   -34990.781    2580.2662   -37571.047     204.8769    239.98498 
   98050    135.78216   -1033.0815    135388.17   -35001.595    2576.9848    -37578.58    205.12862    239.67978 
   98100    133.57476   -1212.1535    135501.27   -34922.693    2535.0911   -37457.784     205.8564    235.78334 
   98150     140.0732   -1027.2125    135546.74   -34871.268    2658.4237   -37529.691    206.22634    247.25424 
   98200    137.12553   -1154.7879    135612.44   -34893.241    2602.4804   -37495.721    206.28239    242.05107 
   98250    136.94394   -1051.8376    135628.23   -34866.719    2599.0341   -37465.753     206.2678    241.73054 
   98300    137.33741   -928.12577    135663.59   -34878.564    2606.5016   -37485.065    206.43238    242.42508 
   98350    139.89235   -1085.4393     135700.9   -34903.101    2654.9915   -37558.093     206.8547    246.93502 
   98400     136.0988    -1204.513    135673.59    -34897.48    2582.9942   -37480.474    207.14585    240.23871 
   98450    135.83932   -1166.7041    135742.79   -34969.258    2578.0696   -37547.328    206.85731    239.78069 
   98500    135.92387   -985.02444    135758.66   -34970.067    2579.6742   -37549.741     206.8743    239.92993 
   98550       133.75   -1007.8795    135782.65   -35012.619    2538.4168   -37551.036    207.10642    236.09266 
   98600    138.28493   -1026.6744    135840.81   -34981.328    2624.4845   -37605.813    207.25449    244.09763 
   98650    135.15116   -797.72867    135940.13   -35034.553    2565.0092   -37599.562    206.98692    238.56596 
   98700    132.55738   -1060.4062    135985.27   -35002.711    2515.7823   -37518.493    206.63759    233.98747 
   98750    133.87288   -1147.8112    135969.36   -35018.617    2540.7489   -37559.366    206.82754    236.30957 
   98800    136.26141   -1117.2125    135924.35   -34960.676    2586.0805   -37546.757    206.75075    240.52576 
   98850    135.64484   -1036.2337     135899.7   -34946.083    2574.3786   -37520.461    206.48231    239.43739 
   98900    136.28588   -1187.4471    135838.84   -34942.493    2586.5448   -37529.038    206.58995    240.56894 
   98950    137.40357   -1151.7402    135746.09   -34962.522    2607.7572   -37570.279    206.68884    242.54187 
   99000    138.53994    -1314.243    135662.65   -34954.015    2629.3243    -37583.34    206.59778    244.54778 
   99050    137.98036   -1150.0601    135691.14   -34965.883    2618.7041   -37584.587    206.34148    243.56001 
   99100    135.01842   -1091.4919    135665.03   -34968.003    2562.4899   -37530.493    206.25389    238.33165 
   99150     137.6244   -1289.6761    135704.27   -34931.515    2611.9484   -37543.463    206.08696    242.93168 
   99200    135.88887   -1303.0444    135707.02   -34931.963    2579.0101   -37510.973    205.89333    239.86816 
   99250    136.68214   -1159.4729    135645.18   -34934.797    2594.0654   -37528.863    205.63883    241.26841 
   99300     135.7021   -1342.1133    135637.19   -34881.237    2575.4654   -37456.703     205.7768    239.53847 
   99350    135.87303    -1067.561    135687.33   -34952.613    2578.7094   -37531.322    205.91789    239.84019 
   99400    134.72853   -1076.5777    135697.96   -34964.121    2556.9881    -37521.11     205.6855    237.81994 
   99450    133.87735   -1064.2128    135633.91   -34944.747    2540.8339   -37485.581    205.75225    236.31747 
   99500    135.56781   -1066.5561    135612.89    -34907.95    2572.9168   -37480.867    205.89418    239.30143 
   99550    134.34123   -1172.2801    135639.43   -34925.188    2549.6378   -37474.826    205.86257     237.1363 
   99600    139.07505    -1249.543    135577.12   -34928.375      2639.48   -37567.855    206.37825    245.49233 
   99650    136.40091   -1197.3213    135520.15   -34962.883    2588.7279   -37551.611    206.64108    240.77199 
   99700     134.3675   -1111.8926    135439.76    -34945.53    2550.1362   -37495.667    207.05028    237.18266 
   99750    134.34481   -1181.4107    135410.49   -35006.952    2549.7057   -37556.658    207.35216    237.14262 
   99800    135.93496   -1198.1859    135403.59   -34979.544    2579.8849   -37559.429    208.14953    239.94952 
   99850    136.95678   -1296.0535    135354.39    -34964.98    2599.2778   -37564.258    208.63786    241.75321 
   99900    137.13451   -1115.2708     135348.5   -34939.786    2602.6508   -37542.437    208.84562    242.06693 
   99950    134.44293   -747.10706    135496.15    -34979.67    2551.5678   -37531.238    209.19992     237.3158 
  100000    138.12866   -994.40764     135609.5   -34995.913    2621.5186   -37617.431     209.4799    243.82178 
Loop time of 167.555 on 60 procs for 100000 steps with 6368 atoms

Performance: 257.826 ns/day, 0.093 hours/ns, 596.820 timesteps/s
99.5% CPU use with 60 MPI tasks x no OpenMP threads

MPI task timing breakdown:
Section |  min time  |  avg time  |  max time  |%varavg| %total
---------------------------------------------------------------
Pair    | 16.01      | 73.959     | 118.06     | 544.4 | 44.14
Neigh   | 1.1585     | 2.4859     | 7.2563     | 134.5 |  1.48
Comm    | 33.512     | 73.118     | 125.4      | 491.0 | 43.64
Output  | 0.20714    | 0.21115    | 0.22617    |   0.5 |  0.13
Modify  | 9.0727     | 16.359     | 23.909     | 147.6 |  9.76
Other   |            | 1.422      |            |       |  0.85

Nlocal:    106.133 ave 249 max 67 min
Histogram: 48 0 0 0 0 0 0 0 4 8
Nghost:    996.967 ave 1308 max 671 min
Histogram: 24 0 0 0 0 0 0 23 1 12
Neighs:    0 ave 0 max 0 min
Histogram: 60 0 0 0 0 0 0 0 0 0
FullNghs:  12877.2 ave 45784 max 3991 min
Histogram: 48 0 0 0 0 0 0 0 2 10

Total # of neighbors = 772630
Ave neighs/atom = 121.33
Neighbor list builds = 5950
Dangerous builds = 0

write_data		${DIR}/data.eq-${NAME}-${TEMP}
write_data		run_2/data.eq-${NAME}-${TEMP}
write_data		run_2/data.eq-het_freeze_2-${TEMP}
write_data		run_2/data.eq-het_freeze_2-240
undump          1

reset_timestep  0

unfix           2
unfix           3
unfix           4


################################################
#######         Run Simulation         #########
################################################

log				${DIR}/log.run_${NAME}
log				run_2/log.run_${NAME}
log				run_2/log.run_het_freeze_2
