LAMMPS data file via write_data, version 16 Mar 2018, timestep = 6000000

6337 atoms
2 atom types

0.0000000000000000e+00 4.9219999999999999e+01 xlo xhi
0.0000000000000000e+00 4.9019635930410494e+01 ylo yhi
1.8952872595129762e+00 5.8166712740484392e+01 zlo zhi

Masses

1 18.015
2 12.01

Atoms # atomic

4989 1 1.6749173311795036e+00 2.4892173932333961e-01 2.0790330620542092e+00 0 0 0
6110 1 3.4145451785798868e+00 5.0145851417589506e+00 8.5890724557877736e+00 1 -2 1
2844 1 5.0353073543794808e+00 2.6898142032846266e+00 4.7862717818739844e+00 -1 -1 1
4938 1 8.9162311660525368e+00 3.2877937638944810e-01 4.8558281181437355e+00 3 0 0
5144 1 1.1702976770498097e-01 1.1419720710715101e+01 8.2994329948058958e+00 2 -1 1
1253 1 1.5022223715587535e+00 4.6630063671042290e+00 4.7570526673547757e+00 1 -2 1
5163 1 4.8993656483929477e+00 7.4006873265475450e+00 4.8023036447452725e+00 -2 1 0
4885 1 7.5752833487022571e+00 2.6868387079805829e+00 8.2271123892282958e+00 -1 1 0
3186 1 1.4796586066237514e+00 4.7347070402904212e-01 4.7589723267701469e+00 1 1 1
112 1 8.8004579399619107e+00 5.3801834179084240e+00 4.8552746080420839e+00 1 2 1
6071 1 3.8177498503104452e+00 5.7455370954021445e-01 8.8535196876035069e+00 0 0 1
1969 1 7.4812622047042412e+00 7.6200245179857511e+00 5.7355475775101379e+00 2 -2 0
2132 1 7.4303870212173191e+00 6.9009018997562919e+00 8.3407387945332303e+00 -1 0 1
3525 1 1.2613868112692150e+00 9.1219494092342543e+00 4.4828313577674326e+00 0 4 0
3178 1 4.9557538647883019e+00 1.1577386514751936e+01 4.6815718897762935e+00 2 0 0
505 1 9.0168382487321157e+00 9.5367554042110214e+00 4.6570412235765986e+00 1 1 1
4950 1 4.9710629891941753e+00 7.4910222111570333e+00 1.9673351263074119e+00 4 -2 0
1547 1 7.2652109977627530e+00 1.1731998758249487e+01 8.6362097983726862e+00 2 -1 0
3351 1 3.8489045132218025e+00 7.1234925027923657e-01 6.0054355203598710e+00 3 -2 0
3740 1 3.6652338299598211e+00 9.2471071928179178e+00 8.4775090738392223e+00 2 1 1
5131 1 7.6065686094361054e+00 2.9360206194594722e+00 5.5004180908649829e+00 -1 2 0
5173 1 3.8474671235170534e+00 4.8713967395404234e+00 5.9086877082976095e+00 0 3 0
1501 1 7.5800182153531575e+00 1.1794479644023806e+01 5.6634547379617990e+00 -1 0 0
5970 1 3.6783183305686888e+00 9.4486914797037258e+00 5.6823544384447837e+00 0 1 1
3453 1 1.7555778722432280e-01 2.4989701587228388e+00 5.7784358847484327e+00 -2 -1 0
3484 1 1.2191362148046121e-01 6.9420438308171164e+00 5.6554413433374258e+00 0 3 0
5057 1 9.0100810732068268e+00 5.6270711833524540e+00 2.0406903920563835e+00 0 0 0
2922 1 1.4659799215180693e+00 4.6289860337883120e+00 2.1522219464883321e+00 0 0 1
5151 1 1.1231272930291591e+00 6.0312039951904517e-01 9.6169533055638787e+00 4 2 0
1574 1 5.0399168734149660e+00 2.9463433683449778e+00 9.5856285688314653e+00 2 1 0
1362 1 8.8128866098529439e+00 5.6679128693435865e-01 9.5184070887468302e+00 -1 0 0
3584 1 8.7539091574666799e+00 7.1693934391904057e-01 1.2364583165536274e+01 0 -1 0
257 1 4.9200013787942920e+00 2.6455406128154033e+00 1.2322268339655368e+01 -1 1 0
544 1 4.7376057722743958e+00 1.1627921363031389e+01 9.4254042229529347e+00 -2 2 0
5132 1 1.1643745608557499e+00 5.1576430993951243e+00 1.2038796712182984e+01 2 0 0
4611 1 4.7930490999176758e+00 7.0292456800710896e+00 9.3731818862510679e+00 0 0 1
1739 1 8.6542239109021590e+00 4.7620180258971017e+00 9.5229616685410328e+00 2 3 0
6260 1 8.5058484716197675e+00 5.0267148830756199e+00 1.2367445484483699e+01 2 0 0
2972 1 4.7139118484752647e+00 7.0362117697005528e+00 1.2092586826053155e+01 1 0 1
1640 1 6.0858768065507789e+00 8.9842318591262451e+00 1.3159777183703229e+01 0 -1 1
5300 1 9.3365253145751226e-01 9.2045681385906146e+00 1.1827746294137912e+01 1 -1 1
161 1 7.8656431022906903e-01 4.8046446927082718e+00 9.2379634136108528e+00 -1 -3 0
2957 1 4.8140734613027378e+00 1.1194868929167347e+01 1.2016467340054103e+01 -2 1 0
4485 1 8.7281480163749663e+00 9.4611767968219365e+00 9.2512513119751159e+00 -1 -4 1
4753 1 8.6350445584320283e+00 9.5942824201645323e+00 1.1895531994958899e+01 2 0 1
1720 1 1.0359776961570719e+00 5.0057427413875855e-01 1.2364310759472920e+01 4 1 1
6004 1 2.3343805377404045e+00 2.6810814951446700e+00 1.3194371974258907e+01 0 -1 1
1953 1 6.2295743500957421e+00 4.3803294471330695e-01 1.3112308235540100e+01 -1 0 0
383 1 2.2534010752372611e+00 7.4239755331045361e+00 1.3201275002048641e+01 -2 -1 0
1939 1 6.0581029175448426e+00 4.8644355912375419e+00 1.3418619253093787e+01 1 2 0
4847 1 2.1892576004733395e+00 1.1415708886359226e+01 1.2689954730009239e+01 3 0 0
2075 1 1.1015401771808044e+00 9.1681418032259039e+00 9.2969101248327597e+00 0 0 1
3037 1 9.7448564179123149e+00 1.1584907341790984e+01 1.3102719634689638e+01 -1 3 0
1612 1 2.2467157389476435e+00 1.1249723357893476e+01 1.5621732974073497e+01 -1 0 1
1686 1 5.8559452735025355e+00 8.6023526882434365e-01 1.5899302431182750e+01 -1 0 0
138 1 2.3479830374461672e+00 2.4960817740902383e+00 1.5948550337094900e+01 0 2 0
4881 1 7.2688833495118175e+00 1.1675915392759734e+01 2.0819670010140989e+01 0 -1 1
3420 1 1.0762897185788995e+00 9.0769650658732548e+00 1.9695944231263262e+01 1 1 0
5000 1 4.7936179840530571e+00 2.9183675620989633e+00 1.6915002776112434e+01 1 -2 0
3457 1 8.3584623963554741e+00 4.5887025584542940e-01 1.7145637112643708e+01 -2 2 0
3412 1 3.5280090904259493e+00 9.2920899974200140e+00 2.0594773215321823e+01 3 -2 0
6019 1 1.1340290211276043e+00 4.7110625564545829e+00 1.6911046121527502e+01 2 -1 1
1798 1 1.2393508322461493e+00 4.3705589679983353e-01 1.7205978997435494e+01 3 1 0
5166 1 4.8949583438876312e+00 6.9651837882669199e+00 1.7276264920252650e+01 -3 0 1
3467 1 8.7443305006290846e+00 5.0027050169718112e+00 1.7249400280502776e+01 1 2 0
1901 1 8.3063096976101995e+00 9.2177059959780792e+00 1.9619606308381240e+01 1 -1 0
4484 1 9.7395856606822351e-01 9.0774580558238203e+00 1.6687073183163196e+01 2 2 1
1507 1 9.8167448877178654e+00 2.6584149899681520e+00 1.6134241322557813e+01 4 3 0
6131 1 8.6486740647622184e+00 9.4273747776882679e+00 1.6862891610506686e+01 2 1 1
6106 1 1.2935059197104128e+00 1.9213405491835672e-01 1.9888111046392293e+01 2 0 1
1838 1 3.7722153556851050e+00 7.6216309033506058e-01 2.0948067355435679e+01 2 1 0
5214 1 4.7335591725219732e+00 2.9038910768026813e+00 1.9677242678985476e+01 0 2 0
6161 1 8.7332433892108323e+00 5.3915112490804229e-01 1.9754673087459754e+01 -1 0 1
123 1 7.5363488595605670e+00 2.5988865077846692e+00 2.0809119881544262e+01 -1 2 1
1322 1 7.9496039078272740e-01 5.0373667040316397e+00 1.9608429069031445e+01 1 -1 1
5294 1 3.2382471632174519e+00 4.8625552204807789e+00 2.0793581895096594e+01 -2 1 1
3015 1 7.2484939303589080e+00 6.9668632504702641e+00 2.0875905735159282e+01 3 -1 0
270 1 4.7539758573380553e+00 7.0656226520237402e+00 1.9902689901759572e+01 4 0 1
4669 1 8.5121248635343250e+00 5.0500797592834772e+00 1.9891484819929161e+01 -1 1 1
2143 1 4.6358194979822658e+00 1.1627466443283323e+01 1.9541353889205300e+01 -2 2 1
3654 1 4.7639988382291509e+00 1.1621168470843996e+01 1.6834732010420048e+01 1 -1 1
2142 1 6.1911320280618538e+00 4.9324448182811782e+00 1.6045942570723891e+01 -2 -1 1
6121 1 5.9136519220212111e+00 9.0669679228063469e+00 1.6045965027753127e+01 -1 -2 1
2015 1 2.5275332590135116e+00 6.8614776614897073e+00 1.6006643113622630e+01 4 3 0
2121 1 4.8100219904944055e+00 3.0408380841321621e+00 2.4494740042738684e+01 0 -1 0
1263 1 3.4993846049235144e+00 5.4088162250444094e-01 2.3765203949253454e+01 1 1 1
450 1 7.4194672320947133e+00 7.4020007045124423e+00 2.3560782881716509e+01 0 2 0
1773 1 7.4084037860806538e+00 2.9331728961297530e+00 2.3500975326265603e+01 2 -2 0
3094 1 8.3432058820687782e+00 6.6935087659383297e-01 2.4396745090259003e+01 -2 0 0
685 2 7.3830000000000009e+00 8.5251540748539991e+00 2.6790502419541095e+01 0 0 0
1487 1 9.5177146461155571e-01 4.8012961427789742e+00 2.4785901383436702e+01 1 0 1
1904 1 4.8375012464326197e+00 7.4389221917908763e+00 2.4004051539156386e+01 1 2 0
681 2 6.1524999999999999e+00 1.0656442593567499e+01 2.6790502419541095e+01 0 0 0
3393 1 8.5549494109246922e+00 5.3230593667374899e+00 2.4417106386668468e+01 -3 3 0
154 1 7.3958419597279308e+00 1.1847433311006593e+01 2.3430528703311623e+01 1 -1 0
1984 1 1.4352586791890594e+00 8.9111721770121513e+00 2.4501275571031268e+01 0 -1 0
4922 1 3.6546103787182913e+00 9.8585655890084194e+00 2.3336831895285567e+01 -1 3 0
683 2 7.3829999999999991e+00 1.1366872099805333e+01 2.6790502419541095e+01 0 0 0
1426 1 8.9499322849843814e+00 9.7332002136304947e+00 2.4470044854783779e+01 -3 4 0
6320 1 5.0207190782874669e+00 1.1887027494778730e+01 2.4493179668883474e+01 2 0 1
554 2 0.0000000000000000e+00 2.8417180249513345e+00 2.6790502419541095e+01 0 0 0
556 2 0.0000000000000000e+00 0.0000000000000000e+00 2.6790502419541095e+01 0 0 0
558 2 1.2305000000000001e+00 7.1042950623783474e-01 2.6790502419541095e+01 0 0 0
565 2 1.2305000000000001e+00 2.1312885187134998e+00 2.6790502419541095e+01 0 0 0
567 2 2.4610000000000003e+00 2.8417180249513345e+00 2.6790502419541095e+01 0 0 0
569 2 2.4610000000000003e+00 0.0000000000000000e+00 2.6790502419541095e+01 0 0 0
571 2 3.6915000000000004e+00 7.1042950623783474e-01 2.6790502419541095e+01 0 0 0
586 2 3.6914999999999996e+00 2.1312885187134998e+00 2.6790502419541095e+01 0 0 0
588 2 4.9220000000000006e+00 2.8417180249513332e+00 2.6790502419541095e+01 0 0 0
590 2 4.9220000000000006e+00 0.0000000000000000e+00 2.6790502419541095e+01 0 0 0
592 2 6.1524999999999999e+00 7.1042950623783407e-01 2.6790502419541095e+01 0 0 0
615 2 6.1524999999999999e+00 2.1312885187134989e+00 2.6790502419541095e+01 0 0 0
617 2 7.3829999999999991e+00 2.8417180249513345e+00 2.6790502419541095e+01 0 0 0
619 2 7.3829999999999991e+00 0.0000000000000000e+00 2.6790502419541095e+01 0 0 0
621 2 8.6134999999999984e+00 7.1042950623783407e-01 2.6790502419541095e+01 0 0 0
652 2 8.6134999999999984e+00 2.1312885187135002e+00 2.6790502419541095e+01 0 0 0
561 2 0.0000000000000000e+00 4.2625770374269996e+00 2.6790502419541095e+01 0 0 0
563 2 1.2305000000000001e+00 4.9730065436648339e+00 2.6790502419541095e+01 0 0 0
578 2 1.2305000000000001e+00 6.3938655561404980e+00 2.6790502419541095e+01 0 0 0
582 2 2.4610000000000003e+00 4.2625770374269996e+00 2.6790502419541095e+01 0 0 0
584 2 3.6914999999999996e+00 4.9730065436648339e+00 2.6790502419541095e+01 0 0 0
607 2 3.6914999999999996e+00 6.3938655561404980e+00 2.6790502419541095e+01 0 0 0
559 2 0.0000000000000000e+00 7.1042950623783341e+00 2.6790502419541095e+01 0 0 0
580 2 2.4610000000000003e+00 7.1042950623783341e+00 2.6790502419541095e+01 0 0 0
611 2 4.9220000000000006e+00 4.2625770374269978e+00 2.6790502419541095e+01 0 0 0
613 2 6.1524999999999999e+00 4.9730065436648339e+00 2.6790502419541095e+01 0 0 0
644 2 6.1524999999999999e+00 6.3938655561404980e+00 2.6790502419541095e+01 0 0 0
648 2 7.3829999999999991e+00 4.2625770374269996e+00 2.6790502419541095e+01 0 0 0
650 2 8.6135000000000002e+00 4.9730065436648339e+00 2.6790502419541095e+01 0 0 0
689 2 8.6135000000000002e+00 6.3938655561404980e+00 2.6790502419541095e+01 0 0 0
609 2 4.9220000000000006e+00 7.1042950623783341e+00 2.6790502419541095e+01 0 0 0
646 2 7.3830000000000009e+00 7.1042950623783341e+00 2.6790502419541095e+01 0 0 0
574 2 0.0000000000000000e+00 8.5251540748539991e+00 2.6790502419541095e+01 0 0 0
576 2 1.2305000000000001e+00 9.2355835810918343e+00 2.6790502419541095e+01 0 0 0
603 2 2.4610000000000003e+00 8.5251540748539991e+00 2.6790502419541095e+01 0 0 0
605 2 3.6915000000000004e+00 9.2355835810918343e+00 2.6790502419541095e+01 0 0 0
572 2 0.0000000000000000e+00 1.1366872099805333e+01 2.6790502419541095e+01 0 0 0
599 2 1.2305000000000001e+00 1.0656442593567498e+01 2.6790502419541095e+01 0 0 0
601 2 2.4610000000000003e+00 1.1366872099805333e+01 2.6790502419541095e+01 0 0 0
636 2 3.6914999999999996e+00 1.0656442593567499e+01 2.6790502419541095e+01 0 0 0
638 2 4.9220000000000006e+00 1.1366872099805333e+01 2.6790502419541095e+01 0 0 0
640 2 4.9220000000000006e+00 8.5251540748539991e+00 2.6790502419541095e+01 0 0 0
642 2 6.1524999999999999e+00 9.2355835810918343e+00 2.6790502419541095e+01 0 0 0
728 2 8.6134999999999984e+00 1.0656442593567498e+01 2.6790502419541095e+01 0 0 0
687 2 8.6134999999999984e+00 9.2355835810918343e+00 2.6790502419541095e+01 0 0 0
403 1 3.3081641336166556e+00 5.2291608581043585e+00 2.3524741895310971e+01 -1 -3 0
3405 1 8.5059211788356559e-01 2.8756950989422930e-01 2.4527638411998669e+01 2 1 1
555 2 0.0000000000000000e+00 1.4208590124756650e+00 3.0030999999998727e+01 0 0 0
557 2 0.0000000000000000e+00 0.0000000000000000e+00 3.0030999999998727e+01 0 0 0
566 2 1.2305000000000001e+00 2.1312885187134998e+00 3.0030999999998727e+01 0 0 0
568 2 2.4610000000000003e+00 1.4208590124756650e+00 3.0030999999998727e+01 0 0 0
570 2 2.4610000000000003e+00 0.0000000000000000e+00 3.0030999999998727e+01 0 0 0
587 2 3.6914999999999996e+00 2.1312885187134998e+00 3.0030999999998727e+01 0 0 0
564 2 1.2305000000000001e+00 3.5521475311891644e+00 3.0030999999998727e+01 0 0 0
585 2 3.6914999999999996e+00 3.5521475311891644e+00 3.0030999999998727e+01 0 0 0
883 2 0.0000000000000000e+00 2.8417180249513345e+00 3.3271497580458998e+01 0 0 0
884 2 0.0000000000000000e+00 0.0000000000000000e+00 3.3271497580458998e+01 0 0 0
885 2 1.2305000000000001e+00 7.1042950623783474e-01 3.3271497580458998e+01 0 0 0
889 2 1.2305000000000001e+00 2.1312885187134998e+00 3.3271497580458998e+01 0 0 0
890 2 2.4610000000000003e+00 2.8417180249513345e+00 3.3271497580458998e+01 0 0 0
891 2 2.4610000000000003e+00 0.0000000000000000e+00 3.3271497580458998e+01 0 0 0
892 2 3.6915000000000004e+00 7.1042950623783474e-01 3.3271497580458998e+01 0 0 0
900 2 3.6914999999999996e+00 2.1312885187134998e+00 3.3271497580458998e+01 0 0 0
589 2 4.9220000000000006e+00 1.4208590124756650e+00 3.0030999999998727e+01 0 0 0
591 2 4.9220000000000006e+00 0.0000000000000000e+00 3.0030999999998727e+01 0 0 0
616 2 6.1524999999999999e+00 2.1312885187134989e+00 3.0030999999998727e+01 0 0 0
618 2 7.3829999999999991e+00 1.4208590124756659e+00 3.0030999999998727e+01 0 0 0
620 2 7.3829999999999991e+00 0.0000000000000000e+00 3.0030999999998727e+01 0 0 0
653 2 8.6134999999999984e+00 2.1312885187135002e+00 3.0030999999998727e+01 0 0 0
614 2 6.1524999999999999e+00 3.5521475311891644e+00 3.0030999999998727e+01 0 0 0
651 2 8.6134999999999984e+00 3.5521475311891657e+00 3.0030999999998727e+01 0 0 0
901 2 4.9220000000000006e+00 2.8417180249513332e+00 3.3271497580458998e+01 0 0 0
902 2 4.9220000000000006e+00 0.0000000000000000e+00 3.3271497580458998e+01 0 0 0
903 2 6.1524999999999999e+00 7.1042950623783407e-01 3.3271497580458998e+01 0 0 0
915 2 6.1524999999999999e+00 2.1312885187134989e+00 3.3271497580458998e+01 0 0 0
916 2 7.3829999999999991e+00 2.8417180249513345e+00 3.3271497580458998e+01 0 0 0
917 2 7.3829999999999991e+00 0.0000000000000000e+00 3.3271497580458998e+01 0 0 0
918 2 8.6134999999999984e+00 7.1042950623783407e-01 3.3271497580458998e+01 0 0 0
934 2 8.6134999999999984e+00 2.1312885187135002e+00 3.3271497580458998e+01 0 0 0
560 2 0.0000000000000000e+00 5.6834360499026637e+00 3.0030999999998727e+01 0 0 0
562 2 0.0000000000000000e+00 4.2625770374269996e+00 3.0030999999998727e+01 0 0 0
579 2 1.2305000000000001e+00 6.3938655561404980e+00 3.0030999999998727e+01 0 0 0
581 2 2.4610000000000003e+00 5.6834360499026637e+00 3.0030999999998727e+01 0 0 0
583 2 2.4610000000000003e+00 4.2625770374269996e+00 3.0030999999998727e+01 0 0 0
608 2 3.6914999999999996e+00 6.3938655561404980e+00 3.0030999999998727e+01 0 0 0
577 2 1.2305000000000001e+00 7.8147245686161639e+00 3.0030999999998727e+01 0 0 0
606 2 3.6914999999999996e+00 7.8147245686161639e+00 3.0030999999998727e+01 0 0 0
887 2 0.0000000000000000e+00 4.2625770374269996e+00 3.3271497580458998e+01 0 0 0
888 2 1.2305000000000001e+00 4.9730065436648339e+00 3.3271497580458998e+01 0 0 0
896 2 1.2305000000000001e+00 6.3938655561404980e+00 3.3271497580458998e+01 0 0 0
898 2 2.4610000000000003e+00 4.2625770374269996e+00 3.3271497580458998e+01 0 0 0
899 2 3.6914999999999996e+00 4.9730065436648339e+00 3.3271497580458998e+01 0 0 0
911 2 3.6914999999999996e+00 6.3938655561404980e+00 3.3271497580458998e+01 0 0 0
886 2 0.0000000000000000e+00 7.1042950623783341e+00 3.3271497580458998e+01 0 0 0
897 2 2.4610000000000003e+00 7.1042950623783341e+00 3.3271497580458998e+01 0 0 0
610 2 4.9220000000000006e+00 5.6834360499026637e+00 3.0030999999998727e+01 0 0 0
612 2 4.9220000000000006e+00 4.2625770374269978e+00 3.0030999999998727e+01 0 0 0
645 2 6.1524999999999999e+00 6.3938655561404980e+00 3.0030999999998727e+01 0 0 0
647 2 7.3829999999999991e+00 5.6834360499026637e+00 3.0030999999998727e+01 0 0 0
649 2 7.3829999999999991e+00 4.2625770374269996e+00 3.0030999999998727e+01 0 0 0
690 2 8.6135000000000002e+00 6.3938655561404980e+00 3.0030999999998727e+01 0 0 0
643 2 6.1524999999999999e+00 7.8147245686161639e+00 3.0030999999998727e+01 0 0 0
688 2 8.6135000000000002e+00 7.8147245686161639e+00 3.0030999999998727e+01 0 0 0
913 2 4.9220000000000006e+00 4.2625770374269978e+00 3.3271497580458998e+01 0 0 0
914 2 6.1524999999999999e+00 4.9730065436648339e+00 3.3271497580458998e+01 0 0 0
930 2 6.1524999999999999e+00 6.3938655561404980e+00 3.3271497580458998e+01 0 0 0
932 2 7.3829999999999991e+00 4.2625770374269996e+00 3.3271497580458998e+01 0 0 0
933 2 8.6135000000000002e+00 4.9730065436648339e+00 3.3271497580458998e+01 0 0 0
953 2 8.6135000000000002e+00 6.3938655561404980e+00 3.3271497580458998e+01 0 0 0
912 2 4.9220000000000006e+00 7.1042950623783341e+00 3.3271497580458998e+01 0 0 0
931 2 7.3830000000000009e+00 7.1042950623783341e+00 3.3271497580458998e+01 0 0 0
573 2 0.0000000000000000e+00 9.9460130873296642e+00 3.0030999999998727e+01 0 0 0
575 2 0.0000000000000000e+00 8.5251540748539991e+00 3.0030999999998727e+01 0 0 0
602 2 2.4610000000000003e+00 9.9460130873296642e+00 3.0030999999998727e+01 0 0 0
604 2 2.4610000000000003e+00 8.5251540748539991e+00 3.0030999999998727e+01 0 0 0
598 2 1.2305000000000001e+00 1.2077301606043163e+01 3.0030999999998727e+01 0 0 0
600 2 1.2305000000000001e+00 1.0656442593567498e+01 3.0030999999998727e+01 0 0 0
635 2 3.6914999999999996e+00 1.2077301606043163e+01 3.0030999999998727e+01 0 0 0
637 2 3.6914999999999996e+00 1.0656442593567499e+01 3.0030999999998727e+01 0 0 0
894 2 0.0000000000000000e+00 8.5251540748539991e+00 3.3271497580458998e+01 0 0 0
895 2 1.2305000000000001e+00 9.2355835810918343e+00 3.3271497580458998e+01 0 0 0
909 2 2.4610000000000003e+00 8.5251540748539991e+00 3.3271497580458998e+01 0 0 0
910 2 3.6915000000000004e+00 9.2355835810918343e+00 3.3271497580458998e+01 0 0 0
893 2 0.0000000000000000e+00 1.1366872099805333e+01 3.3271497580458998e+01 0 0 0
907 2 1.2305000000000001e+00 1.0656442593567498e+01 3.3271497580458998e+01 0 0 0
908 2 2.4610000000000003e+00 1.1366872099805333e+01 3.3271497580458998e+01 0 0 0
926 2 3.6914999999999996e+00 1.0656442593567499e+01 3.3271497580458998e+01 0 0 0
639 2 4.9220000000000006e+00 9.9460130873296642e+00 3.0030999999998727e+01 0 0 0
641 2 4.9220000000000006e+00 8.5251540748539991e+00 3.0030999999998727e+01 0 0 0
684 2 7.3830000000000009e+00 9.9460130873296642e+00 3.0030999999998727e+01 0 0 0
686 2 7.3830000000000009e+00 8.5251540748539991e+00 3.0030999999998727e+01 0 0 0
680 2 6.1524999999999999e+00 1.2077301606043163e+01 3.0030999999998727e+01 0 0 0
682 2 6.1524999999999999e+00 1.0656442593567499e+01 3.0030999999998727e+01 0 0 0
727 2 8.6135000000000002e+00 1.2077301606043163e+01 3.0030999999998727e+01 0 0 0
729 2 8.6134999999999984e+00 1.0656442593567498e+01 3.0030999999998727e+01 0 0 0
928 2 4.9220000000000006e+00 8.5251540748539991e+00 3.3271497580458998e+01 0 0 0
929 2 6.1524999999999999e+00 9.2355835810918343e+00 3.3271497580458998e+01 0 0 0
951 2 7.3830000000000009e+00 8.5251540748539991e+00 3.3271497580458998e+01 0 0 0
952 2 8.6134999999999984e+00 9.2355835810918343e+00 3.3271497580458998e+01 0 0 0
927 2 4.9220000000000006e+00 1.1366872099805333e+01 3.3271497580458998e+01 0 0 0
949 2 6.1524999999999999e+00 1.0656442593567499e+01 3.3271497580458998e+01 0 0 0
950 2 7.3829999999999991e+00 1.1366872099805333e+01 3.3271497580458998e+01 0 0 0
973 2 8.6134999999999984e+00 1.0656442593567498e+01 3.3271497580458998e+01 0 0 0
6289 1 2.4039424833920084e+00 9.6789789779987387e+00 3.5749289624686185e+01 0 0 0
1580 1 4.4842654729883611e+00 2.5620212941652771e+00 3.6028007269685645e+01 0 1 0
1732 1 9.2708764419515628e+00 1.0996092560412110e+00 3.6188336786067644e+01 1 -3 -1
2129 1 7.2869817833159649e+00 3.0429535450694920e+00 3.5642746423918993e+01 2 2 0
1287 1 2.8904071546919914e+00 4.8167893660982468e+00 3.5619672456880870e+01 -1 1 0
6145 1 3.7906256286855622e+00 7.3096306813580627e+00 3.6087359597290074e+01 0 -2 0
3034 1 8.5958616667678491e+00 9.8034090161539655e+00 3.6227892982716718e+01 -3 3 0
1355 1 8.4820510109941196e+00 5.6400127033871108e+00 3.5694815862534554e+01 0 -2 0
1862 1 6.5114159769820912e+00 7.6676507654190740e+00 3.5960259089823190e+01 3 -1 -1
4559 1 3.8616723864529958e+00 1.2038461640283451e+01 3.6371756977556338e+01 -3 -1 -1
418 1 3.6422467569292283e+00 5.5676472383848763e-02 3.6027557214152644e+01 2 0 -1
471 1 7.4883200471148825e-02 4.5480563185612262e+00 3.6379342442266747e+01 0 0 0
4792 1 4.0974145511445794e+00 2.2652875444997407e+00 3.8778313179934628e+01 1 -1 0
1693 1 2.1643688808489081e+00 4.8577271320236495e+00 4.2471954083850122e+01 -1 0 -1
338 1 8.7202059744458840e+00 3.0872549560992599e+00 3.9578255104795431e+01 1 -1 -1
2928 1 1.9270286038653648e+00 9.5606134762476920e+00 4.2377171622551820e+01 3 0 0
5014 1 3.5604974481617302e+00 6.9935727258999618e+00 3.8814502037646918e+01 2 -2 -1
3027 1 2.2185334739541851e+00 4.4445375387124049e+00 3.9649719399915440e+01 3 2 0
1259 1 8.0278692909569678e+00 7.5579769838931812e+00 3.8577647289494323e+01 -2 2 0
3247 1 5.9412163125008606e+00 6.4665186003840542e+00 4.0173048950387262e+01 2 -2 0
3355 1 5.4548526162733921e+00 1.1918138464367322e+01 4.0527166690687679e+01 0 3 -1
281 1 5.7215113305766465e+00 8.1591217446128805e+00 4.2683502453749291e+01 1 2 0
4803 1 2.1478203373231830e+00 9.4823135595370580e+00 3.9624569723454300e+01 5 3 -1
1569 1 8.6382891092896852e+00 1.0327791897471467e+01 3.9247867832638903e+01 2 0 0
3495 1 9.4027547467594044e+00 1.0538434657675014e+01 4.3169076940029299e+01 0 2 -1
3474 1 2.8953528513826168e+00 7.2423126653854775e-01 4.2808241158834853e+01 0 0 0
3072 1 4.3713400007724577e+00 3.0842161137945943e+00 4.2770385127072366e+01 1 0 0
4556 1 5.9670097223668366e+00 3.6521081237076505e+00 4.0422844698645712e+01 -2 0 0
236 1 8.5687222406783228e+00 3.5656289988317287e+00 4.2783017119207976e+01 0 2 -1
1308 1 7.3438967846075398e+00 1.0143090581692276e+01 4.1452806082245353e+01 0 4 0
5176 1 3.0190513556288971e+00 1.1920769034352567e+01 3.9162750731859596e+01 -4 0 -1
3138 1 3.0548054432779419e+00 7.3785765612962670e+00 4.3386079869282405e+01 1 -1 0
4650 1 9.7969436819001796e+00 6.0617978758055624e-01 3.9016357551645314e+01 0 0 0
3743 1 3.0352172592796451e+00 1.0547470365623203e-01 3.9988205668427511e+01 1 2 0
2146 1 2.6376549413394086e+00 1.1992725997562081e+01 4.3612133109542306e+01 -3 2 0
2836 1 9.7308953059321706e+00 1.1116295730847050e+00 4.3283530914028297e+01 1 2 0
5226 1 7.1387525808767327e-01 2.4240595933893165e+00 4.7302738843224255e+01 0 1 -1
4981 1 3.5970867412270220e+00 1.8505084682660160e+00 4.7622476960822922e+01 1 -1 -1
6242 1 5.9043132614880580e+00 1.0618294256027054e+00 4.5991281032106485e+01 1 1 -1
4850 1 7.4689964245869946e+00 1.0032040456857723e+01 4.9316210647379187e+01 2 -2 -1
3433 1 2.6215263725062798e+00 7.2210091132282601e+00 4.6072791255706917e+01 2 -1 -1
126 1 6.4659380598871730e+00 5.4871088104174417e+00 4.6289528633339259e+01 -1 0 -1
227 1 6.9964677947054650e+00 7.8506501763167602e+00 4.5208476262965085e+01 0 0 -1
5240 1 9.0286165720333400e-01 9.3829462786514561e+00 5.1030243331019754e+01 -2 1 0
280 1 3.6438880437812662e+00 9.4963989709216161e+00 4.9935137664049087e+01 3 -1 0
3724 1 3.4754112753188338e+00 9.4823189773312375e+00 4.7235176879995052e+01 0 3 0
1405 1 6.2532660382074576e+00 9.9446232298962318e+00 4.6754720199193471e+01 2 -1 -1
3686 1 3.9059510041504932e+00 3.5344856291864246e-01 5.0130842011765814e+01 0 3 0
2057 1 3.2054675696642970e-01 2.3206848662326665e+00 4.9818138372592891e+01 0 0 0
3032 1 7.9925626398122631e+00 7.4921812765500928e-01 4.8056251729393878e+01 0 -1 0
3342 1 7.4623445486003552e+00 2.9538806142643099e+00 4.9953035693822734e+01 1 5 0
4525 1 6.2791902309245140e+00 3.3547825602960311e+00 4.4683796145514961e+01 0 3 0
398 1 3.7493738200336937e+00 4.8371065442518644e+00 4.9969543235179295e+01 1 0 -1
6119 1 3.8568598211486083e+00 5.0187349164219173e+00 4.7171444866545400e+01 1 2 -1
3448 1 7.8303110229295614e+00 5.0986449794257407e+00 4.8580415912817337e+01 2 1 -1
2165 1 7.4795539702757141e+00 7.1765020553387222e+00 5.0275102199134437e+01 1 1 0
3 1 2.1958727157822202e+00 1.2038031319903860e+01 4.6292034847159151e+01 -3 3 -1
5030 1 9.5062473218404602e+00 8.2266851834871026e+00 4.4841743615764422e+01 -2 -1 -1
1404 1 4.6643443012813490e+00 7.2191579587799835e+00 5.1067974852528337e+01 1 1 0
6018 1 4.9153088268816001e+00 2.7663623914410103e+00 5.0973884546183456e+01 3 1 0
4789 1 1.2610593780782213e+00 4.6467565739079477e+00 5.0825304063442907e+01 2 4 -1
3388 1 4.7175173271270543e+00 1.1954789752105984e+01 5.1039224382439144e+01 0 2 -1
1740 1 6.4534779999494596e+00 9.7280049867375116e+00 5.7869073718323001e+01 3 0 -1
6283 1 1.7621886916001712e+00 1.1735728391864477e+01 5.4605775814892255e+01 -1 1 0
1700 1 1.0288556253990340e+00 9.3032403084661066e+00 5.7999661267514306e+01 -2 0 0
1870 1 5.3088210736417700e+00 2.7012060766412436e+00 5.3527979048350872e+01 1 1 -1
6025 1 9.4115620490151297e+00 3.1073544916992195e+00 5.1925954064760731e+01 -1 2 0
2077 1 6.9146580571400422e+00 8.3823091308527686e-01 5.4537793341890563e+01 1 1 -1
6212 1 6.3108366063577757e+00 5.1229101538909756e+00 5.4643538540794303e+01 2 4 -1
3017 1 1.4179121693803205e+00 4.9953068831725789e+00 5.3594014869266189e+01 3 -1 -1
5062 1 2.2572691461988361e+00 7.0189406251482680e+00 5.7352665396443349e+01 1 2 -1
1457 1 4.5180641466886948e+00 1.1944054031946401e+01 5.3722528162558802e+01 2 0 0
3220 1 5.2714016132907622e+00 7.6311452084934270e+00 5.3868716003761868e+01 1 1 0
5016 1 9.1001501802198614e+00 5.1329063008634890e+00 5.4031051676378411e+01 1 1 -1
5319 1 8.9408484917400237e+00 7.6985584216063820e+00 5.2799298437212499e+01 -3 1 0
1907 1 1.7309121710603965e+00 1.1890647968731015e+01 5.7399716952085782e+01 2 1 0
5208 1 9.8391230168503752e-01 9.1736355093844004e+00 5.3737359455436788e+01 -1 4 -1
1621 1 9.3595062888596132e+00 1.0676915583497895e+01 5.6513478312269179e+01 1 1 -1
1752 1 6.0988016754750660e+00 5.1486301935166408e+00 5.7422411142212738e+01 2 3 -1
89 1 8.4682825317220978e+00 1.0098887574388025e+01 5.4198809299775675e+01 1 1 0
102 1 2.9236989918295651e+00 2.5201047567425925e+00 5.4423420147735783e+01 0 0 -1
4459 1 2.8150973577770757e+00 2.5304438275344632e+00 5.7283980304637574e+01 2 1 0
5049 1 6.8201291039662593e+00 5.0471810639442805e-01 5.7216101593695122e+01 1 1 -1
6174 1 5.8786880658184364e+00 9.9575352006058484e+00 5.5089414807407429e+01 2 2 0
6096 1 2.6279721442968675e+00 7.3620882858353296e+00 5.4729260746842151e+01 3 1 0
1480 1 1.7387541313762616e+00 2.0371034504295518e-01 5.3888786615588074e+01 0 2 -1
72 1 9.4091827227653742e+00 6.6594556733596943e-01 5.3414793794117529e+01 1 -1 -1
4957 1 9.5157955296851124e+00 8.2264382628861537e+00 5.8085711318433297e+01 -1 1 0
1777 1 4.6127078887928761e+00 1.1685838973624129e+01 5.8014246878100522e+01 -3 -2 -1
2100 1 9.4370536720308920e+00 1.3341174797208308e-01 5.8151289614338189e+01 -2 0 0
2013 1 5.2705000071224042e+00 2.5769490682563947e+00 5.8165116548499846e+01 -1 4 -1
2870 1 1.1315669717638386e+00 1.3719125990758279e+01 4.9216238017383542e+00 1 3 1
1881 1 7.3451608667964052e+00 1.6291432746545226e+01 8.2635266818757458e+00 1 1 1
5089 1 9.1586207835965681e+00 1.3933964138852327e+01 4.3608015714206747e+00 -1 0 0
4553 1 5.0304647246531617e+00 1.6169291808781630e+01 4.5400119393502978e+00 1 3 1
2999 1 3.6511517782152434e+00 1.7902600619533473e+01 8.7059203154038016e+00 2 -2 1
551 1 1.2547143950623998e+00 1.8040315808158375e+01 5.3187180163024781e+00 3 2 1
1750 1 1.9712055423181221e+00 1.8677418698813050e+01 2.4983405479539491e+00 0 -1 0
1523 1 9.2571171367367455e+00 1.8193363050261492e+01 4.5894928612004815e+00 0 2 1
1323 1 3.5866575635466014e-01 1.4209422387787640e+01 2.2390416696630342e+00 -1 3 1
3109 1 1.1619912975594846e+00 2.3133786219657644e+01 5.5016189454277971e+00 0 0 1
6246 1 3.4688705708413492e+00 2.2285177239845098e+01 8.8218351350719324e+00 1 1 1
3071 1 5.1595071231782104e+00 2.0589066834140223e+01 5.2389282825972714e+00 0 -1 1
518 1 8.9123734915695714e+00 2.2757507634157555e+01 4.4142870701425583e+00 1 1 0
4612 1 5.3887044709831668e+00 2.1607565843048892e+01 2.6635076561897759e+00 0 3 1
2997 1 3.4712513752584346e+00 1.3684494814324642e+01 8.3991000287294124e+00 1 3 1
453 1 3.9345345175978310e+00 1.3966862600689243e+01 5.4642689827688766e+00 -2 -2 1
445 1 7.8280929211536172e+00 1.6058336254409227e+01 5.3754147661071023e+00 2 -2 0
6077 1 3.8429503807841852e+00 1.8442609453200625e+01 6.0196206763717512e+00 0 -2 1
6158 1 6.0733058843836378e+00 1.6619666182260584e+01 2.0427954313308909e+00 0 -3 1
1244 1 8.6297455657950639e+00 1.7900545102718908e+01 1.9680296637524126e+00 1 -1 0
1595 1 7.9135958260228341e+00 2.0443578930616464e+01 5.7102771202293052e+00 1 -1 1
4696 1 3.5522944357510680e+00 2.2908401463621992e+01 6.2275342668638025e+00 2 -3 0
3267 1 1.5417080377509700e+00 2.3192146095245807e+01 2.6258148618516661e+00 0 0 0
6000 1 5.0042551022151119e-02 2.0457184906429838e+01 5.9843492453672491e+00 -2 -2 0
6204 1 7.1737195971501624e+00 2.0623776286060345e+01 8.3135798677276505e+00 1 -1 1
3279 1 8.1375758347510239e+00 2.2182220769321358e+01 1.9325665723681453e+00 -3 -3 0
3609 1 1.0386510076788427e+00 1.3746038994225252e+01 1.2050936836614369e+01 -3 2 0
3623 1 8.5602346338323954e-01 1.3949028941501261e+01 9.4215233404716621e+00 -3 -1 0