LAMMPS data file via write_data, version 16 Mar 2018, timestep = 100000

6337 atoms
2 atom types

0.0000000000000000e+00 4.9219999999999999e+01 xlo xhi
0.0000000000000000e+00 4.9019635930410494e+01 ylo yhi
2.5265218655597366e+00 5.7535478134439458e+01 zlo zhi

Masses

1 18.015
2 12.01

Atoms # atomic

4808 1 7.8961757054864978e-01 4.3578052733773713e+00 4.9990184630156378e+00 1 0 0
322 1 4.6382892379933827e+00 1.1099292497422588e+00 6.2035345309090815e+00 1 1 0
4971 1 2.1301341402601159e+00 1.8854725631315661e+00 5.1775258438652241e+00 1 0 1
172 1 7.5399116588655417e+00 2.5078041373412990e-01 6.0857451513023992e+00 1 0 1
2963 1 6.1371072555280355e+00 2.5607975447653479e+00 4.3214719578002558e+00 0 1 1
4885 1 2.3067888600539126e+00 5.3735613822340822e+00 3.1192769879299682e+00 1 1 0
101 1 9.6373925713627440e+00 9.7298565312468401e+00 7.7152931294397789e+00 -1 0 0
4567 1 4.9718908306594356e+00 5.1292560614048046e+00 3.5586468654069678e+00 1 0 0
1834 1 5.9482399538486019e+00 1.1015517057420713e+01 3.1652892988605701e+00 0 0 0
3138 1 1.1321711548153215e+00 8.8307731013453221e+00 6.8463041976531320e+00 0 0 1
4506 1 2.2654560907532133e+00 1.1295965611545800e+01 5.2553759896085612e+00 0 1 1
3326 1 6.7695012063173987e+00 8.5847628018434516e+00 8.2037823466426474e+00 1 1 0
4907 1 8.2837400872003677e+00 6.6777402338250340e+00 2.7872590828718913e+00 0 0 0
1479 1 3.5112609228535407e-01 1.9300798258070040e-01 7.2036539081627087e+00 0 0 1
1641 1 6.4207079156051838e+00 1.0569315703465161e+01 5.8820455586616500e+00 2 0 1
1923 1 4.0376617971254731e+00 1.0131754475099962e+01 6.8980780782783819e+00 0 -1 0
5972 1 8.6460849407772216e+00 4.0241239016882480e+00 3.9953677907155529e+00 1 1 1
3301 1 8.6655783521092751e+00 1.2225481245017741e+01 6.1447353063723469e+00 1 0 1
3089 1 6.7488561993669576e+00 3.4847729007128119e+00 7.6724860334973410e+00 0 0 1
413 1 3.8484641505901922e+00 7.3986315240787297e+00 8.1976791380776017e+00 1 0 0
1840 1 1.2433337632941182e+00 5.7278973124365944e+00 7.3422156072204787e+00 1 1 1
6153 1 8.3484625650120190e+00 8.2077672584347621e+00 5.0897645138646439e+00 1 0 1
106 1 8.8779052357808119e+00 5.9696657296266844e+00 6.3401968374706890e+00 0 0 0
3193 1 5.7769792059739009e+00 5.8945734985608764e+00 6.3170217081849032e+00 1 0 1
1597 1 2.4818575320590752e+00 8.0375750840974032e+00 3.3898224674448723e+00 0 0 0
1833 1 1.6155549282407120e+00 3.6501356545780288e+00 9.1173155233356660e+00 0 1 0
30 1 3.9470916320121927e+00 2.4145056553628002e+00 8.6877722906274144e+00 0 0 0
15 1 1.8762035993036945e+00 3.3573816088833058e-01 3.0660723429735692e+00 0 0 1
2907 1 7.6797189438862787e+00 6.0762196603557586e+00 9.3335606562573581e+00 0 1 1
6327 1 9.1105763799317874e+00 3.2097997506590520e-01 8.9219826842084746e+00 1 1 1
4881 1 2.7668634021341880e+00 6.8412838690843953e+00 1.3709959272315677e+01 1 0 1
1594 1 3.2583963962027984e+00 2.1527986976589406e-01 1.0399170522361587e+01 0 0 1
1776 1 1.3398906937900013e+00 8.9184454889621509e+00 1.1248937300587700e+01 1 0 1
1372 1 4.0554901721795478e+00 7.4273812440140077e+00 1.1045020988471022e+01 1 1 1
5218 1 6.4698391684322933e+00 9.3929868375689161e+00 1.2064928897444261e+01 0 1 0
3085 1 5.4260470819812969e+00 4.3794296153304328e+00 1.0404685284322230e+01 1 1 0
3230 1 3.2008714705317405e+00 1.1002879631475613e+01 1.1329628481744727e+01 0 0 0
1780 1 4.5603433790241246e+00 1.0630034278381375e+01 1.3866949781890098e+01 1 0 0
1527 1 9.1758051582842430e+00 3.0938492988653943e+00 1.2187921978739304e+01 0 1 0
4948 1 6.8930558173129763e-01 3.3841066454843838e+00 1.5552804315820577e+01 0 1 0
3387 1 5.8362839575134444e+00 1.0957517627475042e+01 9.6119369802717038e+00 1 0 1
5043 1 6.0982629533900017e+00 1.2225275410622195e-01 1.1874802872409335e+01 0 1 0
6335 1 9.2236446066738313e+00 8.5067025823275504e+00 1.2687707210268654e+01 0 0 1
5285 1 2.4577347535931393e+00 2.8843543893257380e+00 1.3632263595436839e+01 -1 0 0
1884 1 1.5445732396381442e+00 4.0588955234817758e-01 1.2776411474146231e+01 0 1 0
2008 1 6.8068419284463024e+00 4.5157238045747556e+00 1.4985744983983745e+01 1 0 0
1822 1 7.3065012464698906e+00 7.4040986014985677e+00 1.4712916534029047e+01 0 0 0
6302 1 6.3675728458060306e+00 3.0597737109183636e+00 1.2517145777470139e+01 1 1 0
5056 1 3.4879888997550340e-01 8.0446741942365207e+00 1.3752732394692904e+01 1 0 1
5220 1 2.6447345609428696e+00 4.7982387340934816e+00 1.1302767155740096e+01 1 0 0
1770 1 4.8653507236439673e+00 8.3742168873239127e+00 1.5140701042255913e+01 0 1 0
1913 1 9.7005311881320004e+00 6.2619420999373663e+00 1.1212629562151456e+01 1 0 0
51 1 8.4202361797150012e+00 9.4882476570796506e+00 1.6276223420519649e+01 1 -1 0
1385 1 9.1889153589627632e+00 1.4824708832603192e-01 1.1933440750760310e+01 0 0 1
3460 1 4.0710523418351059e+00 4.9052443915777850e+00 1.5684533628559100e+01 1 0 0
3334 1 9.7277471619651195e+00 1.2054705089879155e+01 1.5755022001260603e+01 1 0 0
4746 1 9.0452982094691698e+00 3.1918518194153638e+00 9.6486154633940160e+00 1 0 0
285 1 6.7232695061914605e+00 1.7106306552395294e+00 1.6945043635791500e+01 1 0 0
2980 1 2.3323410428830457e-01 3.5366341809984863e+00 1.9620787213157016e+01 1 1 1
4980 1 2.7178172749556668e+00 4.0599087087241053e+00 2.1466424796348921e+01 0 1 1
5004 1 9.2479649805660735e-01 6.9781888157977630e+00 1.9030106095131256e+01 0 1 1
5188 1 4.5683031973747648e+00 6.0257061396527805e+00 2.0653173277244569e+01 1 1 0
5032 1 3.8203680072632471e+00 6.5097927979006496e+00 1.7899167932029094e+01 1 1 0
6286 1 3.9389919996239606e+00 8.4931009321559223e+00 2.1464571938371552e+01 1 0 1
1397 1 2.2603155733056446e+00 3.5877818648956241e+00 1.7524083249693390e+01 0 0 0
5155 1 1.3981175031148271e-01 9.7001249978389819e+00 1.7891713254422463e+01 0 -1 0
1667 1 8.4083167583202183e+00 8.4855734471830129e+00 1.9820794070872108e+01 0 1 0
1754 1 9.5228771968138961e+00 5.8512565381192925e+00 2.0323000696237816e+01 0 0 0
6072 1 4.2100283150717992e+00 1.6243295400064195e+00 1.8270018690718032e+01 1 0 1
1903 1 1.0308639354531908e+00 8.5019663645630157e+00 2.1543361301029499e+01 1 1 0
3741 1 4.1544989754495845e+00 9.3694124091793718e+00 1.8556087047945255e+01 -1 0 0
184 1 7.2357969861520957e+00 4.6125263921727733e+00 2.1160810267887559e+01 0 0 0
3135 1 6.6108866076804338e+00 1.0233975860249210e+01 1.8397188058038267e+01 0 1 1
4552 1 4.1048535411858813e+00 1.6318450116350094e+00 2.1127310602574074e+01 1 1 1
5116 1 6.3780088130178969e+00 1.0212561606505966e+01 2.1752984971284093e+01 1 1 0
3505 1 7.0622618042897409e+00 2.2612985798491398e+00 1.9777866109539140e+01 1 1 0
1736 1 9.6453645693165875e+00 1.2254554673109228e+00 1.9052682147238048e+01 1 1 0
5206 1 8.7192779948665287e+00 1.2006285753027022e+01 2.1446337424824105e+01 0 0 0
5968 1 9.2482632205404602e+00 3.6460762415213051e+00 1.6370224270054138e+01 1 1 1
1651 1 2.2569708340432091e+00 1.0661336624611957e+01 1.6336841943635925e+01 0 1 0
3434 1 3.6188585173382708e+00 1.6316494415138010e+00 2.4564267682397418e+01 1 0 1
687 2 8.6134999999999984e+00 9.2355835810918343e+00 2.6863204121907920e+01 0 0 0
6275 1 6.2315304325000787e+00 1.2254419820351370e+00 2.3254234269011970e+01 0 0 1
257 1 2.8230029887715449e+00 4.3037149139105191e+00 2.4275233743137470e+01 0 1 0
5103 1 5.4140521331947378e+00 5.4887189587478664e+00 2.4061514840634164e+01 0 -1 0
3352 1 7.5341585512192575e+00 3.6760933696157920e+00 2.3907063103045331e+01 1 0 0
642 2 6.1524999999999999e+00 9.2355835810918343e+00 2.6863204121907920e+01 0 0 0
685 2 7.3830000000000009e+00 8.5251540748539991e+00 2.6863204121907920e+01 0 0 0
230 1 2.3105433083175750e+00 9.8411432655452948e+00 2.4110069108351386e+01 0 0 1
3371 1 4.7647675697120793e+00 8.3217793508931823e+00 2.4317257513588224e+01 0 0 0
4455 1 7.4355053954284571e+00 9.6733006060957436e+00 2.4531374652061771e+01 0 0 1
554 2 0.0000000000000000e+00 2.8417180249513345e+00 2.6863204121907920e+01 0 0 0
556 2 0.0000000000000000e+00 0.0000000000000000e+00 2.6863204121907920e+01 0 0 0
558 2 1.2305000000000001e+00 7.1042950623783474e-01 2.6863204121907920e+01 0 0 0
565 2 1.2305000000000001e+00 2.1312885187134998e+00 2.6863204121907920e+01 0 0 0
567 2 2.4610000000000003e+00 2.8417180249513345e+00 2.6863204121907920e+01 0 0 0
569 2 2.4610000000000003e+00 0.0000000000000000e+00 2.6863204121907920e+01 0 0 0
571 2 3.6915000000000004e+00 7.1042950623783474e-01 2.6863204121907920e+01 0 0 0
586 2 3.6914999999999996e+00 2.1312885187134998e+00 2.6863204121907920e+01 0 0 0
588 2 4.9220000000000006e+00 2.8417180249513332e+00 2.6863204121907920e+01 0 0 0
590 2 4.9220000000000006e+00 0.0000000000000000e+00 2.6863204121907920e+01 0 0 0
592 2 6.1524999999999999e+00 7.1042950623783407e-01 2.6863204121907920e+01 0 0 0
615 2 6.1524999999999999e+00 2.1312885187134989e+00 2.6863204121907920e+01 0 0 0
617 2 7.3829999999999991e+00 2.8417180249513345e+00 2.6863204121907920e+01 0 0 0
619 2 7.3829999999999991e+00 0.0000000000000000e+00 2.6863204121907920e+01 0 0 0
621 2 8.6134999999999984e+00 7.1042950623783407e-01 2.6863204121907920e+01 0 0 0
652 2 8.6134999999999984e+00 2.1312885187135002e+00 2.6863204121907920e+01 0 0 0
561 2 0.0000000000000000e+00 4.2625770374269996e+00 2.6863204121907920e+01 0 0 0
563 2 1.2305000000000001e+00 4.9730065436648339e+00 2.6863204121907920e+01 0 0 0
578 2 1.2305000000000001e+00 6.3938655561404980e+00 2.6863204121907920e+01 0 0 0
582 2 2.4610000000000003e+00 4.2625770374269996e+00 2.6863204121907920e+01 0 0 0
584 2 3.6914999999999996e+00 4.9730065436648339e+00 2.6863204121907920e+01 0 0 0
607 2 3.6914999999999996e+00 6.3938655561404980e+00 2.6863204121907920e+01 0 0 0
559 2 0.0000000000000000e+00 7.1042950623783341e+00 2.6863204121907920e+01 0 0 0
580 2 2.4610000000000003e+00 7.1042950623783341e+00 2.6863204121907920e+01 0 0 0
611 2 4.9220000000000006e+00 4.2625770374269978e+00 2.6863204121907920e+01 0 0 0
613 2 6.1524999999999999e+00 4.9730065436648339e+00 2.6863204121907920e+01 0 0 0
644 2 6.1524999999999999e+00 6.3938655561404980e+00 2.6863204121907920e+01 0 0 0
648 2 7.3829999999999991e+00 4.2625770374269996e+00 2.6863204121907920e+01 0 0 0
650 2 8.6135000000000002e+00 4.9730065436648339e+00 2.6863204121907920e+01 0 0 0
689 2 8.6135000000000002e+00 6.3938655561404980e+00 2.6863204121907920e+01 0 0 0
609 2 4.9220000000000006e+00 7.1042950623783341e+00 2.6863204121907920e+01 0 0 0
646 2 7.3830000000000009e+00 7.1042950623783341e+00 2.6863204121907920e+01 0 0 0
574 2 0.0000000000000000e+00 8.5251540748539991e+00 2.6863204121907920e+01 0 0 0
576 2 1.2305000000000001e+00 9.2355835810918343e+00 2.6863204121907920e+01 0 0 0
603 2 2.4610000000000003e+00 8.5251540748539991e+00 2.6863204121907920e+01 0 0 0
605 2 3.6915000000000004e+00 9.2355835810918343e+00 2.6863204121907920e+01 0 0 0
572 2 0.0000000000000000e+00 1.1366872099805333e+01 2.6863204121907920e+01 0 0 0
599 2 1.2305000000000001e+00 1.0656442593567498e+01 2.6863204121907920e+01 0 0 0
601 2 2.4610000000000003e+00 1.1366872099805333e+01 2.6863204121907920e+01 0 0 0
636 2 3.6914999999999996e+00 1.0656442593567499e+01 2.6863204121907920e+01 0 0 0
640 2 4.9220000000000006e+00 8.5251540748539991e+00 2.6863204121907920e+01 0 0 0
683 2 7.3829999999999991e+00 1.1366872099805333e+01 2.6863204121907920e+01 0 0 0
728 2 8.6134999999999984e+00 1.0656442593567498e+01 2.6863204121907920e+01 0 0 0
638 2 4.9220000000000006e+00 1.1366872099805333e+01 2.6863204121907920e+01 0 0 0
681 2 6.1524999999999999e+00 1.0656442593567499e+01 2.6863204121907920e+01 0 0 0
555 2 0.0000000000000000e+00 1.4208590124756650e+00 3.0030999999999633e+01 0 0 0
557 2 0.0000000000000000e+00 0.0000000000000000e+00 3.0030999999999633e+01 0 0 0
566 2 1.2305000000000001e+00 2.1312885187134998e+00 3.0030999999999633e+01 0 0 0
568 2 2.4610000000000003e+00 1.4208590124756650e+00 3.0030999999999633e+01 0 0 0
570 2 2.4610000000000003e+00 0.0000000000000000e+00 3.0030999999999633e+01 0 0 0
587 2 3.6914999999999996e+00 2.1312885187134998e+00 3.0030999999999633e+01 0 0 0
564 2 1.2305000000000001e+00 3.5521475311891644e+00 3.0030999999999633e+01 0 0 0
585 2 3.6914999999999996e+00 3.5521475311891644e+00 3.0030999999999633e+01 0 0 0
883 2 0.0000000000000000e+00 2.8417180249513345e+00 3.3198795878087552e+01 0 0 0
884 2 0.0000000000000000e+00 0.0000000000000000e+00 3.3198795878087552e+01 0 0 0
885 2 1.2305000000000001e+00 7.1042950623783474e-01 3.3198795878087552e+01 0 0 0
889 2 1.2305000000000001e+00 2.1312885187134998e+00 3.3198795878087552e+01 0 0 0
890 2 2.4610000000000003e+00 2.8417180249513345e+00 3.3198795878087552e+01 0 0 0
891 2 2.4610000000000003e+00 0.0000000000000000e+00 3.3198795878087552e+01 0 0 0
892 2 3.6915000000000004e+00 7.1042950623783474e-01 3.3198795878087552e+01 0 0 0
900 2 3.6914999999999996e+00 2.1312885187134998e+00 3.3198795878087552e+01 0 0 0
589 2 4.9220000000000006e+00 1.4208590124756650e+00 3.0030999999999633e+01 0 0 0
591 2 4.9220000000000006e+00 0.0000000000000000e+00 3.0030999999999633e+01 0 0 0
616 2 6.1524999999999999e+00 2.1312885187134989e+00 3.0030999999999633e+01 0 0 0
618 2 7.3829999999999991e+00 1.4208590124756659e+00 3.0030999999999633e+01 0 0 0
620 2 7.3829999999999991e+00 0.0000000000000000e+00 3.0030999999999633e+01 0 0 0
653 2 8.6134999999999984e+00 2.1312885187135002e+00 3.0030999999999633e+01 0 0 0
614 2 6.1524999999999999e+00 3.5521475311891644e+00 3.0030999999999633e+01 0 0 0
651 2 8.6134999999999984e+00 3.5521475311891657e+00 3.0030999999999633e+01 0 0 0
901 2 4.9220000000000006e+00 2.8417180249513332e+00 3.3198795878087552e+01 0 0 0
902 2 4.9220000000000006e+00 0.0000000000000000e+00 3.3198795878087552e+01 0 0 0
903 2 6.1524999999999999e+00 7.1042950623783407e-01 3.3198795878087552e+01 0 0 0
915 2 6.1524999999999999e+00 2.1312885187134989e+00 3.3198795878087552e+01 0 0 0
916 2 7.3829999999999991e+00 2.8417180249513345e+00 3.3198795878087552e+01 0 0 0
917 2 7.3829999999999991e+00 0.0000000000000000e+00 3.3198795878087552e+01 0 0 0
918 2 8.6134999999999984e+00 7.1042950623783407e-01 3.3198795878087552e+01 0 0 0
934 2 8.6134999999999984e+00 2.1312885187135002e+00 3.3198795878087552e+01 0 0 0
560 2 0.0000000000000000e+00 5.6834360499026637e+00 3.0030999999999633e+01 0 0 0
562 2 0.0000000000000000e+00 4.2625770374269996e+00 3.0030999999999633e+01 0 0 0
579 2 1.2305000000000001e+00 6.3938655561404980e+00 3.0030999999999633e+01 0 0 0
581 2 2.4610000000000003e+00 5.6834360499026637e+00 3.0030999999999633e+01 0 0 0
583 2 2.4610000000000003e+00 4.2625770374269996e+00 3.0030999999999633e+01 0 0 0
608 2 3.6914999999999996e+00 6.3938655561404980e+00 3.0030999999999633e+01 0 0 0
577 2 1.2305000000000001e+00 7.8147245686161639e+00 3.0030999999999633e+01 0 0 0
606 2 3.6914999999999996e+00 7.8147245686161639e+00 3.0030999999999633e+01 0 0 0
887 2 0.0000000000000000e+00 4.2625770374269996e+00 3.3198795878087552e+01 0 0 0
888 2 1.2305000000000001e+00 4.9730065436648339e+00 3.3198795878087552e+01 0 0 0
896 2 1.2305000000000001e+00 6.3938655561404980e+00 3.3198795878087552e+01 0 0 0
898 2 2.4610000000000003e+00 4.2625770374269996e+00 3.3198795878087552e+01 0 0 0
899 2 3.6914999999999996e+00 4.9730065436648339e+00 3.3198795878087552e+01 0 0 0
911 2 3.6914999999999996e+00 6.3938655561404980e+00 3.3198795878087552e+01 0 0 0
886 2 0.0000000000000000e+00 7.1042950623783341e+00 3.3198795878087552e+01 0 0 0
897 2 2.4610000000000003e+00 7.1042950623783341e+00 3.3198795878087552e+01 0 0 0
610 2 4.9220000000000006e+00 5.6834360499026637e+00 3.0030999999999633e+01 0 0 0
612 2 4.9220000000000006e+00 4.2625770374269978e+00 3.0030999999999633e+01 0 0 0
645 2 6.1524999999999999e+00 6.3938655561404980e+00 3.0030999999999633e+01 0 0 0
647 2 7.3829999999999991e+00 5.6834360499026637e+00 3.0030999999999633e+01 0 0 0
649 2 7.3829999999999991e+00 4.2625770374269996e+00 3.0030999999999633e+01 0 0 0
690 2 8.6135000000000002e+00 6.3938655561404980e+00 3.0030999999999633e+01 0 0 0
643 2 6.1524999999999999e+00 7.8147245686161639e+00 3.0030999999999633e+01 0 0 0
688 2 8.6135000000000002e+00 7.8147245686161639e+00 3.0030999999999633e+01 0 0 0
913 2 4.9220000000000006e+00 4.2625770374269978e+00 3.3198795878087552e+01 0 0 0
914 2 6.1524999999999999e+00 4.9730065436648339e+00 3.3198795878087552e+01 0 0 0
930 2 6.1524999999999999e+00 6.3938655561404980e+00 3.3198795878087552e+01 0 0 0
932 2 7.3829999999999991e+00 4.2625770374269996e+00 3.3198795878087552e+01 0 0 0
933 2 8.6135000000000002e+00 4.9730065436648339e+00 3.3198795878087552e+01 0 0 0
953 2 8.6135000000000002e+00 6.3938655561404980e+00 3.3198795878087552e+01 0 0 0
912 2 4.9220000000000006e+00 7.1042950623783341e+00 3.3198795878087552e+01 0 0 0
931 2 7.3830000000000009e+00 7.1042950623783341e+00 3.3198795878087552e+01 0 0 0
573 2 0.0000000000000000e+00 9.9460130873296642e+00 3.0030999999999633e+01 0 0 0
575 2 0.0000000000000000e+00 8.5251540748539991e+00 3.0030999999999633e+01 0 0 0
602 2 2.4610000000000003e+00 9.9460130873296642e+00 3.0030999999999633e+01 0 0 0
604 2 2.4610000000000003e+00 8.5251540748539991e+00 3.0030999999999633e+01 0 0 0
598 2 1.2305000000000001e+00 1.2077301606043163e+01 3.0030999999999633e+01 0 0 0
600 2 1.2305000000000001e+00 1.0656442593567498e+01 3.0030999999999633e+01 0 0 0
635 2 3.6914999999999996e+00 1.2077301606043163e+01 3.0030999999999633e+01 0 0 0
637 2 3.6914999999999996e+00 1.0656442593567499e+01 3.0030999999999633e+01 0 0 0
894 2 0.0000000000000000e+00 8.5251540748539991e+00 3.3198795878087552e+01 0 0 0
895 2 1.2305000000000001e+00 9.2355835810918343e+00 3.3198795878087552e+01 0 0 0
909 2 2.4610000000000003e+00 8.5251540748539991e+00 3.3198795878087552e+01 0 0 0
910 2 3.6915000000000004e+00 9.2355835810918343e+00 3.3198795878087552e+01 0 0 0
893 2 0.0000000000000000e+00 1.1366872099805333e+01 3.3198795878087552e+01 0 0 0
907 2 1.2305000000000001e+00 1.0656442593567498e+01 3.3198795878087552e+01 0 0 0
908 2 2.4610000000000003e+00 1.1366872099805333e+01 3.3198795878087552e+01 0 0 0
926 2 3.6914999999999996e+00 1.0656442593567499e+01 3.3198795878087552e+01 0 0 0
639 2 4.9220000000000006e+00 9.9460130873296642e+00 3.0030999999999633e+01 0 0 0
641 2 4.9220000000000006e+00 8.5251540748539991e+00 3.0030999999999633e+01 0 0 0
684 2 7.3830000000000009e+00 9.9460130873296642e+00 3.0030999999999633e+01 0 0 0
686 2 7.3830000000000009e+00 8.5251540748539991e+00 3.0030999999999633e+01 0 0 0
680 2 6.1524999999999999e+00 1.2077301606043163e+01 3.0030999999999633e+01 0 0 0
682 2 6.1524999999999999e+00 1.0656442593567499e+01 3.0030999999999633e+01 0 0 0
727 2 8.6135000000000002e+00 1.2077301606043163e+01 3.0030999999999633e+01 0 0 0
729 2 8.6134999999999984e+00 1.0656442593567498e+01 3.0030999999999633e+01 0 0 0
928 2 4.9220000000000006e+00 8.5251540748539991e+00 3.3198795878087552e+01 0 0 0
929 2 6.1524999999999999e+00 9.2355835810918343e+00 3.3198795878087552e+01 0 0 0
951 2 7.3830000000000009e+00 8.5251540748539991e+00 3.3198795878087552e+01 0 0 0
952 2 8.6134999999999984e+00 9.2355835810918343e+00 3.3198795878087552e+01 0 0 0
927 2 4.9220000000000006e+00 1.1366872099805333e+01 3.3198795878087552e+01 0 0 0
949 2 6.1524999999999999e+00 1.0656442593567499e+01 3.3198795878087552e+01 0 0 0
950 2 7.3829999999999991e+00 1.1366872099805333e+01 3.3198795878087552e+01 0 0 0
973 2 8.6134999999999984e+00 1.0656442593567498e+01 3.3198795878087552e+01 0 0 0
1976 1 8.4810444199383710e+00 1.0761909328801062e+01 3.5817657253599506e+01 1 0 -1
6142 1 3.0710886134070905e+00 1.6703083442140703e+00 3.5549984687736526e+01 1 1 0
4680 1 5.2235834384330913e+00 8.2202253453607508e+00 3.5897201153032647e+01 1 0 0
4788 1 6.9486781051079873e+00 2.6492751772046566e+00 3.5896972888859608e+01 0 1 0
3134 1 2.9720446085620917e+00 6.5910228057292510e+00 3.5826133220537464e+01 0 1 0
1303 1 7.3374035900164927e+00 6.0727290699345806e+00 3.5911654789561112e+01 0 0 0
4443 1 1.6055176823975409e-01 2.3878420738091646e+00 3.5820666244279039e+01 0 0 -1
541 1 4.5331928610788532e+00 3.9681767452491048e+00 3.5839038730977755e+01 0 1 0
1389 1 5.4123367780583802e+00 1.1029250031177577e+01 3.6052596760305498e+01 -1 0 0
4875 1 2.3593066933745105e-01 5.3121503544845226e+00 3.5696344477002256e+01 1 0 0
3021 1 9.3476258474022149e+00 8.2038842696236625e+00 3.5669924476019922e+01 0 0 0
3207 1 1.0298218837097792e+00 9.0078771895591849e+00 3.5787379785753309e+01 0 1 -1
3698 1 2.6040243018382037e+00 1.1249354852269311e+01 3.5707968662280720e+01 1 0 0
2971 1 9.4630516942661185e+00 3.8329490800323547e+00 3.5767215888707817e+01 0 1 0
3369 1 7.0589215082108703e-01 2.7324524009991591e+00 3.8908245292580268e+01 1 1 -1
4825 1 1.9036373235500306e+00 5.4578186871294285e+00 3.8243008021167036e+01 0 0 0
4908 1 8.8917347094630799e+00 1.1831949221645973e+01 3.8740331637232138e+01 0 0 -1
4440 1 1.9649856031275736e+00 8.7068627515596155e+00 3.8455645878470705e+01 1 1 -1
3552 1 5.5759117473000934e+00 1.1220293910612519e+01 4.2968266292213940e+01 1 1 -1
1474 1 4.5024012277792087e+00 4.1744246702034156e+00 3.8750773783287514e+01 1 1 0
393 1 6.8203877535146891e+00 2.1727350985240550e+00 3.8723065776453353e+01 0 2 0
3670 1 6.3429115227866655e+00 6.3240190670394929e+00 3.8994027764794041e+01 0 0 0
1391 1 9.2984348280979123e-01 1.0411602838494323e+01 4.0330279241028379e+01 0 0 0
2996 1 2.3872378542243480e+00 6.8162843816272218e+00 4.0645363592396656e+01 0 1 0
5110 1 5.0183235876637386e+00 8.7296209879816473e+00 3.8590768186258558e+01 1 0 -1
1356 1 6.1925464306332447e+00 1.0980208879103479e+01 3.9692137685157284e+01 0 0 0
28 1 2.2564316036025205e+00 1.0936263291086409e+01 4.3079374923477154e+01 0 1 -1
1800 1 6.9686304875938649e+00 5.4204347958971055e-01 4.1545907419715739e+01 1 0 -1
1525 1 4.9219634987977248e+00 3.7516680091964423e+00 4.3349843485408890e+01 0 0 -1
5111 1 3.0948094900376875e+00 2.5547136675731910e+00 4.0839799853530323e+01 0 1 -1
3031 1 4.4017332439358388e+00 8.7680496143000450e+00 4.3416350197856886e+01 0 0 0
1939 1 4.8251598857237967e+00 5.8501980489363099e+00 4.1414808687397631e+01 0 1 -1
1441 1 9.1816064117862073e+00 3.0650229456105911e+00 4.0263370322215124e+01 1 1 -1
4802 1 8.1060296821668043e+00 5.5890987840751860e+00 4.1578600666287620e+01 0 0 -1
1249 1 5.5930789202759867e-01 5.8660350935715533e+00 4.2548239810005050e+01 0 1 0
1313 1 7.7061401174792623e+00 2.8233549931933348e+00 4.3072218250813641e+01 0 0 0
6040 1 8.2301919566681274e+00 1.1047316471032106e+01 4.1826002479937209e+01 0 0 0
2915 1 1.9731570449971712e+00 3.5017820238562876e+00 4.3377974543982440e+01 1 1 -1
1932 1 9.3063580419918335e+00 5.1500449687132859e+00 3.8225548810740136e+01 0 1 -1
4929 1 9.4230778069641108e+00 8.9238235561779611e+00 4.3301851136937003e+01 -1 -1 0
2975 1 1.0293236672596741e-01 2.0969876156678260e+00 4.1992217805167392e+01 0 1 0
1581 1 6.7664236395443806e+00 7.3128025926801090e+00 4.3418770787288167e+01 0 0 0
4873 1 8.5346944603230990e-01 9.5828683667368733e+00 4.5393778082638853e+01 1 0 -1
6253 1 2.0922409452953632e+00 7.2203078491827695e+00 4.4498947971166231e+01 1 1 0
3544 1 7.5758155767519089e+00 2.1007924964521694e+00 4.5805268520396787e+01 0 0 -1
6017 1 2.3159120216759696e-01 5.3251360856246839e+00 5.0012616880515665e+01 2 1 0
4537 1 2.5319982218989225e+00 1.0904169090655159e+01 4.6900785879474334e+01 1 0 -1
6205 1 3.5586315764713672e+00 6.6911154879417571e+00 4.6900765362768063e+01 1 1 0
2147 1 5.5542683699658895e+00 5.5626561063196940e+00 4.5337490460298845e+01 1 1 0
386 1 4.4814589906532651e+00 9.2120499009589736e+00 4.5977841372520878e+01 0 -1 -1
2965 1 6.6401928540800501e+00 1.1384126326253970e+01 4.5410092649846085e+01 0 0 0
1804 1 3.1627021540710185e+00 7.3839607862980150e-01 4.6277305431832325e+01 1 0 0
2856 1 8.5219750272970103e+00 7.6342621838659106e+00 4.6298607310122492e+01 1 1 0
1548 1 1.6974124914297182e+00 3.1299034938998491e+00 4.6279632465294071e+01 0 0 0
492 1 9.4632004390127360e+00 1.0438655286833452e+01 4.8492919332043428e+01 0 0 0
56 1 5.7668653096608873e+00 9.2017827108040318e-01 4.7505734262074697e+01 0 1 0
4547 1 9.6825167224775299e+00 1.0843134392557031e+01 4.5563358875718095e+01 1 0 0
1711 1 4.7149284602902197e+00 2.6254258762201679e+00 5.0036796030982728e+01 0 0 -1
1505 1 3.1977096446796316e+00 9.4666295572907124e+00 4.9504582237875994e+01 0 0 -1
5324 1 6.5582167599115504e+00 8.9102003795748068e+00 4.7767488880777989e+01 1 -1 0
2958 1 1.0364942161092185e+00 5.4419333749049761e+00 4.7542447734563183e+01 0 -1 0
1325 1 4.2332736957696460e-02 9.8932634861813913e+00 4.8829725968241654e+01 0 1 -1
6200 1 4.9761174392587444e+00 7.2537129756924381e+00 4.9485828031416879e+01 1 0 -1
6324 1 7.6460438924745544e+00 4.9272876620330983e+00 4.6898007343963151e+01 1 1 0
199 1 6.4784031083078508e+00 4.6226278658739268e+00 4.9527669435358469e+01 -1 1 -1
1238 1 6.8674094775200061e+00 1.1207989629361339e+01 4.9863567144726474e+01 0 0 0
273 1 9.8213512045912505e+00 7.7404602000808618e+00 4.8993512021839287e+01 0 -1 -1
6173 1 5.2071924322727074e+00 1.5027422546441174e+00 5.2385167806499616e+01 1 1 0
1662 1 8.1390051615788259e+00 1.3599181623423091e+00 5.5696849788444865e+01 0 1 -1
1593 1 7.7552512615481444e+00 2.3597001472607158e+00 5.3094554827123986e+01 -1 0 0
2860 1 4.2490467449391875e+00 6.9396280975790674e+00 5.2350151465694992e+01 0 0 0
4743 1 1.5879966913292207e+00 6.7947995717298166e+00 5.1889136622032119e+01 1 0 0
495 1 7.4127313699882551e+00 4.8928796689543512e+00 5.2307622166762748e+01 0 0 0
6330 1 1.2573277230050814e+00 1.1564643338579014e+01 5.2922457125784234e+01 1 1 0
4739 1 7.5244258567257125e+00 1.0270168683583995e+01 5.2455288766481061e+01 0 0 0
1244 1 4.7281355326799837e+00 9.7905374134372121e+00 5.2954172594225504e+01 1 0 -1
4732 1 4.4250197010057892e+00 9.1214016851083048e+00 5.6742514932989039e+01 0 1 -1
47 1 1.7555642237884654e+00 4.2872458498608799e+00 5.5537761170550844e+01 0 0 -1
3219 1 6.9182798864699624e-01 6.3261783178946756e+00 5.4264909128311302e+01 0 2 0
4786 1 3.9564037941600096e+00 2.8491880854653742e+00 5.4866718227835221e+01 0 1 -1
1595 1 5.5868827352254478e+00 1.6286422290158080e+00 5.6788387468329724e+01 1 1 0
5020 1 9.6804081185619548e+00 1.1595409766780072e+00 5.1472880575899559e+01 1 0 -1
3029 1 5.4413940556689360e+00 5.1171762740392133e+00 5.4285573413059701e+01 2 0 0
6230 1 6.0486634715599044e+00 7.0223736179349512e+00 5.6407482559310502e+01 1 1 -1
3268 1 7.0762513659884541e-01 8.5786843200302680e+00 5.6171117636017811e+01 1 0 -1
1584 1 2.6173223133389500e+00 1.0388179430258889e+01 5.4913983727489445e+01 1 0 -1
6306 1 5.0613281075328631e-01 9.2883043612805416e+00 5.1517647709294621e+01 0 0 -1
5121 1 1.7761544635953728e+00 3.4164750052140267e+00 5.0990580536059632e+01 1 0 0
6301 1 1.3755607958701158e-01 2.0153287743777932e+00 5.6482647704855992e+01 1 0 0
6158 1 9.4435715393268591e+00 6.3404014110650397e+00 5.1718078253938693e+01 0 -1 0
85 1 9.6298509275965163e+00 8.6075859205500116e+00 5.2949037883460001e+01 1 0 0
6027 1 4.0512603201158115e-01 1.0547009057233099e+00 5.0706771856200689e+01 0 1 0
3070 1 4.2795302040070151e+00 1.1590701673367718e+01 5.0709457538221649e+01 1 0 -1
6328 1 4.2015584929000012e+00 1.5407216358949290e+01 4.9940342379453426e+00 1 1 0
5030 1 1.3213054920808358e+00 1.5806714197955921e+01 5.5960472560470365e+00 1 0 0
1920 1 3.9629022946790213e+00 1.7125778930466257e+01 8.9485700335210865e+00 1 1 0
2947 1 4.0708301815913250e+00 1.2993154715271217e+01 3.5188394712313631e+00 1 0 0
1257 1 6.0044712927189883e+00 1.7539273208337033e+01 4.2226255374950767e+00 0 1 1
6002 1 2.5438884749101773e+00 2.0129638990248157e+01 5.5023735935922371e+00 1 -1 1
4860 1 1.8920384492569802e+00 1.8247268050466413e+01 3.1713432151549310e+00 -1 0 0
3008 1 8.3950541457365322e+00 1.7609901686353279e+01 2.6896108029768713e+00 1 0 0
3467 1 3.7411651863110738e+00 2.2536937691102221e+01 4.9184086616626601e+00 0 0 0
1652 1 1.1906012589634636e+00 1.6679884291344599e+01 8.2744858814689692e+00 0 0 1
4517 1 7.2321531743320611e+00 2.3480586003896772e+01 3.0763224444676496e+00 1 0 1
3128 1 6.1924637358211054e+00 2.2815601370916553e+01 6.2040247113136626e+00 0 0 1
4933 1 9.3536981446950884e-01 2.3054162473958634e+01 4.9643500507699745e+00 0 0 0
1845 1 4.9611208528511845e+00 1.4715827668101317e+01 7.5200607660913317e+00 1 1 0
6106 1 9.0976798063250630e+00 2.3826202767347791e+01 7.5548093977589108e+00 0 0 1
5070 1 7.6723434771811458e+00 1.4417118971780456e+01 7.6444450723332373e+00 1 1 0
5092 1 4.2296295356306928e+00 1.8185693632950279e+01 6.4497411399579345e+00 1 0 0
379 1 7.6914622690383694e-01 1.3224924114312429e+01 6.3950868244168042e+00 1 0 0
6083 1 6.1481271584354387e+00 2.0167470134835099e+01 7.3425828375942546e+00 1 1 1
6087 1 8.1924093036216785e+00 1.8283216444978635e+01 6.2674606644464852e+00 0 0 0
2888 1 9.2087185994890728e+00 1.6944208650319343e+01 8.6116467954084612e+00 1 0 1
3234 1 9.1747278381586135e+00 2.2373344105476185e+01 4.9872647608669975e+00 1 0 1
4982 1 1.1221706201771047e+00 1.2607974997278211e+01 9.1926814325229884e+00 1 0 0
4791 1 2.0738781498663972e+00 2.4119745448524124e+01 7.8596626263816285e+00 1 0 1
3596 1 5.7517518598571138e-01 1.9648889656002559e+01 7.8167122204511603e+00 1 0 0
3186 1 9.6167025207631021e+00 1.4992063136460189e+01 2.8489616723311886e+00 1 0 1
137 1 3.5869985557251658e+00 1.2565646078336133e+01 8.2333711065678052e+00 1 0 0
183 1 2.0739075428508662e+00 1.3443482321516973e+01 1.1822948205018974e+01 0 1 0
1883 1 7.9933235583922508e+00 1.4937761841325541e+01 1.1813453635968513e+01 0 0 0
3306 1 1.4976225659715032e+00 2.0249746722917575e+01 1.0328012471584536e+01 1 0 0
1298 1 2.3502523438431928e+00 1.7371656089615900e+01 1.1460003038966494e+01 0 1 1
3123 1 5.9744054393196677e+00 1.5489793615606612e+01 1.4014583185153048e+01 0 0 0
4930 1 2.0024328322916123e+00 1.7453760588242371e+01 1.5240092102739014e+01 1 0 0
1458 1 5.7257183981551130e+00 1.8061315878321729e+01 1.0968338949974259e+01 1 1 1
239 1 3.4185553436204303e+00 2.3121525712490083e+01 1.2385289345312650e+01 1 0 0
1436 1 7.5478738546794721e+00 2.2307245465480783e+01 1.5857993959237820e+01 1 0 1
3418 1 5.9693587437663453e-01 2.4325505407191855e+01 1.2109058004966679e+01 1 0 0
1628 1 5.6736508275586699e+00 2.0032989814970016e+01 1.5103899590605037e+01 0 -1 0