
# Create simulation box and atoms

read_data data.ML_graphite_m1000atm_245K
  orthogonal box = (0 0 2.62195) to (49.22 49.0196 57.4401)
  5 by 4 by 8 MPI processor grid
  reading atoms ...
  6337 atoms
  reading velocities ...
  6337 velocities
group water type 1
3577 atoms in group water
group graphite type 2
2760 atoms in group graphite

# Define potential

pair_style sw
pair_coeff * * MLC_e.sw mW C


# Fix graphite atoms in place

fix 5 graphite setforce 0.0 0.0 0.0
velocity graphite set 0.0 0.0 0.0


# Equilibration of molecular water

# Add velocity/set timestep

velocity	    water create ${TEMP} ${SEED} rot yes dist gaussian
velocity	    water create 248 ${SEED} rot yes dist gaussian
velocity	    water create 248 20437 rot yes dist gaussian
timestep	    5.0

# Define output

compute			1 water msd
compute			3 water temp
thermo	    	50
thermo_style	custom step temp press vol etotal ke pe c_1[4] c_3

# Neighbor lists

neigh_modify    delay 0 every 1 check yes

# Set fixes

fix             1 water momentum 10 linear 1 1 1 rescale
fix             2 water nve
fix             3 water temp/csvr ${TEMP} ${TEMP} 500.0 ${SEED}
fix             3 water temp/csvr 248 ${TEMP} 500.0 ${SEED}
fix             3 water temp/csvr 248 248 500.0 ${SEED}
fix             3 water temp/csvr 248 248 500.0 20437
fix             4 water press/berendsen z ${PRES} ${PRES} 1000.0 modulus 20000
fix             4 water press/berendsen z -1000 ${PRES} 1000.0 modulus 20000
fix             4 water press/berendsen z -1000 -1000 1000.0 modulus 20000

# Run 0.5 ns equilibration

dump		    1 all atom 2000 ${DIR}/eq.${NAME}-${TEMP}.dump
dump		    1 all atom 2000 run_22/eq.${NAME}-${TEMP}.dump
dump		    1 all atom 2000 run_22/eq.het_freeze_22-${TEMP}.dump
dump		    1 all atom 2000 run_22/eq.het_freeze_22-248.dump

reset_timestep  0

run	            100000
Neighbor list info ...
  update every 1 steps, delay 0 steps, check yes
  max neighbors/atom: 2000, page size: 100000
  master list distance cutoff = 6.67472
  ghost atom cutoff = 6.67472
  binsize = 3.33736, bins = 15 15 17
  1 neighbor lists, perpetual/occasional/extra = 1 0 0
  (1) pair sw, perpetual
      attributes: full, newton on
      pair build: full/bin/atomonly
      stencil: full/bin/3d
      bin: standard
Per MPI rank memory allocation (min/avg/max) = 4.066 | 4.174 | 4.485 Mbytes
Step Temp Press Volume TotEng KinEng PotEng c_1[4] c_3 
       0     139.9697   -1056.0851     132262.2   -34085.323    2643.5254   -36728.848            0          248 
      50    140.62505   -866.03067    132357.34   -34072.385    2655.9028   -36728.288   0.51131495    249.16117 
     100    140.22992   -1195.0903    132486.55   -34083.707    2648.4401   -36732.147   0.79799762    248.46107 
     150    144.11758   -897.11767    132536.34   -34089.184     2721.864   -36811.048    1.0239836    255.34927 
     200     141.7767   -1108.3441    132621.27   -34054.035    2677.6533   -36731.689    1.2360571    251.20168 
     250     139.7534   -928.56897    132645.72   -34066.321    2639.4404   -36705.762    1.4038781    247.61677 
     300    141.04982   -1095.7396    132712.01    -34067.92     2663.925   -36731.845    1.5447273    249.91377 
     350    142.11287    -1321.699    132730.12    -34049.96    2684.0023   -36733.962    1.7275264     251.7973 
     400    140.77634    -1209.047    132660.57    -34041.68    2658.7601    -36700.44    1.8961538    249.42923 
     450    138.28942   -1225.0518    132651.01   -34067.316     2611.791   -36679.107    2.0605163    245.02286 
     500    140.89213   -975.70211    132703.95   -34074.509     2660.947   -36735.456    2.1777451    249.63439 
     550    143.45753   -1066.3129    132796.33     -34048.9    2709.3981   -36758.298    2.2802474    254.17978 
     600    141.34944   -1107.3906    132826.39   -34078.746    2669.5838    -36748.33    2.4934633    250.44464 
     650     141.4705   -953.16826    132803.51   -34057.322    2671.8702   -36729.192    2.6537843    250.65914 
     700    141.07803   -1077.8981    132768.16   -34093.706    2664.4579   -36758.164    2.7926694    249.96376 
     750    139.93083   -929.06284    132767.16   -34133.859    2642.7913    -36776.65    2.9334832    247.93113 
     800    138.14737   -875.21225    132814.55   -34189.422    2609.1082    -36798.53    3.0476471    244.77118 
     850    139.58781   -934.57719    132911.08   -34130.472     2636.313   -36766.785    3.1653099    247.32337 
     900    135.70259   -1015.4252    132865.18   -34171.075    2562.9352    -36734.01    3.3022313    240.43949 
     950    139.09994   -1338.5033    132848.77   -34182.512    2627.0987   -36809.611    3.4432031    246.45895 
    1000    139.05318    -1323.672    132780.25   -34142.448    2626.2157   -36768.664    3.6139989     246.3761 
    1050    138.41852   -1254.2833    132777.64   -34162.165    2614.2293   -36776.395    3.7945673    245.25161 
    1100    136.04384   -1235.4804    132905.08    -34142.95    2569.3801   -36712.331    3.9547669    241.04412 
    1150    142.09587   -1182.9817    132863.98   -34097.083    2683.6812   -36780.765    4.0638069    251.76717 
    1200    142.14182   -1119.2293    132799.74   -34072.263    2684.5491   -36756.813    4.1899669     251.8486 
    1250    138.00412   -1104.7408    132787.43   -34077.131    2606.4027   -36683.534    4.3644073    244.51736 
    1300    141.20019   -1064.3576    132867.78   -34016.833     2666.765   -36683.598    4.4871821     250.1802 
    1350    141.80761   -1329.8896    132826.19    -34035.73     2678.237   -36713.967    4.5749764    251.25644 
    1400    137.92906   -1192.1426    132798.98   -34045.066    2604.9851   -36650.051    4.7137169    244.38438 
    1450    139.51729   -1221.8166    132788.95   -34065.828     2634.981   -36700.809    4.8430469    247.19842 
    1500     141.6864   -1344.6444    132744.57   -34067.101    2675.9478   -36743.049    4.9045062    251.04168 
    1550    139.80088   -1028.1029    132652.48    -34065.34    2640.3371   -36705.677    5.0394272    247.70089 
    1600    137.85811   -1210.4039     132568.6   -34044.158    2603.6451   -36647.803    5.1538578    244.25866 
    1650    139.92424   -1239.1232    132502.89   -34026.659     2642.667   -36669.326    5.2029497    247.91946 
    1700    139.50965   -1207.0518    132536.78    -34039.68    2634.8368   -36674.517    5.3742241    247.18488 
    1750    141.52402   -1229.8528    132511.95   -34053.881     2672.881   -36726.762    5.5299199    250.75397 
    1800    141.86887    -1460.718    132490.21   -34039.844     2679.394   -36719.238    5.6508409    251.36497 
    1850    139.62083   -1334.4233    132455.83   -34061.284    2636.9366   -36698.221    5.7893942    247.38187 
    1900     139.7742   -1272.8187    132419.92   -34055.753    2639.8332   -36695.587    6.0003835    247.65362 
    1950     137.6946   -963.51761    132418.97   -34062.499     2600.557   -36663.056    6.1585451    243.96896 
    2000    139.60223   -1148.7831    132372.61   -34064.413    2636.5853   -36700.998    6.2146326    247.34892 
    2050    140.03075   -1139.0829    132458.69   -34001.693    2644.6786   -36646.371    6.3764773    248.10818 
    2100    140.93311   -1072.4533    132455.38   -34008.377    2661.7208   -36670.098    6.5204713    249.70699 
    2150    140.62907   -1166.9972    132469.07   -34020.089    2655.9785   -36676.067    6.6645134    249.16828 
    2200    139.06569   -1060.2648    132462.87   -34018.781    2626.4519   -36645.233    6.8016872    246.39826 
    2250    142.51127   -1442.2989    132350.33   -34028.947    2691.5267   -36720.474    6.9913359     252.5032 
    2300    141.03673   -1024.8547    132410.55   -34045.815    2663.6778   -36709.493     7.122642    249.89058 
    2350    140.76443   -977.90856    132424.29    -34037.57     2658.535   -36696.105    7.2839458    249.40811 
    2400    142.28697   -1005.1831    132520.03   -34077.014    2687.2904   -36764.304     7.506284    252.10577 
    2450    137.32122   -1394.8506    132593.42   -34070.549    2593.5051   -36664.054    7.6753391    243.30739 
    2500    138.08973   -1092.8675    132509.51   -34103.448    2608.0196   -36711.468    7.7843871    244.66905 
    2550    141.06254   -1318.0941    132516.03   -34007.481    2664.1652   -36671.646    7.8377392     249.9363 
    2600    141.31228   -1098.4503     132589.2   -33966.654    2668.8821   -36635.536    7.9171837    250.37881 
    2650    143.12033   -1207.9391     132549.9   -33948.666    2703.0296   -36651.696    8.0275609    253.58233 
    2700    142.23812   -874.39414    132586.62   -33962.274    2686.3678   -36648.642    8.1678089    252.01922 
    2750    141.26814   -1235.9865    132699.45   -33988.962    2668.0483   -36657.011     8.256145    250.30059 
    2800    141.14594   -1181.8539    132792.39   -33965.188    2665.7404   -36630.928    8.4768765    250.08407 
    2850     140.4669   -1287.3526    132777.35   -34020.852    2652.9159   -36673.768      8.60615    248.88095 
    2900    142.39764   -1208.0897    132822.49   -33973.927    2689.3806   -36663.308    8.8919511    252.30186 
    2950    141.63422   -1183.6794    132883.14   -33970.209    2674.9622   -36645.171    9.1199611    250.94921 
    3000      142.049   -1031.0892    132899.32   -34029.369     2682.796   -36712.165    9.2540956    251.68413 
    3050     140.6124   -1211.2479    132805.01   -34032.839    2655.6637   -36688.503    9.4310894    249.13874 
    3100    140.80694   -1309.5186    132813.54   -33980.911    2659.3379   -36640.249    9.5743777    249.48343 
    3150    143.05334   -1051.7473    132857.95   -34023.238    2701.7643   -36725.002     9.708123    253.46363 
    3200    141.75342   -1326.7655    132885.02   -33983.347    2677.2135    -36660.56     9.817563    251.16042 
    3250    138.46534   -1251.7607    132852.07    -34032.75    2615.1136   -36647.864    9.9342543    245.33457 
    3300    143.85846    -1058.497    132842.49   -33971.325    2716.9701   -36688.295    10.146063    254.89015 
    3350    138.77061   -1197.6166    132870.83   -34003.084    2620.8791   -36623.963    10.294397    245.87545 
    3400    139.94365   -993.87789    132869.81   -34030.553    2643.0335   -36673.587    10.542579    247.95385 
    3450    140.88904   -1209.9165    132861.32   -33991.063    2660.8885   -36651.952    10.754799     249.6289 
    3500    139.64749   -1177.8043    132864.52   -34027.026    2637.4402   -36664.467    10.854115    247.42912 
    3550    140.45909   -1475.0055    132809.45   -34056.995    2652.7684   -36709.763    10.978644    248.86712 
    3600    142.47496   -1266.2906     132811.6   -34027.437    2690.8409   -36718.278     11.09645    252.43886 
    3650    138.92329   -1073.9376    132759.05   -34031.686    2623.7626   -36655.449    11.150633    246.14596 
    3700    142.14583   -1201.0566     132751.6   -34022.757    2684.6248   -36707.381    11.327089    251.85571 
    3750    139.80439   -1211.3757    132706.68   -34037.755    2640.4034   -36678.158    11.461406    247.70711 
    3800    140.40902   -1283.4476    132600.22   -34045.394    2651.8226   -36697.217    11.569615    248.77839 
    3850    142.31127   -1226.9043     132604.6   -34078.713    2687.7493   -36766.462     11.76588    252.14882 
    3900    142.76728   -1199.2965    132645.45   -34059.282    2696.3618   -36755.644    11.969942     252.9568 
    3950    140.53398   -1089.2106    132678.04   -34027.645    2654.1827   -36681.827    12.184158     248.9998 
    4000    138.82938   -1243.0814     132707.4   -34045.223    2621.9889   -36667.212    12.337995    245.97957 
    4050    139.89035   -1169.9329    132781.73   -34002.301    2642.0269   -36644.328    12.537706    247.85941 
    4100    143.02794   -1027.7214    132776.84   -34003.636    2701.2847    -36704.92    12.566793    253.41863 
    4150    139.83202   -1487.4884     132731.7     -34059.2    2640.9253   -36700.125     12.70328    247.75607 
    4200    141.37849   -1366.6081    132623.36   -34080.797    2670.1325    -36750.93     12.85989    250.49612 
    4250    140.13617   -1516.9914    132580.65   -34043.325    2646.6695   -36689.994    13.039586    248.29496 
    4300    140.10425   -1410.5362    132524.72   -34058.433    2646.0667     -36704.5    13.210845    248.23841 
    4350    139.65203   -1317.3509    132534.16   -34105.888    2637.5259   -36743.414    13.259038    247.43716 
    4400    141.52096   -1082.6153    132607.59   -34082.671    2672.8233   -36755.494    13.440005    250.74855 
    4450    142.05674   -1116.8483    132711.87   -34037.399    2682.9421   -36720.341    13.751263    251.69784 
    4500    140.73802   -1359.9072    132810.84   -34107.068    2658.0363   -36765.104    13.838405    249.36132 
    4550    140.90342    -1114.884     132892.2   -34109.257      2661.16   -36770.417    14.046886    249.65438 
    4600    142.32447   -970.38966     132963.8   -34061.522    2687.9986    -36749.52    14.267845    252.17221 
    4650    143.06569   -1403.6421    132982.78   -33996.399    2701.9977   -36698.396    14.461359    253.48552 
    4700    139.91291   -1150.4257    133000.56   -34050.156    2642.4529   -36692.608    14.699867    247.89938 
    4750    137.55968   -1278.8024    133046.75   -34133.056    2598.0089   -36731.065    14.803489    243.72991 
    4800    141.60975   -1226.8597    133046.47   -34053.094    2674.5001   -36727.594     14.94974    250.90587 
    4850    138.12464   -1312.2157    133069.98   -34074.893    2608.6789   -36683.572    15.082777     244.7309 
    4900    140.61445   -1351.5211     133063.9   -34094.973    2655.7026   -36750.676    15.132299    249.14239 
    4950    141.26663   -1092.9809    133107.47    -34061.29    2668.0198    -36729.31    15.294324    250.29792 
    5000    142.83465    -1320.839    133021.63   -34030.461    2697.6341   -36728.095    15.417793    253.07616 
    5050     143.6179   -1346.7309    132978.17   -34002.692    2712.4269   -36715.119     15.52826    254.46393 
    5100    143.01985   -1298.2313     132935.2    -34041.12    2701.1319   -36742.252    15.651675     253.4043 
    5150    138.61028   -1197.4791    132923.07   -34079.309    2617.8509    -36697.16    15.625667    245.59136 
    5200    139.67281      -1352.1    132868.64   -34091.343    2637.9183   -36729.261    15.671266    247.47398 
    5250     140.5064   -1152.5566    132806.95   -34082.395    2653.6618   -36736.057    15.873748    248.95094 
    5300    139.48682   -1328.4586    132820.83   -34100.826    2634.4056   -36735.231    16.001078    247.14443 
    5350    137.65686   -1128.8286    132828.52   -34092.332    2599.8442   -36692.177    16.183097    243.90208 
    5400    141.83747   -1097.7217    132767.61   -34050.543     2678.801   -36729.344    16.274964    251.30935 
    5450    138.00965   -1241.5817    132756.49   -34098.465    2606.5071   -36704.972    16.508138    244.52716 
    5500    136.94773   -1124.3785    132725.08    -34073.57    2586.4514   -36660.022    16.554133    242.64565 
    5550    137.52708   -1010.3018    132784.46   -34136.348    2597.3932   -36733.741    16.643295    243.67214 
    5600    138.89631   -1092.6673    132782.85   -34132.809     2623.253   -36756.062    16.876298    246.09816 
    5650    140.72375   -1255.4436    132712.77   -34152.637    2657.7668   -36810.404    16.983005    249.33604 
    5700    138.29826   -1136.0643    132740.37   -34106.822    2611.9579    -36718.78    17.106761    245.03852 
    5750    140.77708   -1155.5372    132735.53   -34097.115    2658.7739   -36755.889    17.393627    249.43052 
    5800    140.09756   -1093.0725    132634.73    -34131.91    2645.9404   -36777.851    17.560298    248.22656 
    5850     137.5839   -1352.9799    132561.54   -34136.766    2598.4664   -36735.232     17.73169    243.77282 
    5900    137.38156   -1071.5056    132523.66   -34105.271    2594.6448   -36699.915    17.800375    243.41431 
    5950    138.61476   -1244.8309    132521.19   -34100.337    2617.9356   -36718.273    18.007939    245.59931 
    6000    140.07449   -1273.1745     132506.5   -34117.545    2645.5046    -36763.05    18.195117    248.18567 
    6050    139.81085   -1155.3959    132477.61   -34098.843    2640.5254   -36739.368    18.273366    247.71855 
    6100    139.01342   -1322.4524    132473.41   -34092.457    2625.4648   -36717.921    18.222646    246.30565 
    6150    138.41946   -1089.8831     132430.4    -34113.71    2614.2471   -36727.957    18.253336    245.25328 
    6200    143.26629   -1329.4511    132441.34   -34045.715    2705.7862   -36751.501    18.433599    253.84094 
    6250    143.17071   -1358.3389    132478.17   -34002.596    2703.9811   -36706.577    18.461711     253.6716 
    6300    142.83912   -1015.6502    132491.04    -34032.99    2697.7185   -36730.708    18.573825    253.08408 
    6350    141.47466   -1500.7485    132440.34   -34023.318    2671.9487   -36695.267     18.62414    250.66651 
    6400    140.75286   -1243.7267    132458.95   -34027.843    2658.3166    -36686.16    18.755817    249.38762 
    6450    140.29309   -1165.9839    132465.76   -34009.241    2649.6333   -36658.875    18.774243      248.573 
    6500    141.08558   -953.65685    132458.17   -34017.181    2664.6004   -36681.782    18.925797    249.97713 
    6550    138.93012   -1328.8281    132452.19   -34081.514    2623.8916   -36705.406    19.198138    246.15807 
    6600    139.72911   -1146.6942    132384.61   -34081.725    2638.9815   -36720.707    19.462568    247.57372 
    6650    140.17404   -1122.8694    132416.89   -34051.033    2647.3847   -36698.418    19.558773    248.36205 
    6700    142.83499   -1296.4278    132478.84   -34045.783    2697.6406   -36743.424    19.696344    253.07677 
    6750       139.46   -1191.8775    132499.41   -34063.378    2633.8991   -36697.277    19.851336    247.09691 
    6800    143.84782   -1103.0945    132487.84   -34028.437    2716.7693   -36745.206    19.998588    254.87131 
    6850    141.78818   -1020.6247    132521.81   -34070.166      2677.87   -36748.036    20.375788    251.22201 
    6900    141.66497   -1280.2887    132524.84    -34052.64     2675.543   -36728.183    20.534007     251.0037 
    6950     143.1643   -1166.7053    132579.07   -34020.548      2703.86   -36724.408    20.720729    253.66024 
    7000    143.71369   -1023.1426    132716.53   -33968.415     2714.236   -36682.651    20.879115    254.63365 
    7050    141.19195   -983.51034    132774.75   -33975.495    2666.6095   -36642.104     21.01439    250.16561 
    7100    143.77887   -1189.9314    132767.34   -33977.408    2715.4671   -36692.875    21.231152    254.74914 
    7150    140.56674    -1177.196    132802.42   -34018.945    2654.8014   -36673.747    21.429826    249.05784 
    7200    140.08822   -1069.2976    132820.71   -34044.342    2645.7638   -36690.106    21.530257       248.21 
    7250    138.52824   -925.32843    132813.47   -34037.725    2616.3015   -36654.027    21.814981    245.44601 
    7300    140.53405    -1098.151    132908.87   -34064.416    2654.1841     -36718.6    22.004228    248.99993 
    7350    138.91924   -1072.6718    132844.56   -34073.673     2623.686   -36697.359    22.068778    246.13878 
    7400    142.20309   -1196.2857    132867.79   -34028.552    2685.7062   -36714.258    22.114036    251.95715 
    7450    137.37598   -1147.9534    132826.39   -34086.052    2594.5395   -36680.592     22.19984    243.40443 
    7500    142.75166   -1141.4644    132855.66   -34018.136    2696.0668   -36714.203    22.245739    252.92912 
    7550    139.19745   -1102.4606    132901.08   -34019.754    2628.9405   -36648.695    22.417844    246.63173 
    7600     139.1161    -1381.534     132899.9   -34046.648     2627.404   -36674.052    22.738175    246.48758 
    7650    139.49056     -1270.44    132854.59   -34062.142    2634.4763   -36696.618    23.040409    247.15106 
    7700    143.94902    -1118.692    132871.83   -34055.559    2718.6805   -36774.239    23.433006    255.05061 
    7750    137.83047   -1180.0295     132920.3   -34062.068    2603.1231   -36665.191    23.793661    244.20969 
    7800    139.68876   -1360.8756    132909.82   -34022.271    2638.2196   -36660.491    23.953842    247.50223 
    7850    138.77887   -1148.9211    132849.58    -34070.14     2621.035   -36691.175    24.123347    245.89008 
    7900     137.4334   -1267.2894    132791.11   -34089.766    2595.6239    -36685.39    24.204408    243.50616 
    7950    139.11924   -1208.5911    132720.85   -34055.509    2627.4633   -36682.972    24.338595    246.49314 
    8000    141.10076   -1223.9783    132676.69   -34057.005    2664.8871   -36721.892    24.494947    250.00402 
    8050    140.43192   -1002.9196    132788.37   -34091.958    2652.2551   -36744.213    24.697597    248.81897 
    8100    139.12176    -1019.753    132905.91    -34057.04    2627.5109   -36684.551    24.876375    246.49761 
    8150    137.81392   -1189.0202    132977.29   -34026.948    2602.8106   -36629.759    24.983774    244.18037 
    8200     141.4623    -1186.353    132960.74   -34050.216    2671.7153   -36721.931    25.058063    250.64461 
    8250     142.2403   -1297.7784    133052.21   -34018.738    2686.4091   -36705.147    25.302579    252.02309 
    8300    136.68465   -1266.1475    133027.04   -34048.129    2581.4827   -36629.612    25.446985    242.17952 
    8350    138.99602   -1304.1254    132961.42   -34049.847    2625.1362   -36674.983     25.61401    246.27483 
    8400    141.26398   -1576.0855    132987.63    -34032.13    2667.9698   -36700.099    25.779745    250.29323 
    8450    136.98102   -1669.4428    132800.46   -34030.673    2587.0801   -36617.753    25.801657    242.70463 
    8500    140.68985   -1275.7589    132803.06   -33987.632    2657.1266   -36644.759    25.918113    249.27598 
    8550    139.55029   -1210.2716    132851.66   -34043.262    2635.6044   -36678.866    26.073596     247.2569 
    8600    140.90677   -1437.7471    132820.65   -33983.308    2661.2233   -36644.531    26.191405    249.66031 
    8650    142.56261   -1103.7181     132816.4   -33988.046    2692.4962   -36680.542    26.351317    252.59415 
    8700     138.6049    -1287.454     132739.6   -33998.652    2617.7493   -36616.402    26.477538    245.58184 
    8750    140.10754   -1329.3101    132750.59   -33983.799    2646.1289   -36629.928    26.583135    248.24424 
    8800    144.11611   -1254.3726    132841.61   -34016.021    2721.8364   -36737.858    26.587588    255.34667 
    8850    139.30609   -1125.8858    132956.18   -34022.446    2630.9922   -36653.438    26.674887    246.82421 
    8900    141.85392   -1196.6981    132959.64   -33980.192    2679.1117   -36659.304    26.774612    251.33849 
    8950    140.92251   -1261.1881    132851.36   -33973.153    2661.5207   -36634.673    26.877232    249.68821 
    9000    140.59378   -1108.4195    132931.69   -33958.474    2655.3122   -36613.787    26.920268    249.10576 
    9050     142.2683   -1009.9819     133006.3   -33964.993    2686.9378   -36651.931    27.051368    252.07269 
    9100    142.61493   -1092.2724    132996.88   -33954.699    2693.4844   -36648.183    27.246144    252.68686 
    9150    139.47174   -1436.2006    132949.99   -34012.898    2634.1208   -36647.018    27.399942    247.11771 
    9200    137.26691    -1255.964    132928.23   -34029.295    2592.4794   -36621.774    27.554168    243.21116 
    9250    139.80165    -1316.134    133015.42   -33985.082    2640.3516   -36625.434    27.695216    247.70225 
    9300    140.91708   -1193.6038    133010.65   -33988.853    2661.4181   -36650.271    27.589967    249.67858 
    9350     139.4262   -1209.7157    132974.31     -34008.3    2633.2608   -36641.561    27.738654    247.03703 
    9400    140.73534   -1357.7758    132938.52   -34040.109    2657.9856   -36698.095    27.899674    249.35657 
    9450    140.54147     -1066.61    132921.04   -34020.993    2654.3242   -36675.317    28.177831    249.01307 
    9500    140.82604   -1232.2975    132972.11   -34007.462    2659.6988   -36667.161    28.380953    249.51729 
    9550    135.45175   -1167.9149    132988.82   -34052.001    2558.1976   -36610.198    28.423545    239.99504 
    9600    139.90809   -1339.0382    132950.28   -34054.499    2642.3619   -36696.861    28.511153    247.89085 
    9650    136.47122   -1177.1328    132916.45   -34057.178    2577.4517   -36634.629    28.503277    241.80135 
    9700    138.66655   -1271.9408    132859.83   -34071.426    2618.9136    -36690.34    28.600127    245.69107 
    9750    135.99347   -1220.6474    132884.13   -34111.923    2568.4289   -36680.352    28.862961    240.95488 
    9800    137.32171   -1281.5228    132868.94   -34122.389    2593.5144   -36715.903    29.092072    243.30826 
    9850    138.54704   -1278.9756    132821.09   -34135.088    2616.6565   -36751.745    29.194704    245.47932 
    9900    137.79645   -1250.4408    132854.84   -34098.398    2602.4806   -36700.879    29.479291    244.14942 
    9950    142.54277   -1226.6687    132835.15   -34057.807    2692.1216   -36749.929    29.487212    252.55901 
   10000    141.07412   -1154.3493    132837.39   -34016.507     2664.384   -36680.891    29.579767    249.95683 
   10050    140.03762   -1227.7346    132780.16   -33977.699    2644.8082   -36622.507    29.696671    248.12034 
   10100    142.01801    -1005.093    132773.86   -34005.951    2682.2107   -36688.162    29.906467    251.62923 
   10150    139.81652   -1222.3746    132848.71   -33972.054    2640.6325   -36612.686    30.115607     247.7286 
   10200    139.74038   -1021.6576    132890.39   -33938.432    2639.1945   -36577.626    30.278474     247.5937 
   10250     142.6259    -898.1761    132950.36   -33941.608    2693.6916   -36635.299    30.303406     252.7063 
   10300    139.45915   -1292.3174    132987.74   -33962.749    2633.8831   -36596.632    30.562612    247.09541 
   10350     142.0033   -1194.9892    132988.65   -33975.048    2681.9329   -36656.981    30.712923    251.60317 
   10400    140.07068    -1496.058    132931.97   -34026.619    2645.4326   -36672.051    30.846092    248.17892 
   10450     142.1895   -1585.4558    132845.75   -34051.515    2685.4495   -36736.965    30.846996    251.93307 
   10500    141.21619   -1385.2557    132843.15   -34073.107    2667.0672   -36740.174     31.10952    250.20855 
   10550    140.47629   -1104.1838    132811.85   -34056.496    2653.0932   -36709.589    31.226471     248.8976 
   10600     138.2874   -1345.7869    132784.14   -34144.804    2611.7529   -36756.557    31.449803    245.01929 
   10650    138.61817   -1332.7489    132758.76   -34156.111         2618   -36774.111     31.73602    245.60535 
   10700    138.39449   -1427.6212    132813.04   -34158.456    2613.7754   -36772.231    32.002975    245.20903 
   10750     137.3729    -1493.643    132700.58   -34192.746    2594.4813   -36787.227    31.994976    243.39897 
   10800    138.17861   -1194.5665    132602.25    -34151.49    2609.6983   -36761.188    32.103529    244.82653 
   10850    137.96976   -1342.4145    132620.39   -34100.949    2605.7539   -36706.703    32.140762     244.4565 
   10900    140.15429   -1176.3929     132577.3   -34091.486    2647.0118   -36738.498    32.246247    248.32707 
   10950     139.8837   -1402.4317    132529.25   -34126.838    2641.9012    -36768.74    32.468605    247.84763 
   11000    137.90099   -1287.6487    132388.84   -34136.556     2604.455   -36741.011    32.643485    244.33465 
   11050    142.06223    -1302.818    132349.57   -34086.082    2683.0458   -36769.128    32.860535    251.70757 
   11100    137.97636    -1261.744    132309.47   -34090.787    2605.8784   -36696.665    33.112035    244.46817 
   11150    140.45011    -1243.371    132322.11   -34150.627    2652.5988   -36803.226    33.344536    248.85121 
   11200    137.46044   -1432.1387    132297.65    -34158.04    2596.1347   -36754.174    33.480416    243.55408 
   11250    136.95857   -844.20106    132318.63   -34143.269     2586.656   -36729.925    33.779749    242.66485 
   11300    137.48301   -1080.0167    132447.87   -34133.603    2596.5608   -36730.164    33.956137    243.59405 
   11350    137.03077   -906.06137    132528.88   -34159.784    2588.0196   -36747.803    34.087491    242.79277 
   11400     137.0058   -1321.0639    132544.85   -34186.815    2587.5481   -36774.363    34.169615    242.74854 
   11450    141.45947   -1240.3648    132523.62   -34153.147    2671.6619   -36824.809    34.411081     250.6396 
   11500    138.81189   -1209.7909    132504.71   -34117.946    2621.6585   -36739.605    34.509414    245.94858 
   11550    140.18395   -1245.2489    132361.16   -34113.637    2647.5719   -36761.209    34.726337    248.37962 
   11600    140.85223   -967.00363    132295.04   -34081.639    2660.1934   -36741.833    34.811212    249.56369 
   11650    142.18237   -1359.0828    132278.64   -34084.231    2685.3149   -36769.546    34.871432    251.92044 
   11700    137.73929   -1332.3723     132258.3   -34117.225     2601.401   -36718.626    35.018451    244.04814 
   11750    137.06997    -1118.704    132210.89   -34122.687      2588.76   -36711.447    35.308911    242.86223 
   11800    138.11078   -912.17839    132274.84   -34084.413    2608.4172   -36692.831     35.58284    244.70635 
   11850     138.8241   -1113.5366    132378.71   -34077.212    2621.8892   -36699.101    35.742772    245.97021 
   11900    141.04853   -860.27515    132442.36   -34070.067    2663.9007   -36733.968     35.88538    249.91149 
   11950    137.05506   -1251.2194    132546.41   -34068.804    2588.4784   -36657.282    36.113528    242.83581 
   12000    136.23749   -1141.8622    132652.69   -34079.834    2573.0374   -36652.871    36.293375    241.38723 
   12050    138.70688     -1048.16    132684.54    -34075.36    2619.6754   -36695.035    36.421709    245.76253 
   12100    143.46374   -1189.4401    132677.79   -34001.382    2709.5154   -36710.898     36.54256    254.19079 
   12150    137.86915   -1179.5626    132649.22   -34037.722    2603.8536   -36641.576    36.877769    244.27822 
   12200    141.70932   -1108.9697    132623.56    -33995.29    2676.3806   -36671.671    36.917469    251.08228 
   12250    140.18839   -1197.0219    132721.63   -34019.218    2647.6557   -36666.874    37.217524    248.38748 
   12300    141.36137   -1232.5645    132800.28   -34030.832    2669.8091   -36700.641     37.39578    250.46578 
   12350     142.4182   -1246.1182    132780.83   -34028.005    2689.7689   -36717.774    37.378899    252.33829 
   12400    141.94155   -1246.1078    132732.73   -34032.112    2680.7666   -36712.879    37.500626    251.49375 
   12450    142.54357   -906.06859     132728.6    -34026.79    2692.1366   -36718.927    37.388375    252.56041 
   12500    141.63971   -799.99497    132861.87   -34076.666     2675.066   -36751.732    37.363156    250.95895 
   12550    141.06564   -1177.5693     132953.4   -34019.598    2664.2238   -36683.822    37.310272     249.9418 
   12600    140.18104   -818.15752    133049.25   -34044.818     2647.517   -36692.335    37.574059    248.37447 
   12650    143.89851   -937.17081       133098   -34019.474    2717.7267   -36737.201    37.613219    254.96112 
   12700    141.30607   -1157.3897    133015.33   -34017.693    2668.7647   -36686.458    37.705827     250.3678 
   12750    141.64271   -1205.4421    132964.45   -34007.155    2675.1227   -36682.277    37.728678    250.96427 
   12800    142.24087   -1153.0601    132880.04   -33959.284    2686.4198   -36645.704    37.715639    252.02409 
   12850    142.52951   -1249.3052    132922.53   -33966.953    2691.8711   -36658.824    37.875636     252.5355 
   12900     140.2068   -1496.2624    132765.31   -34029.908    2648.0035   -36677.912     37.95249    248.42011 
   12950    142.37135   -1306.6573    132698.69    -34038.77     2688.884   -36727.654    37.993004    252.25528 
   13000    141.73555     -1320.13     132723.7   -34088.461     2676.876   -36765.337    37.990061    251.12875 
   13050    139.86091   -1336.6894    132639.12   -34085.973    2641.4708   -36727.444    37.895903    247.80725 
   13100     140.0627   -955.73737     132599.3   -34099.719    2645.2819   -36745.001    38.032715    248.16478 
   13150    137.68785   -1230.8793    132745.57   -34152.451    2600.4295   -36752.881    38.217575      243.957 
   13200    139.83809   -969.32357    132846.01    -34147.06    2641.0398     -36788.1    38.287397    247.76681 
   13250    137.89291   -1106.7825     132883.6   -34142.263    2604.3025   -36746.566     38.46507    244.32033 
   13300    138.13422   -1256.8202    132905.82   -34150.551    2608.8599   -36759.411    38.559095    244.74788 
   13350    138.33876   -1192.9861    132820.52   -34141.243     2612.723   -36753.966    38.488801    245.11029 
   13400    138.44345   -1329.7929     132742.1     -34135.3    2614.7002       -36750    38.725339    245.29578 
   13450    139.07386    -1349.267     132663.8   -34094.633    2626.6062   -36721.239    38.796049    246.41274 
   13500    138.98856   -1143.9628    132667.95   -34181.051    2624.9953   -36806.046    38.907085    246.26162 
   13550    137.58744   -1045.5106    132707.53   -34146.578    2598.5331   -36745.111    39.085439    243.77908 
   13600    137.49361   -1387.2749    132710.99   -34136.146    2596.7611   -36732.908    39.202775    243.61284 
   13650    142.07225   -973.68097    132752.59   -34114.175    2683.2352    -36797.41    39.180917    251.72534 
   13700    138.27398   -1059.7707    132831.46   -34115.861    2611.4994   -36727.361    39.261864    244.99551 
   13750    136.40902   -1165.5344    132848.71   -34175.211     2576.277   -36751.488     39.53271    241.69115 
   13800    136.59244    -1057.669    132933.26   -34180.986    2579.7411   -36760.727    39.650851    242.01613 
   13850    138.40774   -1302.0463    132974.21   -34193.717    2614.0257   -36807.743    39.806777    245.23251 
   13900    141.85853   -1212.1415    133012.86   -34162.795    2679.1987   -36841.993    39.946843    251.34666 
   13950    138.97192   -1447.0614    133007.12   -34135.492     2624.681   -36760.173    40.094957    246.23212 
   14000     137.9167   -1248.1082    132924.13   -34143.015    2604.7517   -36747.766    40.023996    244.36247 
   14050    136.48762   -1187.8945    132892.51    -34102.77    2577.7616   -36680.531    40.208054    241.83042 
   14100    139.34774    -1008.835    132923.33   -34065.292    2631.7789   -36697.071    40.500987    246.89801 
   14150    139.77293   -979.00078    132958.18    -34070.98    2639.8092   -36710.789     40.70901    247.65136 
   14200    142.34138   -1526.4943     132971.9   -34072.994    2688.3181   -36761.312    40.966249    252.20218 
   14250    139.29754   -1345.3849    132945.51   -34121.301    2630.8309   -36752.132    41.085809    246.80907 
   14300    134.45561   -1232.6951    132944.41   -34171.025    2539.3841   -36710.409    41.176509    238.23007 
   14350    139.83454   -1021.6973    132955.87   -34109.343    2640.9727   -36750.316      41.2272    247.76052 
   14400    140.41357   -1148.8503    132981.98   -34089.056    2651.9086   -36740.965     41.50411    248.78646 
   14450    141.68508   -1219.5906    133030.61   -34093.942    2675.9229   -36769.865    41.751306    251.03934 
   14500    140.49307   -1286.0117    132953.89   -34116.002    2653.4101   -36769.412    41.904035    248.92732 
   14550    139.33385   -1501.7031    132935.89   -34147.624    2631.5165    -36779.14    42.232325    246.87339 
   14600    141.48831    -1541.744    132914.29    -34147.36    2672.2066   -36819.566    42.271793     250.6907 
   14650     139.3393   -1107.6187    132932.31   -34095.607    2631.6195   -36727.226    42.270623    246.88306 
   14700    139.67191   -1094.3456    132963.59   -34112.287    2637.9013   -36750.188    42.407426    247.47237 
   14750    136.70076   -988.23196    133071.48   -34086.543    2581.7869    -36668.33    42.757924    242.20805 
   14800    140.07718   -1266.5697    133061.81   -34054.535    2645.5554   -36700.091    42.873612    248.19044 
   14850    140.33286   -1174.5401    133132.18   -34071.595    2650.3843   -36721.979    42.840944    248.64345 
   14900    140.45949   -1245.7129    133047.86   -34122.041    2652.7759   -36774.817    42.721285    248.86783 
   14950    140.73719   -1100.5604    132998.57   -34022.734    2658.0206   -36680.755     42.73789    249.35985 
   15000    141.91781   -1026.8997    133062.89   -34055.016    2680.3184   -36735.334    42.756336     251.4517 
   15050    142.17443   -994.89154    133146.54   -34052.187     2685.165   -36737.352     42.96523    251.90638 
   15100     140.5943   -1311.7022    133192.19   -34017.689     2655.322   -36673.011    43.170811    249.10668 
   15150      139.164   -988.97818    133233.44   -34043.924    2628.3087   -36672.232    43.333949    246.57246 
   15200    140.37319   -1181.8968    133250.71   -34084.698    2651.1459   -36735.844    43.474449    248.71491 
   15250    139.68042   -1114.5772     133300.1   -34073.852    2638.0621   -36711.914    43.676371    247.48746 
   15300    141.51524   -1070.4609    133385.71    -34087.35    2672.7152   -36760.065    44.143488    250.73841 
   15350    139.12513   -1245.7447    133355.96   -34086.197    2627.5746   -36713.771    44.327139    246.50359 
   15400    139.83712   -1177.0813    133370.71   -34031.616    2641.0216   -36672.637    44.381463     247.7651 
   15450    145.04075   -1191.9183    133400.36   -33998.425    2739.2994   -36737.724    44.418107    256.98495 
   15500    141.56015   -1397.0279     133304.4   -33941.294    2673.5634   -36614.857    44.729312    250.81798 
   15550     139.7728   -1312.5676     133337.3   -33948.401    2639.8068   -36588.208     44.85149    247.65114 
   15600    138.46096   -1504.9625    133246.76   -34017.323    2615.0308   -36632.354    45.079548     245.3268 
   15650    138.25393   -1494.8032    133150.51   -34008.328    2611.1208   -36619.449     45.25876    244.95998 
   15700     143.5743   -1343.9215    133092.13   -33993.255    2711.6035   -36704.859    45.511829    254.38668 
   15750     141.3889   -1237.3088    133036.28    -33975.89     2670.329   -36646.219    45.694478    250.51456 
   15800    138.80838   -999.12814    133108.31   -33993.778    2621.5923    -36615.37    45.881017    245.94236 
   15850    140.58374   -1039.7999     133260.6   -34009.441    2655.1224   -36664.564    45.976992    249.08796 
   15900    141.94183   -1106.9023    133309.82   -34030.684     2680.772   -36711.456     46.10503    251.49425 
   15950     138.6138   -1408.1108    133265.58   -33965.329    2617.9174   -36583.247    46.366036    245.59761 
   16000    141.42695   -1359.0883    133228.74   -33987.673    2671.0478   -36658.721    46.525421    250.58198 
   16050    139.53944   -1265.3193    133237.01   -33939.183    2635.3994   -36574.582    46.813626    247.23767 
   16100    140.63474   -1490.4634    133220.02   -33975.599    2656.0856   -36631.684    47.180166    249.17832 
   16150     138.8409   -1505.0576    133059.63    -34031.77    2622.2065   -36653.976    47.377998    245.99999 
   16200    135.98137   -1389.7669    132990.46   -34039.814    2568.2003   -36608.014    47.710088    240.93344 
   16250    137.43906   -1566.5073    132904.56   -34057.955    2595.7308   -36653.686    47.815492    243.51619 
   16300    137.96773   -1380.1344    132805.89   -34033.996    2605.7154   -36639.711    47.999331    244.45289 
   16350    140.49693   -1276.7037    132852.85   -34019.193    2653.4829   -36672.676    48.234809    248.93415 
   16400    137.52662   -1403.0016    132808.08   -33982.437    2597.3844   -36579.821    48.270701    243.67132 
   16450    138.58555   -1311.1059    132733.28   -33978.335    2617.3839   -36595.719    48.349171    245.54755 
   16500     140.4087   -1201.8212    132723.15   -33989.184    2651.8165       -36641    48.729224    248.77782 
   16550    138.30803   -1524.9017    132750.76   -33985.748    2612.1426   -36597.891    49.208993    245.05585 
   16600    141.44739   -1303.1519    132720.02   -33959.687    2671.4337   -36631.121    49.422719    250.61819 
   16650    139.49182   -1251.7837    132673.87   -33998.255       2634.5   -36632.755    49.690007    247.15329 
   16700    138.41619    -1473.208    132624.34   -33999.478    2614.1853   -36613.663    49.758224    245.24748 
   16750    141.31913    -1306.806    132586.89   -33970.146    2669.0113   -36639.157    49.978494    250.39093 
   16800    140.31246    -1347.105    132561.28    -33930.62    2649.9991   -36580.619    50.357621    248.60732 
   16850    141.26912   -1215.5558    132535.59   -33926.598    2668.0669   -36594.665    50.652519    250.30233 
   16900    138.06893   -1264.1639    132583.88   -33993.243    2607.6268    -36600.87    50.908111     244.6322 
   16950    139.17626   -1244.5845    132608.99   -34019.531    2628.5403   -36648.072    50.985026    246.59418 
   17000    136.99626    -1156.585     132601.4   -33949.536    2587.3679   -36536.904    51.167956    242.73163 
   17050    139.27618   -1300.3068    132619.04   -33927.162    2630.4273    -36557.59    51.195701    246.77121 
   17100    142.22135   -967.35432    132577.78   -33894.438    2686.0511   -36580.489    51.455554    251.98951 
   17150    139.42388   -1167.8463     132694.9   -33927.923    2633.2169    -36561.14    51.501953    247.03291 
   17200    145.52256   -1168.1935    132722.58   -33889.346     2748.399   -36637.745    51.715896    257.83862 
   17250     141.5485   -1278.3317    132742.02    -33879.75    2673.3433   -36553.094    51.779543    250.79734 
   17300    144.50728   -1108.5857    132726.07   -33867.033    2729.2241   -36596.257    52.136525    256.03974 
   17350    140.79483   -1134.7602    132710.32   -33930.878    2659.1093   -36589.987    52.224357    249.46198 
   17400    139.38091   -1282.4095    132625.47   -33982.378    2632.4053   -36614.783    52.418871    246.95678 
   17450    140.99476   -1106.7667     132564.2   -33965.161    2662.8853   -36628.046    52.561615    249.81622 
   17500    138.57514   -1009.9103    132574.93   -33999.116    2617.1872   -36616.303    52.482021    245.52911 
   17550    141.18464   -1134.9413    132473.13   -34021.645    2666.4713   -36688.116    52.440109    250.15264 
   17600    139.12409   -1285.4593    132494.93   -34026.998     2627.555   -36654.553    52.509439    246.50175 
   17650    139.28743   -1288.5538    132529.93   -34012.813    2630.6399   -36643.453    52.565206    246.79115 
   17700    137.87273   -1081.8422    132478.64   -34031.732    2603.9212   -36635.653    52.710398    244.28457 
   17750    139.56221   -1095.3018    132503.91   -34029.187    2635.8295   -36665.017    52.883377    247.27801 
   17800    141.01097   -1152.3362    132467.24   -34002.464    2663.1913   -36665.655    53.093953    249.84494 
   17850    140.58573    -1355.055    132528.35   -33990.125      2655.16   -36645.285    53.357552    249.09149 
   17900    140.58867   -1373.7954    132552.38   -34059.346    2655.2157   -36714.562    53.452878    249.09671 
   17950    138.66931   -1304.3077    132541.97   -34062.956    2618.9659   -36681.922     53.61738    245.69597 
   18000    139.11907   -1346.7756    132489.47   -34008.755    2627.4602   -36636.215     53.65765    246.49286 
   18050    141.09277   -1178.0765    132489.75   -34016.545    2664.7362   -36681.281    53.915753    249.98987 
   18100     143.3641   -1023.6243    132439.92   -34039.214    2707.6335   -36746.847    54.159201    254.01424 
   18150    139.47609   -815.71749    132418.88   -34055.112     2634.203   -36689.315      54.2102    247.12543 
   18200    140.38468   -1085.8531    132429.88   -34013.446     2651.363   -36664.809    54.438584    248.73527 
   18250     140.9344   -1210.9107    132427.55    -34024.86    2661.7452   -36686.606    54.610857    249.70928 
   18300     140.1562    -1072.859    132471.12    -34015.24    2647.0479   -36662.288     54.74057    248.33045 
   18350     141.6571   -1268.8344    132428.99   -34001.641    2675.3944   -36677.035    54.766734    250.98976 
   18400    139.11755   -1091.6693    132476.29   -33983.806    2627.4314   -36611.237    54.874578    246.49015 
   18450    139.28089   -1038.5185    132415.54   -33964.856    2630.5164   -36595.372    54.996141    246.77957 
   18500    139.28787    -916.2478    132545.03   -34006.976    2630.6482   -36637.624    55.350012    246.79194 
   18550     138.0415   -1286.1078    132569.02   -34000.734    2607.1088   -36607.843    55.385455     244.5836 
   18600    138.14943   -1243.8842    132554.89   -33990.492    2609.1472   -36599.639    55.558072    244.77484 
   18650    142.35229   -1149.8327    132615.96   -33964.432    2688.5241   -36652.956    55.761766    252.22151 
   18700    139.51085   -1412.5627    132539.14   -33959.778    2634.8594   -36594.638    55.957396    247.18701 
   18750    140.09098   -1440.9663    132437.32   -33962.331     2645.816   -36608.147    56.150955    248.21488 
   18800    140.30114   -1183.5531    132417.51   -33968.423    2649.7853   -36618.208    56.310225    248.58726 
   18850    141.70149    -1087.523    132467.98   -33948.293    2676.2327   -36624.526    56.492498     251.0684 
   18900    138.78921   -1387.1639    132480.66   -33996.649    2621.2303    -36617.88    56.577188     245.9084 
   18950      141.893    -1223.236    132406.72   -33986.937    2679.8497   -36666.786    56.716872    251.40773 
   19000    141.45127   -1331.3323    132457.45   -33964.055    2671.5071   -36635.562    56.825946    250.62507 
   19050    139.66668   -1150.8403    132461.81   -33957.999    2637.8025   -36595.801    56.848809    247.46311 
   19100    139.49091   -1187.5352    132406.63   -33969.261    2634.4828   -36603.744    56.898888    247.15167 
   19150    141.92917   -1213.4418    132356.81   -33992.626    2680.5329   -36673.159     56.86608    251.47183 
   19200    141.17412   -1154.4705    132327.58   -33962.762    2666.2726   -36629.035    57.047463    250.13401 
   19250    138.20116   -1096.9477    132303.53   -33974.345    2610.1241   -36584.469    57.313072    244.86649 
   19300    135.59761   -1269.9116    132299.67   -34003.891    2560.9524   -36564.844    57.530075    240.25348 
   19350    142.30791   -1044.4194    132307.37   -33998.982    2687.6858   -36686.668    57.792098    252.14287 
   19400    139.00392   -847.95994    132382.81   -33967.564    2625.2854    -36592.85     57.97565    246.28883 
   19450    140.58724   -1247.3922    132401.51   -33998.042    2655.1887   -36653.231    58.186908    249.09418 
   19500    140.60624   -1150.3459    132394.72   -33998.828    2655.5475   -36654.375    58.454699    249.12784 
   19550    139.22131    -1244.607    132397.11   -33957.337    2629.3911   -36586.728     58.79351      246.674 
   19600     140.2376   -967.95335    132432.41     -33986.9    2648.5851   -36635.485    59.117081    248.47467 
   19650    142.28656   -834.84954    132464.41   -33985.803    2687.2827   -36673.086    59.214212    252.10505 
   19700    139.63918   -1003.2615     132511.6   -33971.958    2637.2831   -36609.241     59.14183    247.41438 
   19750    140.24464   -1180.5138    132462.25   -33947.939     2648.718   -36596.657     59.23981    248.48714 
   19800    139.31075   -1177.0615    132441.25   -33962.193    2631.0803   -36593.273    59.292595    246.83247 
   19850    137.43797   -949.99718     132422.8   -34002.674    2595.7102   -36598.384    59.504785    243.51425 
   19900    143.12531   -986.44364    132488.75   -33958.216    2703.1237    -36661.34     59.82258    253.59116 
   19950    138.88943   -1057.1882    132544.55   -33932.594     2623.123   -36555.717    60.055147    246.08597 
   20000    141.88188   -969.16454    132519.54   -33934.505    2679.6396   -36614.144    60.151979    251.38802 
   20050    136.30115   -1188.1957     132483.5   -34018.402    2574.2398   -36592.642    60.352978    241.50003 
   20100    139.48714   -1046.7068    132461.46   -33970.672    2634.4116   -36605.084    60.577161      247.145 
   20150    141.65256   -1195.7595    132449.94     -33926.3    2675.3087   -36601.609    60.605431    250.98172 
   20200    142.70421   -1064.5046    132475.47    -33890.66    2695.1706   -36585.831    60.729785    252.84504 
   20250    137.32694   -1335.9035    132540.43   -33878.312    2593.6132   -36471.925     61.05007    243.31753 
   20300      140.002    -1236.249    132462.08   -33887.833    2644.1356   -36531.968    61.256413    248.05724 
   20350    139.01925   -1224.6671    132464.02     -33892.7    2625.5748   -36518.275    61.555224    246.31598 
   20400    141.20168   -1218.6416    132419.15   -33871.534    2666.7932   -36538.327    61.631114    250.18284 
   20450    142.31464   -1305.9793    132419.81   -33837.406     2687.813   -36525.219    61.845308     252.1548 
   20500    141.25264    -1226.468    132356.83   -33865.959    2667.7556   -36533.715    62.072497    250.27313 
   20550    140.79552   -1226.1259    132463.21   -33850.048    2659.1222    -36509.17    62.494695     249.4632 
   20600     141.2019   -1217.4634    132578.18   -33884.706    2666.7974   -36551.503    62.733282    250.18324 
   20650    141.23259   -1324.7127    132623.81   -33900.559     2667.377   -36567.936    62.935745    250.23761 
   20700    138.82427   -1440.7484    132642.25   -33942.843    2621.8923   -36564.735    63.243162    245.97051 
   20750     137.9967    -1276.516    132516.96   -33964.772    2606.2626   -36571.035    62.965926    244.50422 
   20800    137.95215    -1241.014    132471.73   -33956.506    2605.4211   -36561.927    63.076039    244.42528 
   20850    143.54429   -1216.5678    132429.32   -33890.595    2711.0367   -36601.632    63.311733    254.33351 
   20900    142.19444   -1246.0971    132372.34   -33857.142    2685.5429   -36542.684    63.209462    251.94183 
   20950    140.36865   -1145.8223    132339.99   -33836.767    2651.0602   -36487.827    63.245314    248.70686 
   21000    141.19349    -1252.549    132270.55   -33896.033    2666.6385   -36562.672    63.664501    250.16833 
   21050    138.22809    -1370.561    132282.83   -33953.913    2610.6327   -36564.545    63.654929     244.9142 
   21100    137.68887   -1400.9728    132194.71   -33963.622    2600.4488   -36564.071    63.974361     243.9588 
   21150    141.02452   -1297.6218    132243.42   -33846.874    2663.4472   -36510.321    64.029102    249.86895 
   21200    141.67073   -1123.5464    132198.55   -33871.327    2675.6518   -36546.979    64.230249    251.01391 
   21250    142.28706   -1119.3376    132222.33   -33862.403    2687.2922   -36549.695    64.360917    252.10594 
   21300    141.12146   -1047.8991     132208.5   -33867.689    2665.2782   -36532.967    64.501231    250.04071 
   21350    140.79984   -1074.1096    132209.98   -33894.046    2659.2039    -36553.25    64.812893    249.47086 
   21400    143.39013   -1198.9851    132087.36   -33915.588    2708.1251   -36623.713    65.047304    254.06036 
   21450    143.19051   -1248.1604    132029.05   -33909.647    2704.3551   -36614.002    65.156588    253.70668 
   21500    138.01295   -1032.4827    131974.47   -33999.431    2606.5696   -36606.001    65.326525    244.53302 
   21550    142.00362   -1010.0826    132086.27   -33977.697    2681.9389   -36659.636    65.587618    251.60373 
   21600      137.816    -1002.881    132122.12   -34023.676    2602.8498   -36626.525    65.860127    244.18405 
   21650    139.53123   -1088.2629    132147.94   -34008.303    2635.2444   -36643.548    65.771882    247.22312 
   21700    139.71664   -1391.1839    132087.06   -33983.584    2638.7461    -36622.33      65.9838    247.55164 
   21750    137.90973   -1442.9146    132008.38   -33992.578      2604.62   -36597.198     65.93083    244.35012 
   21800    141.89333   -1008.8166    131976.46   -33972.836     2679.856   -36652.692    66.126599    251.40832 
   21850    140.42043   -1251.4659    132037.26   -33951.341    2652.0381   -36603.379    66.282577    248.79861 
   21900    141.63389     -1318.48    131990.85   -33950.868     2674.956   -36625.824    66.442456    250.94863 
   21950    141.54776    -968.8991    131959.59   -33911.364    2673.3294   -36584.693    66.613092    250.79604 
   22000    141.98061   -1164.3285    131981.85   -33892.967    2681.5044   -36574.472    66.733382    251.56297 
   22050    141.19345   -1135.3095    132024.11   -33939.694    2666.6378   -36606.332    67.083181    250.16827 
   22100    140.41198    -1167.458    131998.45   -33931.268    2651.8786   -36583.146    67.174008    248.78364 
   22150     142.0349   -1245.4536     132005.9   -33973.743    2682.5296   -36656.272    67.316401    251.65914 
   22200    139.98015   -1001.0718    132043.07   -33960.034    2643.7228   -36603.757    67.734048    248.01852 
   22250    139.20436   -1024.0983    132144.12   -33951.095    2629.0709   -36580.166     67.89954    246.64396 
   22300    140.77747   -884.44732    132296.89   -33985.051    2658.7814   -36643.832    67.972297    249.43123 
   22350    139.07686   -1021.4648    132349.94   -33976.583     2626.663   -36603.246    68.151539    246.41806 
   22400     137.1948   -1025.8029     132410.2   -33959.363    2591.1177   -36550.481    68.329567    243.08341 
   22450     141.0447   -901.26615    132518.01   -33982.168    2663.8285   -36645.997    68.331372    249.90471 
   22500    141.48417   -1004.1106    132589.65     -34007.8    2672.1285   -36679.929    68.497643    250.68337 
   22550    140.97923   -890.89298    132618.05   -33995.933    2662.5919   -36658.525     68.60644    249.78871 
   22600    140.76207   -1208.8392    132707.08   -33957.802    2658.4904   -36616.292    68.794147    249.40393 
   22650    141.44064   -830.62003    132696.21   -33987.136    2671.3062   -36658.442    69.136558    250.60623 
   22700    139.02087   -1200.0487    132737.13   -33948.385    2625.6055    -36573.99    69.251054    246.31885 
   22750    141.48183   -1221.0619    132734.27   -33963.518    2672.0842   -36635.603    69.509404    250.67921 
   22800    139.79842   -1330.8093     132737.9   -33950.597    2640.2907   -36590.888     69.38069    247.69653 
   22850    141.41681   -1378.7407     132775.2   -33987.825    2670.8562   -36658.681    69.548989    250.56401 
   22900    142.25909   -1065.5373     132826.2     -33958.6    2686.7639   -36645.364    69.816803    252.05638 
   22950    139.21952   -1129.6474    132917.05   -33962.625    2629.3573   -36591.982     70.05532    246.67083 
   23000    140.99038   -1302.1198    132869.23   -33962.558    2662.8024    -36625.36    70.226486    249.80845 
   23050    141.69127   -1246.1643    132901.04   -34019.365    2676.0398   -36695.405    70.521939    251.05031 
   23100    141.80376   -1494.6064     132872.9   -33991.378    2678.1643   -36669.542    70.783757    251.24962 
   23150    141.71653    -1235.774    132828.38   -34011.067    2676.5168   -36687.584    70.737047    251.09506 
   23200    140.92517   -1196.4068    132769.15   -33977.074    2661.5709   -36638.645     70.82211    249.69292 
   23250    138.88436   -1090.0556    132697.47   -34042.346    2623.0273   -36665.373    70.775766    246.07698 
   23300    140.30517   -1306.4843     132660.5   -34091.056    2649.8613   -36740.918    70.922204    248.59439 
   23350    138.42229   -1025.8876    132710.59   -34083.357    2614.3005   -36697.657    70.847247    245.25829 
   23400     139.0442   -1096.9539    132672.56   -34078.753    2626.0461   -36704.799    70.885236    246.36019 
   23450    138.66589   -1164.0847    132676.65   -34084.857    2618.9012   -36703.758    71.202228     245.6899 
   23500    138.16401   -1285.2886    132605.92   -34037.467    2609.4225   -36646.889    71.410057    244.80066 
   23550    139.96205   -1033.5317    132658.43   -34002.472    2643.3809   -36645.853    71.780271    247.98644 
   23600    139.17498   -1216.5703    132635.16   -34021.549    2628.5161   -36650.066    72.036967    246.59192 
   23650    139.14809   -1171.9958    132666.34   -33994.534    2628.0083   -36622.542    72.308087    246.54427 
   23700    139.03178   -1029.6171    132767.25   -34050.469    2625.8115   -36676.281    72.469287    246.33819 
   23750    137.99089   -1072.7053    132916.67   -34046.758    2606.1528   -36652.911    72.358901    244.49392 
   23800     140.1048   -1282.5356     132889.9   -34029.325    2646.0771   -36675.402    72.856374    248.23938 
   23850    139.30118   -1537.7918    132726.44   -34029.472    2630.8995   -36660.371    73.038995    246.81551 
   23900    140.69561   -1179.2043    132642.93   -34025.882    2657.2353   -36683.118    73.254367    249.28618 
   23950    140.43755   -1215.1478    132619.23   -33993.197    2652.3616   -36645.559    73.466655    248.82896 
   24000    139.93097   -1019.1889    132578.31   -34018.776     2642.794    -36661.57     73.78044    247.93138 
   24050    140.68686    -1014.283    132622.36    -34067.54    2657.0701    -36724.61    74.070261    249.27068 
   24100    140.26651   -1027.4459    132653.77   -34065.355    2649.1312   -36714.487    74.432327     248.5259 
   24150    143.19881   -885.16409    132707.21   -34018.724    2704.5118   -36723.236    74.889717    253.72139 
   24200    144.71312   -1101.9241    132718.63   -33991.502    2733.1117   -36724.614    75.150953    256.40445 
   24250    142.92962   -1044.3489    132725.12   -34002.842    2699.4278    -36702.27    75.238537    253.24443 
   24300    142.37188   -1159.6693    132706.29   -33979.234     2688.894   -36668.128    75.289363    252.25621 
   24350    142.45619   -1082.9345    132673.36   -33997.737    2690.4864   -36688.224    75.346486    252.40561 
   24400    140.82249   -1305.8711    132658.84   -33981.511    2659.6317   -36641.143    75.480614    249.51099 
   24450    139.63088   -1381.5072    132601.46   -34029.503    2637.1264   -36666.629    75.631375    247.39968 
   24500    140.44914   -1366.5012    132565.81   -33964.705    2652.5804   -36617.285    76.005475    248.84948 
   24550    139.04804   -1128.9421    132649.41   -33991.572    2626.1186   -36617.691    76.299524      246.367 
   24600    140.23584   -1589.3138    132605.94   -34047.397    2648.5518   -36695.949    76.788045    248.47155 
   24650    137.26104   -1256.5078    132532.44   -34077.851    2592.3686    -36670.22    76.876172    243.20076 
   24700    136.36479   -1447.8947    132433.41   -34072.609    2575.4416   -36648.051    77.104419    241.61278 
   24750    139.90825   -1390.4943    132406.18   -34076.286    2642.3649    -36718.65    77.344908    247.89112 
   24800    137.84177   -1329.7975    132386.18    -34042.16    2603.3365   -36645.497    77.599425    244.22971 
   24850    139.83859   -1256.5695    132335.94   -33996.795    2641.0493   -36637.844    77.780589     247.7677 
   24900    136.99401    -943.7642    132290.23   -34000.998    2587.3253   -36588.323    77.754151    242.72763 
   24950    139.81036   -1022.5299    132300.24   -33997.271    2640.5161   -36637.787    78.061352    247.71769 
   25000    139.55384   -1340.7621    132321.62   -33970.898    2635.6714   -36606.569    78.098513    247.26318 
   25050    140.49561   -994.71568    132281.14   -34020.525    2653.4581   -36673.983    78.378646    248.93182 
   25100    140.81644   -855.81204    132437.79   -33997.153    2659.5173    -36656.67    78.652127    249.50026 
   25150    141.35856   -1455.4633    132570.15   -34045.177    2669.7561   -36714.934    78.934757    250.46081 
   25200    138.13376   -1337.7151    132425.66   -34041.746    2608.8512   -36650.597    79.079581    244.74707 
   25250    138.68673   -1251.0413     132428.8   -34058.483    2619.2948   -36677.778      79.0917    245.72682 
   25300    138.48965   -1070.0569    132516.75   -33977.338    2615.5726   -36592.911    79.365734    245.37763 
   25350    140.35319   -1413.8988    132629.85   -33952.081    2650.7682    -36602.85    79.917138    248.67947 
   25400    140.26046    -1277.285    132645.12    -33899.22    2649.0169   -36548.237    80.020137    248.51518 
   25450    140.13585   -1131.4429    132681.01   -33955.412    2646.6635   -36602.076    80.306361     248.2944 
   25500    141.57447   -1191.9061     132751.5   -33924.082    2673.8339   -36597.916     80.55562    250.84336 
   25550    140.21477   -1383.3564    132743.29   -33902.249    2648.1541   -36550.403    80.928211    248.43423 
   25600    139.56926   -1514.8128    132649.56   -33896.182    2635.9626   -36532.145    81.114164     247.2905 
   25650     141.9778   -1563.7568    132438.96    -33882.05    2681.4514   -36563.502     81.30562    251.55799 
   25700    139.51737   -1338.7551    132258.37   -33921.497    2634.9826    -36556.48    81.613719    247.19856 
   25750    140.40957   -1175.5166    132213.22   -33870.781     2651.833   -36522.614     81.90137    248.77937 
   25800    141.27517   -1119.3931     132237.8   -33892.103    2668.1811   -36560.284     82.22611    250.31305 
   25850    141.87407   -1265.9594       132200   -33904.912    2679.4921   -36584.405    82.495584    251.37419 
   25900    139.39154   -1083.7195     132230.9   -33900.795    2632.6062   -36533.402     82.75049    246.97562 
   25950    141.56674   -1344.6365    132160.26   -33913.872    2673.6879    -36587.56    82.763474    250.82966 
   26000    140.59782   -1253.4268    132094.15   -33940.565    2655.3883   -36595.953     83.07658    249.11291 
   26050     139.4161   -1144.2477     132058.9   -33942.378      2633.07   -36575.448    83.271375    247.01914 
   26100    142.85316   -1115.6855    132051.95   -33845.353    2697.9836   -36543.337    83.516992    253.10895 
   26150    142.91224   -866.20601    132050.33   -33828.496    2699.0994   -36527.596    83.532029    253.21363 
   26200    141.40333   -1331.2104    132068.99   -33798.688    2670.6016   -36469.289    83.712152    250.54012 
   26250     143.2527   -1216.6534    132052.18    -33816.02    2705.5296    -36521.55    83.817211    253.81687 
   26300    143.72917   -879.33109    132095.57   -33755.752    2714.5283    -36470.28     83.88378    254.66107 
   26350    144.89399   -1238.2774    132056.66   -33725.434    2736.5276   -36461.962    84.173861    256.72492 
   26400    144.68304   -1133.7062    132135.15   -33736.311    2732.5435   -36468.855     84.51787    256.35115 
   26450     145.8887   -1017.3227    132136.71   -33753.114    2755.3142   -36508.428     84.47224    258.48737 
   26500    143.62506   -1029.5513    132208.04   -33765.988    2712.5621    -36478.55     84.68227    254.47662 
   26550    144.04848   -1054.6416    132202.53   -33752.055    2720.5591   -36472.614    84.966818    255.22685 
   26600    143.07373   -1253.4245    132271.03   -33803.046    2702.1495   -36505.195    85.051655    253.49977 
   26650    141.53806   -1111.2585    132275.33    -33849.21    2673.1462   -36522.356    85.066586    250.77885 
   26700    141.97829   -1213.6373    132268.96   -33886.734    2681.4605   -36568.194    84.929137    251.55884 
   26750    141.51629   -1171.9872    132263.59    -33889.43    2672.7349   -36562.165    84.692009    250.74026 
   26800    139.80781   -1163.7972     132232.9   -33905.171    2640.4679   -36545.638    84.789058    247.71316 
   26850    141.45781   -806.34601    132316.87   -33896.357    2671.6305   -36567.987    84.845741    250.63665 
   26900     141.4372   -1165.9063     132402.9   -33930.437    2671.2414   -36601.678    84.768786    250.60015 
   26950    141.41872   -1268.8866    132358.18   -33866.771    2670.8923   -36537.663    84.886269     250.5674 
   27000    140.79479   -1274.7801    132396.53   -33877.002    2659.1085   -36536.111    85.020526    249.46191 
   27050    141.66176   -1167.8725    132388.62   -33914.227    2675.4824   -36589.709    85.290553    250.99801 
   27100     138.9707   -1394.6913    132393.36   -33891.305     2624.658   -36515.963    85.722034    246.22997 
   27150    144.12079   -1159.4968    132346.65   -33912.616    2721.9248   -36634.541    85.997006    255.35497 
   27200    143.61769   -1291.2443     132278.5   -33876.425    2712.4229   -36588.848     86.05999    254.46356 
   27250    140.67588   -1238.2597    132287.49   -33912.487    2656.8627    -36569.35    86.486298    249.25122 
   27300    142.17539   -1280.9611    132268.29   -33922.776    2685.1831   -36607.959    86.556016    251.90808 
   27350    141.66466   -1185.1872    132248.92   -33966.569    2675.5372   -36642.106    86.603367    251.00316 
   27400    139.89367   -1473.6611    132225.48   -33972.909    2642.0895   -36614.999    86.821999    247.86529 
   27450    143.36215   -993.56642    132289.31   -33900.214    2707.5967   -36607.811    86.768996    254.01079 
   27500    140.57679   -1056.0948    132306.22   -33939.289    2654.9912    -36594.28    87.167471    249.07565 
   27550    137.10854   -1282.9305    132424.95     -33939.8    2589.4884   -36529.289    87.344127    242.93057 
   27600    141.23478    -1280.379    132404.74   -33903.322    2667.4183    -36570.74    87.672808    250.24149 
   27650     141.3763   -1252.8902    132438.55   -33946.766    2670.0912   -36616.857    87.956434    250.49224 
   27700    136.88736   -1463.4864    132489.46   -33942.668    2585.3111   -36527.979    88.201435    242.53868 
   27750     139.4108   -1140.6939    132498.54   -33923.741    2632.9699   -36556.711    88.362162    247.00974 
   27800    140.28475   -1320.4907    132434.89   -33929.145    2649.4756   -36578.621    88.804237    248.55821 
   27850     138.6122    -1164.091    132474.09   -33906.618    2617.8872   -36524.505    88.951694    245.59478 
   27900    138.95681   -1468.7765    132375.73   -33887.777    2624.3957   -36512.172    89.121022    246.20536 
   27950    142.37965   -1251.8583    132265.71   -33795.363    2689.0408   -36484.404    89.241412    252.26998 
   28000     142.5501   -1169.3486    132268.01   -33786.027    2692.2599   -36478.287    89.264999    252.57198 
   28050    141.75872   -1418.0695    132359.43   -33791.768    2677.3136   -36469.082    89.517808    251.16981 
   28100     143.5766   -1425.6824    132374.36   -33806.943    2711.6468    -36518.59    89.866566    254.39075 
   28150    141.69469   -1204.9673    132367.39   -33790.897    2676.1043   -36467.001    89.826279    251.05636 
   28200    144.83416   -1372.0617    132399.53   -33771.905    2735.3978   -36507.302    90.074001    256.61892 
   28250    145.07871   -1180.4705    132423.94   -33717.334    2740.0163   -36457.351    90.374394    257.05221 
   28300    142.53078   -1223.8699    132466.84   -33779.464    2691.8951    -36471.36    90.353629    252.53775 
   28350    140.42851   -1215.1143    132562.49   -33824.852    2652.1907   -36477.043    90.469706    248.81293 
   28400    142.01092    -1495.657    132561.63   -33855.171    2682.0768   -36537.248    90.681844    251.61666 
   28450    142.59424   -1252.5887    132502.69    -33845.44    2693.0936   -36538.534    90.873946    252.65019 
   28500    143.69772    -1332.744    132488.46   -33785.918    2713.9344   -36499.852    91.039667    254.60535 
   28550    142.22849   -1305.6085    132407.08   -33803.313    2686.1859   -36489.499    91.491148    252.00215 
   28600    144.09231   -1181.3975    132400.99   -33809.248    2721.3868   -36530.635    91.455888     255.3045 
   28650    143.74971   -1221.5967    132621.98   -33828.708    2714.9163   -36543.625    91.715688    254.69748 
   28700    144.36247   -1256.0921    132724.13   -33846.277    2726.4891   -36572.766    91.718948    255.78316 
   28750     143.9784   -1316.0603    132723.01   -33830.775    2719.2354   -36550.011    91.775203    255.10266 
   28800    141.94346   -1287.7842    132663.86   -33861.343    2680.8028   -36542.146    91.862052    251.49714 
   28850    142.10962   -1163.7297    132588.65   -33875.637     2683.941   -36559.578    92.244767    251.79155 
   28900    140.05432   -1085.8127    132580.26   -33919.296    2645.1236   -36564.419    92.561254    248.14993 
   28950    141.52761   -1279.3088    132593.52   -33958.389    2672.9488   -36631.338    92.657749    250.76033 
   29000    137.13825   -1336.7682    132516.34   -33976.582    2590.0496   -36566.632      92.7334    242.98321 
   29050    143.00862   -1343.8551    132507.03   -33934.384    2700.9197   -36635.304    92.761625    253.38439 
   29100    140.66483   -1277.6095    132520.35   -33955.186    2656.6539    -36611.84    92.655037    249.23164 
   29150    142.51909   -1260.8305     132557.4    -33960.06    2691.6743   -36651.735    92.523339    252.51704 
   29200    143.77202   -1181.6804    132559.13   -33923.081    2715.3376   -36638.419    92.663463      254.737 
   29250    137.57139   -1227.7548     132506.6   -34010.858    2598.2299   -36609.088    92.867673    243.75064 
   29300     137.6929   -1095.4694    132532.06   -34044.678    2600.5249   -36645.203    92.960359    243.96595 
   29350    140.24775    -1244.937    132627.44    -33942.78    2648.7769   -36591.557    93.255579    248.49266 
   29400    142.18071   -1019.4139    132673.28   -33885.549    2685.2835   -36570.833    93.469823    251.91749 
   29450    139.15655   -1303.3856    132747.32   -33909.968     2628.168   -36538.136    93.635783    246.55925 
   29500    139.74219   -950.03622    132764.79   -33918.493    2639.2286   -36557.721    94.011689     247.5969 
   29550     143.1009   -1362.1263    132734.61   -33948.149    2702.6627   -36650.811    94.337001    253.54791 
   29600     137.8923   -1149.6677    132743.71   -33988.424    2604.2908   -36592.715    94.438512    244.31924 
   29650    137.55015   -1188.9841    132806.87   -34005.113    2597.8288   -36602.942    94.804593    243.71301 
   29700    141.61588   -1081.1495    132801.44   -33982.102    2674.6159   -36656.718    94.973534    250.91673 
   29750    140.30873   -997.88292     132775.4   -33996.753    2649.9286   -36646.682    95.277713    248.60071 
   29800    139.31331   -1182.1401    132750.62    -34056.68    2631.1286   -36687.809     95.29727      246.837 
   29850    140.23531   -1114.7861    132778.37   -34057.592    2648.5419   -36706.134    95.342781    248.47061 
   29900      138.661   -1316.9661    132734.32   -34061.287    2618.8088   -36680.095    95.802621    245.68123 
   29950    136.89408   -1341.3818    132696.89   -34056.612     2585.438    -36642.05    95.797217    242.55058 
   30000    140.12853   -1307.3901    132583.63   -34036.914    2646.5252   -36683.439     95.99965    248.28142 
   30050    136.61931     -1217.76    132499.13   -34034.394    2580.2487   -36614.643    96.212798    242.06375 
   30100    138.76073   -1449.6285    132493.16   -34041.636    2620.6925   -36662.328    96.419766    245.85794 
   30150    141.35185    -1336.843    132440.23   -34011.464    2669.6294   -36681.093    96.659105    250.44892 
   30200    138.69055   -1033.8753    132449.97   -34046.076    2619.3669   -36665.443    96.777567    245.73359 
   30250    139.63446   -986.36212    132510.23   -34037.103     2637.194   -36674.297    97.102963    247.40602 
   30300    138.44103   -1094.9541    132587.19   -34062.759    2614.6544   -36677.413    97.392728    245.29149 
   30350    137.78316   -1050.9886    132566.86   -33969.459    2602.2296   -36571.688    97.454314    244.12586 
   30400    141.73186   -1365.9757    132497.03   -33963.003    2676.8065    -36639.81    97.684509    251.12223 
   30450    141.06074   -1138.9816    132536.13   -33923.358    2664.1313   -36587.489      97.9182    249.93312 
   30500    138.24338   -1321.1976    132498.08    -33946.05    2610.9214   -36556.971    98.316241    244.94128 
   30550    140.10102   -1217.7506    132438.23    -33928.99    2646.0056   -36574.996    98.551742    248.23268 
   30600    140.00685    -1148.711    132473.41   -33899.657    2644.2272   -36543.884     98.74378    248.06584 
   30650    138.53369   -1390.1999    132360.97   -33931.755    2616.4043   -36548.159    98.703918    245.45566 
   30700    139.83212   -1014.3726    132280.41   -33950.125    2640.9271   -36591.052     98.89359    247.75624 
   30750    138.97944   -1124.2177    132337.72   -33941.901    2624.8229   -36566.724    99.314655    246.24544 
   30800    142.50229   -1207.8026    132365.54   -33945.108     2691.357   -36636.465    99.446356    252.48728 
   30850    140.34666   -909.43917    132381.78   -33933.367    2650.6449   -36584.012    99.667297    248.66791 
   30900    139.40767   -1498.9684    132393.01   -33946.503    2632.9107   -36579.414     99.83601    247.00419 
   30950    140.14074   -1507.7929    132291.67   -33962.765    2646.7558   -36609.521    100.06535    248.30306 
   31000    140.37694    -1334.031    132143.59   -33910.375    2651.2167   -36561.592    100.40447    248.72155 
   31050    138.62055   -1377.3421    132041.13   -33906.892    2618.0449   -36524.937    100.76844    245.60956 
   31100    140.87054   -991.85785    132000.73   -33933.486     2660.539   -36594.025    100.86711    249.59612 
   31150     140.5629   -1002.8006     132105.3   -33880.437    2654.7289   -36535.165    101.09567    249.05105 
   31200    140.75758   -1182.4966    132107.81   -33894.461    2658.4057   -36552.867     101.2186    249.39598 
   31250    142.02352   -1024.9703    132186.33   -33937.171    2682.3148   -36619.486    101.18416    251.63899 
   31300     139.6969   -1093.3297    132184.66   -33940.916    2638.3733   -36579.289    101.37253    247.51666 
   31350    140.84682   -1088.8742    132249.62   -33941.826    2660.0911   -36601.917    101.27546    249.55409 
   31400     138.6431   -1427.8416    132146.34   -33963.954    2618.4708   -36582.424    101.41389    245.64952 
   31450    140.22208   -1296.5859    132040.48   -33939.929     2648.292   -36588.221    101.45037    248.44718 
   31500    139.30347   -1476.9361    132010.91   -33960.091    2630.9427   -36591.033    101.44594    246.81956 
   31550    141.53765   -1133.4829    132031.18   -33925.514    2673.1384   -36598.652    101.50738    250.77811 
   31600    140.91372   -1163.2575    132103.45   -33898.417    2661.3546   -36559.772    101.73025    249.67262 
   31650    143.02872   -1084.7163    132186.72   -33870.559    2701.2994   -36571.858    101.89073    253.42001 
   31700    139.83887   -1306.3505    132109.09   -33845.071    2641.0546   -36486.125    101.71718    247.76821 
   31750    141.52366   -1268.0124       132071   -33873.363    2672.8741   -36546.237    101.91748    250.75332 
   31800    140.61501   -1017.9697    131939.64   -33933.871    2655.7131   -36589.584    101.91627    249.14338 
   31850    138.69384   -1195.1799    131947.98   -33990.537    2619.4291   -36609.966     101.9581    245.73942 
   31900    139.31354   -1231.1762    131996.96   -33974.511     2631.133   -36605.644    102.11245    246.83741 
   31950    141.22492   -1165.6582    132072.78    -33961.71     2667.232   -36628.942    102.19754    250.22401 
   32000    138.44037   -1225.4378    131955.02   -33987.423    2614.6418   -36602.065    102.16967    245.29031 
   32050    141.13172     -1057.21    131937.93   -34006.241    2665.4719   -36671.713    102.38533    250.05888 
   32100    139.65722    -1025.592    131927.54   -34071.657    2637.6238   -36709.281    102.47446    247.44634 
   32150    138.94079   -1189.9457    131929.64   -34099.295     2624.093   -36723.388    102.49804    246.17697 
   32200    139.54644   -711.20547    131962.61   -34062.684    2635.5317   -36698.216    102.39166    247.25008 
   32250    136.09378   -1064.4571    132019.93   -34028.187    2570.3232   -36598.511    102.87069     241.1326 
   32300    139.80251   -849.21179    132132.52   -34048.235    2640.3678   -36688.603     103.1092    247.70377 
   32350     135.2746   -1295.0097    132146.95    -34047.38    2554.8518   -36602.232    103.50163    239.68117 
   32400    140.14835   -1143.8932    132133.62   -34020.914    2646.8996   -36667.814     104.1033    248.31654 
   32450    138.70919   -1206.3386    132090.84   -34067.929     2619.719   -36687.648    104.27164    245.76662 
   32500     142.6812   -1253.9349    132099.88   -34053.175    2694.7361   -36747.911    104.46095    252.80428 
   32550    137.23072    -1123.927    132100.62   -34072.427     2591.796   -36664.223    104.70474    243.14705 
   32600    136.81433   -987.16002    132122.64   -34032.765    2583.9319   -36616.697    104.96946    242.40929 
   32650    136.14278   -979.50553    132160.55   -34055.102    2571.2486    -36626.35    105.19851    241.21941 
   32700    139.98895   -1162.1775    132207.72   -33958.923    2643.8891   -36602.812    105.54278    248.03412 
   32750    141.60907   -1063.3028    132335.46   -33953.116    2674.4872   -36627.603    105.64745    250.90465 
   32800    144.48124   -1071.2708    132318.22    -33926.97    2728.7323   -36655.702    105.81952    255.99361 
   32850    142.72649   -1056.9137    132420.02   -33979.316    2695.5914   -36674.907    106.08303    252.88453 
   32900    139.64947   -1190.8852    132415.44   -33982.908    2637.4775   -36620.386    106.18114    247.43261 
   32950    139.71884   -956.06453     132367.7   -34002.425    2638.7876   -36641.213    106.61331    247.55552 
   33000    139.94201    -1090.151    132303.48   -33978.109    2643.0026   -36621.112    106.67424    247.95095 
   33050    140.01296    -1002.278     132266.3   -33991.761    2644.3425   -36636.103    106.83357    248.07665 
   33100     141.8973   -1236.8159    132301.61   -34000.391     2679.931   -36680.322    106.97275    251.41536 
   33150    142.73233   -1027.7714    132344.89   -33992.317    2695.7017   -36688.018    107.15235    252.89487 
   33200    139.81622   -1232.4464    132428.51   -34001.427    2640.6268   -36642.053    107.54257    247.72807 
   33250    140.66354   -1150.3004    132370.51   -34085.009    2656.6297   -36741.639    107.84756    249.22937 
   33300    139.16991   -1066.7921     132427.3   -34067.511    2628.4203   -36695.931     107.8891    246.58292 
   33350    139.60575   -954.54305    132480.38   -34074.679    2636.6519   -36711.331    108.05407    247.35516 
   33400    136.92224   -1141.2016    132466.57   -34053.642      2585.97   -36639.612    108.35481    242.60049 
   33450    138.48193   -1179.8083    132431.77   -34063.596    2615.4268   -36679.023     108.6334    245.36395 
   33500    138.79741   -1180.3236    132410.43   -34021.236    2621.3851   -36642.621    109.02448    245.92293 
   33550    139.88156   -1218.8772    132336.79   -34017.459    2641.8609    -36659.32    109.35393    247.84384 
   33600    139.29824   -1079.8121    132307.31   -34002.282    2630.8441   -36633.126    109.55204    246.81031 
   33650    137.72768   -1153.3704    132274.28   -33999.762    2601.1818   -36600.944    109.86794    244.02757 
   33700    135.98242    -1141.436    132243.31   -34046.728    2568.2201   -36614.948    109.79947    240.93529 
   33750     139.9368   -1388.6662    132304.76   -34060.052    2642.9041   -36702.956    110.03807    247.94171 
   33800    138.95209   -1259.3388    132332.77   -34067.059    2624.3065   -36691.365    110.14768      246.197 
   33850     141.6258   -1105.4596    132339.71    -34058.61    2674.8033   -36733.414    110.31307    250.93431 
   33900    138.23037   -1093.0665    132456.17   -34005.497    2610.6758   -36616.173    110.53509    244.91824 
   33950    140.50469   -1297.9053    132431.09   -34024.504    2653.6295   -36678.134    110.65326    248.94791 
[...]
   92000    139.93075   -1040.5997    133099.04   -34039.419    2642.7898   -36682.209     280.2471    247.93099 
   92050    142.47007   -1232.5149    133075.91    -33990.94    2690.7484   -36681.688    280.75057    252.43019 
   92100    140.64452   -1073.4767    133134.51   -33978.464    2656.2704   -36634.735    280.87413    249.19566 
   92150    141.69837   -1264.4914    133183.78   -33964.184    2676.1738   -36640.358    280.71236    251.06288 
   92200    138.61709   -1292.0991    133113.88   -34028.874    2617.9795   -36646.854    280.84158    245.60343 
   92250    142.80901   -1101.3274    132969.81   -34052.504    2697.1499   -36749.654    280.08113    253.03073 
   92300    140.36158    -1293.667    132953.12   -34088.553    2650.9266   -36739.479    280.12673    248.69433 
   92350    137.71252   -1114.7794    132925.21   -34137.779    2600.8955   -36738.674    280.39379    244.00071 
   92400    137.13071   -1345.7633    132955.88    -34115.78    2589.9071   -36705.687    280.63155    242.96985 
   92450    139.81219   -1327.7208     132968.5    -34043.56    2640.5507   -36684.111    280.42756    247.72093 
   92500    139.42752   -1178.5795    133013.45   -34044.982    2633.2856   -36678.268    280.60416    247.03936 
   92550    140.65522   -1014.7633    132956.54   -34026.711    2656.4725   -36683.183    281.12206    249.21462 
   92600    138.86785   -1225.4294    132929.36   -34046.606    2622.7154   -36669.321    281.27353    246.04773 
   92650    139.64786    -1244.722    132872.23   -34049.188    2637.4471   -36686.635    281.47699    247.42977 
   92700     140.3713   -1390.9454    132777.76   -34044.822    2651.1103   -36695.933    281.66444    248.71157 
   92750    141.42379   -1028.7251    132817.66   -34011.515    2670.9881   -36682.503    281.76754    250.57639 
   92800    139.74196   -1005.9257    132808.82   -34041.226    2639.2243    -36680.45    281.73934    247.59649 
   92850    137.70114   -1009.1694    132856.29   -34038.639    2600.6805   -36639.319    281.83506    243.98054 
   92900    139.23161   -1142.2522    132963.42   -34018.676    2629.5856   -36648.262    282.43458    246.69225 
   92950    140.73326   -1409.0381    132941.43   -34038.191    2657.9463   -36696.138    282.94269    249.35288 
   93000    137.32897   -1181.4442    132923.21   -34047.089    2593.6515    -36640.74    282.98333    243.32112 
   93050    142.29668   -1049.8204    132960.01   -34055.258    2687.4737   -36742.732    282.72835    252.12297 
   93100    140.46662   -1426.7239    132932.18   -34021.678    2652.9105   -36674.588    282.62388    248.88045 
   93150    141.62991   -1230.1338    132889.41   -34046.655    2674.8809   -36721.536    283.03127    250.94159 
   93200    138.92381    -1284.705    132885.51   -34078.481    2623.7724   -36702.254    283.68834    246.14688 
   93250     137.2978    -1287.592    132854.83   -34111.764     2593.063   -36704.827    284.24704    243.26591 
   93300    139.19971   -1293.0397    132868.44   -34115.993    2628.9831   -36744.976    284.27935    246.63572 
   93350    139.56357   -1019.5074    132922.42   -34133.161    2635.8551   -36769.016      284.381    247.28041 
   93400    139.53661   -1220.4538    133031.25   -34168.303    2635.3459   -36803.649    284.64888    247.23265 
   93450    138.50486   -1262.8867    133099.88   -34125.979    2615.8599   -36741.838    284.52281    245.40458 
   93500    136.95904   -1347.9141    133082.08   -34152.507    2586.6649   -36739.172    284.81449    242.66568 
   93550     137.1442   -1242.8812    133035.56   -34161.849     2590.162   -36752.011    285.07877    242.99376 
   93600    137.76319    -1319.999    133042.04   -34184.227    2601.8524   -36786.079    285.02838    244.09048 
   93650    135.33192   -1351.3901    132916.77   -34170.386    2555.9344   -36726.321    285.04805    239.78273 
   93700    136.90249   -1060.6091    132908.85   -34121.173    2585.5969    -36706.77    285.52494    242.56548 
   93750    141.28844   -1369.2076    132877.87   -34128.668    2668.4318     -36797.1    285.30109    250.33656 
   93800    139.14377   -1222.5665    132833.61   -34183.394    2627.9267   -36811.321    286.12195    246.53662 
   93850    137.72541   -1224.6078    132717.04   -34146.173    2601.1388   -36747.312    286.59631    244.02354 
   93900    139.02992   -1111.7359    132724.79   -34120.334    2625.7764   -36746.111    286.86224    246.33489 
   93950    140.68504   -1121.5548     132757.2   -34145.784    2657.0357   -36802.819    286.77761    249.26745 
   94000    139.75094   -1051.0618    132755.45   -34164.622    2639.3939   -36804.016    286.76899     247.6124 
   94050    137.66105    -1166.225    132800.76    -34206.63    2599.9233   -36806.553    286.86496    243.90951 
   94100    137.27836   -1221.9725    132807.78   -34159.513    2592.6957   -36752.209    287.13487    243.23145 
   94150    137.44458   -1098.4918    132852.28   -34170.563     2595.835   -36766.398    287.07622    243.52596 
   94200    138.11864   -1210.0607    132870.26   -34152.588    2608.5656   -36761.153    287.16183    244.72027 
   94250     140.2477   -1297.3527     132849.9    -34090.98    2648.7759   -36739.756    287.05298    248.49257 
   94300    138.67938   -1330.0702    132846.18   -34135.692     2619.156   -36754.848     287.2372    245.71381 
   94350    137.86132   -1150.1212    132846.44   -34126.316    2603.7058   -36730.022    287.33922    244.26435 
   94400    138.27253   -1148.9931    132977.77   -34073.048    2611.4721   -36684.521    287.62269    244.99295 
   94450    139.83416   -1252.7525    133060.86   -34123.346    2640.9657   -36764.312    287.81722    247.75986 
   94500    140.01466   -1287.3975    133029.63   -34129.765    2644.3747    -36774.14    288.06997    248.07967 
   94550    136.26191   -1177.5518    132974.36   -34124.987    2573.4987   -36698.486    288.66902    241.43051 
   94600    137.52168   -1263.2474     132956.5   -34128.034    2597.2911   -36725.325    288.26234    243.66257 
   94650    138.80149   -1111.0443     132977.2    -34100.04    2621.4621   -36721.502    288.43357    245.93015 
   94700    139.97531   -991.15158    133018.94   -34131.558    2643.6314   -36775.189    288.73303    248.00994 
   94750    138.52911   -1058.9292    133088.24   -34141.657    2616.3179   -36757.975    289.16832    245.44755 
   94800    138.92347   -1295.1111    133094.11   -34162.161    2623.7659   -36785.927    289.41632    246.14628 
   94850    137.15035   -1450.0609    133051.77   -34150.693    2590.2781   -36740.971     289.7718    243.00465 
   94900    139.62925   -1189.7719     132937.6   -34147.454    2637.0956    -36784.55     290.0143    247.39679 
   94950    137.30003   -1210.2044    132946.47   -34178.847    2593.1051   -36771.952    290.31033    243.26986 
   95000    137.78977   -976.17846    133071.12   -34174.784    2602.3545   -36777.138    290.19523    244.13758 
   95050    140.01164   -1065.6045    133177.67    -34098.54    2644.3175   -36742.858     290.6522    248.07431 
   95100    139.40849   -1110.8611    133223.32   -34165.977    2632.9262   -36798.903    290.94782    247.00564 
   95150    135.19857    -1081.705    133320.89   -34101.341     2553.416   -36654.757    291.31856    239.54646 
   95200    138.54713   -1355.5995    133277.07   -34096.532    2616.6582    -36713.19    291.70192    245.47947 
   95250    144.24254   -1059.8974    133248.51    -34035.14    2724.2242   -36759.365    291.45969    255.57068 
   95300    142.11629   -1442.7908    133216.64   -33982.891     2684.067   -36666.958     291.5326    251.80337 
   95350    141.03619   -1140.0851    133189.87   -33934.763    2663.6677   -36598.431    291.41632    249.88963 
   95400     141.7309   -1414.0841    133252.46   -34013.606    2676.7883   -36690.394    291.82225    251.12053 
   95450    139.14959   -1163.4737    133147.91   -34044.261    2628.0366   -36672.298    292.06075    246.54693 
   95500    140.66386   -1198.6401    133185.27   -34023.343    2656.6356   -36679.979    291.81953    249.22992 
   95550    137.57119     -1050.04    133227.28    -34016.48    2598.2263   -36614.707    292.22981    243.75031 
   95600    140.12238    -1062.751    133368.36   -34014.956     2646.409   -36661.365    292.41906    248.27052 
   95650    141.40741   -1302.0886    133412.33   -34045.176    2670.6787   -36715.854    292.70125    250.54736 
   95700    143.01643   -955.56272    133405.07   -34025.948    2701.0672   -36727.015    292.54736    253.39823 
   95750     142.7715   -1448.8257    133435.76    -34004.38    2696.4414   -36700.822    292.26851    252.96427 
   95800    141.96733   -1406.4619    133388.24   -34036.481    2681.2536   -36717.735    292.76879    251.53943 
   95850    137.69702   -1440.0133     133319.9   -34073.097    2600.6028     -36673.7    293.16767    243.97325 
   95900    141.20376   -1277.3138    133233.33   -34076.518    2666.8325   -36743.351    293.66913    250.18654 
   95950    141.44089   -1408.1865    133166.56   -34017.386     2671.311   -36688.697    293.92979    250.60668 
   96000    139.41178   -1210.9799    133052.63    -34073.25    2632.9884   -36706.239    293.90858    247.01148 
   96050    138.82975   -1029.7007    133119.96   -34070.642    2621.9959   -36692.638    294.16004    245.98023 
   96100    139.31717   -1261.4878    133189.74   -34086.246    2631.2015   -36717.447    294.23267    246.84384 
   96150    137.92878   -1363.0042    133211.18   -34117.996    2604.9798   -36722.976    293.93831    244.38387 
   96200    137.42385   -1393.3104    133259.37   -34185.075    2595.4435   -36780.519    294.25401    243.48923 
   96250    135.18764   -1251.7806     133230.2   -34139.362    2553.2096   -36692.572    294.04653     239.5271 
   96300    138.10373   -1114.3287    133218.17   -34156.845     2608.284   -36765.129    293.90875    244.69385 
   96350    138.69347    -1060.695    133214.82   -34181.314    2619.4222   -36800.736    294.85584    245.73877 
   96400    137.80605   -949.60151     133335.6   -34160.744    2602.6619   -36763.406    295.12391    244.16642 
   96450     137.5342   -1266.9086    133358.36    -34170.79    2597.5277   -36768.318    295.15138    243.68477 
   96500    136.46637   -1213.8982    133373.27   -34196.605    2577.3601   -36773.966    295.43584    241.79276 
   96550    136.11766    -1130.417    133449.75   -34193.031    2570.7743   -36763.805    295.43041    241.17492 
   96600    140.05304   -1349.5248    133386.99   -34181.578    2645.0994   -36826.677    295.84825    248.14766 
   96650    139.09358    -1300.757    133397.32   -34121.438    2626.9787   -36748.417    296.25002    246.44768 
   96700    138.17684   -1152.4935    133428.28    -34126.31    2609.6647   -36735.974    296.55468    244.82339 
   96750     138.4917    -1018.361    133497.24   -34123.386    2615.6113   -36738.997    296.42568    245.38126 
   96800    140.80975   -1300.9987     133601.9   -34107.963     2659.391   -36767.354    296.70649    249.48842 
   96850    140.86022   -1079.6015    133591.81   -34080.926    2660.3443    -36741.27    296.63246    249.57785 
   96900    137.63887   -1137.1199     133618.4   -34093.837    2599.5045   -36693.342    296.55248    243.87022 
   96950    140.74248   -1074.6918     133633.6   -34125.798    2658.1206   -36783.918    296.67426    249.36923 
   97000    140.02852   -1310.3309    133578.12   -34102.175    2644.6363   -36746.811    296.73995    248.10422 
   97050    139.56707   -1359.1648    133582.16   -34048.888    2635.9212   -36684.809    296.49044    247.28661 
   97100    141.98992   -1174.9897    133619.98   -34039.365    2681.6803   -36721.046    296.41099    251.57946 
   97150    137.91079   -1326.1563    133595.17   -34065.902    2604.6401   -36670.542    296.64262      244.352 
   97200    140.51241   -1325.4751    133565.31   -34123.059    2653.7754   -36776.834    296.73617    248.96159 
   97250    139.87537   -1218.2926     133522.5   -34134.133    2641.7439   -36775.877    296.90567    247.83286 
   97300    137.74353   -1404.3664    133402.97    -34065.42    2601.4811   -36666.901    296.83142    244.05565 
   97350    138.66174   -1342.3048    133293.18   -34053.268    2618.8228   -36672.091    296.47951    245.68254 
   97400    139.31001   -1436.8611    133263.48   -34051.995    2631.0664   -36683.061    296.61065    246.83117 
   97450    138.96032   -1423.5687    133170.39   -34065.521    2624.4618   -36689.983    296.68728    246.21157 
   97500    140.34823   -1276.7789    133170.72   -34074.409    2650.6746   -36725.083    296.72432    248.67069 
   97550    136.86887   -1198.7511    133252.38   -34105.902     2584.962   -36690.864    297.24132    242.50593 
   97600    137.00687   -973.92335    133369.21   -34084.788    2587.5683   -36672.356    297.58923    242.75044 
   97650    137.87861   -1231.3546    133426.79   -34051.863    2604.0323   -36655.895    297.91989    244.29499 
   97700     139.8727   -1225.3542    133555.37    -33967.54    2641.6935   -36609.234    297.99302    247.82814 
   97750    138.36218    -1470.114    133536.77   -33954.013    2613.1651   -36567.178    298.31151    245.15178 
   97800    139.51746   -1493.3797     133386.9   -33888.961    2634.9843   -36523.945    297.75781    247.19872 
   97850    143.54505   -1465.5433    133285.84   -33925.999    2711.0509    -36637.05    298.04079    254.33485 
   97900     141.4489   -1308.5586    133250.03   -33939.561    2671.4623   -36611.024    298.07452    250.62087 
   97950    139.34048   -1449.4936    133244.21   -33969.699    2631.6418   -36601.341    298.17265    246.88515 
   98000    140.78472   -1235.2248    133254.12   -33929.905    2658.9183   -36588.823    298.06049    249.44407 
   98050     139.4228   -1414.8615    133244.93   -33946.712    2633.1964   -36579.908    298.44344    247.03099 
   98100    142.36054   -1504.3078    133154.86   -33916.843    2688.6799   -36605.523    298.48544    252.23613 
   98150    141.76389   -1205.6891    133230.66   -33911.035    2677.4113   -36588.446    298.23657    251.17897 
   98200    140.98033    -1131.447    133329.21   -34006.315    2662.6126   -36668.927    298.37586    249.79065 
   98250    139.99048   -1308.6935     133274.6   -34032.339     2643.918   -36676.257    298.15577    248.03683 
   98300    138.76428   -1256.3687    133123.98   -34049.891    2620.7595   -36670.651    298.39979    245.86424 
   98350    140.41525   -1249.2561    133113.06   -34028.782    2651.9403   -36680.722    298.91002    248.78943 
   98400     140.9184   -1298.8228    133006.36   -34030.541    2661.4431   -36691.984    298.50018    249.68093 
   98450    138.27788   -1007.4504    133021.35   -33999.217    2611.5731    -36610.79     298.8099    245.00242 
   98500    139.03213   -1157.8012    132924.69   -34040.258    2625.8182   -36666.076    298.55076    246.33881 
   98550    139.01011   -1071.2262    132903.07   -34082.674    2625.4022   -36708.076    298.76741    246.29979 
   98600    142.13475   -1179.3919    132836.98   -34072.414    2684.4155    -36756.83    299.60273    251.83607 
   98650    140.17979   -1220.1385    132816.94   -34097.928    2647.4933   -36745.421    299.56158    248.37225 
   98700     140.1752   -1261.3669    132902.14   -34147.166    2647.4067   -36794.573    299.53162    248.36412 
   98750    138.99031    -1116.041    132824.51   -34204.523    2625.0284   -36829.552    299.91733    246.26471 
   98800    137.68457   -1128.0249    132947.13   -34174.031    2600.3676   -36774.399    300.53996    243.95119 
   98850     137.7946   -1184.1067    132936.37   -34162.669    2602.4456   -36765.115    300.51866    244.14613 
   98900    140.60447   -1264.6998    132946.02   -34112.258    2655.5139   -36767.772    300.77772    249.12469 
   98950    137.76551   -1194.7575    132980.79   -34106.479    2601.8962   -36708.375    300.79177    244.09459 
   99000    141.63692   -936.88985    133045.21   -34036.176    2675.0133   -36711.189    301.38132    250.95401 
   99050    142.96467   -1030.0508    133020.55   -34045.743    2700.0898   -36745.832    301.45691    253.30654 
   99100    142.52297   -1087.2384       132999   -34041.005    2691.7476   -36732.753    301.43435    252.52392 
   99150    141.19141   -1299.9217    132914.45   -34064.819    2666.5991   -36731.418    301.29483    250.16464 
   99200    141.06947   -1128.0031    132960.08   -34092.843    2664.2962   -36757.139     301.9313    249.94859 
   99250    136.72912   -1292.3672    132959.65   -34091.919    2582.3225   -36674.241     302.7714     242.2583 
   99300    140.02936   -1106.8967    132851.39   -34077.908    2644.6523   -36722.561    303.19175    248.10571 
   99350    142.05682   -1350.0203    132775.29    -34065.08    2682.9437   -36748.024    303.24484    251.69799 
   99400    138.59866   -1240.3525    132726.36   -34049.256    2617.6314   -36666.887    302.97554    245.57078 
   99450    137.43367   -1218.5073    132709.19   -34086.215     2595.629   -36681.844    303.16272    243.50663 
   99500    139.46247   -1094.8961    132700.28   -34018.501    2633.9457   -36652.447    303.37234    247.10128 
   99550    141.77944   -1207.5989    132667.39    -33937.82    2677.7049   -36615.525    303.01156    251.20652 
   99600    144.05126   -764.11617    132693.43   -33955.519    2720.6115   -36676.131    302.83282    255.23176 
   99650    137.68777   -1138.8556    132708.87     -34024.5    2600.4281   -36624.928    303.10458    243.95686 
   99700    139.29633   -1286.9267    132656.55    -34042.95     2630.808   -36673.757    303.13272    246.80692 
   99750    139.19709   -929.37414    132645.52   -34081.008    2628.9337   -36709.942    303.21285    246.63109 
   99800    139.02767   -943.93789    132710.58   -34092.958     2625.734   -36718.692    303.30912    246.33091 
   99850    138.40788   -1110.2848    132730.38   -34077.675    2614.0284   -36691.704     303.3898    245.23276 
   99900     137.7455   -1210.9625    132741.98   -34090.469    2601.5184   -36691.987    303.56231    244.05914 
   99950    139.06578   -1295.5178    132744.48   -34114.677    2626.4537    -36741.13    303.71202    246.39843 
  100000    141.67585   -1047.3487    132722.67   -34101.534    2675.7485   -36777.283    303.44534    251.02298 
Loop time of 120.915 on 160 procs for 100000 steps with 6337 atoms

Performance: 357.275 ns/day, 0.067 hours/ns, 827.026 timesteps/s
98.0% CPU use with 160 MPI tasks x no OpenMP threads

MPI task timing breakdown:
Section |  min time  |  avg time  |  max time  |%varavg| %total
---------------------------------------------------------------
Pair    | 13.532     | 32.392     | 87.646     | 524.5 | 26.79
Neigh   | 0.36083    | 0.78023    | 2.6116     |  80.1 |  0.65
Comm    | 8.8269     | 33.542     | 92.031     | 557.1 | 27.74
Output  | 0.18938    | 0.19205    | 0.3333     |   2.6 |  0.16
Modify  | 8.4959     | 52.87      | 95.317     | 567.6 | 43.73
Other   |            | 1.139      |            |       |  0.94

Nlocal:    39.6063 ave 110 max 20 min
Histogram: 106 14 0 5 15 0 0 0 1 19
Nghost:    513.538 ave 875 max 337 min
Histogram: 80 0 2 38 0 0 0 0 17 23
Neighs:    0 ave 0 max 0 min
Histogram: 160 0 0 0 0 0 0 0 0 0
FullNghs:  3191.45 ave 13785 max 770 min
Histogram: 120 0 0 2 18 0 0 0 0 20

Total # of neighbors = 510632
Ave neighs/atom = 80.5795
Neighbor list builds = 6138
Dangerous builds = 0

write_data		${DIR}/data.eq-${NAME}-${TEMP}
write_data		run_22/data.eq-${NAME}-${TEMP}
write_data		run_22/data.eq-het_freeze_22-${TEMP}
write_data		run_22/data.eq-het_freeze_22-248
undump          1

reset_timestep  0

unfix           2
unfix           3
unfix           4


################################################
#######         Run Simulation         #########
################################################

log				${DIR}/log.run_${NAME}
log				run_22/log.run_${NAME}
log				run_22/log.run_het_freeze_22
