LAMMPS data file via write_data, version 16 Mar 2018, timestep = 100000

6328 atoms
2 atom types

0.0000000000000000e+00 4.9219999999999999e+01 xlo xhi
0.0000000000000000e+00 4.9019635930410494e+01 ylo yhi
3.6254730224134164e+00 5.6436526977587484e+01 zlo zhi

Masses

1 18.015
2 12.01

Atoms # atomic

4709 1 3.1759412247605674e+00 3.4735067376456743e+00 5.7693927321320828e+00 0 1 0
281 1 9.2461693687671964e+00 8.9910790653449868e-01 5.5764649361187439e+00 0 1 0
1354 1 2.0546594355564070e+00 3.5076037898658776e+00 1.0178909629394106e+01 0 0 1
4998 1 2.2888884956696511e+00 1.7236270818872395e+00 7.7340216905633516e+00 -1 0 0
1631 1 4.2852311250999042e+00 9.1676537535493914e+00 1.1636112255076480e+01 -1 -1 0
6135 1 8.1730663523811966e+00 3.7118324423178675e+00 4.8755158149228857e+00 -1 0 1
3626 1 4.6688679301692684e+00 1.2211595988276573e+01 1.2034280465151074e+01 0 0 0
6019 1 7.1643019086413791e+00 6.4736113594834928e+00 8.0432715166481152e+00 0 2 1
1363 1 3.5061567707998686e+00 1.8050632273246078e-01 5.3515234176563702e+00 1 1 0
499 1 5.5017174922345689e+00 5.2893789159183457e+00 5.8110531481920784e+00 0 0 0
4465 1 1.8983223328589143e+00 5.7846585168553037e+00 7.1026950214221714e+00 1 1 1
439 1 6.3655542965029150e+00 5.0217679242837345e+00 1.1815601202076031e+01 0 0 1
5221 1 1.1307899401953174e+00 1.1409151498418073e+01 5.6906789921525567e+00 2 1 0
350 1 2.8339641764720396e+00 1.4412607241838876e+01 8.0397810370214131e+00 1 1 0
3564 1 2.6632216210009640e+00 7.5873632045770121e+00 5.0591589122185727e+00 1 0 0
3289 1 7.8252989285395840e+00 1.4711727540856808e+01 1.1059660268940821e+01 1 0 1
2047 1 3.5104955749981546e+00 1.0092922794036456e+01 5.5288952099340580e+00 0 1 1
4630 1 7.0208077806577025e+00 9.7819341204367838e+00 6.2061113057701185e+00 1 0 1
4884 1 1.8504221974707535e+00 1.4162132257238003e+01 5.6584642239983118e+00 2 0 0
1404 1 5.8853995654112730e+00 1.8544765542046100e+00 4.7962940989124441e+00 2 0 0
1570 1 9.2694693156606167e+00 7.8436512095490807e+00 5.8810828108750943e+00 0 -1 1
5028 1 5.5865993815627890e+00 1.1076879723121051e+01 4.0624211245178827e+00 0 0 0
1381 1 6.9648912459673289e+00 6.4253475416636519e-01 7.3422553186843844e+00 0 -1 1
3079 1 3.4457508410767494e+00 5.8575163728042767e+00 9.2921753369846627e+00 1 1 0
3591 1 9.1272085921613737e+00 5.2582140874989989e+00 9.2408971351161284e+00 0 0 0
1530 1 7.8477620518028806e+00 2.3175890827053318e+00 9.3697374524699963e+00 0 -1 0
2009 1 4.7829196836603414e+00 1.4607918418873385e+00 1.0224634261388628e+01 0 -1 0
3197 1 8.0265401475101221e+00 1.1877386821366436e+01 7.5084127376895511e+00 1 0 0
320 1 2.6581353242052326e+00 8.4441948795224029e+00 9.7104820885808554e+00 1 1 0
6290 1 9.3994577749834782e+00 1.0967743496482012e+01 9.4497095755700435e+00 1 0 1
459 1 5.7059184334374127e+00 4.3208390872052433e+00 9.2027421065122930e+00 0 0 0
3397 1 8.0938232761829134e+00 9.3459932880548262e+00 1.1469147997655615e+01 0 0 0
6280 1 6.1712423278380735e+00 8.7445935284964893e+00 9.1798936171243248e+00 1 0 1
536 1 6.9394108907416268e+00 9.2486337915567574e-01 1.2291379164553224e+01 0 0 1
3315 1 4.4143612028533781e+00 1.2521830478139147e+01 9.3748373157101472e+00 -1 0 1
367 1 6.5145416908165032e-01 1.0312812057369593e+01 1.0775987476608158e+01 0 -1 0
5236 1 4.0115248043365481e+00 1.0200764251945182e+01 8.0297312892379011e+00 1 -1 0
3619 1 6.6315677586215651e+00 1.4168715476193503e+01 8.6728125810070509e+00 1 0 1
6109 1 3.3570861398927558e+00 1.5510266859865776e+01 3.7903546142397393e+00 0 1 1
2892 1 9.4437322918637641e+00 1.2601385165547532e+01 5.2264515704522800e+00 0 1 1
1310 1 1.2256884096263327e+00 1.2921966077625266e+01 1.0306248085571276e+01 0 0 1
3100 1 1.4694738955551054e-01 4.8882154297857205e+00 1.2088739985844391e+01 1 0 0
135 1 1.4122281254227702e+00 1.6148354268799878e+01 9.8136004633850611e+00 0 0 0
2958 1 8.0508867646391966e+00 1.6124933954113516e+01 7.0510519172268609e+00 1 1 1
3106 1 9.8123767622997580e+00 1.0019701054117600e+00 1.1062026278458525e+01 0 -1 0
6018 1 9.8356531691497118e+00 6.9223911908660192e+00 1.1529814330060058e+01 0 0 1
4865 1 5.2607995739026876e+00 6.5883098639999615e-01 1.4686825402777142e+01 1 0 0
3661 1 2.3981916131038392e-01 7.1791846659927163e+00 1.3790606193098981e+01 1 -1 0
370 1 6.1620178666904151e+00 1.7692620015519762e+00 1.7592302287130799e+01 0 0 0
417 1 1.0077820944757120e-01 1.3023489909332186e+01 1.4984178085661773e+01 1 1 0
4824 1 1.2863908446138099e+00 2.3906799080784875e+00 1.7276889750509639e+01 0 0 0
3466 1 8.0446958328973857e+00 3.4305778413585757e+00 1.3384384559466580e+01 0 0 0
5997 1 4.0943480781754529e+00 4.8387610150144917e+00 1.6624996896256484e+01 1 0 1
5074 1 2.3304097024267629e+00 8.2683799645838612e+00 1.7510705708005290e+01 1 -1 0
6291 1 3.7375728252577756e+00 3.1114115138857468e+00 1.8455213613155472e+01 1 0 1
3044 1 2.5557456486998928e+00 4.6608018667220499e+00 1.4027890497708574e+01 0 0 1
2050 1 2.2580032836411301e+00 2.2807712681860953e-01 1.6074314073871438e+01 0 1 0
3660 1 6.6128740613100767e+00 3.9517070675443211e+00 1.5891433977400569e+01 0 1 1
6152 1 6.7177389902042046e+00 7.7297368255789527e+00 1.5641510714927580e+01 -1 0 0
1650 1 6.3056269907068074e+00 7.6110524729800124e+00 1.2877903496839297e+01 0 0 0
3690 1 9.4075897736639558e+00 1.5844660030489008e+01 2.1209784703506724e+01 1 1 1
4669 1 2.9615151975608418e+00 9.3607242617401243e-01 1.3094706351342047e+01 0 0 1
5035 1 1.8881371560118370e+00 9.6945300495817843e+00 1.3450633053996986e+01 -1 0 0
6288 1 3.5910073960314630e+00 7.2845666039671295e+00 1.4369458414949065e+01 0 1 0
2927 1 5.3526985013820239e-01 3.8221657583206441e+00 1.5305855401461299e+01 0 0 1
1899 1 1.9236580044942717e+00 1.0937953489580698e+01 1.5910507936878146e+01 0 0 0
353 1 7.1414947898607553e+00 1.1534492610828623e+01 1.3166366962736308e+01 2 0 0
5257 1 6.1603626952569606e+00 1.0736241413051593e+01 1.5541146644859019e+01 0 0 1
3429 1 4.1813810515823295e+00 1.4620472806659876e+01 1.3120171609481837e+01 1 1 0
2061 1 1.6369343813247992e+00 1.4372078859787647e+01 1.2634664909681472e+01 0 0 0
5067 1 2.1063237581002014e+00 1.5381498808704457e+01 1.7399419150986422e+01 0 1 0
68 1 4.3475449484432200e+00 1.5138302203192698e+01 1.5757813902904495e+01 1 -1 0
3336 1 3.2080826047722916e-01 1.5789283457141561e+01 2.1123518749749163e+01 0 0 0
1827 1 2.6902982903198875e+00 1.2239650775266785e+01 2.1050028018750844e+01 0 -1 0
1535 1 6.7090553016655052e+00 1.4677432617572684e+01 1.7481732254160477e+01 1 1 0
3058 1 2.7381558780421149e+00 4.4943411606599986e+00 2.0649393853122625e+01 0 1 0
4959 1 2.7869311151529663e+00 1.4901875911176941e+01 2.0087333021229323e+01 0 0 0
1940 1 8.2726797477280432e+00 1.5374096262980853e+01 1.5068669462639095e+01 0 0 0
2991 1 9.1949701017556116e+00 1.2902537603882742e+01 1.4600665374379121e+01 0 0 0
2882 1 8.5405393501440727e+00 1.3399638681066892e+00 1.9025951323604829e+01 0 0 1
6020 1 6.4172843616365638e+00 1.6072252092181600e+01 1.2980997385027957e+01 0 -1 0
3238 1 5.9623584736154136e+00 6.9063163766899773e+00 2.0264763900079355e+01 1 0 0
4804 1 2.0665510755337277e+00 7.1060121368386291e+00 2.0214367691793495e+01 0 1 1
6166 1 4.9346327849934335e+00 7.2991597628322831e+00 1.7549954244518716e+01 0 0 1
345 1 4.6623598526147436e+00 6.1870315542166898e-01 2.0052079031175857e+01 1 1 0
341 1 7.5583918559498322e+00 1.1995851945355534e+01 1.7823641995042180e+01 0 0 0
3266 1 4.1304479891931996e+00 1.2368196799271654e+01 1.6735285840887272e+01 -1 0 1
3107 1 4.5862134058148705e+00 1.0725992593412331e+01 1.9307924427774843e+01 0 0 0
3007 1 6.6579469906328779e+00 1.1672797611902652e+01 2.0707043703416144e+01 0 1 1
3562 1 5.3999507236777777e-01 6.5062304309591417e+00 1.6560642832262950e+01 0 0 0
2801 1 9.0882623369381363e+00 4.7553353339864080e+00 1.7241369359873076e+01 1 0 0
4683 1 1.5206704961248285e+00 1.0364520747802416e+01 1.9095318574814542e+01 0 -1 1
3015 1 9.7594620617001677e+00 7.0555014972480494e+00 1.5700815613473367e+01 0 1 1
3610 1 7.0196792807860868e+00 1.4426067425140037e+01 2.0353403701442449e+01 -1 0 0
526 1 4.0532023222008089e+00 3.2503257956722522e+00 1.2567653216324336e+01 0 0 1
4913 1 5.7519414639526536e+00 1.8767921268391417e+00 2.4425603607930849e+01 0 1 0
1435 1 2.1666647319585550e+00 4.0323783108564966e+00 2.4106090097996631e+01 0 0 1
718 2 6.1524999999999990e+00 1.4919019630994494e+01 2.6879492230202871e+01 0 0 0
2933 1 8.6785118080947665e+00 6.8926410763196895e+00 2.3876856455219592e+01 0 0 1
3629 1 7.4358400563433937e+00 4.5933644576327213e+00 2.4662685707113361e+01 1 0 1
6039 1 7.0482596574163459e-01 2.7804274021655551e+00 2.1431762402502777e+01 0 0 1
5153 1 2.6344763233049817e+00 9.7308298678280121e+00 2.4612587788614700e+01 0 0 0
89 1 4.7561264888512635e+00 5.0589337220185939e+00 2.4474079164137354e+01 0 0 0
241 1 4.9056175973657048e+00 7.9507884430470339e+00 2.3966000360711600e+01 1 -1 0
1950 1 6.4521766654667498e+00 2.3323634246725722e+00 2.1682534546841197e+01 1 0 0
6116 1 9.1747748572816814e+00 1.2926575862160682e+01 2.4678035136077408e+01 -1 1 0
374 1 9.0409168404911817e+00 1.0296615485676046e+01 2.1480881132822216e+01 0 -1 0
3024 1 2.2422179563914595e+00 1.2258110223291371e+01 2.3847929435357955e+01 0 1 0
5293 1 4.5510888753712511e+00 1.3453060940408676e+01 2.4686598429032351e+01 0 0 0
3571 1 7.0441073591467109e+00 9.2954843031883030e+00 2.4567374974034774e+01 1 0 0
1771 1 6.5822745289741800e+00 1.1943681050507712e+01 2.3692031665318265e+01 0 0 1
300 1 9.2036511443483207e+00 2.4225029410390713e+00 2.4237711550553218e+01 0 1 0
724 2 8.6135000000000002e+00 1.3498160618518835e+01 2.6879492230202871e+01 0 0 0
223 1 1.3144323469465824e+00 1.5807085404978467e+00 2.4204643094429127e+01 1 0 1
675 2 4.9220000000000006e+00 1.2787731112280996e+01 2.6879492230202871e+01 0 0 0
720 2 7.3829999999999991e+00 1.5629449137232333e+01 2.6879492230202871e+01 0 0 0
552 2 0.0000000000000000e+00 2.8417180249513345e+00 2.6879492230202871e+01 0 0 0
554 2 0.0000000000000000e+00 0.0000000000000000e+00 2.6879492230202871e+01 0 0 0
556 2 1.2305000000000001e+00 7.1042950623783474e-01 2.6879492230202871e+01 0 0 0
563 2 1.2305000000000001e+00 2.1312885187134998e+00 2.6879492230202871e+01 0 0 0
565 2 2.4610000000000003e+00 2.8417180249513345e+00 2.6879492230202871e+01 0 0 0
567 2 2.4610000000000003e+00 0.0000000000000000e+00 2.6879492230202871e+01 0 0 0
569 2 3.6915000000000004e+00 7.1042950623783474e-01 2.6879492230202871e+01 0 0 0
584 2 3.6914999999999996e+00 2.1312885187134998e+00 2.6879492230202871e+01 0 0 0
586 2 4.9220000000000006e+00 2.8417180249513332e+00 2.6879492230202871e+01 0 0 0
588 2 4.9220000000000006e+00 0.0000000000000000e+00 2.6879492230202871e+01 0 0 0
590 2 6.1524999999999999e+00 7.1042950623783407e-01 2.6879492230202871e+01 0 0 0
613 2 6.1524999999999999e+00 2.1312885187134989e+00 2.6879492230202871e+01 0 0 0
615 2 7.3829999999999991e+00 2.8417180249513345e+00 2.6879492230202871e+01 0 0 0
617 2 7.3829999999999991e+00 0.0000000000000000e+00 2.6879492230202871e+01 0 0 0
619 2 8.6134999999999984e+00 7.1042950623783407e-01 2.6879492230202871e+01 0 0 0
650 2 8.6134999999999984e+00 2.1312885187135002e+00 2.6879492230202871e+01 0 0 0
559 2 0.0000000000000000e+00 4.2625770374269996e+00 2.6879492230202871e+01 0 0 0
561 2 1.2305000000000001e+00 4.9730065436648339e+00 2.6879492230202871e+01 0 0 0
576 2 1.2305000000000001e+00 6.3938655561404980e+00 2.6879492230202871e+01 0 0 0
580 2 2.4610000000000003e+00 4.2625770374269996e+00 2.6879492230202871e+01 0 0 0
582 2 3.6914999999999996e+00 4.9730065436648339e+00 2.6879492230202871e+01 0 0 0
605 2 3.6914999999999996e+00 6.3938655561404980e+00 2.6879492230202871e+01 0 0 0
557 2 0.0000000000000000e+00 7.1042950623783341e+00 2.6879492230202871e+01 0 0 0
578 2 2.4610000000000003e+00 7.1042950623783341e+00 2.6879492230202871e+01 0 0 0
609 2 4.9220000000000006e+00 4.2625770374269978e+00 2.6879492230202871e+01 0 0 0
611 2 6.1524999999999999e+00 4.9730065436648339e+00 2.6879492230202871e+01 0 0 0
642 2 6.1524999999999999e+00 6.3938655561404980e+00 2.6879492230202871e+01 0 0 0
646 2 7.3829999999999991e+00 4.2625770374269996e+00 2.6879492230202871e+01 0 0 0
648 2 8.6135000000000002e+00 4.9730065436648339e+00 2.6879492230202871e+01 0 0 0
687 2 8.6135000000000002e+00 6.3938655561404980e+00 2.6879492230202871e+01 0 0 0
607 2 4.9220000000000006e+00 7.1042950623783341e+00 2.6879492230202871e+01 0 0 0
644 2 7.3830000000000009e+00 7.1042950623783341e+00 2.6879492230202871e+01 0 0 0
572 2 0.0000000000000000e+00 8.5251540748539991e+00 2.6879492230202871e+01 0 0 0
574 2 1.2305000000000001e+00 9.2355835810918343e+00 2.6879492230202871e+01 0 0 0
601 2 2.4610000000000003e+00 8.5251540748539991e+00 2.6879492230202871e+01 0 0 0
603 2 3.6915000000000004e+00 9.2355835810918343e+00 2.6879492230202871e+01 0 0 0
570 2 0.0000000000000000e+00 1.1366872099805333e+01 2.6879492230202871e+01 0 0 0
597 2 1.2305000000000001e+00 1.0656442593567498e+01 2.6879492230202871e+01 0 0 0
599 2 2.4610000000000003e+00 1.1366872099805333e+01 2.6879492230202871e+01 0 0 0
634 2 3.6914999999999996e+00 1.0656442593567499e+01 2.6879492230202871e+01 0 0 0
638 2 4.9220000000000006e+00 8.5251540748539991e+00 2.6879492230202871e+01 0 0 0
640 2 6.1524999999999999e+00 9.2355835810918343e+00 2.6879492230202871e+01 0 0 0
683 2 7.3830000000000009e+00 8.5251540748539991e+00 2.6879492230202871e+01 0 0 0
685 2 8.6134999999999984e+00 9.2355835810918343e+00 2.6879492230202871e+01 0 0 0
636 2 4.9220000000000006e+00 1.1366872099805333e+01 2.6879492230202871e+01 0 0 0
679 2 6.1524999999999999e+00 1.0656442593567499e+01 2.6879492230202871e+01 0 0 0
681 2 7.3829999999999991e+00 1.1366872099805333e+01 2.6879492230202871e+01 0 0 0
726 2 8.6134999999999984e+00 1.0656442593567498e+01 2.6879492230202871e+01 0 0 0
671 2 3.6915000000000004e+00 1.4919019630994494e+01 2.6879492230202871e+01 0 0 0
593 2 0.0000000000000000e+00 1.2787731112280996e+01 2.6879492230202871e+01 0 0 0
628 2 2.4610000000000003e+00 1.5629449137232328e+01 2.6879492230202871e+01 0 0 0
632 2 3.6915000000000004e+00 1.3498160618518829e+01 2.6879492230202871e+01 0 0 0
595 2 1.2305000000000001e+00 1.3498160618518829e+01 2.6879492230202871e+01 0 0 0
630 2 2.4610000000000003e+00 1.2787731112280996e+01 2.6879492230202871e+01 0 0 0
591 2 0.0000000000000000e+00 1.5629449137232333e+01 2.6879492230202871e+01 0 0 0
626 2 1.2305000000000001e+00 1.4919019630994494e+01 2.6879492230202871e+01 0 0 0
722 2 7.3829999999999991e+00 1.2787731112280996e+01 2.6879492230202871e+01 0 0 0
765 2 8.6135000000000002e+00 1.4919019630994494e+01 2.6879492230202871e+01 0 0 0
677 2 6.1524999999999990e+00 1.3498160618518829e+01 2.6879492230202871e+01 0 0 0
673 2 4.9220000000000006e+00 1.5629449137232333e+01 2.6879492230202871e+01 0 0 0
1927 1 6.3071615694795025e-02 5.6860420372192122e+00 2.4270320972847298e+01 0 0 0
4493 1 4.7622749294496929e+00 1.6193595841041766e+01 2.4007671493368065e+01 1 0 1
3157 1 5.1278545514040328e+00 4.8254539625716379e+00 2.1586788549693388e+01 0 0 0
199 1 9.1445304773965166e+00 1.5672544248472821e+01 2.4084691737498407e+01 0 0 0
328 1 4.1246965443758512e+00 8.5888965145430394e+00 2.1286712557865400e+01 0 0 0
6068 1 4.0804886938749535e-01 8.3806732783455189e+00 2.4067557097079593e+01 0 1 1
3056 1 9.4276989348186255e+00 2.7279677167699199e+00 2.1401843916926818e+01 -1 0 1
5220 1 3.4008411974878991e+00 1.0117376185847604e-01 2.4033915870306373e+01 0 0 0
4719 1 8.5046337864216639e+00 7.4556004840188734e+00 2.1294444944864232e+01 1 0 0
553 2 0.0000000000000000e+00 1.4208590124756650e+00 3.0031000000000510e+01 0 0 0
555 2 0.0000000000000000e+00 0.0000000000000000e+00 3.0031000000000510e+01 0 0 0
564 2 1.2305000000000001e+00 2.1312885187134998e+00 3.0031000000000510e+01 0 0 0
566 2 2.4610000000000003e+00 1.4208590124756650e+00 3.0031000000000510e+01 0 0 0
568 2 2.4610000000000003e+00 0.0000000000000000e+00 3.0031000000000510e+01 0 0 0
585 2 3.6914999999999996e+00 2.1312885187134998e+00 3.0031000000000510e+01 0 0 0
562 2 1.2305000000000001e+00 3.5521475311891644e+00 3.0031000000000510e+01 0 0 0
583 2 3.6914999999999996e+00 3.5521475311891644e+00 3.0031000000000510e+01 0 0 0
881 2 0.0000000000000000e+00 2.8417180249513345e+00 3.3182507769797411e+01 0 0 0
882 2 0.0000000000000000e+00 0.0000000000000000e+00 3.3182507769797411e+01 0 0 0
883 2 1.2305000000000001e+00 7.1042950623783474e-01 3.3182507769797411e+01 0 0 0
887 2 1.2305000000000001e+00 2.1312885187134998e+00 3.3182507769797411e+01 0 0 0
888 2 2.4610000000000003e+00 2.8417180249513345e+00 3.3182507769797411e+01 0 0 0
889 2 2.4610000000000003e+00 0.0000000000000000e+00 3.3182507769797411e+01 0 0 0
890 2 3.6915000000000004e+00 7.1042950623783474e-01 3.3182507769797411e+01 0 0 0
898 2 3.6914999999999996e+00 2.1312885187134998e+00 3.3182507769797411e+01 0 0 0
587 2 4.9220000000000006e+00 1.4208590124756650e+00 3.0031000000000510e+01 0 0 0
589 2 4.9220000000000006e+00 0.0000000000000000e+00 3.0031000000000510e+01 0 0 0
614 2 6.1524999999999999e+00 2.1312885187134989e+00 3.0031000000000510e+01 0 0 0
616 2 7.3829999999999991e+00 1.4208590124756659e+00 3.0031000000000510e+01 0 0 0
618 2 7.3829999999999991e+00 0.0000000000000000e+00 3.0031000000000510e+01 0 0 0
651 2 8.6134999999999984e+00 2.1312885187135002e+00 3.0031000000000510e+01 0 0 0
612 2 6.1524999999999999e+00 3.5521475311891644e+00 3.0031000000000510e+01 0 0 0
649 2 8.6134999999999984e+00 3.5521475311891657e+00 3.0031000000000510e+01 0 0 0
899 2 4.9220000000000006e+00 2.8417180249513332e+00 3.3182507769797411e+01 0 0 0
900 2 4.9220000000000006e+00 0.0000000000000000e+00 3.3182507769797411e+01 0 0 0
901 2 6.1524999999999999e+00 7.1042950623783407e-01 3.3182507769797411e+01 0 0 0
913 2 6.1524999999999999e+00 2.1312885187134989e+00 3.3182507769797411e+01 0 0 0
914 2 7.3829999999999991e+00 2.8417180249513345e+00 3.3182507769797411e+01 0 0 0
915 2 7.3829999999999991e+00 0.0000000000000000e+00 3.3182507769797411e+01 0 0 0
916 2 8.6134999999999984e+00 7.1042950623783407e-01 3.3182507769797411e+01 0 0 0
932 2 8.6134999999999984e+00 2.1312885187135002e+00 3.3182507769797411e+01 0 0 0
558 2 0.0000000000000000e+00 5.6834360499026637e+00 3.0031000000000510e+01 0 0 0
560 2 0.0000000000000000e+00 4.2625770374269996e+00 3.0031000000000510e+01 0 0 0
577 2 1.2305000000000001e+00 6.3938655561404980e+00 3.0031000000000510e+01 0 0 0
579 2 2.4610000000000003e+00 5.6834360499026637e+00 3.0031000000000510e+01 0 0 0
581 2 2.4610000000000003e+00 4.2625770374269996e+00 3.0031000000000510e+01 0 0 0
606 2 3.6914999999999996e+00 6.3938655561404980e+00 3.0031000000000510e+01 0 0 0
575 2 1.2305000000000001e+00 7.8147245686161639e+00 3.0031000000000510e+01 0 0 0
604 2 3.6914999999999996e+00 7.8147245686161639e+00 3.0031000000000510e+01 0 0 0
885 2 0.0000000000000000e+00 4.2625770374269996e+00 3.3182507769797411e+01 0 0 0
886 2 1.2305000000000001e+00 4.9730065436648339e+00 3.3182507769797411e+01 0 0 0
894 2 1.2305000000000001e+00 6.3938655561404980e+00 3.3182507769797411e+01 0 0 0
896 2 2.4610000000000003e+00 4.2625770374269996e+00 3.3182507769797411e+01 0 0 0
897 2 3.6914999999999996e+00 4.9730065436648339e+00 3.3182507769797411e+01 0 0 0
909 2 3.6914999999999996e+00 6.3938655561404980e+00 3.3182507769797411e+01 0 0 0
884 2 0.0000000000000000e+00 7.1042950623783341e+00 3.3182507769797411e+01 0 0 0
895 2 2.4610000000000003e+00 7.1042950623783341e+00 3.3182507769797411e+01 0 0 0
608 2 4.9220000000000006e+00 5.6834360499026637e+00 3.0031000000000510e+01 0 0 0
610 2 4.9220000000000006e+00 4.2625770374269978e+00 3.0031000000000510e+01 0 0 0
643 2 6.1524999999999999e+00 6.3938655561404980e+00 3.0031000000000510e+01 0 0 0
645 2 7.3829999999999991e+00 5.6834360499026637e+00 3.0031000000000510e+01 0 0 0
647 2 7.3829999999999991e+00 4.2625770374269996e+00 3.0031000000000510e+01 0 0 0
688 2 8.6135000000000002e+00 6.3938655561404980e+00 3.0031000000000510e+01 0 0 0
641 2 6.1524999999999999e+00 7.8147245686161639e+00 3.0031000000000510e+01 0 0 0
686 2 8.6135000000000002e+00 7.8147245686161639e+00 3.0031000000000510e+01 0 0 0
911 2 4.9220000000000006e+00 4.2625770374269978e+00 3.3182507769797411e+01 0 0 0
912 2 6.1524999999999999e+00 4.9730065436648339e+00 3.3182507769797411e+01 0 0 0
928 2 6.1524999999999999e+00 6.3938655561404980e+00 3.3182507769797411e+01 0 0 0
930 2 7.3829999999999991e+00 4.2625770374269996e+00 3.3182507769797411e+01 0 0 0
931 2 8.6135000000000002e+00 4.9730065436648339e+00 3.3182507769797411e+01 0 0 0
951 2 8.6135000000000002e+00 6.3938655561404980e+00 3.3182507769797411e+01 0 0 0
910 2 4.9220000000000006e+00 7.1042950623783341e+00 3.3182507769797411e+01 0 0 0
929 2 7.3830000000000009e+00 7.1042950623783341e+00 3.3182507769797411e+01 0 0 0
571 2 0.0000000000000000e+00 9.9460130873296642e+00 3.0031000000000510e+01 0 0 0
573 2 0.0000000000000000e+00 8.5251540748539991e+00 3.0031000000000510e+01 0 0 0
600 2 2.4610000000000003e+00 9.9460130873296642e+00 3.0031000000000510e+01 0 0 0
602 2 2.4610000000000003e+00 8.5251540748539991e+00 3.0031000000000510e+01 0 0 0
596 2 1.2305000000000001e+00 1.2077301606043163e+01 3.0031000000000510e+01 0 0 0
598 2 1.2305000000000001e+00 1.0656442593567498e+01 3.0031000000000510e+01 0 0 0
633 2 3.6914999999999996e+00 1.2077301606043163e+01 3.0031000000000510e+01 0 0 0
635 2 3.6914999999999996e+00 1.0656442593567499e+01 3.0031000000000510e+01 0 0 0
892 2 0.0000000000000000e+00 8.5251540748539991e+00 3.3182507769797411e+01 0 0 0
893 2 1.2305000000000001e+00 9.2355835810918343e+00 3.3182507769797411e+01 0 0 0
907 2 2.4610000000000003e+00 8.5251540748539991e+00 3.3182507769797411e+01 0 0 0
908 2 3.6915000000000004e+00 9.2355835810918343e+00 3.3182507769797411e+01 0 0 0
891 2 0.0000000000000000e+00 1.1366872099805333e+01 3.3182507769797411e+01 0 0 0
905 2 1.2305000000000001e+00 1.0656442593567498e+01 3.3182507769797411e+01 0 0 0
906 2 2.4610000000000003e+00 1.1366872099805333e+01 3.3182507769797411e+01 0 0 0
924 2 3.6914999999999996e+00 1.0656442593567499e+01 3.3182507769797411e+01 0 0 0
637 2 4.9220000000000006e+00 9.9460130873296642e+00 3.0031000000000510e+01 0 0 0
639 2 4.9220000000000006e+00 8.5251540748539991e+00 3.0031000000000510e+01 0 0 0
682 2 7.3830000000000009e+00 9.9460130873296642e+00 3.0031000000000510e+01 0 0 0
684 2 7.3830000000000009e+00 8.5251540748539991e+00 3.0031000000000510e+01 0 0 0
678 2 6.1524999999999999e+00 1.2077301606043163e+01 3.0031000000000510e+01 0 0 0
680 2 6.1524999999999999e+00 1.0656442593567499e+01 3.0031000000000510e+01 0 0 0
725 2 8.6135000000000002e+00 1.2077301606043163e+01 3.0031000000000510e+01 0 0 0
727 2 8.6134999999999984e+00 1.0656442593567498e+01 3.0031000000000510e+01 0 0 0
926 2 4.9220000000000006e+00 8.5251540748539991e+00 3.3182507769797411e+01 0 0 0
927 2 6.1524999999999999e+00 9.2355835810918343e+00 3.3182507769797411e+01 0 0 0
949 2 7.3830000000000009e+00 8.5251540748539991e+00 3.3182507769797411e+01 0 0 0
950 2 8.6134999999999984e+00 9.2355835810918343e+00 3.3182507769797411e+01 0 0 0
925 2 4.9220000000000006e+00 1.1366872099805333e+01 3.3182507769797411e+01 0 0 0
947 2 6.1524999999999999e+00 1.0656442593567499e+01 3.3182507769797411e+01 0 0 0
948 2 7.3829999999999991e+00 1.1366872099805333e+01 3.3182507769797411e+01 0 0 0
971 2 8.6134999999999984e+00 1.0656442593567498e+01 3.3182507769797411e+01 0 0 0
594 2 0.0000000000000000e+00 1.2787731112280996e+01 3.0031000000000510e+01 0 0 0
631 2 2.4610000000000003e+00 1.2787731112280996e+01 3.0031000000000510e+01 0 0 0
592 2 0.0000000000000000e+00 1.4208590124756663e+01 3.0031000000000510e+01 0 0 0
627 2 1.2305000000000001e+00 1.4919019630994494e+01 3.0031000000000510e+01 0 0 0
629 2 2.4610000000000003e+00 1.4208590124756663e+01 3.0031000000000510e+01 0 0 0
672 2 3.6915000000000004e+00 1.4919019630994494e+01 3.0031000000000510e+01 0 0 0
903 2 0.0000000000000000e+00 1.2787731112280996e+01 3.3182507769797411e+01 0 0 0
904 2 1.2305000000000001e+00 1.3498160618518829e+01 3.3182507769797411e+01 0 0 0
922 2 2.4610000000000003e+00 1.2787731112280996e+01 3.3182507769797411e+01 0 0 0
923 2 3.6915000000000004e+00 1.3498160618518829e+01 3.3182507769797411e+01 0 0 0
902 2 0.0000000000000000e+00 1.5629449137232333e+01 3.3182507769797411e+01 0 0 0
920 2 1.2305000000000001e+00 1.4919019630994494e+01 3.3182507769797411e+01 0 0 0
921 2 2.4610000000000003e+00 1.5629449137232328e+01 3.3182507769797411e+01 0 0 0
943 2 3.6915000000000004e+00 1.4919019630994494e+01 3.3182507769797411e+01 0 0 0
676 2 4.9220000000000006e+00 1.2787731112280996e+01 3.0031000000000510e+01 0 0 0
723 2 7.3829999999999991e+00 1.2787731112280996e+01 3.0031000000000510e+01 0 0 0
674 2 4.9220000000000006e+00 1.4208590124756663e+01 3.0031000000000510e+01 0 0 0
719 2 6.1524999999999990e+00 1.4919019630994494e+01 3.0031000000000510e+01 0 0 0
721 2 7.3830000000000009e+00 1.4208590124756663e+01 3.0031000000000510e+01 0 0 0
766 2 8.6135000000000002e+00 1.4919019630994494e+01 3.0031000000000510e+01 0 0 0
945 2 4.9220000000000006e+00 1.2787731112280996e+01 3.3182507769797411e+01 0 0 0
946 2 6.1524999999999990e+00 1.3498160618518829e+01 3.3182507769797411e+01 0 0 0
969 2 7.3829999999999991e+00 1.2787731112280996e+01 3.3182507769797411e+01 0 0 0
970 2 8.6135000000000002e+00 1.3498160618518835e+01 3.3182507769797411e+01 0 0 0
944 2 4.9220000000000006e+00 1.5629449137232333e+01 3.3182507769797411e+01 0 0 0
967 2 6.1524999999999990e+00 1.4919019630994494e+01 3.3182507769797411e+01 0 0 0
968 2 7.3829999999999991e+00 1.5629449137232333e+01 3.3182507769797411e+01 0 0 0
991 2 8.6135000000000002e+00 1.4919019630994494e+01 3.3182507769797411e+01 0 0 0
3217 1 9.5249063210447082e-01 2.3477161967666800e+00 3.5831778893975049e+01 1 1 0
1585 1 4.0591879684761878e+00 1.2390276216506297e+00 3.6184476211478838e+01 2 -1 0
3663 1 8.8485254276363667e-01 1.1751986948203928e+01 3.6264095922668957e+01 1 1 -1
5168 1 8.7042875564069284e+00 1.2460340561351844e+01 3.5934016592091311e+01 1 1 0
3009 1 7.1632338996359985e+00 3.2846735731299215e+00 3.6126395365745886e+01 0 2 0
2848 1 9.4787067050587375e+00 9.9439923379392798e+00 3.6557048401037868e+01 0 1 0
3635 1 2.0918407579999760e+00 1.5102349222977688e+01 3.6477563419413023e+01 1 1 0
1595 1 7.4499504366347882e+00 3.2187377920732330e-01 3.5834570366777292e+01 1 -1 -1
4486 1 2.1402324323890021e+00 6.0393395367440297e+00 3.6116942514064583e+01 0 0 0
123 1 1.9562357985067422e+00 9.1417636919902439e+00 3.5968268400739667e+01 1 1 0
3036 1 9.3774764911067852e+00 5.0709881408167661e+00 3.5262198742351600e+01 0 2 0
2105 1 5.3745142258959584e+00 7.2408197102140299e+00 3.5876631666147951e+01 1 1 -1
92 1 4.1064334049237763e+00 4.1711065245365520e+00 3.6477349738571995e+01 -1 0 -1
4481 1 8.0114015908970799e+00 7.5200458335916176e+00 3.6452971744808160e+01 1 1 0
6075 1 8.1488754748536554e+00 6.6439286876292003e-01 3.8490219985032851e+01 0 0 0
6225 1 5.1455934567388502e+00 8.4450758673482218e-01 3.8700999564908287e+01 0 0 -1
2151 1 3.5144916356967775e+00 1.2715060635999059e+01 3.5551680366489350e+01 1 2 -1
6043 1 4.8295007658230356e+00 1.0329729194614073e+01 3.8743140126176073e+01 1 1 0
6099 1 6.1338923336531144e+00 1.2737989186056797e+01 3.8783272096729185e+01 -1 0 0
1302 1 6.0238002686398175e+00 1.3688486578095704e+01 3.6291193945132932e+01 0 0 0
3716 1 4.4998905542777452e+00 9.8618671870292527e+00 3.5887109698769606e+01 1 2 0
5142 1 5.2166815875229657e+00 6.7044822644092017e+00 3.8641580079060184e+01 2 2 0
6174 1 8.5619520820309400e+00 3.6169495199256421e+00 3.8595447288635199e+01 0 1 -1
4585 1 2.7826458690332490e+00 8.1616400135883964e+00 3.8608026275298414e+01 1 1 0
1975 1 3.6528064906545388e+00 1.2809560250923251e+00 4.1305249617938401e+01 0 0 0
4553 1 9.4506695252666901e+00 7.4946705185075491e-01 4.6987829545115261e+01 0 0 -1
3362 1 2.2833846569121214e+00 1.0410899513717528e+01 4.6112209473655327e+01 0 1 -1
349 1 7.0814309263391904e+00 3.5982269082322751e+00 4.0973458030673932e+01 0 1 -1
1883 1 8.8815146024050513e+00 1.2382990889290365e+01 4.5760383735514310e+01 0 1 -1
267 1 3.0659790698075109e+00 4.8059498634008451e+00 4.3022119161881683e+01 0 1 0
5176 1 5.6467761961737590e+00 5.9559710701390483e+00 4.2240945998756523e+01 0 0 -1
492 1 9.4012725645097479e+00 1.0299621387892607e+01 3.9442843356422259e+01 1 0 -1
5119 1 9.2520590567352023e+00 5.1571684063788394e+00 4.2149344631441572e+01 0 1 -1
1356 1 7.3629647933562019e+00 7.6920952927109338e+00 4.4014609648779341e+01 0 1 0
4732 1 2.0924787657787451e+00 1.4703013956566469e+01 3.9343069435351467e+01 1 0 0
516 1 2.5266027567481615e+00 7.3960170393147866e+00 4.1629385695139497e+01 1 2 0
2107 1 4.5634053745906362e+00 4.1269099289246354e+00 3.9080550632939349e+01 0 0 0
364 1 5.8117170006976915e+00 8.3657894555445527e+00 4.0804096057941464e+01 1 0 0
465 1 4.0767796050621739e+00 9.1697871709808201e+00 4.3017059049342016e+01 0 0 -1
5092 1 8.3175011198851010e+00 1.6066596390600913e+00 4.2939363182035798e+01 1 1 -2
3236 1 4.7283444260167444e+00 1.4612308192348497e+01 3.9931583446323877e+01 1 0 -1
166 1 4.2887172300960441e-01 1.1392299521023920e+01 4.2966976925951514e+01 2 0 -1
1546 1 6.5799707528274558e+00 8.6554327924022650e-02 4.4523684427367378e+01 0 0 0
4974 1 8.9158072771707282e+00 1.5717780606380499e+01 4.6167808260870281e+01 0 1 -1
2006 1 4.1721014142999397e+00 1.2344658082900064e+01 4.6654340642930748e+01 0 0 -1
5166 1 8.2802790530105863e+00 1.3526531756701706e+01 4.2223733178936712e+01 -1 1 0
5204 1 5.0357014488606628e+00 1.3770149463776967e+01 4.2510345380643535e+01 1 0 -1
3306 1 4.1152416400736715e+00 1.5402463118691734e+00 4.4627367769959989e+01 0 0 -1
6211 1 1.6323945589684008e+00 5.4221156667398072e+00 4.5570506963673807e+01 1 1 -1
3654 1 1.0748714111662316e-01 1.5355794257741922e+01 4.1325367828925792e+01 -1 1 0
4512 1 2.0343021765777398e+00 2.5669774145083872e+00 4.5970149708647043e+01 0 0 0
1296 1 5.3164678239703171e+00 4.2541237354596317e+00 4.5254688468889320e+01 0 1 0
6040 1 2.4453660876344143e+00 3.7632621943709994e+00 4.0421336551256644e+01 0 1 -1
1371 1 4.0508637599975836e+00 6.4791133689141942e+00 4.6540693011968507e+01 -1 1 0
6042 1 4.8186708346978415e+00 8.7521970172260879e+00 4.5788884363940959e+01 0 1 0