LAMMPS data file via write_data, version 16 Mar 2018, timestep = 8000000

6328 atoms
2 atom types

0.0000000000000000e+00 4.9219999999999999e+01 xlo xhi
0.0000000000000000e+00 4.9019635930410494e+01 ylo yhi
2.0470564288188591e+00 5.8014943571181334e+01 zlo zhi

Masses

1 18.015
2 12.01

Atoms # atomic

3031 1 4.0102715567945912e+00 2.2152403150704960e+00 5.9238909946991534e+00 -2 -1 1
4609 1 1.8773444871182887e+00 6.8081725560665984e-01 5.0066759769865339e+00 -1 -2 0
4632 1 1.8602945321556734e+00 8.0996787965662809e-01 2.2431628578705443e+00 -2 2 1
3051 1 8.3045155336320331e+00 2.4602456182385151e+00 5.5728267403410445e+00 2 0 1
3034 1 6.1166793787171310e+00 9.3737690122497830e-01 5.1080977434906121e+00 -3 0 1
5034 1 6.2222652485793732e+00 6.4866382889081997e-01 2.3206471792149905e+00 -1 0 0
5168 1 4.1167756257704724e+00 4.6712756563774738e+00 4.8660070775015640e+00 1 -1 1
1683 1 1.8812966673897942e+00 6.0172840221371295e+00 6.1902668606595777e+00 -4 -1 0
6310 1 4.1595458090555582e+00 5.0081973621993097e+00 2.0971976985990106e+00 1 3 0
3367 1 8.4174228691047457e+00 4.9830522401686714e+00 4.6930876007076971e+00 5 2 0
3335 1 6.3005216909509389e+00 5.9510618839562168e+00 6.0067318116118962e+00 1 0 0
6269 1 8.6797802357165175e+00 4.8891742613813474e+00 2.0996099972484643e+00 2 -2 1
1552 1 2.0991151719644492e+00 8.5494275374515070e+00 5.3771143409883351e+00 3 -3 1
2075 1 4.5156144732514072e+00 1.0015445863000961e+01 6.0796704233039556e+00 -3 0 1
387 1 2.0981063208387836e+00 8.5772860659129986e+00 2.4748073364187380e+00 2 -2 0
3358 1 6.4274130983538971e+00 8.8581635501486122e+00 2.4800663960490992e+00 -2 0 0
1637 1 6.6920086850933860e+00 8.6324210556399681e+00 5.1892296617342044e+00 -3 -3 0
3340 1 9.0135327794914115e+00 9.6267448586895110e+00 6.1302399104556091e+00 -3 0 1
4798 1 3.9822340752769807e+00 1.2641526662040622e+01 2.5979465951833909e+00 1 0 0
6224 1 4.5726751762852293e+00 1.2476674477946066e+01 5.0182078490508202e+00 -2 -1 0
3145 1 2.1974235873276111e+00 1.3155023750573656e+01 6.5216173138426576e+00 1 -2 1
3056 1 1.8383455351242186e+00 1.6058624330638256e+01 5.8514528172107179e+00 1 0 1
3352 1 9.1181004080520545e+00 1.2416772519691616e+01 5.0487366499171964e+00 0 3 0
1566 1 6.9492140789697148e+00 1.3795350736903252e+01 5.8168289842362864e+00 -1 -2 1
3208 1 8.7451413504162900e+00 1.2799745948866171e+01 2.4536715945084384e+00 2 -1 1
1397 1 1.7114886611315623e+00 3.4293094739067875e+00 9.8122199387826043e+00 4 3 0
5103 1 4.0000202466030288e+00 2.2776295322514382e+00 8.8013143686362252e+00 1 -3 0
4613 1 6.3508473437864623e+00 3.3022054364211879e+00 9.8320921569154578e+00 1 -3 1
1248 1 8.3789114180105386e+00 2.0214201262749611e+00 8.3477191991008119e+00 2 2 1
1482 1 4.3604508315166388e+00 7.1869178184284523e+00 9.8344027930264630e+00 1 3 0
461 1 1.9904696707853349e+00 5.9124632763643232e+00 8.8569518031972585e+00 4 -4 1
5096 1 6.5117186839176497e+00 5.8226674492587254e+00 8.7514416576796243e+00 1 -1 0
3032 1 8.7559429991840272e+00 7.3411896494848685e+00 9.7178231101745283e+00 2 4 1
4829 1 1.9538308560287112e+00 1.0877859418903761e+01 1.0178527532462452e+01 1 -2 1
4846 1 4.3771237235090066e+00 9.8215986738966592e+00 8.8304038768032704e+00 0 -1 1
1731 1 6.6914612898936801e+00 1.1091194783227184e+01 9.8317352512062790e+00 2 0 0
1540 1 8.8468798861823092e+00 1.0004561994844646e+01 8.7860491625033976e+00 -1 3 1
430 1 2.0453235735975541e+00 1.3298038477154407e+01 9.0597769637542402e+00 2 1 0
5313 1 4.3854009677862456e+00 1.4720720808231269e+01 9.7708384893815623e+00 2 2 0
2100 1 8.8073797131212181e+00 1.4661830701649244e+01 9.6397676370550869e+00 3 -3 0
4776 1 6.7223302720705735e+00 1.3353574946262025e+01 8.5046262951089062e+00 2 6 1
4871 1 1.5966593091587888e+00 3.4151464104025768e+00 1.2482322652200525e+01 0 0 1
1736 1 1.9746454893694982e+00 8.1875192855181556e-01 1.3142170543577983e+01 0 0 1
3291 1 1.6686033319853222e+00 7.4289004187993712e-01 1.5899209157694196e+01 1 0 1
2004 1 6.3168080882839774e+00 3.5259984169394225e+00 1.2451117700266369e+01 3 2 1
1391 1 6.1584137610694372e+00 8.6629169135008366e-01 1.3219387155567150e+01 3 -2 1
501 1 6.4503720201814989e+00 9.5111518490999059e-01 1.5876509986478368e+01 2 1 1
4895 1 4.0227816862732562e+00 4.3006158364280136e+00 1.3888646854030176e+01 1 5 0
5078 1 4.1081400821586920e+00 6.7155368337924175e+00 1.2376795444362207e+01 0 1 1
1279 1 1.6411109688757539e+00 7.8072333705305565e+00 1.3437922628669186e+01 3 2 1
16 1 8.6295979728482362e+00 4.7925831780784041e+00 1.3360112347493137e+01 1 -1 0
1617 1 8.5404664065291502e+00 7.4052291119908427e+00 1.2415199773856379e+01 -2 1 0
5289 1 6.0788083576857606e+00 7.8798320254150358e+00 1.3852597478890750e+01 -1 -1 0
1427 1 1.9636302014631839e+00 1.0612115151484875e+01 1.3118333493252806e+01 1 2 1
3106 1 4.3636020773619686e+00 1.1794666226407914e+01 1.3764950331804613e+01 2 -6 0
3515 1 6.4090360224932974e+00 1.0674501504606170e+01 1.2788699198534168e+01 -2 0 1
4881 1 4.2178359729942443e+00 1.4557697516105639e+01 1.2549284008232815e+01 2 -1 0
164 1 2.2551701091247742e+00 1.5827573609513609e+01 1.3495820603792241e+01 -2 -1 1
4980 1 9.3352321878822184e-02 1.4245038864025652e+01 1.2859374504927466e+01 -1 -2 0
313 1 8.6259272795765618e+00 1.2311877371521801e+01 1.3464064332506448e+01 -1 0 0
1969 1 6.7176279843884492e+00 1.6042224053737371e+01 1.3261302344790312e+01 4 2 0
322 1 8.8256402633132858e+00 1.4988100223856014e+01 1.2556818035422417e+01 1 1 1
1805 1 6.8494651958785262e+00 1.5869573740139746e+01 1.5983370561741578e+01 -4 2 0
4833 1 3.8905904765861008e+00 1.6550108151831922e+00 1.7219555473523364e+01 0 0 0
6323 1 3.9268051891921920e+00 2.0521135912541921e+00 1.9778933504399127e+01 0 2 1
2145 1 8.7570482294685910e+00 2.3179124457615923e+00 1.7385420458615222e+01 -3 2 1
1849 1 9.0757070326898628e+00 2.5630795239505311e+00 2.0141511572956471e+01 0 1 1
1745 1 4.3311706707774391e+00 4.2824108794814570e+00 1.6741000571239894e+01 1 0 0
1380 1 2.0284994190735754e+00 5.7003741500806395e+00 1.7457017456607282e+01 0 2 0
3589 1 1.8096575109301654e+00 5.6479350799734069e+00 2.0268392864044262e+01 5 -1 0
4792 1 8.9036772847078254e+00 4.7810972872674435e+00 1.6046366715713781e+01 1 -1 0
2934 1 6.1417635097509464e+00 5.6967345104425817e+00 2.0126557656316006e+01 0 -2 1
6235 1 6.6974046742004498e+00 5.7293223500099728e+00 1.7380972361342423e+01 -1 4 0
1930 1 6.2503374680909420e+00 8.1159114532371230e+00 1.6724622893460040e+01 -2 -1 1
6063 1 1.7697712817573110e+00 8.2178610475853251e+00 1.6214303623509920e+01 -4 3 1
4503 1 4.6714946144870257e+00 1.1910941194640868e+01 1.6672205359069697e+01 3 -1 1
2144 1 3.9268125020013809e+00 9.2414014379961049e+00 1.7521133627725625e+01 -2 2 0
1474 1 4.1188157261026994e+00 9.2840315485140597e+00 2.0272086986665865e+01 -2 -1 0
4543 1 2.6362214687952357e-01 1.1989665017655589e+01 1.6761509265209227e+01 1 -3 1
1927 1 8.6593875163010310e+00 9.4567585373480618e+00 1.7085371484872738e+01 -1 2 0
5191 1 8.7062119668938092e+00 9.2939158372673081e+00 1.9862001626822238e+01 -1 2 0
219 1 9.3002399086542589e+00 1.2133948099032283e+01 1.6043590648249683e+01 0 0 1
2953 1 1.9964533161170632e+00 1.3247330968609663e+01 1.9992344671829745e+01 4 1 1
1738 1 2.5082560619234311e+00 1.5826519067916673e+01 1.6174814201720231e+01 -1 -2 0
1473 1 2.5368890656868248e+00 1.3382569621172609e+01 1.7248965906570259e+01 -2 2 1
1671 1 6.9878695055745101e+00 1.3324062947414999e+01 1.7165434733436037e+01 -3 -1 1
6053 1 6.9092027455144320e+00 1.3308724721896480e+01 1.9910460275434467e+01 2 -1 1
1695 1 1.8290244186897138e+00 2.1407797914476516e+00 2.3944277134751683e+01 0 4 0
1914 1 1.8342789250360718e+00 3.1770184110367574e+00 2.1050322373584091e+01 0 -5 1
5080 1 3.8490767085520718e+00 5.1288042885854690e-01 2.3477020018401841e+01 -2 4 0
306 1 6.2709341510550196e+00 2.1278606060669460e+00 2.3669562924224604e+01 -1 3 0
1808 1 6.2182146870050570e+00 2.9181039597145859e+00 2.0912167425676675e+01 -2 -4 0
3246 1 8.4820552534161635e+00 6.5158298164015305e-01 2.4190803041605516e+01 -7 -5 1
4787 1 8.7399980546847829e+00 2.2166712266084687e-02 2.1235563625544525e+01 1 2 1
1425 1 1.8998707069675942e+00 4.8185238477205035e+00 2.4471039945970741e+01 2 -2 0
6259 1 4.1218372159480028e+00 6.4020994952139088e+00 2.3974820032156458e+01 -1 2 0
5072 1 4.0474687740225157e+00 6.7170584433197886e+00 2.1079831737571279e+01 0 1 1
1828 1 6.3253786386079014e+00 4.8391576443949491e+00 2.4196413930350740e+01 -2 -3 0
4884 1 8.8745464731340569e+00 6.0674427428217195e+00 2.3664861323209724e+01 3 2 0
449 1 8.7399276424780190e+00 6.7253326327963130e+00 2.1019856580966561e+01 0 2 1
3620 1 1.8589155967867415e+00 1.0684601805368217e+01 2.1123923800371781e+01 2 -2 1
1322 1 4.2771674732226694e+00 9.1381114438129956e+00 2.4386669091838318e+01 0 3 1
1596 1 1.9926954233371850e+00 1.0492639536227786e+01 2.3656389932794802e+01 3 -4 1
3290 1 8.7819104569095874e+00 8.6374586016426722e+00 2.4406128458578848e+01 -4 1 0
4764 1 6.5420445152392981e+00 1.0231089763210827e+01 2.3476467019363341e+01 -4 3 1
2927 1 6.4903037232752645e+00 1.0749652154928295e+01 2.0802768633624513e+01 3 3 1
4920 1 2.1764647689674810e+00 1.3001855147071328e+01 2.4373742250997410e+01 2 -1 0
1517 1 4.5953446603591681e+00 1.4266092930287204e+01 2.3613653256046739e+01 2 2 1
3605 1 4.4480364740207330e+00 1.4324377555143723e+01 2.0868214456833652e+01 -1 0 1
5990 1 1.3896496553604495e-02 1.4676373563921782e+01 2.1064085031750835e+01 -3 -3 2
172 1 8.8712725597331232e+00 1.4533049188500817e+01 2.3976020234359524e+01 0 -1 0
4404 1 6.6678738724650310e+00 1.2809875462343056e+01 2.4372073043746937e+01 5 0 1
3426 1 9.0258296023128768e+00 1.4551651936404271e+01 2.1068892226179134e+01 -1 0 0
552 2 0.0000000000000000e+00 2.8417180249513345e+00 2.6691107724071635e+01 0 0 0
554 2 0.0000000000000000e+00 0.0000000000000000e+00 2.6691107724071635e+01 0 0 0
556 2 1.2305000000000001e+00 7.1042950623783474e-01 2.6691107724071635e+01 0 0 0
563 2 1.2305000000000001e+00 2.1312885187134998e+00 2.6691107724071635e+01 0 0 0
565 2 2.4610000000000003e+00 2.8417180249513345e+00 2.6691107724071635e+01 0 0 0
567 2 2.4610000000000003e+00 0.0000000000000000e+00 2.6691107724071635e+01 0 0 0
569 2 3.6915000000000004e+00 7.1042950623783474e-01 2.6691107724071635e+01 0 0 0
584 2 3.6914999999999996e+00 2.1312885187134998e+00 2.6691107724071635e+01 0 0 0
586 2 4.9220000000000006e+00 2.8417180249513332e+00 2.6691107724071635e+01 0 0 0
588 2 4.9220000000000006e+00 0.0000000000000000e+00 2.6691107724071635e+01 0 0 0
590 2 6.1524999999999999e+00 7.1042950623783407e-01 2.6691107724071635e+01 0 0 0
613 2 6.1524999999999999e+00 2.1312885187134989e+00 2.6691107724071635e+01 0 0 0
615 2 7.3829999999999991e+00 2.8417180249513345e+00 2.6691107724071635e+01 0 0 0
617 2 7.3829999999999991e+00 0.0000000000000000e+00 2.6691107724071635e+01 0 0 0
619 2 8.6134999999999984e+00 7.1042950623783407e-01 2.6691107724071635e+01 0 0 0
650 2 8.6134999999999984e+00 2.1312885187135002e+00 2.6691107724071635e+01 0 0 0
559 2 0.0000000000000000e+00 4.2625770374269996e+00 2.6691107724071635e+01 0 0 0
561 2 1.2305000000000001e+00 4.9730065436648339e+00 2.6691107724071635e+01 0 0 0
576 2 1.2305000000000001e+00 6.3938655561404980e+00 2.6691107724071635e+01 0 0 0
580 2 2.4610000000000003e+00 4.2625770374269996e+00 2.6691107724071635e+01 0 0 0
582 2 3.6914999999999996e+00 4.9730065436648339e+00 2.6691107724071635e+01 0 0 0
605 2 3.6914999999999996e+00 6.3938655561404980e+00 2.6691107724071635e+01 0 0 0
557 2 0.0000000000000000e+00 7.1042950623783341e+00 2.6691107724071635e+01 0 0 0
578 2 2.4610000000000003e+00 7.1042950623783341e+00 2.6691107724071635e+01 0 0 0
609 2 4.9220000000000006e+00 4.2625770374269978e+00 2.6691107724071635e+01 0 0 0
611 2 6.1524999999999999e+00 4.9730065436648339e+00 2.6691107724071635e+01 0 0 0
642 2 6.1524999999999999e+00 6.3938655561404980e+00 2.6691107724071635e+01 0 0 0
646 2 7.3829999999999991e+00 4.2625770374269996e+00 2.6691107724071635e+01 0 0 0
648 2 8.6135000000000002e+00 4.9730065436648339e+00 2.6691107724071635e+01 0 0 0
687 2 8.6135000000000002e+00 6.3938655561404980e+00 2.6691107724071635e+01 0 0 0
607 2 4.9220000000000006e+00 7.1042950623783341e+00 2.6691107724071635e+01 0 0 0
644 2 7.3830000000000009e+00 7.1042950623783341e+00 2.6691107724071635e+01 0 0 0
572 2 0.0000000000000000e+00 8.5251540748539991e+00 2.6691107724071635e+01 0 0 0
574 2 1.2305000000000001e+00 9.2355835810918343e+00 2.6691107724071635e+01 0 0 0
601 2 2.4610000000000003e+00 8.5251540748539991e+00 2.6691107724071635e+01 0 0 0
603 2 3.6915000000000004e+00 9.2355835810918343e+00 2.6691107724071635e+01 0 0 0
570 2 0.0000000000000000e+00 1.1366872099805333e+01 2.6691107724071635e+01 0 0 0
597 2 1.2305000000000001e+00 1.0656442593567498e+01 2.6691107724071635e+01 0 0 0
599 2 2.4610000000000003e+00 1.1366872099805333e+01 2.6691107724071635e+01 0 0 0
634 2 3.6914999999999996e+00 1.0656442593567499e+01 2.6691107724071635e+01 0 0 0
638 2 4.9220000000000006e+00 8.5251540748539991e+00 2.6691107724071635e+01 0 0 0
640 2 6.1524999999999999e+00 9.2355835810918343e+00 2.6691107724071635e+01 0 0 0
683 2 7.3830000000000009e+00 8.5251540748539991e+00 2.6691107724071635e+01 0 0 0
685 2 8.6134999999999984e+00 9.2355835810918343e+00 2.6691107724071635e+01 0 0 0
636 2 4.9220000000000006e+00 1.1366872099805333e+01 2.6691107724071635e+01 0 0 0
679 2 6.1524999999999999e+00 1.0656442593567499e+01 2.6691107724071635e+01 0 0 0
681 2 7.3829999999999991e+00 1.1366872099805333e+01 2.6691107724071635e+01 0 0 0
726 2 8.6134999999999984e+00 1.0656442593567498e+01 2.6691107724071635e+01 0 0 0
632 2 3.6915000000000004e+00 1.3498160618518829e+01 2.6691107724071635e+01 0 0 0
630 2 2.4610000000000003e+00 1.2787731112280996e+01 2.6691107724071635e+01 0 0 0
626 2 1.2305000000000001e+00 1.4919019630994494e+01 2.6691107724071635e+01 0 0 0
593 2 0.0000000000000000e+00 1.2787731112280996e+01 2.6691107724071635e+01 0 0 0
671 2 3.6915000000000004e+00 1.4919019630994494e+01 2.6691107724071635e+01 0 0 0
595 2 1.2305000000000001e+00 1.3498160618518829e+01 2.6691107724071635e+01 0 0 0
628 2 2.4610000000000003e+00 1.5629449137232328e+01 2.6691107724071635e+01 0 0 0
591 2 0.0000000000000000e+00 1.5629449137232333e+01 2.6691107724071635e+01 0 0 0
677 2 6.1524999999999990e+00 1.3498160618518829e+01 2.6691107724071635e+01 0 0 0
718 2 6.1524999999999990e+00 1.4919019630994494e+01 2.6691107724071635e+01 0 0 0
765 2 8.6135000000000002e+00 1.4919019630994494e+01 2.6691107724071635e+01 0 0 0
675 2 4.9220000000000006e+00 1.2787731112280996e+01 2.6691107724071635e+01 0 0 0
720 2 7.3829999999999991e+00 1.5629449137232333e+01 2.6691107724071635e+01 0 0 0
724 2 8.6135000000000002e+00 1.3498160618518835e+01 2.6691107724071635e+01 0 0 0
722 2 7.3829999999999991e+00 1.2787731112280996e+01 2.6691107724071635e+01 0 0 0
673 2 4.9220000000000006e+00 1.5629449137232333e+01 2.6691107724071635e+01 0 0 0
553 2 0.0000000000000000e+00 1.4208590124756650e+00 3.0031000000000176e+01 0 0 0
555 2 0.0000000000000000e+00 0.0000000000000000e+00 3.0031000000000176e+01 0 0 0
564 2 1.2305000000000001e+00 2.1312885187134998e+00 3.0031000000000176e+01 0 0 0
566 2 2.4610000000000003e+00 1.4208590124756650e+00 3.0031000000000176e+01 0 0 0
568 2 2.4610000000000003e+00 0.0000000000000000e+00 3.0031000000000176e+01 0 0 0
585 2 3.6914999999999996e+00 2.1312885187134998e+00 3.0031000000000176e+01 0 0 0
562 2 1.2305000000000001e+00 3.5521475311891644e+00 3.0031000000000176e+01 0 0 0
583 2 3.6914999999999996e+00 3.5521475311891644e+00 3.0031000000000176e+01 0 0 0
881 2 0.0000000000000000e+00 2.8417180249513345e+00 3.3370892275921868e+01 0 0 0
882 2 0.0000000000000000e+00 0.0000000000000000e+00 3.3370892275921868e+01 0 0 0
883 2 1.2305000000000001e+00 7.1042950623783474e-01 3.3370892275921868e+01 0 0 0
887 2 1.2305000000000001e+00 2.1312885187134998e+00 3.3370892275921868e+01 0 0 0
888 2 2.4610000000000003e+00 2.8417180249513345e+00 3.3370892275921868e+01 0 0 0
889 2 2.4610000000000003e+00 0.0000000000000000e+00 3.3370892275921868e+01 0 0 0
890 2 3.6915000000000004e+00 7.1042950623783474e-01 3.3370892275921868e+01 0 0 0
898 2 3.6914999999999996e+00 2.1312885187134998e+00 3.3370892275921868e+01 0 0 0
587 2 4.9220000000000006e+00 1.4208590124756650e+00 3.0031000000000176e+01 0 0 0
589 2 4.9220000000000006e+00 0.0000000000000000e+00 3.0031000000000176e+01 0 0 0
614 2 6.1524999999999999e+00 2.1312885187134989e+00 3.0031000000000176e+01 0 0 0
616 2 7.3829999999999991e+00 1.4208590124756659e+00 3.0031000000000176e+01 0 0 0
618 2 7.3829999999999991e+00 0.0000000000000000e+00 3.0031000000000176e+01 0 0 0
651 2 8.6134999999999984e+00 2.1312885187135002e+00 3.0031000000000176e+01 0 0 0
612 2 6.1524999999999999e+00 3.5521475311891644e+00 3.0031000000000176e+01 0 0 0
649 2 8.6134999999999984e+00 3.5521475311891657e+00 3.0031000000000176e+01 0 0 0
899 2 4.9220000000000006e+00 2.8417180249513332e+00 3.3370892275921868e+01 0 0 0
900 2 4.9220000000000006e+00 0.0000000000000000e+00 3.3370892275921868e+01 0 0 0
901 2 6.1524999999999999e+00 7.1042950623783407e-01 3.3370892275921868e+01 0 0 0
913 2 6.1524999999999999e+00 2.1312885187134989e+00 3.3370892275921868e+01 0 0 0
914 2 7.3829999999999991e+00 2.8417180249513345e+00 3.3370892275921868e+01 0 0 0
915 2 7.3829999999999991e+00 0.0000000000000000e+00 3.3370892275921868e+01 0 0 0
916 2 8.6134999999999984e+00 7.1042950623783407e-01 3.3370892275921868e+01 0 0 0
932 2 8.6134999999999984e+00 2.1312885187135002e+00 3.3370892275921868e+01 0 0 0
558 2 0.0000000000000000e+00 5.6834360499026637e+00 3.0031000000000176e+01 0 0 0
560 2 0.0000000000000000e+00 4.2625770374269996e+00 3.0031000000000176e+01 0 0 0
577 2 1.2305000000000001e+00 6.3938655561404980e+00 3.0031000000000176e+01 0 0 0
579 2 2.4610000000000003e+00 5.6834360499026637e+00 3.0031000000000176e+01 0 0 0
581 2 2.4610000000000003e+00 4.2625770374269996e+00 3.0031000000000176e+01 0 0 0
606 2 3.6914999999999996e+00 6.3938655561404980e+00 3.0031000000000176e+01 0 0 0
575 2 1.2305000000000001e+00 7.8147245686161639e+00 3.0031000000000176e+01 0 0 0
604 2 3.6914999999999996e+00 7.8147245686161639e+00 3.0031000000000176e+01 0 0 0
885 2 0.0000000000000000e+00 4.2625770374269996e+00 3.3370892275921868e+01 0 0 0
886 2 1.2305000000000001e+00 4.9730065436648339e+00 3.3370892275921868e+01 0 0 0
894 2 1.2305000000000001e+00 6.3938655561404980e+00 3.3370892275921868e+01 0 0 0
896 2 2.4610000000000003e+00 4.2625770374269996e+00 3.3370892275921868e+01 0 0 0
897 2 3.6914999999999996e+00 4.9730065436648339e+00 3.3370892275921868e+01 0 0 0
909 2 3.6914999999999996e+00 6.3938655561404980e+00 3.3370892275921868e+01 0 0 0
884 2 0.0000000000000000e+00 7.1042950623783341e+00 3.3370892275921868e+01 0 0 0
895 2 2.4610000000000003e+00 7.1042950623783341e+00 3.3370892275921868e+01 0 0 0
608 2 4.9220000000000006e+00 5.6834360499026637e+00 3.0031000000000176e+01 0 0 0
610 2 4.9220000000000006e+00 4.2625770374269978e+00 3.0031000000000176e+01 0 0 0
643 2 6.1524999999999999e+00 6.3938655561404980e+00 3.0031000000000176e+01 0 0 0
645 2 7.3829999999999991e+00 5.6834360499026637e+00 3.0031000000000176e+01 0 0 0
647 2 7.3829999999999991e+00 4.2625770374269996e+00 3.0031000000000176e+01 0 0 0
688 2 8.6135000000000002e+00 6.3938655561404980e+00 3.0031000000000176e+01 0 0 0
641 2 6.1524999999999999e+00 7.8147245686161639e+00 3.0031000000000176e+01 0 0 0
686 2 8.6135000000000002e+00 7.8147245686161639e+00 3.0031000000000176e+01 0 0 0
911 2 4.9220000000000006e+00 4.2625770374269978e+00 3.3370892275921868e+01 0 0 0
912 2 6.1524999999999999e+00 4.9730065436648339e+00 3.3370892275921868e+01 0 0 0
928 2 6.1524999999999999e+00 6.3938655561404980e+00 3.3370892275921868e+01 0 0 0
930 2 7.3829999999999991e+00 4.2625770374269996e+00 3.3370892275921868e+01 0 0 0
931 2 8.6135000000000002e+00 4.9730065436648339e+00 3.3370892275921868e+01 0 0 0
951 2 8.6135000000000002e+00 6.3938655561404980e+00 3.3370892275921868e+01 0 0 0
910 2 4.9220000000000006e+00 7.1042950623783341e+00 3.3370892275921868e+01 0 0 0
929 2 7.3830000000000009e+00 7.1042950623783341e+00 3.3370892275921868e+01 0 0 0
571 2 0.0000000000000000e+00 9.9460130873296642e+00 3.0031000000000176e+01 0 0 0
573 2 0.0000000000000000e+00 8.5251540748539991e+00 3.0031000000000176e+01 0 0 0
600 2 2.4610000000000003e+00 9.9460130873296642e+00 3.0031000000000176e+01 0 0 0
602 2 2.4610000000000003e+00 8.5251540748539991e+00 3.0031000000000176e+01 0 0 0
596 2 1.2305000000000001e+00 1.2077301606043163e+01 3.0031000000000176e+01 0 0 0
598 2 1.2305000000000001e+00 1.0656442593567498e+01 3.0031000000000176e+01 0 0 0
633 2 3.6914999999999996e+00 1.2077301606043163e+01 3.0031000000000176e+01 0 0 0
635 2 3.6914999999999996e+00 1.0656442593567499e+01 3.0031000000000176e+01 0 0 0
892 2 0.0000000000000000e+00 8.5251540748539991e+00 3.3370892275921868e+01 0 0 0
893 2 1.2305000000000001e+00 9.2355835810918343e+00 3.3370892275921868e+01 0 0 0
907 2 2.4610000000000003e+00 8.5251540748539991e+00 3.3370892275921868e+01 0 0 0
908 2 3.6915000000000004e+00 9.2355835810918343e+00 3.3370892275921868e+01 0 0 0
891 2 0.0000000000000000e+00 1.1366872099805333e+01 3.3370892275921868e+01 0 0 0
905 2 1.2305000000000001e+00 1.0656442593567498e+01 3.3370892275921868e+01 0 0 0
906 2 2.4610000000000003e+00 1.1366872099805333e+01 3.3370892275921868e+01 0 0 0
924 2 3.6914999999999996e+00 1.0656442593567499e+01 3.3370892275921868e+01 0 0 0
637 2 4.9220000000000006e+00 9.9460130873296642e+00 3.0031000000000176e+01 0 0 0
639 2 4.9220000000000006e+00 8.5251540748539991e+00 3.0031000000000176e+01 0 0 0
682 2 7.3830000000000009e+00 9.9460130873296642e+00 3.0031000000000176e+01 0 0 0
684 2 7.3830000000000009e+00 8.5251540748539991e+00 3.0031000000000176e+01 0 0 0
678 2 6.1524999999999999e+00 1.2077301606043163e+01 3.0031000000000176e+01 0 0 0
680 2 6.1524999999999999e+00 1.0656442593567499e+01 3.0031000000000176e+01 0 0 0
725 2 8.6135000000000002e+00 1.2077301606043163e+01 3.0031000000000176e+01 0 0 0
727 2 8.6134999999999984e+00 1.0656442593567498e+01 3.0031000000000176e+01 0 0 0
926 2 4.9220000000000006e+00 8.5251540748539991e+00 3.3370892275921868e+01 0 0 0
927 2 6.1524999999999999e+00 9.2355835810918343e+00 3.3370892275921868e+01 0 0 0
949 2 7.3830000000000009e+00 8.5251540748539991e+00 3.3370892275921868e+01 0 0 0
950 2 8.6134999999999984e+00 9.2355835810918343e+00 3.3370892275921868e+01 0 0 0
925 2 4.9220000000000006e+00 1.1366872099805333e+01 3.3370892275921868e+01 0 0 0
947 2 6.1524999999999999e+00 1.0656442593567499e+01 3.3370892275921868e+01 0 0 0
948 2 7.3829999999999991e+00 1.1366872099805333e+01 3.3370892275921868e+01 0 0 0
971 2 8.6134999999999984e+00 1.0656442593567498e+01 3.3370892275921868e+01 0 0 0
594 2 0.0000000000000000e+00 1.2787731112280996e+01 3.0031000000000176e+01 0 0 0
631 2 2.4610000000000003e+00 1.2787731112280996e+01 3.0031000000000176e+01 0 0 0
592 2 0.0000000000000000e+00 1.4208590124756663e+01 3.0031000000000176e+01 0 0 0
627 2 1.2305000000000001e+00 1.4919019630994494e+01 3.0031000000000176e+01 0 0 0
629 2 2.4610000000000003e+00 1.4208590124756663e+01 3.0031000000000176e+01 0 0 0
672 2 3.6915000000000004e+00 1.4919019630994494e+01 3.0031000000000176e+01 0 0 0
903 2 0.0000000000000000e+00 1.2787731112280996e+01 3.3370892275921868e+01 0 0 0
904 2 1.2305000000000001e+00 1.3498160618518829e+01 3.3370892275921868e+01 0 0 0
922 2 2.4610000000000003e+00 1.2787731112280996e+01 3.3370892275921868e+01 0 0 0
923 2 3.6915000000000004e+00 1.3498160618518829e+01 3.3370892275921868e+01 0 0 0
902 2 0.0000000000000000e+00 1.5629449137232333e+01 3.3370892275921868e+01 0 0 0
920 2 1.2305000000000001e+00 1.4919019630994494e+01 3.3370892275921868e+01 0 0 0
921 2 2.4610000000000003e+00 1.5629449137232328e+01 3.3370892275921868e+01 0 0 0
943 2 3.6915000000000004e+00 1.4919019630994494e+01 3.3370892275921868e+01 0 0 0
676 2 4.9220000000000006e+00 1.2787731112280996e+01 3.0031000000000176e+01 0 0 0
723 2 7.3829999999999991e+00 1.2787731112280996e+01 3.0031000000000176e+01 0 0 0
674 2 4.9220000000000006e+00 1.4208590124756663e+01 3.0031000000000176e+01 0 0 0
719 2 6.1524999999999990e+00 1.4919019630994494e+01 3.0031000000000176e+01 0 0 0
721 2 7.3830000000000009e+00 1.4208590124756663e+01 3.0031000000000176e+01 0 0 0
766 2 8.6135000000000002e+00 1.4919019630994494e+01 3.0031000000000176e+01 0 0 0
945 2 4.9220000000000006e+00 1.2787731112280996e+01 3.3370892275921868e+01 0 0 0
946 2 6.1524999999999990e+00 1.3498160618518829e+01 3.3370892275921868e+01 0 0 0
969 2 7.3829999999999991e+00 1.2787731112280996e+01 3.3370892275921868e+01 0 0 0
970 2 8.6135000000000002e+00 1.3498160618518835e+01 3.3370892275921868e+01 0 0 0
944 2 4.9220000000000006e+00 1.5629449137232333e+01 3.3370892275921868e+01 0 0 0
967 2 6.1524999999999990e+00 1.4919019630994494e+01 3.3370892275921868e+01 0 0 0
968 2 7.3829999999999991e+00 1.5629449137232333e+01 3.3370892275921868e+01 0 0 0
991 2 8.6135000000000002e+00 1.4919019630994494e+01 3.3370892275921868e+01 0 0 0
4644 1 2.0641736204630141e+00 1.5917418828247125e+00 3.5799561438429222e+01 1 -1 -1
2821 1 4.4318982387583752e+00 3.3127023109171718e+00 3.6392671523379832e+01 1 0 -1
7 1 3.9897903950654356e+00 3.2793163150201035e+00 3.9016118155240903e+01 2 1 0
4509 1 8.6079789334577246e+00 2.9793218075193444e+00 3.9131094608896248e+01 3 -2 0
31 1 6.8076094942015795e+00 2.1062813557953666e+00 3.6392106330647394e+01 0 1 -1
2894 1 9.3882064807513093e+00 3.6516660375087051e+00 3.6551565434194018e+01 3 2 0
3110 1 1.5556025066425334e+00 6.9644782297896937e+00 3.8889798149223282e+01 1 -2 -1
440 1 4.5706765652160044e+00 5.8016027287275636e+00 3.5820498775439006e+01 6 -1 -1
46 1 1.9914116463990510e+00 6.9566003366070461e+00 3.6129594573640318e+01 4 5 -1
3123 1 6.7598448735114696e+00 7.0813439635081794e+00 3.6801892718018436e+01 3 3 0
6119 1 9.7203933958261253e+00 6.8546542082599000e+00 3.6458018133350222e+01 -2 -1 -1
2838 1 4.0576052045796720e+00 1.0906758433373350e+01 3.9264475482912857e+01 0 -2 0
2852 1 1.9935037425731996e+00 9.7783738393017607e+00 3.5803095012191093e+01 -4 2 0
1845 1 4.2224714254875133e+00 1.1135353867766261e+01 3.6632707657061005e+01 0 -1 -1
120 1 8.4913257482770117e+00 1.1095331973138448e+01 3.9051801600874555e+01 -4 3 0
1327 1 8.4866059617570997e+00 1.0976846870230563e+01 3.6385652387264855e+01 -1 3 0
1606 1 6.1316564037884902e+00 9.6010557517777766e+00 3.5798182707649858e+01 5 1 -1
1947 1 4.3996172550579482e+00 1.3864583159322267e+01 3.5769570876078404e+01 4 -1 -1
6319 1 2.0203905630475472e+00 1.5030700783463587e+01 3.6655785266664211e+01 2 1 0
3371 1 1.8761102103305787e+00 1.5190998112001118e+01 3.9300493675914396e+01 0 3 0
2923 1 6.5705494849711670e+00 1.5105336885194149e+01 3.6897003495398508e+01 2 2 0
2141 1 8.6152838548912261e+00 1.3606732040614407e+01 3.5882394508729845e+01 0 5 -1
4586 1 1.9701198521598253e+00 1.3328383965469850e+00 4.2722779822482224e+01 -4 3 -1
5998 1 4.2050348782518121e+00 2.8971157619009102e+00 4.3558876554740309e+01 0 -2 0
3283 1 1.8893818772201902e+00 1.5720884377690498e+00 3.9842848517815170e+01 1 2 0
4928 1 6.6235005721871270e+00 1.5889149824211588e+00 4.2821005891433302e+01 4 -2 -1
3137 1 8.7342922821917703e+00 2.9527385150892362e+00 4.3862944085658938e+01 -3 -2 -1
332 1 6.1104345415037615e+00 1.7319313888572818e+00 4.0045870594024350e+01 -4 4 -1
1555 1 3.9507897363755999e+00 5.5259987928327607e+00 4.2744548571129982e+01 2 3 0
2942 1 1.7653293282413580e+00 7.0151534785911833e+00 4.3667777927450501e+01 0 0 0
5983 1 3.9506147255775814e+00 5.8075932901900131e+00 3.9843911291856898e+01 1 4 0
4656 1 8.6210577535428410e+00 5.5727828231612833e+00 4.0180273692280508e+01 -1 1 0
2093 1 8.2303031234056547e+00 5.5500164296704160e+00 4.2953018309524921e+01 0 -2 0
1667 1 5.9518016939153284e+00 6.8598536155433285e+00 4.3771648589711859e+01 -1 -2 -1
2816 1 6.3567383617826509e+00 7.2037661011794292e+00 3.9490264258928292e+01 -1 1 0
465 1 1.5287377468031202e+00 9.5188242178430968e+00 4.2603484210229610e+01 3 0 -1
1437 1 1.7696209429601801e+00 9.6487463175265251e+00 3.9956739988872286e+01 2 3 -1
4804 1 6.1305021780406239e+00 9.4661219532021761e+00 4.3271083062775475e+01 4 1 0
5109 1 8.4952349623343704e+00 1.0723390056754871e+01 4.3953167300809213e+01 1 4 -1
4564 1 6.4546464166235014e+00 9.6500136970365418e+00 4.0401427654085552e+01 -2 -2 -1
3522 1 3.9114865526458087e+00 1.3140946087136887e+01 4.3196049689839683e+01 2 -1 -1
369 1 3.8181101122748458e+00 1.3410286409416388e+01 4.0305626869254681e+01 3 4 -1
1559 1 1.6854071659137628e+00 1.4648944561962100e+01 4.3919449023422700e+01 1 1 0
4907 1 8.2827070125905333e+00 1.3401918202298809e+01 4.0177753576938144e+01 -3 -3 0
3149 1 8.4363711444201872e+00 1.3387860162104488e+01 4.3015447347005392e+01 0 2 0
3616 1 6.1951475508796419e+00 1.5010034608427951e+01 3.9759954681536442e+01 0 -6 0
1278 1 4.0556942592845093e+00 2.6745139206595008e+00 4.6350176190992968e+01 -1 -1 0
1740 1 1.8129989893145233e+00 4.0744832855099187e+00 4.7477865123668266e+01 -2 1 -1
6035 1 4.1497694941596688e+00 6.3177472013805649e-02 4.7445653804774608e+01 1 1 -1
4550 1 8.9355661420492503e+00 2.5842247157855138e+00 4.6690705500980457e+01 0 2 0
3332 1 6.2012408733282198e+00 4.0795604919296347e+00 4.7307218480794262e+01 0 -1 -1
1985 1 1.9277472655956982e+00 6.6887238011792505e+00 4.6417038544649344e+01 2 -2 -1
6327 1 4.0383948091314910e+00 7.9617733072915726e+00 4.7582724130511764e+01 -1 0 -1
3253 1 6.5148060592708994e+00 6.8231902414709973e+00 4.6606297856028831e+01 1 1 0
4749 1 8.6765283947401066e+00 7.9449081485562578e+00 4.7635816185532747e+01 -1 1 0
4897 1 3.5943818061933905e+00 1.0678210016072276e+01 4.4108560724288239e+01 2 0 0
3322 1 1.7366197950640601e+00 1.1924718337557000e+01 4.7975299193853175e+01 1 0 -1
1415 1 3.7201902952840702e+00 1.0655517780889024e+01 4.6879856223750892e+01 -2 -2 0
6076 1 6.1205486670904437e+00 1.1759211038383466e+01 4.7662798851446482e+01 3 3 0
5125 1 8.3307450443163518e+00 1.0466792022818950e+01 4.6758149813969126e+01 -1 0 -1
507 1 1.5901125535830900e+00 1.4483253342890016e+01 4.6923291368360438e+01 1 0 0