LAMMPS data file via write_data, version 16 Mar 2018, timestep = 8000000

6328 atoms
2 atom types

0.0000000000000000e+00 4.9219999999999999e+01 xlo xhi
0.0000000000000000e+00 4.9019635930410494e+01 ylo yhi
2.0197818071184415e+00 5.8042218192875978e+01 zlo zhi

Masses

1 18.015
2 12.01

Atoms # atomic

328 1 4.0211825039728879e+00 1.9519088208011877e+00 5.0383815685755531e+00 0 4 0
2808 1 6.1498696164343833e+00 2.1702714023037753e-01 5.7320857515734067e+00 4 -2 1
62 1 8.6007627289209463e+00 8.7606952880780409e-01 5.0741910475301530e+00 1 -1 0
3077 1 5.8797147370144764e-01 5.2721744335163150e+00 6.1078204840111807e+00 -1 -3 1
5292 1 3.0893954767367520e+00 6.2322834694328009e+00 5.3032511879091571e+00 -2 1 1
3283 1 4.3274121336548115e+00 1.7799023881257854e+00 2.2942457756241845e+00 2 0 1
1546 1 7.3759132407690506e+00 5.1127665009935965e+00 5.4216125892362452e+00 3 1 1
2867 1 1.1547704394086519e+01 1.1332312935371034e+01 1.3559605911971271e+01 0 -3 1
261 1 1.1554481364692997e+01 4.3067482624962823e+00 5.1815794930217489e+00 2 0 1
2999 1 6.2925896112212607e+00 9.3471149253492083e+00 2.2274051096131622e+00 1 -4 1
1267 1 1.7386869542043941e+00 1.0508629132540648e+01 5.1763984488921118e+00 1 -1 1
1482 1 1.0685746400526190e+01 8.2067761560525572e+00 2.2672931244429511e+00 4 1 0
3298 1 8.5907536828743378e+00 6.8194741258412861e-01 2.2254878607010595e+00 -1 -1 1
6270 1 6.3153609239091395e+00 9.3138821686998661e+00 4.9143771197234845e+00 2 5 1
15 1 5.8031201902323586e+00 3.1747243266214120e-01 8.5466797343873271e+00 1 4 1
1671 1 1.0448078962185924e+01 8.7358800331131725e+00 4.9092757232262034e+00 3 1 1
4659 1 1.6979358694366378e+00 1.2023366323800777e+00 6.2134741646443032e+00 0 2 1
38 1 1.6579556564674220e+00 1.1896599093807276e+00 8.8294349835823240e+00 -5 0 0
272 1 5.8165048917617401e+00 1.0096764452200643e+01 1.3891161618752649e+01 2 0 0
3327 1 4.0863032658413845e-01 5.2733664026603204e+00 8.8707756723464897e+00 -1 -3 0
3651 1 9.2645764204388641e+00 3.3598155105842542e+00 6.3327267177930207e+00 -1 0 1
199 1 9.4853495720267809e+00 3.3589105757458251e+00 9.0015707031351369e+00 0 -1 0
1779 1 6.8545660763493057e+00 1.1874442085997531e+01 6.0523188228184743e+00 -3 1 1
3665 1 7.6047782907987012e+00 4.8529224920622882e+00 2.5544804372933285e+00 3 -2 0
3162 1 4.6796477505703473e+00 4.5112637900823156e+00 5.8921103213491923e+00 -3 1 0
205 1 4.9149541268465624e+00 4.4406107104400325e+00 8.7700150741994563e+00 -4 2 0
4511 1 8.1929689547650302e+00 7.7817892448309678e+00 8.8589253430314479e+00 1 2 1
5201 1 3.6683361847059164e+00 8.6085834390007534e+00 6.1000366420340493e+00 -4 -5 0
4761 1 3.8634057744716372e+00 8.0926306226271585e+00 8.8623784583416843e+00 3 -1 1
6110 1 8.1252858934466214e+00 7.7072085971232589e+00 6.1177269603611402e+00 0 2 0
6283 1 6.2943812715745713e+00 1.1178294506169301e+01 8.7985675222247650e+00 -6 3 0
1677 1 1.1156059393986414e+01 1.1167224538623216e+01 6.0006748306284434e+00 2 1 0
5979 1 1.1295119615859027e+01 1.1354108612275168e+01 8.7703384580484496e+00 1 -2 1
3014 1 2.5310267388224270e+00 3.7810184050806250e+00 9.8296337819212969e+00 -3 5 1
1898 1 2.2526317098470869e+00 3.7834374688220662e+00 1.2707215554703597e+01 1 3 0
4729 1 6.7363878312007346e+00 2.7236990610256355e+00 9.7485396620485147e+00 3 5 1
6222 1 6.7232689840284117e+00 2.8743580153815538e+00 1.2689980722301351e+01 4 1 1
1834 1 1.1300297993299505e+01 1.6948791493900377e+00 1.0206283821007801e+01 2 -4 0
39 1 1.1083686708961540e+01 1.7844634595334987e+00 1.3014464126290761e+01 0 2 1
6010 1 1.3060344884290771e+00 7.8090504291379812e+00 9.7308344959752429e+00 1 4 1
3002 1 6.9346978257975067e-01 7.5183141688841593e+00 1.2476771898101882e+01 4 -3 0
5016 1 5.9383236514434437e+00 6.6143322060277265e+00 1.0223521595473041e+01 3 1 0
2967 1 1.0216242736041517e+01 5.9034759601694358e+00 9.8359348922924781e+00 -2 6 1
2040 1 9.8838328818116885e+00 6.1744468831866657e+00 1.2868338802732183e+01 -2 0 0
5005 1 3.9738985074529269e+00 1.0693465236121941e+01 9.9470879201628311e+00 -3 2 0
4853 1 3.4621983404423760e+00 1.0623438183787854e+01 1.2533760665200113e+01 0 -2 0
2128 1 8.8183981915025242e+00 1.0669646251262964e+01 1.2547862280336261e+01 1 0 0
5065 1 8.6364834039121057e+00 1.0292134412644053e+01 9.5188742388200751e+00 -1 -1 0
5250 1 1.4582626261770917e+00 1.1678825801807355e+00 1.3421040735877481e+01 -1 -1 1
3361 1 3.0249182046521628e+00 6.0374243767822717e+00 2.3771120646676343e+00 1 -6 0
4796 1 8.0691550624853239e+00 8.1441290585293515e+00 1.3752260585012634e+01 0 0 1
3295 1 9.1966465318055519e+00 3.7456345606285821e+00 1.3715177877961162e+01 -1 -2 0
5000 1 3.0243415400872982e+00 8.0762649672314701e+00 1.3591661841701002e+01 2 5 1
371 1 4.7570413706427956e+00 4.5318615892553096e+00 1.3940557287827621e+01 -2 4 1
4686 1 5.5982944499594405e+00 6.8188248257896209e+00 1.3088496222199907e+01 -3 4 0
3677 1 6.0626928868814867e+00 3.8678551119828880e-01 1.3298165884043625e+01 1 1 1
1690 1 1.1836652510022510e+00 1.2033206967295111e+01 1.3275152069535691e+01 -2 1 1
4548 1 1.9224834743412060e+00 1.0562240382551046e+01 2.4918011913127009e+00 -3 1 1
3342 1 1.1842985278652872e+01 4.0014215427282673e+00 2.4647551254451878e+00 1 1 1
1553 1 2.0149877358851942e-01 5.0891806325558262e+00 1.3641412545511439e+01 -1 4 1
27 1 1.6920229877885349e+00 3.1485903581791486e+00 1.7452921430537987e+01 -3 0 1
732 2 1.1074500000000002e+01 9.2355835810918343e+00 2.6687852489572951e+01 0 0 0
2149 1 6.0878315616344620e+00 2.4072198468549879e+00 1.7164433609910049e+01 0 5 0
1617 1 1.0809676185438153e+01 1.8136022022173912e+00 1.7065141009015420e+01 0 -2 0
730 2 9.8440000000000012e+00 8.5251540748539956e+00 2.6687852489572951e+01 0 0 0
775 2 1.2304999999999998e+01 1.1366872099805333e+01 2.6687852489572951e+01 0 0 0
3394 1 4.8469791778329485e+00 6.6194628516731759e+00 1.7521583244550779e+01 -1 -2 0
139 1 2.0973284953918850e-01 7.4798347227091631e+00 1.7712432751068299e+01 -1 3 1
6191 1 9.8290457313378568e+00 6.0227538287565325e+00 1.7187402272261494e+01 4 -5 0
5161 1 2.7557769263467753e+00 1.0623824748527266e+01 1.7095136229952939e+01 1 -3 0
5059 1 1.2329567543974442e+00 1.2147274861883076e+01 2.1281413504705966e+01 0 -1 0
4694 1 6.5321038350334515e+00 8.6178864173971910e+00 1.8281921917530976e+01 5 -1 0
6223 1 9.5641446548342408e+00 1.0760516386992665e+01 1.7482825753336837e+01 0 -1 0
1537 1 9.2141455265579424e+00 1.1152173095931364e+01 2.0163451946498000e+01 2 6 1
773 2 1.1074500000000002e+01 1.0656442593567498e+01 2.6687852489572951e+01 0 0 0
454 1 1.8059259897517621e+00 3.0445636210270997e+00 2.0138877823356562e+01 7 7 1
4854 1 1.2372501420431803e+00 6.3982278951436977e-01 2.0987156055304020e+01 -3 3 1
1853 1 6.1259073910480533e+00 2.1614469693248917e+00 1.9766986639338164e+01 0 -1 1
2831 1 4.2661637508336767e+00 3.8613854966426868e+00 2.0962065133573176e+01 3 7 1
2918 1 1.0790370687074857e+01 2.0072232367186946e+00 1.9765147872509250e+01 1 -2 0
6282 1 8.3779740162690217e+00 3.6192173571215385e+00 2.0604474422029210e+01 4 2 0
28 1 6.6534440521482952e-01 1.0875647512000956e+01 2.3954442777394114e+01 -4 3 1
4726 1 2.7927556166114340e+00 8.1176012850268489e+00 2.1407649324494301e+01 2 5 0
1841 1 5.5687718712156800e+00 1.0483980799176688e+01 1.6635415760751968e+01 1 -2 0
4436 1 4.6196662827474260e+00 6.3590749426034643e+00 2.0117274979179573e+01 -4 1 1
1541 1 7.2372009501517649e+00 6.5684757972408701e+00 2.1198460562745709e+01 3 6 0
4566 1 1.0054696948652364e+01 6.0437724325888240e+00 2.0034065825258519e+01 -1 -4 1
2031 1 2.7542809284352900e+00 1.0496556174794307e+01 2.0042476397114338e+01 -2 -2 0
72 1 1.1738273159458370e+01 1.1534433541746267e+01 2.3466153082741666e+01 0 -1 0
5227 1 6.8042552269494374e+00 9.9483780101687973e+00 2.1055200421641810e+01 3 2 0
5126 1 9.5691285783768301e+00 8.5774950422118721e+00 2.1522511569420555e+01 -1 -2 0
3111 1 1.3138103776898868e+00 8.1944040974766386e-01 2.3642712043212299e+01 -3 -3 1
1825 1 3.8825718996882288e+00 1.7176806158144142e+00 2.3855966773579052e+01 3 1 0
6221 1 1.3800690780186766e+00 7.4171747450620340e-01 1.6257678903754524e+01 1 2 0
3485 1 8.1842155224933002e+00 1.1096951503933503e+00 2.4142393185592574e+01 -2 4 0
2908 1 8.6540788603746588e+00 3.6033641902579174e+00 2.3231220996707268e+01 2 -1 1
726 2 8.6134999999999984e+00 1.0656442593567498e+01 2.6687852489572951e+01 0 0 0
5978 1 2.1369783874951622e+00 5.8704834288470478e+00 2.4394159340221076e+01 1 -2 1
6146 1 4.7943728043833467e+00 4.4468866482317688e+00 2.3756207673493051e+01 0 3 1
381 1 7.1296698399877716e+00 5.8714487909283442e+00 2.3846037357786958e+01 -3 -4 0
3625 1 1.1277639139578149e+01 4.5219144114284031e+00 2.3719276018205953e+01 0 3 1
2043 1 2.6304707143155275e+00 8.6221854136893992e+00 2.4015669586695601e+01 2 0 0
2994 1 1.2075053887968298e+01 1.1405816550603909e+01 1.6290479592780095e+01 3 1 1
1638 1 3.9812052828085593e+00 1.1284604180527886e+01 2.3803822997048069e+01 -2 1 0
1449 1 6.7219774920161370e+00 1.0907147464364099e+01 2.3883066976136170e+01 1 2 1
4468 1 8.1480400002912674e+00 8.5287547411967122e+00 2.4469063689380889e+01 3 -2 1
1461 1 1.1989848849047480e+01 1.1895085669426992e+01 2.0610850826264514e+01 -4 -1 1
3021 1 1.0886472587701684e+01 9.0003726951808094e+00 2.4115303300176940e+01 0 1 1
552 2 0.0000000000000000e+00 2.8417180249513345e+00 2.6687852489572951e+01 0 0 0
554 2 0.0000000000000000e+00 0.0000000000000000e+00 2.6687852489572951e+01 0 0 0
556 2 1.2305000000000001e+00 7.1042950623783474e-01 2.6687852489572951e+01 0 0 0
563 2 1.2305000000000001e+00 2.1312885187134998e+00 2.6687852489572951e+01 0 0 0
565 2 2.4610000000000003e+00 2.8417180249513345e+00 2.6687852489572951e+01 0 0 0
567 2 2.4610000000000003e+00 0.0000000000000000e+00 2.6687852489572951e+01 0 0 0
569 2 3.6915000000000004e+00 7.1042950623783474e-01 2.6687852489572951e+01 0 0 0
584 2 3.6914999999999996e+00 2.1312885187134998e+00 2.6687852489572951e+01 0 0 0
586 2 4.9220000000000006e+00 2.8417180249513332e+00 2.6687852489572951e+01 0 0 0
588 2 4.9220000000000006e+00 0.0000000000000000e+00 2.6687852489572951e+01 0 0 0
590 2 6.1524999999999999e+00 7.1042950623783407e-01 2.6687852489572951e+01 0 0 0
613 2 6.1524999999999999e+00 2.1312885187134989e+00 2.6687852489572951e+01 0 0 0
615 2 7.3829999999999991e+00 2.8417180249513345e+00 2.6687852489572951e+01 0 0 0
617 2 7.3829999999999991e+00 0.0000000000000000e+00 2.6687852489572951e+01 0 0 0
619 2 8.6134999999999984e+00 7.1042950623783407e-01 2.6687852489572951e+01 0 0 0
650 2 8.6134999999999984e+00 2.1312885187135002e+00 2.6687852489572951e+01 0 0 0
652 2 9.8440000000000012e+00 2.8417180249513332e+00 2.6687852489572951e+01 0 0 0
654 2 9.8440000000000012e+00 0.0000000000000000e+00 2.6687852489572951e+01 0 0 0
656 2 1.1074500000000002e+01 7.1042950623783330e-01 2.6687852489572951e+01 0 0 0
695 2 1.1074500000000002e+01 2.1312885187135002e+00 2.6687852489572951e+01 0 0 0
559 2 0.0000000000000000e+00 4.2625770374269996e+00 2.6687852489572951e+01 0 0 0
561 2 1.2305000000000001e+00 4.9730065436648339e+00 2.6687852489572951e+01 0 0 0
576 2 1.2305000000000001e+00 6.3938655561404980e+00 2.6687852489572951e+01 0 0 0
580 2 2.4610000000000003e+00 4.2625770374269996e+00 2.6687852489572951e+01 0 0 0
582 2 3.6914999999999996e+00 4.9730065436648339e+00 2.6687852489572951e+01 0 0 0
605 2 3.6914999999999996e+00 6.3938655561404980e+00 2.6687852489572951e+01 0 0 0
557 2 0.0000000000000000e+00 7.1042950623783341e+00 2.6687852489572951e+01 0 0 0
578 2 2.4610000000000003e+00 7.1042950623783341e+00 2.6687852489572951e+01 0 0 0
609 2 4.9220000000000006e+00 4.2625770374269978e+00 2.6687852489572951e+01 0 0 0
611 2 6.1524999999999999e+00 4.9730065436648339e+00 2.6687852489572951e+01 0 0 0
642 2 6.1524999999999999e+00 6.3938655561404980e+00 2.6687852489572951e+01 0 0 0
646 2 7.3829999999999991e+00 4.2625770374269996e+00 2.6687852489572951e+01 0 0 0
607 2 4.9220000000000006e+00 7.1042950623783341e+00 2.6687852489572951e+01 0 0 0
644 2 7.3830000000000009e+00 7.1042950623783341e+00 2.6687852489572951e+01 0 0 0
648 2 8.6135000000000002e+00 4.9730065436648339e+00 2.6687852489572951e+01 0 0 0
687 2 8.6135000000000002e+00 6.3938655561404980e+00 2.6687852489572951e+01 0 0 0
691 2 9.8440000000000012e+00 4.2625770374270004e+00 2.6687852489572951e+01 0 0 0
693 2 1.1074500000000002e+01 4.9730065436648339e+00 2.6687852489572951e+01 0 0 0
734 2 1.1074500000000002e+01 6.3938655561404980e+00 2.6687852489572951e+01 0 0 0
689 2 9.8440000000000012e+00 7.1042950623783341e+00 2.6687852489572951e+01 0 0 0
570 2 0.0000000000000000e+00 1.1366872099805333e+01 2.6687852489572951e+01 0 0 0
601 2 2.4610000000000003e+00 8.5251540748539991e+00 2.6687852489572951e+01 0 0 0
597 2 1.2305000000000001e+00 1.0656442593567498e+01 2.6687852489572951e+01 0 0 0
603 2 3.6915000000000004e+00 9.2355835810918343e+00 2.6687852489572951e+01 0 0 0
634 2 3.6914999999999996e+00 1.0656442593567499e+01 2.6687852489572951e+01 0 0 0
572 2 0.0000000000000000e+00 8.5251540748539991e+00 2.6687852489572951e+01 0 0 0
599 2 2.4610000000000003e+00 1.1366872099805333e+01 2.6687852489572951e+01 0 0 0
574 2 1.2305000000000001e+00 9.2355835810918343e+00 2.6687852489572951e+01 0 0 0
683 2 7.3830000000000009e+00 8.5251540748539991e+00 2.6687852489572951e+01 0 0 0
681 2 7.3829999999999991e+00 1.1366872099805333e+01 2.6687852489572951e+01 0 0 0
640 2 6.1524999999999999e+00 9.2355835810918343e+00 2.6687852489572951e+01 0 0 0
638 2 4.9220000000000006e+00 8.5251540748539991e+00 2.6687852489572951e+01 0 0 0
679 2 6.1524999999999999e+00 1.0656442593567499e+01 2.6687852489572951e+01 0 0 0
636 2 4.9220000000000006e+00 1.1366872099805333e+01 2.6687852489572951e+01 0 0 0
728 2 9.8440000000000012e+00 1.1366872099805333e+01 2.6687852489572951e+01 0 0 0
685 2 8.6134999999999984e+00 9.2355835810918343e+00 2.6687852489572951e+01 0 0 0
1309 1 2.7077001478390867e+00 7.8168261106840120e+00 1.6523522257508176e+01 -6 -1 1
4423 1 8.8880537876588728e-02 4.9955242581193371e+00 1.6554084058174450e+01 3 4 1
1680 1 8.8026126164847813e+00 3.6130370997362631e+00 1.6345109083342450e+01 5 -1 1
6318 1 8.6740359024859295e+00 8.4762500339186175e+00 1.6321957829773254e+01 0 1 1
4699 1 4.1256062661422668e+00 4.1319687535564213e+00 1.6417032823576974e+01 -3 4 1
3270 1 5.8849427374239420e+00 1.0172636450694232e-01 1.6028243456606504e+01 2 -1 1
553 2 0.0000000000000000e+00 1.4208590124756650e+00 3.0030999999997302e+01 0 0 0
555 2 0.0000000000000000e+00 0.0000000000000000e+00 3.0030999999997302e+01 0 0 0
564 2 1.2305000000000001e+00 2.1312885187134998e+00 3.0030999999997302e+01 0 0 0
566 2 2.4610000000000003e+00 1.4208590124756650e+00 3.0030999999997302e+01 0 0 0
568 2 2.4610000000000003e+00 0.0000000000000000e+00 3.0030999999997302e+01 0 0 0
585 2 3.6914999999999996e+00 2.1312885187134998e+00 3.0030999999997302e+01 0 0 0
562 2 1.2305000000000001e+00 3.5521475311891644e+00 3.0030999999997302e+01 0 0 0
583 2 3.6914999999999996e+00 3.5521475311891644e+00 3.0030999999997302e+01 0 0 0
881 2 0.0000000000000000e+00 2.8417180249513345e+00 3.3374147510410218e+01 0 0 0
882 2 0.0000000000000000e+00 0.0000000000000000e+00 3.3374147510410218e+01 0 0 0
883 2 1.2305000000000001e+00 7.1042950623783474e-01 3.3374147510410218e+01 0 0 0
887 2 1.2305000000000001e+00 2.1312885187134998e+00 3.3374147510410218e+01 0 0 0
888 2 2.4610000000000003e+00 2.8417180249513345e+00 3.3374147510410218e+01 0 0 0
889 2 2.4610000000000003e+00 0.0000000000000000e+00 3.3374147510410218e+01 0 0 0
890 2 3.6915000000000004e+00 7.1042950623783474e-01 3.3374147510410218e+01 0 0 0
898 2 3.6914999999999996e+00 2.1312885187134998e+00 3.3374147510410218e+01 0 0 0
587 2 4.9220000000000006e+00 1.4208590124756650e+00 3.0030999999997302e+01 0 0 0
589 2 4.9220000000000006e+00 0.0000000000000000e+00 3.0030999999997302e+01 0 0 0
614 2 6.1524999999999999e+00 2.1312885187134989e+00 3.0030999999997302e+01 0 0 0
616 2 7.3829999999999991e+00 1.4208590124756659e+00 3.0030999999997302e+01 0 0 0
618 2 7.3829999999999991e+00 0.0000000000000000e+00 3.0030999999997302e+01 0 0 0
612 2 6.1524999999999999e+00 3.5521475311891644e+00 3.0030999999997302e+01 0 0 0
899 2 4.9220000000000006e+00 2.8417180249513332e+00 3.3374147510410218e+01 0 0 0
900 2 4.9220000000000006e+00 0.0000000000000000e+00 3.3374147510410218e+01 0 0 0
901 2 6.1524999999999999e+00 7.1042950623783407e-01 3.3374147510410218e+01 0 0 0
913 2 6.1524999999999999e+00 2.1312885187134989e+00 3.3374147510410218e+01 0 0 0
914 2 7.3829999999999991e+00 2.8417180249513345e+00 3.3374147510410218e+01 0 0 0
915 2 7.3829999999999991e+00 0.0000000000000000e+00 3.3374147510410218e+01 0 0 0
651 2 8.6134999999999984e+00 2.1312885187135002e+00 3.0030999999997302e+01 0 0 0
653 2 9.8440000000000012e+00 1.4208590124756659e+00 3.0030999999997302e+01 0 0 0
655 2 9.8440000000000012e+00 0.0000000000000000e+00 3.0030999999997302e+01 0 0 0
696 2 1.1074500000000002e+01 2.1312885187135002e+00 3.0030999999997302e+01 0 0 0
649 2 8.6134999999999984e+00 3.5521475311891657e+00 3.0030999999997302e+01 0 0 0
694 2 1.1074500000000002e+01 3.5521475311891644e+00 3.0030999999997302e+01 0 0 0
916 2 8.6134999999999984e+00 7.1042950623783407e-01 3.3374147510410218e+01 0 0 0
932 2 8.6134999999999984e+00 2.1312885187135002e+00 3.3374147510410218e+01 0 0 0
933 2 9.8440000000000012e+00 2.8417180249513332e+00 3.3374147510410218e+01 0 0 0
934 2 9.8440000000000012e+00 0.0000000000000000e+00 3.3374147510410218e+01 0 0 0
935 2 1.1074500000000002e+01 7.1042950623783330e-01 3.3374147510410218e+01 0 0 0
955 2 1.1074500000000002e+01 2.1312885187135002e+00 3.3374147510410218e+01 0 0 0
558 2 0.0000000000000000e+00 5.6834360499026637e+00 3.0030999999997302e+01 0 0 0
560 2 0.0000000000000000e+00 4.2625770374269996e+00 3.0030999999997302e+01 0 0 0
577 2 1.2305000000000001e+00 6.3938655561404980e+00 3.0030999999997302e+01 0 0 0
579 2 2.4610000000000003e+00 5.6834360499026637e+00 3.0030999999997302e+01 0 0 0
581 2 2.4610000000000003e+00 4.2625770374269996e+00 3.0030999999997302e+01 0 0 0
606 2 3.6914999999999996e+00 6.3938655561404980e+00 3.0030999999997302e+01 0 0 0
575 2 1.2305000000000001e+00 7.8147245686161639e+00 3.0030999999997302e+01 0 0 0
604 2 3.6914999999999996e+00 7.8147245686161639e+00 3.0030999999997302e+01 0 0 0
885 2 0.0000000000000000e+00 4.2625770374269996e+00 3.3374147510410218e+01 0 0 0
886 2 1.2305000000000001e+00 4.9730065436648339e+00 3.3374147510410218e+01 0 0 0
894 2 1.2305000000000001e+00 6.3938655561404980e+00 3.3374147510410218e+01 0 0 0
896 2 2.4610000000000003e+00 4.2625770374269996e+00 3.3374147510410218e+01 0 0 0
897 2 3.6914999999999996e+00 4.9730065436648339e+00 3.3374147510410218e+01 0 0 0
909 2 3.6914999999999996e+00 6.3938655561404980e+00 3.3374147510410218e+01 0 0 0
884 2 0.0000000000000000e+00 7.1042950623783341e+00 3.3374147510410218e+01 0 0 0
895 2 2.4610000000000003e+00 7.1042950623783341e+00 3.3374147510410218e+01 0 0 0
608 2 4.9220000000000006e+00 5.6834360499026637e+00 3.0030999999997302e+01 0 0 0
610 2 4.9220000000000006e+00 4.2625770374269978e+00 3.0030999999997302e+01 0 0 0
643 2 6.1524999999999999e+00 6.3938655561404980e+00 3.0030999999997302e+01 0 0 0
645 2 7.3829999999999991e+00 5.6834360499026637e+00 3.0030999999997302e+01 0 0 0
647 2 7.3829999999999991e+00 4.2625770374269996e+00 3.0030999999997302e+01 0 0 0
641 2 6.1524999999999999e+00 7.8147245686161639e+00 3.0030999999997302e+01 0 0 0
911 2 4.9220000000000006e+00 4.2625770374269978e+00 3.3374147510410218e+01 0 0 0
912 2 6.1524999999999999e+00 4.9730065436648339e+00 3.3374147510410218e+01 0 0 0
928 2 6.1524999999999999e+00 6.3938655561404980e+00 3.3374147510410218e+01 0 0 0
930 2 7.3829999999999991e+00 4.2625770374269996e+00 3.3374147510410218e+01 0 0 0
910 2 4.9220000000000006e+00 7.1042950623783341e+00 3.3374147510410218e+01 0 0 0
929 2 7.3830000000000009e+00 7.1042950623783341e+00 3.3374147510410218e+01 0 0 0
688 2 8.6135000000000002e+00 6.3938655561404980e+00 3.0030999999997302e+01 0 0 0
690 2 9.8440000000000012e+00 5.6834360499026637e+00 3.0030999999997302e+01 0 0 0
692 2 9.8440000000000012e+00 4.2625770374270004e+00 3.0030999999997302e+01 0 0 0
735 2 1.1074500000000002e+01 6.3938655561404980e+00 3.0030999999997302e+01 0 0 0
686 2 8.6135000000000002e+00 7.8147245686161639e+00 3.0030999999997302e+01 0 0 0
733 2 1.1074500000000002e+01 7.8147245686161639e+00 3.0030999999997302e+01 0 0 0
931 2 8.6135000000000002e+00 4.9730065436648339e+00 3.3374147510410218e+01 0 0 0
951 2 8.6135000000000002e+00 6.3938655561404980e+00 3.3374147510410218e+01 0 0 0
953 2 9.8440000000000012e+00 4.2625770374270004e+00 3.3374147510410218e+01 0 0 0
954 2 1.1074500000000002e+01 4.9730065436648339e+00 3.3374147510410218e+01 0 0 0
975 2 1.1074500000000002e+01 6.3938655561404980e+00 3.3374147510410218e+01 0 0 0
952 2 9.8440000000000012e+00 7.1042950623783341e+00 3.3374147510410218e+01 0 0 0
571 2 0.0000000000000000e+00 9.9460130873296642e+00 3.0030999999997302e+01 0 0 0
573 2 0.0000000000000000e+00 8.5251540748539991e+00 3.0030999999997302e+01 0 0 0
600 2 2.4610000000000003e+00 9.9460130873296642e+00 3.0030999999997302e+01 0 0 0
602 2 2.4610000000000003e+00 8.5251540748539991e+00 3.0030999999997302e+01 0 0 0
596 2 1.2305000000000001e+00 1.2077301606043163e+01 3.0030999999997302e+01 0 0 0
598 2 1.2305000000000001e+00 1.0656442593567498e+01 3.0030999999997302e+01 0 0 0
633 2 3.6914999999999996e+00 1.2077301606043163e+01 3.0030999999997302e+01 0 0 0
635 2 3.6914999999999996e+00 1.0656442593567499e+01 3.0030999999997302e+01 0 0 0
892 2 0.0000000000000000e+00 8.5251540748539991e+00 3.3374147510410218e+01 0 0 0
893 2 1.2305000000000001e+00 9.2355835810918343e+00 3.3374147510410218e+01 0 0 0
907 2 2.4610000000000003e+00 8.5251540748539991e+00 3.3374147510410218e+01 0 0 0
908 2 3.6915000000000004e+00 9.2355835810918343e+00 3.3374147510410218e+01 0 0 0
891 2 0.0000000000000000e+00 1.1366872099805333e+01 3.3374147510410218e+01 0 0 0
905 2 1.2305000000000001e+00 1.0656442593567498e+01 3.3374147510410218e+01 0 0 0
906 2 2.4610000000000003e+00 1.1366872099805333e+01 3.3374147510410218e+01 0 0 0
924 2 3.6914999999999996e+00 1.0656442593567499e+01 3.3374147510410218e+01 0 0 0
637 2 4.9220000000000006e+00 9.9460130873296642e+00 3.0030999999997302e+01 0 0 0
639 2 4.9220000000000006e+00 8.5251540748539991e+00 3.0030999999997302e+01 0 0 0
682 2 7.3830000000000009e+00 9.9460130873296642e+00 3.0030999999997302e+01 0 0 0
684 2 7.3830000000000009e+00 8.5251540748539991e+00 3.0030999999997302e+01 0 0 0
678 2 6.1524999999999999e+00 1.2077301606043163e+01 3.0030999999997302e+01 0 0 0
680 2 6.1524999999999999e+00 1.0656442593567499e+01 3.0030999999997302e+01 0 0 0
926 2 4.9220000000000006e+00 8.5251540748539991e+00 3.3374147510410218e+01 0 0 0
927 2 6.1524999999999999e+00 9.2355835810918343e+00 3.3374147510410218e+01 0 0 0
949 2 7.3830000000000009e+00 8.5251540748539991e+00 3.3374147510410218e+01 0 0 0
925 2 4.9220000000000006e+00 1.1366872099805333e+01 3.3374147510410218e+01 0 0 0
947 2 6.1524999999999999e+00 1.0656442593567499e+01 3.3374147510410218e+01 0 0 0
948 2 7.3829999999999991e+00 1.1366872099805333e+01 3.3374147510410218e+01 0 0 0
729 2 9.8440000000000012e+00 9.9460130873296642e+00 3.0030999999997302e+01 0 0 0
731 2 9.8440000000000012e+00 8.5251540748539956e+00 3.0030999999997302e+01 0 0 0
725 2 8.6135000000000002e+00 1.2077301606043163e+01 3.0030999999997302e+01 0 0 0
727 2 8.6134999999999984e+00 1.0656442593567498e+01 3.0030999999997302e+01 0 0 0
772 2 1.1074500000000002e+01 1.2077301606043163e+01 3.0030999999997302e+01 0 0 0
774 2 1.1074500000000002e+01 1.0656442593567498e+01 3.0030999999997302e+01 0 0 0
950 2 8.6134999999999984e+00 9.2355835810918343e+00 3.3374147510410218e+01 0 0 0
973 2 9.8440000000000012e+00 8.5251540748539956e+00 3.3374147510410218e+01 0 0 0
974 2 1.1074500000000002e+01 9.2355835810918343e+00 3.3374147510410218e+01 0 0 0
971 2 8.6134999999999984e+00 1.0656442593567498e+01 3.3374147510410218e+01 0 0 0
972 2 9.8440000000000012e+00 1.1366872099805333e+01 3.3374147510410218e+01 0 0 0
995 2 1.1074500000000002e+01 1.0656442593567498e+01 3.3374147510410218e+01 0 0 0
996 2 1.2304999999999998e+01 1.1366872099805333e+01 3.3374147510410218e+01 0 0 0
2896 1 2.6210191708563473e+00 3.4469956450771946e+00 3.6387056786351152e+01 -5 -1 0
5287 1 1.1066741331343049e+01 8.4481133531545609e+00 4.2790572831155124e+01 0 4 -2
1960 1 4.3779753569262265e+00 1.5240611020883132e+00 3.5640934207614961e+01 -2 -2 -1
3368 1 7.1658069174230645e+00 2.2810396714651993e+00 3.6510348313377428e+01 0 2 -1
1408 1 1.1235632142757177e+01 8.8875845138220633e-01 3.6321337703632345e+01 -5 1 -1
3678 1 8.7207725210311011e+00 2.4551082433222390e-01 3.5940287699402248e+01 1 -1 0
5143 1 1.5691758915694181e+00 7.8338574226790234e+00 4.3659581025405963e+01 -2 3 -1
4751 1 3.2989265434877257e+00 6.3084815380765704e+00 3.6102064763091960e+01 3 -1 -1
147 1 1.0209665470498597e+00 7.9299271984674276e+00 3.6110591619520989e+01 5 -1 0
5197 1 7.3480986212754962e+00 4.9893833013054385e+00 3.5948536520303961e+01 5 4 0
1437 1 5.7690920900293499e+00 7.2082366669056670e+00 3.6468748950725363e+01 -3 4 -1
1462 1 1.0001524997099075e+01 5.4611216741011637e+00 3.6591728403035013e+01 -3 -1 0
1749 1 2.1313224845994636e+00 1.0567719306468776e+01 3.5654341952791739e+01 -1 0 -1
1740 1 1.1355434533815565e+01 1.3708538966153152e+00 4.3686646978925054e+01 4 2 -1
206 1 4.4190946822458352e+00 1.1622306681746981e+01 3.6547285206474868e+01 0 -2 -1
1934 1 6.5360141595553145e+00 9.8128557556862059e+00 3.5678165251632961e+01 -3 -1 -1
73 1 1.0884575272002801e+01 8.2384942344883214e+00 3.5986550771137431e+01 0 2 -1
111 1 9.1747268098168320e+00 1.0624241708995338e+01 3.6387094840661781e+01 -5 3 0
4918 1 2.3949532553669668e+00 3.6487268958948622e+00 3.8955428542958785e+01 4 1 -1
3214 1 4.1302597856137169e+00 1.9547134340371248e+00 3.9974844116592628e+01 1 2 -1
4759 1 6.7421263714611532e+00 2.6645627409512680e+00 3.9058577462550531e+01 2 1 0
1946 1 1.1133116015290515e+01 1.2967889797460692e+00 3.9165653152738038e+01 4 2 0
3356 1 8.6113514207342767e+00 6.0771493370239205e-01 3.9963795349134188e+01 1 -1 -1
500 1 3.2751752802757679e+00 6.0675171731581381e+00 3.9744069593525523e+01 0 3 0
4420 1 1.3086687421615508e+00 7.6758618377904160e+00 3.8812023236996041e+01 -4 1 0
5162 1 5.8961644936591107e+00 7.2583184526654811e+00 3.9447901116516192e+01 -3 1 -1
3345 1 7.3489156072621800e+00 5.1561468299694564e+00 4.0042450564478180e+01 -1 1 0
4437 1 9.9481023145213729e+00 5.6203090769349391e+00 3.9247707417489252e+01 -3 -1 0
370 1 2.5992587670775178e+00 3.4556171031117278e+00 4.3911301509243430e+01 -1 2 -1
5020 1 2.0918225030249502e+00 1.0130097025506531e+01 3.9428784479713620e+01 -2 4 0
193 1 6.5693134664338357e+00 9.5546645070758967e+00 4.3007020283837420e+01 -4 0 0
3035 1 4.6499474082822516e+00 1.1162854287405530e+01 3.9318162658316275e+01 4 -6 0
6274 1 6.7144787308545393e+00 9.5363256282602364e+00 4.0160037077390001e+01 3 -1 0
1989 1 9.2341626039772642e+00 1.0368180252558949e+01 3.9413781754331843e+01 -2 -1 -1
4936 1 1.0837746506660089e+01 7.9537238014819156e+00 4.0171036297128019e+01 -1 1 0
6073 1 9.1034801408208388e+00 1.0316616195462089e+01 4.3958659719735373e+01 2 -1 -1
225 1 4.3969826843788233e+00 1.5921959514440194e+00 4.2785334709558207e+01 -2 -3 -1
4722 1 1.7229302732140703e+00 1.0310742237732228e+01 4.2348500636180368e+01 1 1 0
2927 1 8.7464154249110262e+00 7.4488340629450034e-01 4.2764049858379607e+01 0 1 0
5213 1 1.1713036167334900e+01 3.9210544447415385e+00 3.9852299588577914e+01 0 2 -1
5306 1 1.0216242000467469e+01 6.0863414058152543e+00 4.3624774744732925e+01 3 3 0
3561 1 3.2819340168917632e+00 6.0026608572979061e+00 4.2603910302846920e+01 -2 -1 0
3217 1 7.5858834796406747e+00 5.4088404559340404e+00 4.2843472397048380e+01 4 -2 0
1609 1 1.1641122372323249e+01 3.9383358176636012e+00 4.2429743843039518e+01 -1 -2 0
5041 1 6.9490669257777462e+00 2.5598384656295345e+00 4.3743136644010526e+01 1 3 -1
3639 1 5.5768243532222481e+00 6.8619835796779869e+00 4.3682161931236074e+01 5 -1 0
5243 1 1.1675837877783048e+01 3.7104855364476870e+00 3.5646977302303718e+01 4 0 0
1593 1 4.2704162101077570e+00 1.1155296004441382e+01 4.3593897937847679e+01 -1 4 -1
1327 1 2.4346234952621306e-02 3.1812641080769404e+00 4.2431366351126073e+01 1 3 0
5131 1 2.3803629795168638e-01 1.2169703106837725e+01 4.3783298319401375e+01 6 3 0
1836 1 2.6538365077746131e+00 3.3063412272483164e+00 4.6557369827309849e+01 0 4 -1
5959 1 7.0260552513967234e+00 2.6522908904223481e+00 4.6441042598159001e+01 -3 -2 0
6284 1 4.4893907992352533e+00 1.1231971921143304e+01 5.4494365179300992e+01 1 -1 0
5315 1 1.1580067985864023e+01 1.3211822979945140e+00 4.6492944823983891e+01 0 -3 -1
3502 1 9.7908705304779176e+00 3.4802444912193287e+00 4.7100501450421525e+01 0 -1 -1
3377 1 5.7536212335742034e+00 6.8235645227015667e+00 4.6310859070213958e+01 -2 -1 0
423 1 5.1555174184478743e+00 4.3552638093273046e+00 4.7310838547492992e+01 -2 -3 0
4522 1 8.2907101288396650e+00 7.6987197792773205e+00 4.7391303781690588e+01 5 0 0
3378 1 9.9855881527733956e+00 5.9615371471873191e+00 4.6461126896483904e+01 -1 0 -1
2957 1 1.4876630670467392e+00 8.0213453871538025e+00 4.6644640809416025e+01 0 -2 0
3654 1 4.1627592653466428e+00 8.8942255285899492e+00 4.7183858304257605e+01 -1 3 0
3134 1 5.0224078752365555e+00 1.1528977862496292e+01 4.6161120817577377e+01 -4 -3 -1
3521 1 8.9711101751773654e+00 1.0271518871258069e+01 5.7409919597715572e+01 4 -3 -1
4914 1 9.1984928162922888e+00 1.0087209056798404e+01 4.6452292783123198e+01 3 2 -1
6236 1 1.8357381798905585e+00 8.7448845677549070e-01 4.7447677172154997e+01 2 3 0
4713 1 1.5399236681247184e+00 6.3463235775736482e-01 5.0096241617330065e+01 1 4 -1
3347 1 3.7875530761408078e+00 1.7299663958474751e+00 5.0978422859834701e+01 -2 0 -1
414 1 9.2871642042253360e+00 3.2904077495514312e+00 4.9947206860475013e+01 -2 3 -1
6069 1 9.9003713366840831e+00 5.8119976109236289e+00 5.7300061460871270e+01 4 3 0
3554 1 4.4648729805270609e-01 5.2769203044993853e+00 5.0357681524324342e+01 2 -1 -1
6120 1 5.9717851682787071e+00 2.5738790502990494e-01 4.7642409216427396e+01 -1 -2 0