LAMMPS data file via write_data, version 16 Mar 2018, timestep = 100000

6328 atoms
2 atom types

0.0000000000000000e+00 4.9219999999999999e+01 xlo xhi
0.0000000000000000e+00 4.9019635930410494e+01 ylo yhi
3.4428558215647236e+00 5.6619144178434205e+01 zlo zhi

Masses

1 18.015
2 12.01

Atoms # atomic

2849 1 3.2705514676059462e+00 3.9174925855320328e+00 4.7369936093786631e+00 0 0 1
5997 1 1.1720261333669214e+01 1.6237062335642827e+00 1.2506719807943654e+01 1 0 1
6005 1 5.1834554268964865e+00 2.1647954984007125e+00 4.1298809885718182e+00 0 1 1
383 1 6.5553374269329101e+00 2.3245094104536270e+00 6.4933279703324658e+00 0 2 1
4862 1 9.3367801421100012e+00 2.3141712564105004e+00 6.3966794644222809e+00 0 1 0
4584 1 1.1693431685982254e+01 1.1848201673459027e+01 1.2765974646039714e+01 1 0 1
1414 1 1.0771512565898416e+01 1.0929171965377362e+00 4.4405498068670255e+00 0 1 0
78 1 1.8998438961717745e+00 9.7977308101747251e+00 5.8793153890545859e+00 2 0 1
54 1 1.7536127763530687e+00 6.3405862517849929e+00 5.5325933219632262e+00 2 0 0
6223 1 4.7335303868953984e+00 6.2062763559969243e+00 5.5700772186229486e+00 0 0 0
381 1 4.6997813949932503e+00 5.9484960750889437e-01 1.1237244315908914e+01 0 0 0
4730 1 7.1082855639906182e+00 5.7630449329409128e+00 4.0503422694963698e+00 0 1 1
2145 1 1.0672825051240251e+01 4.6567865084590219e+00 7.7374093076517401e+00 0 0 1
4785 1 3.1187065738800421e+00 8.3338312113263679e+00 3.7482403269190958e+00 0 0 0
3531 1 3.6626530421803354e+00 1.2135154313056283e+01 6.1698423657663062e+00 0 1 0
2146 1 2.9711496698306736e+00 5.2699894148925164e-01 1.6156609738870131e+01 1 0 0
2819 1 8.9286772300532284e+00 8.5404738830086713e-01 1.2379332021067002e+01 0 0 1
4537 1 8.8656382881811668e-03 1.1553127695271744e+01 7.7303290219210483e+00 -1 0 0
4586 1 8.3002549935473446e+00 9.2068973696888694e+00 6.4077839427215970e+00 -1 0 0
3053 1 3.9712549348186510e-01 3.5709099249186010e-01 4.6023840849804163e+00 1 0 1
4963 1 1.1934060868667522e+00 2.3885818585993102e+00 6.1576778796087446e+00 0 0 0
3376 1 1.0066245772878796e+01 1.0062499899522564e+01 1.0990473406368466e+01 0 1 1
237 1 5.7148581592489229e+00 5.0432305513321758e+00 1.1373423126663658e+01 0 0 0
6057 1 5.7322854871226987e+00 4.6867450087746896e+00 7.5978830894628988e+00 -1 1 1
4630 1 1.0942093663250549e+01 3.2056391467934566e+00 1.6590148945640397e+01 1 0 1
3604 1 1.0755671936193504e+01 1.0404580754778590e+00 8.6520207325813807e+00 0 1 1
1860 1 3.0686410000120730e+00 7.3535176294680609e+00 1.0945360270714620e+01 0 0 0
1395 1 1.2835401646037359e+00 6.0140864328160477e+00 8.3444676487539233e+00 0 0 1
1473 1 7.4015550523635083e+00 5.9135759692794441e+00 9.5723029000314455e+00 0 1 1
1341 1 8.5208397516412726e-01 9.6798343147926271e+00 1.4226296307249084e+01 1 1 1
2850 1 9.8496759078119211e+00 5.0526437859657296e+00 1.0686559142792714e+01 0 1 0
2141 1 4.0896799932682635e+00 1.1335215111782061e+01 1.6419888905261043e+01 1 2 0
80 1 3.2328019565007864e+00 8.2676408634748917e+00 7.9093528469018759e+00 1 0 0
1435 1 3.3265273331392895e+00 1.0446917823016188e+01 9.5889686263924592e+00 0 0 1
9 1 5.4289128730354621e+00 9.2614501754741898e+00 6.2694509042513218e+00 0 1 1
4660 1 7.4401684302577271e+00 8.5971206238951652e+00 9.2769173012794539e+00 1 1 1
429 1 6.7966269242627826e+00 5.6845973044829741e+00 1.6398406792342612e+01 0 0 0
4789 1 1.0903082936145898e+01 7.6474020435105743e+00 1.0291485038297782e+01 1 0 0
179 1 9.6872325573813267e+00 1.1162399908583762e+01 8.4735156982204174e+00 0 0 0
4983 1 2.2529214338062968e+00 1.9054440343795098e+00 1.0097891297428582e+01 1 0 0
4547 1 1.1964554148234768e+01 7.6535062655220445e+00 1.4847859138387271e+01 1 0 1
6044 1 6.6760305190466989e+00 2.4732723145104227e+00 1.1661968518585159e+01 1 1 1
469 1 4.9282424217411585e+00 3.6564311082470371e+00 1.5600792289359239e+01 0 1 0
295 1 8.5853172404418820e-01 1.0911807730151155e+01 1.0274321413120834e+01 0 0 0
3643 1 9.5049831382248833e+00 6.6499921184583553e+00 5.8737162651510424e+00 0 1 1
5957 1 3.2877841427401862e+00 4.2702730142088168e+00 9.2785379670947563e+00 0 0 1
3579 1 6.0155783686330491e+00 7.5141765654017760e+00 1.4406901223662983e+01 0 0 0
4480 1 1.2345802567810149e+00 6.7726071165447728e+00 1.4045247609891218e+01 0 0 1
4634 1 2.7970677866634674e+00 7.8377737476460252e-01 7.7751218406559337e+00 0 1 1
5029 1 8.5158287311490231e+00 8.9528567350442394e+00 1.3513939702480487e+01 0 0 0
319 1 3.7921242226165655e+00 5.2400744618153619e+00 1.3846527538622718e+01 1 0 1
1684 1 1.0123446768588748e+01 6.1242084662416163e+00 1.3184679064286870e+01 1 1 1
1928 1 6.8136375233187731e+00 1.6963540758533007e+00 1.4712046710289679e+01 2 0 0
10 1 8.6585718880281259e+00 1.0447839401805172e+01 1.6048180038127953e+01 0 0 0
4530 1 2.9930740921343686e+00 1.1323247933018473e+01 1.3636299257431508e+01 1 1 1
5270 1 4.4113396212037035e+00 9.3733994808202592e+00 1.2431083738536996e+01 0 1 1
3148 1 6.9589152511017272e+00 1.0285354860086965e+01 1.1566432131671009e+01 0 1 0
3033 1 2.7653915933244391e+00 3.4130347413665268e-01 1.3152848392302056e+01 0 1 0
34 1 4.1919201489809534e+00 8.6889642852619478e+00 1.6261634152289190e+01 2 -1 1
1700 1 1.1672088994516938e-02 8.2218602579848330e+00 1.1193743153658033e+01 1 -1 1
4856 1 8.2646401088369803e+00 1.0891372362832474e+01 4.1229478599038138e+00 0 1 0
371 1 1.1979394226031204e+01 7.8722672194926915e+00 7.7285829764483083e+00 1 1 1
1863 1 1.2099332116777614e+01 4.2961277099275375e+00 1.4338649290088785e+01 2 1 1
5016 1 3.4915249459325870e+00 2.7470211509313578e+00 1.7552299427152846e+01 0 0 0
685 2 8.6134999999999984e+00 9.2355835810918343e+00 2.6857696811088374e+01 0 0 0
326 1 6.9966896144627775e+00 4.8445144162720952e+00 1.9768011893506610e+01 1 0 1
775 2 1.2304999999999998e+01 1.1366872099805333e+01 2.6857696811088374e+01 0 0 0
5074 1 7.7751894054041299e+00 4.0355251935697983e-01 1.9549888057992582e+01 1 0 0
732 2 1.1074500000000002e+01 9.2355835810918343e+00 2.6857696811088374e+01 0 0 0
5102 1 5.6170514774770419e+00 7.4610282275081286e+00 1.8367652197918964e+01 -1 0 0
6039 1 4.5454193998286803e+00 3.4175954030641398e+00 1.9855963100269900e+01 1 0 1
3056 1 1.2154371718483846e+01 2.1413729147715346e+00 2.1151625994185476e+01 -1 0 1
3218 1 9.5187591998313010e+00 5.4859912847198755e+00 1.7921456221108322e+01 1 1 1
730 2 9.8440000000000012e+00 8.5251540748539956e+00 2.6857696811088374e+01 0 0 0
728 2 9.8440000000000012e+00 1.1366872099805333e+01 2.6857696811088374e+01 0 0 0
773 2 1.1074500000000002e+01 1.0656442593567498e+01 2.6857696811088374e+01 0 0 0
1590 1 2.1699978706499530e+00 7.3577413762743671e-01 2.1169615716913651e+01 0 0 0
4694 1 9.3822599072899173e+00 8.4881152825943449e+00 2.0988295187351856e+01 2 0 0
4913 1 8.0784158740333503e+00 8.9213359993139889e+00 1.8664966011205962e+01 0 1 0
139 1 1.1355313466358954e+01 7.0288099790353051e+00 1.9668339418299698e+01 1 0 1
2109 1 6.0256840619648355e-01 1.0090626853356474e+01 1.7248360990952133e+01 0 1 1
226 1 7.0892882079424915e+00 1.1343482394832757e+01 1.9613930014447764e+01 1 -1 0
3220 1 6.7802894818431625e+00 1.2202868951598354e+01 1.7055762359754524e+01 0 -2 0
3718 1 1.1161885736674368e+00 1.5184127301072328e+00 2.3929320313132337e+01 0 0 0
726 2 8.6134999999999984e+00 1.0656442593567498e+01 2.6857696811088374e+01 0 0 0
4604 1 1.6806540212511509e+00 9.3887244204461755e+00 2.4305197788056681e+01 1 0 1
3002 1 3.9369279245503042e+00 1.8888332344364835e+00 2.4625413645917451e+01 1 -1 0
6209 1 5.1730613298349919e+00 8.4244257525101240e-01 2.0805712520901505e+01 0 0 0
3260 1 8.4754426413496589e+00 1.4972194879566632e+00 1.6922947781460451e+01 1 1 1
1734 1 1.0479812979453472e+01 2.1219650381542551e-01 2.1688389932242647e+01 1 1 1
151 1 1.7999033586272570e+00 7.3125620681055068e+00 1.6900208565677584e+01 0 0 0
6082 1 2.6110268227134101e+00 4.8961791945308129e+00 2.1181074227091358e+01 1 0 1
6109 1 3.2987639219356577e+00 4.6174165440786785e+00 2.3833068396868789e+01 0 1 1
6173 1 4.9019529054774598e+00 8.0139146108463581e+00 2.1919298718869058e+01 1 1 1
4599 1 4.0199057451349516e+00 7.3459772773789442e+00 2.4411362961238808e+01 0 0 1
331 1 9.1905875407764128e+00 2.1248067199969456e+00 2.4303569543434257e+01 0 1 0
1265 1 7.2003653229364577e+00 6.4423873543732055e+00 2.1899065171209980e+01 1 0 1
1335 1 6.3613850622888632e+00 3.3210192096194051e+00 2.3913489574253781e+01 0 0 1
5203 1 8.1908896712055768e+00 2.5167672493533870e+00 2.1571854654010885e+01 1 1 1
3194 1 1.0288045380875479e+01 4.4133391277242140e+00 2.0937651663858727e+01 0 0 0
128 1 3.3193793198088541e+00 7.0358466627483800e+00 2.0067922289809687e+01 0 1 0
3179 1 1.0128204955302893e+01 5.1782982915715685e+00 2.3768833538449041e+01 1 -1 0
5169 1 9.0629393735072139e-01 8.3324586298900130e+00 1.9795402113853481e+01 2 1 0
6083 1 1.0702626347773686e+01 8.3381429432325866e+00 1.7094515183200713e+01 0 -1 1
4459 1 8.0437254305386432e+00 7.0820109836131291e+00 2.4440604263979100e+01 1 0 1
3269 1 1.7034669499755504e+00 1.0134947255278895e+01 2.1596254520008895e+01 1 0 0
6300 1 3.7272091432143304e+00 1.1206236649780999e+01 2.4445040368518175e+01 2 -1 1
2057 1 5.6670815271598798e+00 1.0638997836870443e+01 2.2843982460747704e+01 1 0 1
152 1 9.5283661186858275e+00 9.4272895366108056e+00 2.4488234674642520e+01 0 0 0
499 1 9.7942227839254183e+00 1.1345191761640294e+01 2.1309772642725903e+01 0 0 0
3491 1 8.2312827194149509e+00 1.1790072450114787e+01 2.3516484440466400e+01 1 -1 0
552 2 0.0000000000000000e+00 2.8417180249513345e+00 2.6857696811088374e+01 0 0 0
554 2 0.0000000000000000e+00 0.0000000000000000e+00 2.6857696811088374e+01 0 0 0
556 2 1.2305000000000001e+00 7.1042950623783474e-01 2.6857696811088374e+01 0 0 0
563 2 1.2305000000000001e+00 2.1312885187134998e+00 2.6857696811088374e+01 0 0 0
565 2 2.4610000000000003e+00 2.8417180249513345e+00 2.6857696811088374e+01 0 0 0
567 2 2.4610000000000003e+00 0.0000000000000000e+00 2.6857696811088374e+01 0 0 0
569 2 3.6915000000000004e+00 7.1042950623783474e-01 2.6857696811088374e+01 0 0 0
584 2 3.6914999999999996e+00 2.1312885187134998e+00 2.6857696811088374e+01 0 0 0
586 2 4.9220000000000006e+00 2.8417180249513332e+00 2.6857696811088374e+01 0 0 0
588 2 4.9220000000000006e+00 0.0000000000000000e+00 2.6857696811088374e+01 0 0 0
590 2 6.1524999999999999e+00 7.1042950623783407e-01 2.6857696811088374e+01 0 0 0
613 2 6.1524999999999999e+00 2.1312885187134989e+00 2.6857696811088374e+01 0 0 0
615 2 7.3829999999999991e+00 2.8417180249513345e+00 2.6857696811088374e+01 0 0 0
617 2 7.3829999999999991e+00 0.0000000000000000e+00 2.6857696811088374e+01 0 0 0
619 2 8.6134999999999984e+00 7.1042950623783407e-01 2.6857696811088374e+01 0 0 0
650 2 8.6134999999999984e+00 2.1312885187135002e+00 2.6857696811088374e+01 0 0 0
652 2 9.8440000000000012e+00 2.8417180249513332e+00 2.6857696811088374e+01 0 0 0
654 2 9.8440000000000012e+00 0.0000000000000000e+00 2.6857696811088374e+01 0 0 0
656 2 1.1074500000000002e+01 7.1042950623783330e-01 2.6857696811088374e+01 0 0 0
695 2 1.1074500000000002e+01 2.1312885187135002e+00 2.6857696811088374e+01 0 0 0
559 2 0.0000000000000000e+00 4.2625770374269996e+00 2.6857696811088374e+01 0 0 0
561 2 1.2305000000000001e+00 4.9730065436648339e+00 2.6857696811088374e+01 0 0 0
576 2 1.2305000000000001e+00 6.3938655561404980e+00 2.6857696811088374e+01 0 0 0
580 2 2.4610000000000003e+00 4.2625770374269996e+00 2.6857696811088374e+01 0 0 0
582 2 3.6914999999999996e+00 4.9730065436648339e+00 2.6857696811088374e+01 0 0 0
605 2 3.6914999999999996e+00 6.3938655561404980e+00 2.6857696811088374e+01 0 0 0
557 2 0.0000000000000000e+00 7.1042950623783341e+00 2.6857696811088374e+01 0 0 0
578 2 2.4610000000000003e+00 7.1042950623783341e+00 2.6857696811088374e+01 0 0 0
609 2 4.9220000000000006e+00 4.2625770374269978e+00 2.6857696811088374e+01 0 0 0
611 2 6.1524999999999999e+00 4.9730065436648339e+00 2.6857696811088374e+01 0 0 0
642 2 6.1524999999999999e+00 6.3938655561404980e+00 2.6857696811088374e+01 0 0 0
646 2 7.3829999999999991e+00 4.2625770374269996e+00 2.6857696811088374e+01 0 0 0
607 2 4.9220000000000006e+00 7.1042950623783341e+00 2.6857696811088374e+01 0 0 0
644 2 7.3830000000000009e+00 7.1042950623783341e+00 2.6857696811088374e+01 0 0 0
648 2 8.6135000000000002e+00 4.9730065436648339e+00 2.6857696811088374e+01 0 0 0
687 2 8.6135000000000002e+00 6.3938655561404980e+00 2.6857696811088374e+01 0 0 0
691 2 9.8440000000000012e+00 4.2625770374270004e+00 2.6857696811088374e+01 0 0 0
693 2 1.1074500000000002e+01 4.9730065436648339e+00 2.6857696811088374e+01 0 0 0
734 2 1.1074500000000002e+01 6.3938655561404980e+00 2.6857696811088374e+01 0 0 0
689 2 9.8440000000000012e+00 7.1042950623783341e+00 2.6857696811088374e+01 0 0 0
572 2 0.0000000000000000e+00 8.5251540748539991e+00 2.6857696811088374e+01 0 0 0
574 2 1.2305000000000001e+00 9.2355835810918343e+00 2.6857696811088374e+01 0 0 0
601 2 2.4610000000000003e+00 8.5251540748539991e+00 2.6857696811088374e+01 0 0 0
603 2 3.6915000000000004e+00 9.2355835810918343e+00 2.6857696811088374e+01 0 0 0
570 2 0.0000000000000000e+00 1.1366872099805333e+01 2.6857696811088374e+01 0 0 0
597 2 1.2305000000000001e+00 1.0656442593567498e+01 2.6857696811088374e+01 0 0 0
599 2 2.4610000000000003e+00 1.1366872099805333e+01 2.6857696811088374e+01 0 0 0
634 2 3.6914999999999996e+00 1.0656442593567499e+01 2.6857696811088374e+01 0 0 0
638 2 4.9220000000000006e+00 8.5251540748539991e+00 2.6857696811088374e+01 0 0 0
640 2 6.1524999999999999e+00 9.2355835810918343e+00 2.6857696811088374e+01 0 0 0
681 2 7.3829999999999991e+00 1.1366872099805333e+01 2.6857696811088374e+01 0 0 0
679 2 6.1524999999999999e+00 1.0656442593567499e+01 2.6857696811088374e+01 0 0 0
683 2 7.3830000000000009e+00 8.5251540748539991e+00 2.6857696811088374e+01 0 0 0
636 2 4.9220000000000006e+00 1.1366872099805333e+01 2.6857696811088374e+01 0 0 0
3569 1 3.7304086922618718e-01 1.0709229672671772e+00 1.9313426576619662e+01 1 0 0
1602 1 4.5001968244756096e-01 4.8828717038606113e+00 2.4201368416821857e+01 1 1 0
241 1 1.5305740297128434e+00 4.4277162661549561e+00 1.6764078777721508e+01 2 -1 0
553 2 0.0000000000000000e+00 1.4208590124756650e+00 3.0030999999999523e+01 0 0 0
555 2 0.0000000000000000e+00 0.0000000000000000e+00 3.0030999999999523e+01 0 0 0
564 2 1.2305000000000001e+00 2.1312885187134998e+00 3.0030999999999523e+01 0 0 0
566 2 2.4610000000000003e+00 1.4208590124756650e+00 3.0030999999999523e+01 0 0 0
568 2 2.4610000000000003e+00 0.0000000000000000e+00 3.0030999999999523e+01 0 0 0
585 2 3.6914999999999996e+00 2.1312885187134998e+00 3.0030999999999523e+01 0 0 0
562 2 1.2305000000000001e+00 3.5521475311891644e+00 3.0030999999999523e+01 0 0 0
583 2 3.6914999999999996e+00 3.5521475311891644e+00 3.0030999999999523e+01 0 0 0
881 2 0.0000000000000000e+00 2.8417180249513345e+00 3.3204303188910544e+01 0 0 0
882 2 0.0000000000000000e+00 0.0000000000000000e+00 3.3204303188910544e+01 0 0 0
883 2 1.2305000000000001e+00 7.1042950623783474e-01 3.3204303188910544e+01 0 0 0
887 2 1.2305000000000001e+00 2.1312885187134998e+00 3.3204303188910544e+01 0 0 0
888 2 2.4610000000000003e+00 2.8417180249513345e+00 3.3204303188910544e+01 0 0 0
889 2 2.4610000000000003e+00 0.0000000000000000e+00 3.3204303188910544e+01 0 0 0
890 2 3.6915000000000004e+00 7.1042950623783474e-01 3.3204303188910544e+01 0 0 0
898 2 3.6914999999999996e+00 2.1312885187134998e+00 3.3204303188910544e+01 0 0 0
587 2 4.9220000000000006e+00 1.4208590124756650e+00 3.0030999999999523e+01 0 0 0
589 2 4.9220000000000006e+00 0.0000000000000000e+00 3.0030999999999523e+01 0 0 0
614 2 6.1524999999999999e+00 2.1312885187134989e+00 3.0030999999999523e+01 0 0 0
616 2 7.3829999999999991e+00 1.4208590124756659e+00 3.0030999999999523e+01 0 0 0
618 2 7.3829999999999991e+00 0.0000000000000000e+00 3.0030999999999523e+01 0 0 0
612 2 6.1524999999999999e+00 3.5521475311891644e+00 3.0030999999999523e+01 0 0 0
899 2 4.9220000000000006e+00 2.8417180249513332e+00 3.3204303188910544e+01 0 0 0
900 2 4.9220000000000006e+00 0.0000000000000000e+00 3.3204303188910544e+01 0 0 0
901 2 6.1524999999999999e+00 7.1042950623783407e-01 3.3204303188910544e+01 0 0 0
913 2 6.1524999999999999e+00 2.1312885187134989e+00 3.3204303188910544e+01 0 0 0
914 2 7.3829999999999991e+00 2.8417180249513345e+00 3.3204303188910544e+01 0 0 0
915 2 7.3829999999999991e+00 0.0000000000000000e+00 3.3204303188910544e+01 0 0 0
651 2 8.6134999999999984e+00 2.1312885187135002e+00 3.0030999999999523e+01 0 0 0
653 2 9.8440000000000012e+00 1.4208590124756659e+00 3.0030999999999523e+01 0 0 0
655 2 9.8440000000000012e+00 0.0000000000000000e+00 3.0030999999999523e+01 0 0 0
696 2 1.1074500000000002e+01 2.1312885187135002e+00 3.0030999999999523e+01 0 0 0
649 2 8.6134999999999984e+00 3.5521475311891657e+00 3.0030999999999523e+01 0 0 0
694 2 1.1074500000000002e+01 3.5521475311891644e+00 3.0030999999999523e+01 0 0 0
916 2 8.6134999999999984e+00 7.1042950623783407e-01 3.3204303188910544e+01 0 0 0
932 2 8.6134999999999984e+00 2.1312885187135002e+00 3.3204303188910544e+01 0 0 0
933 2 9.8440000000000012e+00 2.8417180249513332e+00 3.3204303188910544e+01 0 0 0
934 2 9.8440000000000012e+00 0.0000000000000000e+00 3.3204303188910544e+01 0 0 0
935 2 1.1074500000000002e+01 7.1042950623783330e-01 3.3204303188910544e+01 0 0 0
955 2 1.1074500000000002e+01 2.1312885187135002e+00 3.3204303188910544e+01 0 0 0
558 2 0.0000000000000000e+00 5.6834360499026637e+00 3.0030999999999523e+01 0 0 0
560 2 0.0000000000000000e+00 4.2625770374269996e+00 3.0030999999999523e+01 0 0 0
577 2 1.2305000000000001e+00 6.3938655561404980e+00 3.0030999999999523e+01 0 0 0
579 2 2.4610000000000003e+00 5.6834360499026637e+00 3.0030999999999523e+01 0 0 0
581 2 2.4610000000000003e+00 4.2625770374269996e+00 3.0030999999999523e+01 0 0 0
606 2 3.6914999999999996e+00 6.3938655561404980e+00 3.0030999999999523e+01 0 0 0
575 2 1.2305000000000001e+00 7.8147245686161639e+00 3.0030999999999523e+01 0 0 0
604 2 3.6914999999999996e+00 7.8147245686161639e+00 3.0030999999999523e+01 0 0 0
885 2 0.0000000000000000e+00 4.2625770374269996e+00 3.3204303188910544e+01 0 0 0
886 2 1.2305000000000001e+00 4.9730065436648339e+00 3.3204303188910544e+01 0 0 0
894 2 1.2305000000000001e+00 6.3938655561404980e+00 3.3204303188910544e+01 0 0 0
896 2 2.4610000000000003e+00 4.2625770374269996e+00 3.3204303188910544e+01 0 0 0
897 2 3.6914999999999996e+00 4.9730065436648339e+00 3.3204303188910544e+01 0 0 0
909 2 3.6914999999999996e+00 6.3938655561404980e+00 3.3204303188910544e+01 0 0 0
884 2 0.0000000000000000e+00 7.1042950623783341e+00 3.3204303188910544e+01 0 0 0
895 2 2.4610000000000003e+00 7.1042950623783341e+00 3.3204303188910544e+01 0 0 0
608 2 4.9220000000000006e+00 5.6834360499026637e+00 3.0030999999999523e+01 0 0 0
610 2 4.9220000000000006e+00 4.2625770374269978e+00 3.0030999999999523e+01 0 0 0
643 2 6.1524999999999999e+00 6.3938655561404980e+00 3.0030999999999523e+01 0 0 0
645 2 7.3829999999999991e+00 5.6834360499026637e+00 3.0030999999999523e+01 0 0 0
647 2 7.3829999999999991e+00 4.2625770374269996e+00 3.0030999999999523e+01 0 0 0
641 2 6.1524999999999999e+00 7.8147245686161639e+00 3.0030999999999523e+01 0 0 0
911 2 4.9220000000000006e+00 4.2625770374269978e+00 3.3204303188910544e+01 0 0 0
912 2 6.1524999999999999e+00 4.9730065436648339e+00 3.3204303188910544e+01 0 0 0
928 2 6.1524999999999999e+00 6.3938655561404980e+00 3.3204303188910544e+01 0 0 0
930 2 7.3829999999999991e+00 4.2625770374269996e+00 3.3204303188910544e+01 0 0 0
910 2 4.9220000000000006e+00 7.1042950623783341e+00 3.3204303188910544e+01 0 0 0
929 2 7.3830000000000009e+00 7.1042950623783341e+00 3.3204303188910544e+01 0 0 0
688 2 8.6135000000000002e+00 6.3938655561404980e+00 3.0030999999999523e+01 0 0 0
690 2 9.8440000000000012e+00 5.6834360499026637e+00 3.0030999999999523e+01 0 0 0
692 2 9.8440000000000012e+00 4.2625770374270004e+00 3.0030999999999523e+01 0 0 0
735 2 1.1074500000000002e+01 6.3938655561404980e+00 3.0030999999999523e+01 0 0 0
686 2 8.6135000000000002e+00 7.8147245686161639e+00 3.0030999999999523e+01 0 0 0
733 2 1.1074500000000002e+01 7.8147245686161639e+00 3.0030999999999523e+01 0 0 0
931 2 8.6135000000000002e+00 4.9730065436648339e+00 3.3204303188910544e+01 0 0 0
951 2 8.6135000000000002e+00 6.3938655561404980e+00 3.3204303188910544e+01 0 0 0
953 2 9.8440000000000012e+00 4.2625770374270004e+00 3.3204303188910544e+01 0 0 0
954 2 1.1074500000000002e+01 4.9730065436648339e+00 3.3204303188910544e+01 0 0 0
975 2 1.1074500000000002e+01 6.3938655561404980e+00 3.3204303188910544e+01 0 0 0
952 2 9.8440000000000012e+00 7.1042950623783341e+00 3.3204303188910544e+01 0 0 0
571 2 0.0000000000000000e+00 9.9460130873296642e+00 3.0030999999999523e+01 0 0 0
573 2 0.0000000000000000e+00 8.5251540748539991e+00 3.0030999999999523e+01 0 0 0
600 2 2.4610000000000003e+00 9.9460130873296642e+00 3.0030999999999523e+01 0 0 0
602 2 2.4610000000000003e+00 8.5251540748539991e+00 3.0030999999999523e+01 0 0 0
596 2 1.2305000000000001e+00 1.2077301606043163e+01 3.0030999999999523e+01 0 0 0
598 2 1.2305000000000001e+00 1.0656442593567498e+01 3.0030999999999523e+01 0 0 0
633 2 3.6914999999999996e+00 1.2077301606043163e+01 3.0030999999999523e+01 0 0 0
635 2 3.6914999999999996e+00 1.0656442593567499e+01 3.0030999999999523e+01 0 0 0
892 2 0.0000000000000000e+00 8.5251540748539991e+00 3.3204303188910544e+01 0 0 0
893 2 1.2305000000000001e+00 9.2355835810918343e+00 3.3204303188910544e+01 0 0 0
907 2 2.4610000000000003e+00 8.5251540748539991e+00 3.3204303188910544e+01 0 0 0
908 2 3.6915000000000004e+00 9.2355835810918343e+00 3.3204303188910544e+01 0 0 0
891 2 0.0000000000000000e+00 1.1366872099805333e+01 3.3204303188910544e+01 0 0 0
905 2 1.2305000000000001e+00 1.0656442593567498e+01 3.3204303188910544e+01 0 0 0
906 2 2.4610000000000003e+00 1.1366872099805333e+01 3.3204303188910544e+01 0 0 0
924 2 3.6914999999999996e+00 1.0656442593567499e+01 3.3204303188910544e+01 0 0 0
637 2 4.9220000000000006e+00 9.9460130873296642e+00 3.0030999999999523e+01 0 0 0
639 2 4.9220000000000006e+00 8.5251540748539991e+00 3.0030999999999523e+01 0 0 0
682 2 7.3830000000000009e+00 9.9460130873296642e+00 3.0030999999999523e+01 0 0 0
684 2 7.3830000000000009e+00 8.5251540748539991e+00 3.0030999999999523e+01 0 0 0
678 2 6.1524999999999999e+00 1.2077301606043163e+01 3.0030999999999523e+01 0 0 0
680 2 6.1524999999999999e+00 1.0656442593567499e+01 3.0030999999999523e+01 0 0 0
926 2 4.9220000000000006e+00 8.5251540748539991e+00 3.3204303188910544e+01 0 0 0
927 2 6.1524999999999999e+00 9.2355835810918343e+00 3.3204303188910544e+01 0 0 0
949 2 7.3830000000000009e+00 8.5251540748539991e+00 3.3204303188910544e+01 0 0 0
925 2 4.9220000000000006e+00 1.1366872099805333e+01 3.3204303188910544e+01 0 0 0
947 2 6.1524999999999999e+00 1.0656442593567499e+01 3.3204303188910544e+01 0 0 0
948 2 7.3829999999999991e+00 1.1366872099805333e+01 3.3204303188910544e+01 0 0 0
729 2 9.8440000000000012e+00 9.9460130873296642e+00 3.0030999999999523e+01 0 0 0
731 2 9.8440000000000012e+00 8.5251540748539956e+00 3.0030999999999523e+01 0 0 0
725 2 8.6135000000000002e+00 1.2077301606043163e+01 3.0030999999999523e+01 0 0 0
727 2 8.6134999999999984e+00 1.0656442593567498e+01 3.0030999999999523e+01 0 0 0
772 2 1.1074500000000002e+01 1.2077301606043163e+01 3.0030999999999523e+01 0 0 0
774 2 1.1074500000000002e+01 1.0656442593567498e+01 3.0030999999999523e+01 0 0 0
950 2 8.6134999999999984e+00 9.2355835810918343e+00 3.3204303188910544e+01 0 0 0
973 2 9.8440000000000012e+00 8.5251540748539956e+00 3.3204303188910544e+01 0 0 0
974 2 1.1074500000000002e+01 9.2355835810918343e+00 3.3204303188910544e+01 0 0 0
971 2 8.6134999999999984e+00 1.0656442593567498e+01 3.3204303188910544e+01 0 0 0
972 2 9.8440000000000012e+00 1.1366872099805333e+01 3.3204303188910544e+01 0 0 0
995 2 1.1074500000000002e+01 1.0656442593567498e+01 3.3204303188910544e+01 0 0 0
996 2 1.2304999999999998e+01 1.1366872099805333e+01 3.3204303188910544e+01 0 0 0
6048 1 9.2647784170960232e+00 1.1887626892352655e+01 4.0396351554915853e+01 0 0 0
5239 1 2.7233638897699652e+00 1.6553516078358790e+00 3.6307646091778508e+01 1 1 -1
1975 1 2.6521249104700231e+00 2.0257193472688328e+00 3.9055808243256024e+01 0 0 0
6019 1 8.0950078574391213e+00 2.5177311607706279e+00 3.5910896494420413e+01 0 2 0
2864 1 4.9397154056967318e+00 1.1057406432237903e+01 3.8157267010146370e+01 0 0 0
4876 1 4.1165669953534367e+00 4.1870904419278236e+00 4.0052139871524389e+01 0 1 -1
1763 1 1.0186408719938211e+01 4.0604854893084710e+00 3.6075118924465031e+01 1 1 -1
3341 1 7.8771566922927736e+00 2.4235119868674366e+00 3.8953739092454214e+01 1 0 -1
3205 1 6.5468435483211076e+00 9.8015011641024374e-01 4.1150750495610012e+01 0 1 0
4535 1 2.5010412195142018e+00 1.1674379778600189e+01 4.0062806657325382e+01 1 0 -1
1629 1 3.2513055374276969e+00 4.7046837724824453e+00 3.5906217820411442e+01 0 1 -1
65 1 6.0479348114029916e+00 4.7877638281544650e+00 3.5892929788062943e+01 0 0 -1
3331 1 7.4863740354080512e+00 7.1998062051324281e+00 3.5513273155924040e+01 0 0 -1
4520 1 7.0540715233985507e+00 1.0279325183652466e+01 3.5325163157054924e+01 1 0 0
3022 1 1.0271994441966150e+01 6.8121692653499100e+00 3.5719289524629247e+01 2 1 0
3209 1 9.9795665129653766e-01 8.6104251766199909e+00 4.3032282142396909e+01 0 1 -1
5983 1 1.0469864891732321e+01 7.4507616652092929e+00 3.8392798353452719e+01 0 1 0
4725 1 9.7427143084878165e-01 1.0285171454513932e+01 3.6005868597708513e+01 0 0 -1
3048 1 3.6550648538076231e+00 9.8137346988330982e+00 3.5829489836470998e+01 0 0 -1
5166 1 8.6213013508306542e+00 4.2784774559070204e-01 4.2688635099295198e+01 -1 1 0
1479 1 1.1013576889523062e-01 2.5296776002829424e+00 3.5525202715777866e+01 0 0 0
4628 1 9.5791523566311394e+00 1.1889495151046329e+01 3.5865173168108299e+01 1 1 0
3407 1 7.1406314555187747e+00 7.4949434665655446e+00 4.2192749292027855e+01 1 0 -1
206 1 4.9844361671902687e-01 6.8507159091290024e+00 4.0981981895243052e+01 0 1 -1
1276 1 6.4309365635028621e+00 5.0573252088461480e+00 3.8659191824043148e+01 1 0 0
2917 1 2.9077263612603482e-01 5.1773550630509595e+00 3.5983345295479040e+01 0 0 0
6084 1 5.1831580507215982e+00 3.1424481936627653e+00 4.2259244570165919e+01 -1 2 0
4538 1 5.1542946075784712e+00 1.1899634853083225e+00 3.5192501323167015e+01 0 1 0
6169 1 9.5846063215625517e+00 4.2344820189199144e+00 4.0771955068559038e+01 -1 1 -1
1573 1 1.0774516281493224e+01 8.3449966949020453e+00 4.2965432972891264e+01 0 1 -1
1595 1 2.8735155203833904e+00 6.6243884106863762e+00 3.9536481041223269e+01 1 -1 -1
514 1 4.1044057346442120e+00 7.3872454814164747e+00 3.6987758638708868e+01 0 0 0
500 1 6.9637759584896868e+00 8.9544103913983690e+00 3.8137190542307323e+01 1 1 0
3012 1 8.0554111567617550e+00 6.9770086427119242e+00 3.9618934468051421e+01 0 0 0
1557 1 7.5038153683595574e+00 4.7179885676154569e+00 4.2752260689497461e+01 0 0 -1
4967 1 1.2127681466035952e+01 5.4360691851714966e+00 3.9714659708130156e+01 -1 1 -1
3593 1 4.2457344709286531e+00 7.9360713849452917e+00 4.1520460593925833e+01 0 1 -1
1506 1 2.9305168405896875e+00 1.0439952374732771e+01 4.2485110794971007e+01 0 0 -1
2072 1 8.5986579918506187e+00 1.0395782918947916e+01 4.2772525887676153e+01 0 0 0
4941 1 9.5406182921534093e+00 1.0264825638073924e+01 3.8143899512471023e+01 1 0 -1
372 1 1.0702020816100777e+01 1.6894097871710658e+00 4.1470987497417440e+01 0 0 0
3352 1 1.8417141905550916e-01 1.0803430784872997e+01 3.8716286357191507e+01 1 2 -1
6038 1 5.6063333067267438e+00 1.2193855915529904e+01 4.1965565709516810e+01 0 0 0
4696 1 9.3974965247433389e+00 5.3805616864505360e-03 3.5823370981341085e+01 0 0 0
6328 1 3.2564935978410032e+00 1.7998380505799862e+00 4.4017833665443405e+01 0 0 0
3440 1 1.0615355234284729e+01 2.5971072404060971e+00 4.8031612212311757e+01 1 2 0
3442 1 3.8140635868280901e+00 2.0519226791090843e+00 5.2946393558272064e+01 0 0 -1
2100 1 2.9836571299335066e+00 3.4152888791770288e+00 4.6211238409834124e+01 1 1 -1
5007 1 7.2885811012444472e+00 9.3291441047745771e-01 5.1341745834666000e+01 1 1 -1
2810 1 1.2079927498860496e+01 9.7320903345420007e+00 4.5167668796207963e+01 0 0 0
4713 1 2.8114857239395069e-01 9.6837527508229404e-01 4.5086088640838383e+01 0 1 -1
1824 1 1.1375996188594564e+00 3.9407116224689838e+00 4.3585863442942497e+01 1 1 -1
6269 1 1.0110709673923852e+01 1.1671619020531638e+01 4.4853257740030614e+01 0 0 0
4690 1 5.2702781244093471e+00 5.1824153562745501e+00 4.6096224005782133e+01 1 0 0
43 1 4.3551566249844269e+00 7.1361071051970884e+00 4.4365969604770129e+01 0 0 -1
3175 1 9.1059974565514334e+00 1.1973001118465147e+01 4.7621073926714146e+01 -1 1 0
4671 1 7.9006949434300537e+00 4.5532735674153058e+00 4.5538591296584144e+01 0 0 0
3235 1 7.1294745789204059e+00 7.6859052370768026e+00 5.5425461732930728e+01 -1 0 -1
4477 1 9.5027746398385364e+00 6.7389670969823845e+00 4.4973075969247517e+01 1 0 0
6012 1 1.0473345288948588e+01 1.1103887005127188e+01 5.5324999978336976e+01 1 0 0
3121 1 1.0615798491553729e+01 3.3444198035775314e+00 5.5708696240000492e+01 0 1 -1
6135 1 1.1887000054438579e+01 2.4443622410741361e+00 4.3928768890461754e+01 -1 0 0
70 1 4.9795840185858253e+00 9.3174676280456943e+00 4.5788337392924589e+01 1 0 0
1639 1 1.2149547122643185e+01 8.7819027628741129e+00 4.7520391933862925e+01 -1 -1 -1
3081 1 7.9387026001728547e+00 9.0725890893566525e+00 4.5611792221659911e+01 1 1 0
190 1 9.6906663995528266e+00 8.2128685075943721e+00 5.4672051204577059e+01 0 0 -1
1238 1 1.2920960376497881e+00 4.2239739814234651e+00 5.6052680027788270e+01 1 2 0
3259 1 1.0664180308043429e+01 6.0335894449958074e+00 5.6518054524690982e+01 0 0 0
1762 1 2.1843073215380038e+00 1.8847445424972284e+00 4.8411479901851934e+01 0 1 -1
2017 1 9.4207487076461387e+00 3.3396210456901920e-01 4.9495560211664952e+01 1 2 -1
1706 1 3.0017123046205212e+00 3.5015762057147470e+00 5.0491687793248147e+01 1 0 0
5089 1 6.2925568131248335e+00 1.9323480828487889e+00 4.8565015031413267e+01 0 0 -1
4767 1 5.5636468831746608e+00 4.0489817454285726e+00 5.0010032179067025e+01 1 1 0
5002 1 1.1977339748358419e+01 5.2924368765459544e+00 4.4283974671883669e+01 0 0 -1
130 1 7.3166974160060487e+00 1.1716898330664353e+01 5.1279356130075143e+01 0 0 0