LAMMPS data file via write_data, version 29 Oct 2020, timestep = 50000

6736 atoms
2 atom types

0.0 49.22 xlo xhi
0.0 49.019635930410494 ylo yhi
0.054895604653790286 60.00710439534578 zlo zhi

Masses

1 18.015
2 12.01

Atoms # atomic

74 1 16.343798390442547 17.212448539330435 23.528533195560755 1 0 0
4447 1 12.7937400638299 13.17132378819791 7.780547113908207 0 0 1
22 1 24.36032528535629 18.14622335945475 1.8919539433901307 0 1 0
2646 1 7.802315682207339 22.708514768954934 20.696336342421773 1 0 1
1802 1 3.8674802346495563 19.887215004914186 3.0471372524526448 1 -1 0
3966 2 4.429496269152135 12.929606182021422 26.766820162498313 0 0 0
1249 1 21.18659863630273 8.058353650825829 3.1976169484351926 0 0 0
284 1 0.4936931123445667 15.885147461929138 11.107568307866046 1 1 0
108 1 21.265460947387094 16.099015081746582 4.497038808241622 0 1 0
5268 1 7.221387873566393 4.730111859437306 3.9215514227854285 2 0 0
4227 1 19.13325017471725 10.409577894825611 4.3242649543359875 0 -1 1
3854 1 15.696164059850064 14.116401315523929 3.64234729174528 2 0 0
3842 1 10.72017695403809 17.71432894130662 3.1009296843515335 1 0 0
333 1 16.316810503707327 20.50925024250174 23.927692857477222 0 0 0
3860 1 0.6115116428150228 12.752056133626104 2.8779385270193645 2 -1 0
441 1 7.555129464596484 18.575608598869746 18.869290814605243 1 1 0
899 1 21.03596663023653 22.726765487437348 8.788092468742036 1 0 1
1973 1 5.865643227129829 19.90745375586732 15.877106756558616 2 -2 0
3384 1 7.878931137860567 21.10303062698775 1.6266710161132563 1 0 0
64 1 10.01429206786463 9.79217973552721 4.450948708913955 1 -1 0
3373 1 10.0696097852119 19.454452658965515 0.2675080965401202 1 0 1
1921 1 14.963898211126736 17.35973372190757 3.077527154819983 -1 0 0
3869 1 11.168665811177659 21.85892574972409 23.9232374494403 0 -1 0
754 1 9.992544420351866 21.669386152317312 5.307570294009983 0 -1 1
3965 2 4.429496269152135 15.771324206958624 26.766820162498313 0 0 0
2489 1 5.186188436191538 15.43236999983096 23.99197384084478 0 0 0
5850 1 24.259042002002584 13.543577211965328 19.347993100964878 1 0 0
6122 1 24.329961225037643 11.520461691378102 1.8356850937261873 1 0 0
5278 1 4.410217971663904 23.639699286500196 0.8453381596417159 1 -1 0
1095 1 0.4935648898006826 1.7738974745750855 0.3068151740242011 1 0 1
6225 1 7.68204417700852 0.30126490501170544 9.167068821703406 2 2 1
5539 1 24.479283303891382 5.53360483655357 11.246185997440618 0 1 0
3790 1 1.8810443591592307 3.951249265758016 19.28918638970272 0 0 0
6305 1 12.187357224034717 14.697332353771946 3.2814822969451622 0 0 0
985 1 9.578576451135117 3.7605139577583677 17.68075558690124 1 0 1
4618 1 6.703572022843906 11.31035240303151 4.68964627023581 0 0 1
977 1 18.352035556727262 9.358043782724776 0.6415322805267724 1 -1 1
125 1 18.39500620022205 9.72475918649297 9.14108537082138 -1 0 1
5162 1 2.4819547398062896 6.159408075279562 4.570211696509163 0 0 0
3616 1 24.134220024484122 1.8038746274790052 3.024473473851636 1 1 0
3715 1 3.264888121684581 1.7247555050486458 10.451307369023 1 1 0
4566 1 22.62649109860008 13.530445020492225 23.616235184658244 1 0 1
1223 1 15.588264736256722 17.20271273445801 0.29943976187872345 1 0 1
4205 1 19.191549091640965 23.172840292715158 2.200202109834882 0 0 1
759 1 10.059026429350363 5.2924314216053565 1.1232934442271296 0 0 1
5480 1 5.4795702119807785 13.827362977021972 6.864875402635218 1 0 0
6004 1 11.276665455312887 7.255187966382151 11.909249481978344 0 0 1
2022 1 0.0729774968784251 8.106928775939686 24.23240584699287 1 0 0
1767 1 0.541825480423508 21.77684542166559 3.1496033796690472 2 -1 0
2752 1 12.994654570164762 22.223487785122988 6.778827874008468 0 -1 0
5111 1 23.733810724182806 22.66930743230451 0.9484005202651429 0 0 1
4414 1 23.931414471413945 23.68796038369995 9.052204126742865 0 0 1
2577 1 17.269498921791456 12.45357311576223 2.1699262613798154 0 1 1
6185 1 6.053220614780947 21.758613134087916 13.358891663348068 1 1 1
5534 1 10.257744347196716 16.095734998431688 7.886485411457343 1 0 0
1001 1 24.162237630853834 3.1201626770567747 17.288493999316458 1 0 1
5939 1 0.7230983669548232 0.5749390230228701 4.359983388200676 0 0 1
3406 1 21.377717286493073 21.62688228417117 1.2811292196850779 1 0 0
113 1 23.4403907526049 19.09509761751697 5.654993322169213 0 0 0
2179 1 21.50902003042895 17.229209706628566 13.509220580561713 -1 -1 0
3481 1 1.3852293350656104 17.463036007736548 3.4180409423915483 0 0 0
3540 1 7.11100058506838 4.601430609994207 19.03093741769379 1 1 1
5994 1 19.625588699200396 12.598056946813292 10.164440152649274 1 -1 1
431 1 16.434357585679834 23.486330542443046 0.5638257076974517 -1 -1 0
1231 1 18.568752520824603 1.6617481382828339 0.49536809240225815 0 -1 0
4346 1 17.949775460749375 4.1239063665408615 2.189348836747698 0 0 1
1911 1 8.57298348581938 23.464968717303783 18.294405502629917 1 0 0
3967 2 5.659996269153307 13.640035688255939 26.766820162498313 0 0 0
3978 2 6.890496269156172 15.771324206958624 26.766820162498313 0 0 0
460 1 5.691789430448669 20.84621956182284 6.320647696731508 0 -1 0
3675 1 8.561263106412186 4.2664462088787 22.023380033202177 1 -1 0
5386 1 22.884509083565494 23.478844152654613 23.65175064506158 1 1 0
3533 1 1.1935807211810616 4.365076821353677 10.761067775082646 1 0 0
5201 1 23.184455760826054 2.721368955320515 13.130851825638993 1 0 0
3624 1 20.03169630169702 12.640047756331963 2.288208465661078 1 -1 0
40 1 18.229272385885672 19.17993403192922 3.5716507904263644 2 0 1
1823 1 11.222634008085391 15.946832450819546 10.302678425389416 0 0 0
1798 1 21.390245924292547 1.091850985442513 11.362573437998886 0 1 0
46 1 1.796151660446508 18.80219137764839 9.942330886715778 1 0 0
5134 1 15.231550929635988 10.343033652330515 5.615253361081437 0 -1 0
164 1 11.454903404522383 7.611500404999696 3.0864162621009767 2 0 0
3921 2 1.9684962691473409 12.929606182021422 26.766820162498313 0 0 0
4511 1 6.347928063198843 6.868598003873245 13.9361175396645 1 2 1
1974 1 3.3405489860798414 20.92281382966916 16.1344123406845 1 -1 0
1939 1 9.073004964730023 12.189383581661813 4.998040904213477 1 0 0
159 1 6.0700811452510886 6.9262235634641565 8.95009883128553 1 -1 0
5571 1 8.651937143499513 7.505021877517044 5.353887362607875 1 1 0
811 1 12.528194674223808 24.192402208347225 22.880550200635465 -1 -1 0
5804 1 19.623237346844984 22.437507492556204 23.76988005817175 2 0 1
256 1 15.04049699426227 23.275052472874204 22.69893442864769 0 0 0
2718 1 2.396131554199742 9.289298656015845 1.6181421524398436 1 0 1
1979 1 21.681917294156907 10.760533307828267 10.322629310286993 -1 1 0
5232 1 6.853932011879578 13.838268908579623 10.313198688120892 2 0 1
1185 1 0.6050167001176754 6.222141428087173 6.599010601360353 0 0 0
5551 1 3.2899445459698953 8.844673413768989 8.097983266434147 2 1 0
5108 1 2.6000555046988416 23.7032743967419 3.426660654427133 1 -1 1
5830 1 8.61967039359539 18.43852254524157 8.247612161412512 0 0 1
5180 1 12.568004775942422 4.687994790964896 2.693642286254264 1 1 0
1870 1 12.655023114362741 6.198335266172286 5.543638172632417 1 0 0
2019 1 13.210851634643806 14.217815037965652 10.557704215510556 -1 2 0
4332 1 17.85005032616283 7.686912674294869 3.6164278248280772 1 0 1
3543 1 15.066211341726286 7.976385881226035 10.183154816703578 0 1 1
1898 1 5.818538449720108 17.913054362148124 3.2366021513056924 2 0 0
1042 1 17.820480626476684 22.074438899254055 5.652325981802269 0 1 1
4381 1 15.10112836491232 7.273935617771011 12.581598182152433 1 1 1
1237 1 2.7973502665132695 16.022954108149 13.482195850320958 0 2 1
1816 1 8.359289586721571 8.256285520976691 12.433095814683668 0 0 0
5213 1 13.621204949840052 21.27372451217846 9.6890629461289 1 -1 0
924 1 6.025968144726747 11.340218668559684 8.266939278936926 0 0 1
5717 2 5.659996269153307 0.14187506956105086 26.766820162498313 0 1 0
2653 1 6.738592031706154 15.054660426230921 2.9134146162976555 1 0 1
3374 1 14.900280437434413 15.956186610637456 9.320908346720366 0 0 0
4578 1 21.152171055552174 2.770571960992579 6.953451722293342 0 0 1
4253 1 3.7162427133854044 21.90193874932019 5.1622895378452185 1 0 1
1998 1 16.722088506229777 11.810796928713192 10.657879207549684 0 1 1
5967 1 9.655492239363753 13.295588068231462 7.398224814506126 0 1 1
327 1 22.333417696417907 10.469233005545531 14.780121243279108 0 1 0
3484 1 18.745854573844024 17.783168406249082 7.259874873181395 1 -1 0
978 1 23.315158544790833 13.345108845734833 5.368048878482596 0 2 1
6124 1 15.446598649074435 10.237506557317744 2.0442024694633205 1 2 1
6008 1 3.0531713744057165 21.746720164055745 9.730396979314298 1 1 1
5147 1 2.142335631547709 1.410243118811577 20.36284544037492 0 1 0
5567 1 6.021347332710028 17.303680821550532 13.915537146013513 0 1 0
2847 1 7.786307637950916 23.648115343193297 2.879328784408932 1 1 1
5739 2 8.120996269159217 0.14187506956105086 26.766820162498313 0 1 0
6196 1 16.339494257878023 15.035062262233426 7.405084455243033 -1 1 1
4218 1 21.484280109244327 11.891446016508745 7.751860031567724 0 1 0
1933 1 9.478180810392413 14.171501413581563 3.2966426723433644 1 0 0
2134 1 5.185673881136714 0.6798595690991599 23.344376677306926 1 1 0
3395 1 22.99853971516666 7.3810768929504365 5.3212505993826955 1 0 1
1172 1 3.443592934789142 17.785322819905243 7.263694687387153 1 -1 1
6281 1 19.97718547495158 4.100137509433657 23.955856353446126 0 0 1
737 1 2.2024786749238 12.753751201288662 6.2499493345623325 0 1 0
3370 1 8.299606373183535 15.377565910881081 20.11190441723488 0 0 1
5347 1 6.9994799827081335 22.95719414642971 5.807325514335679 1 1 0
4601 1 20.912203519876552 9.587430046414175 0.7518356809795202 1 0 1
2656 1 7.795655595500286 19.973355950794797 12.265941034904275 0 -1 0
443 1 18.03904271741048 23.141819178552343 8.474984906856198 1 0 0
3368 1 13.747662333763778 19.444443989867413 5.030325364529631 -1 0 0
3868 1 3.932783838000819 16.255925930303697 5.171412423424909 0 0 0
5364 1 24.440119068147627 7.197683154964577 22.85702124017232 1 1 0
3904 2 0.7379962691417858 13.640035688255939 26.766820162498313 0 0 0
268 1 24.031093926034206 22.5985430764222 5.691815905678591 0 0 0
5442 1 18.842025508751014 14.866189704152 8.321482500600496 1 0 0
1238 1 8.678880229121063 23.289203749443228 8.110454159203599 1 0 0
2768 1 17.80104404438866 7.6421937863296945 6.314272373754503 -1 0 1
4149 1 5.132487387035237 18.281562465046814 17.735836328154416 1 0 1
3600 1 8.832165480070636 0.032010827820045905 13.970820419479557 1 0 0
5854 1 6.555060350754612 22.81681200658191 9.979095902232975 0 1 0
5143 1 22.980400621222632 0.7414282952280288 6.364592571229801 0 1 0
5157 1 14.671127747152376 24.066309622913607 15.520839093624058 0 0 0
5761 2 10.581996269166655 0.14187506956105086 26.766820162498313 0 1 0
3826 1 3.885258965670631 3.8644334780521836 16.363797036659797 2 1 0
1140 1 3.1726382269411784 21.92924634444687 13.386170999104413 1 1 0
1811 1 2.8803548585719922 21.45090654294734 19.054869519425107 1 0 0
395 1 4.172802753531919 15.842911521763313 16.956930392342812 2 1 0
6222 1 1.52777825297956 16.319246428506375 18.435303098641704 1 0 1
1909 1 20.980080865152843 21.82476171163916 6.219619953539091 0 0 0
2003 1 20.162459282079382 19.011289192001996 5.189196673262152 1 0 0
2482 1 17.033979804769285 21.277494076588674 2.9341486798258045 0 0 1
286 1 9.771024806460794 11.088253482008868 1.313011169975426 1 0 0
4535 1 22.819009655223965 3.6757523395814857 22.93244979935111 2 1 1
1747 1 16.550182894671263 20.50707121167221 17.36400975127554 0 0 1
4327 1 15.982495991644196 19.548125251363018 12.205767109856994 0 0 1
5423 1 5.24158422489453 7.64818193449847 11.403342813704915 1 0 0
833 1 22.674910354296095 2.801153049180836 9.42230620557433 0 -1 1
6061 1 10.63860107266382 21.47533447001852 10.032850305540068 0 0 1
469 1 24.55103508769307 11.654902164895937 23.8942774598697 1 -1 0
3519 1 14.594822103076522 7.817791451176263 7.045423942890419 1 0 0
5246 1 11.38644205208283 19.050909794575297 23.456768036962906 1 0 0
5292 1 15.795278610002859 5.369156991354183 3.4900050320563882 2 1 1
4452 1 15.847199698249828 19.689227154843813 6.587705282072788 0 -1 1
6006 1 22.779043076968595 9.589495990362654 23.889466323531884 0 1 1
5459 1 0.9658671469866414 4.580927837415054 16.7439269946471 1 0 0
6245 1 3.6101574825644622 10.807327715989365 9.584383664873712 1 2 1
1217 1 12.796126732952668 6.074124590929647 9.890829445983208 0 3 1
3731 1 0.36913608467817377 8.430463420430295 3.504987901081919 1 1 1
4581 1 18.30335251762519 1.7666926190348458 8.331264176130476 1 0 1
5326 1 23.971326870548406 16.361410151041323 24.01851944578704 1 1 0
1727 1 14.040443566418167 10.569386102504232 9.943145910579295 0 -1 0
3995 2 9.351496269162638 15.771324206958624 26.766820162498313 0 0 0
5348 1 10.988761707688289 9.88097447507462 11.4326698565665 0 0 0
573 2 24.117496269187974 21.45476025683306 26.766820162498313 -1 0 0
2470 1 16.09456224471399 10.774956881297609 13.158502393488584 0 0 1
757 1 16.511284414579183 3.7539452558147297 9.772470250554587 0 1 1
90 1 0.9136288724229649 1.4251794435996823 16.457891876502977 0 0 1
5212 1 12.775404254754271 11.865640075551466 12.057252472150065 0 0 0
2479 1 16.71870447969095 17.722974047363405 16.39515045028705 1 0 0
506 1 22.165231715918885 20.428153940382128 14.93361122496613 1 0 0
184 1 23.916385870683943 4.881561545932705 2.1371341138948425 1 0 0
2038 1 19.577081400682307 5.382011774339531 7.24962910267957 2 1 0
1175 1 7.585759604938901 9.560504015569505 2.5773956976711885 0 0 1
1066 1 2.1124016651783766 4.2598503094741815 13.435426488686074 0 0 1
888 1 2.0730577895323425 14.886498601600897 3.652391729805183 1 1 1
2911 1 11.421224638788429 2.301662837458598 7.453458677346122 1 1 0
6037 1 10.178895380083713 21.917103628460726 12.663924867256787 1 1 1
4603 1 7.835391333413951 9.363411049887082 9.698711604205684 1 0 1
6297 1 8.404978149178278 16.51184018794208 16.819295847735756 1 1 0
5312 1 17.342762184983528 6.81648888443473 9.539310664155728 1 1 1
3482 1 17.720067269734315 17.99925447337124 10.106347119345237 1 0 1
4574 1 20.269939564695346 14.194159288400702 12.030982367909042 3 0 0
331 1 23.201725061198623 11.989622952002998 12.68661530638255 1 -1 0
549 2 21.65649626919752 24.296478281769332 26.766820162498313 -1 0 0
2427 1 14.370921565630988 23.31137502125707 20.086633172788158 1 0 1
2776 1 20.10149884401448 9.40816504877351 6.721948829818884 -1 1 1
1982 1 14.431549177806332 6.45523424612904 17.53638589391087 0 1 0
5820 1 11.418824300096654 18.192611327418785 12.864537029523783 1 -1 1
952 1 11.67013927391315 17.667690730562022 5.725296334262178 1 0 1
345 1 13.527440795277775 17.778823404772144 15.301775747620825 -1 0 0
5934 1 5.671543304282456 11.567676472332714 11.701265227811456 1 0 1
6194 1 11.679055090891033 18.267668230120353 18.307518679899065 2 1 1
57 1 10.649463696176554 20.082596616490616 7.444944722349239 1 0 1
4576 1 14.192642395457408 2.1897767362785703 2.590485375734849 1 2 0
4315 1 19.196642647141626 16.48051358130537 14.813891725236724 0 0 1
4325 1 16.24235319281437 20.877997188094312 8.858962896104313 1 0 1
4509 1 13.542261510007751 15.210550574193764 5.8221813928896555 1 -1 0
4136 1 16.181744900162343 12.380034883372769 22.227848081864334 0 0 1
4139 1 23.12370972836087 18.18774933460645 11.266412735130007 1 0 0
4489 1 1.6742558891239847 10.706069897798233 17.656138553458803 1 0 1
2925 1 21.762541134813244 21.921090892665347 12.754592294254461 -1 -1 1
1860 1 14.159046215568972 13.149358508480185 15.672977237952143 1 1 0
5795 2 15.503996269184162 0.14187506956105086 26.766820162498313 0 1 0
6228 1 1.8695118788972431 9.886949808763735 5.837734641773838 2 1 1
350 1 8.93913320403507 13.357144431654822 18.17808753636097 0 -1 0
5076 1 12.050251267696076 0.18462647700885626 11.870414309814716 0 0 1
3795 1 5.920622641345239 19.782570243915025 9.584428489821201 0 0 0
4240 1 10.776909097303896 10.95747989679703 17.74217024829028 1 0 1
4455 1 16.83285352606367 10.923082984514274 16.373536892584013 -1 -1 1
58 1 4.1321703875507865 14.741221618925099 10.849582552228362 -1 0 1
2599 1 13.166496031450073 18.651566058286036 8.605398261418381 1 1 1
5581 1 15.743162466544671 12.242713329123973 7.8158136268917895 0 -1 0
3630 1 4.2389585862246975 23.731322091911903 17.178901275385776 2 0 0
2691 1 17.651612079097315 21.29389746259521 13.113288514389069 -1 -1 1
6111 1 2.1934889967223477 24.166267429753184 11.794310977462416 1 -1 1
3727 1 2.4308289407428383 13.029324486390752 9.237016256085022 1 0 0
3754 1 8.147955251457104 20.161075696331825 21.283534354571973 1 0 0
1240 1 3.417779513421559 8.20841759239965 19.331653311570363 1 2 1
429 1 10.236342122433754 11.023865075980217 9.153131214755179 0 0 0
6022 1 4.109616695490949 8.723985332289471 4.648976648537827 0 0 1
81 1 7.154318473137105 15.755226310098825 7.982750099755607 0 -1 0
3688 1 8.708659351858113 17.680321009861622 13.93781444756287 2 0 1
5437 1 21.92261405178076 4.899881861985412 11.570788073390872 1 1 0
6159 1 14.321036012024337 21.579955633428675 16.14055321608619 0 0 1
4550 1 0.7237814654725253 18.309574411855024 5.895899443952774 1 2 1
2543 1 21.20180640088185 3.7738684634637814 17.67072085948785 0 0 1
5577 1 22.868976086468514 20.69612963869009 10.113204004427853 1 1 0
419 1 17.211300098007957 15.694152908263469 18.423462558300585 2 0 0
4182 1 4.018921386258628 5.080108636090247 22.485827349956594 1 2 1
1849 1 22.50260022013798 11.295713701754282 3.7922227946551033 1 0 0
2751 1 9.669634306088161 19.762261634682023 16.676156561628094 0 -1 1
3724 1 5.943754319885402 8.859399760127781 18.805116874042945 2 2 1
1862 1 16.304766137125867 5.083302753682747 7.057202228228658 0 0 0
4288 1 23.21428877930719 12.935349894686718 16.67718211390433 1 1 1
868 1 11.516489381546455 2.6626069720101833 19.400171308097818 1 1 1
4254 1 24.281451278433238 0.4977996543072164 9.323060738335604 1 0 1
4314 1 9.89417513406498 7.89192829567986 7.87339854010778 -1 1 1
6147 1 7.122258847087239 4.059448841935892 13.594327399673375 1 1 0
1858 1 20.55566962857874 19.767861860542634 18.10606614663316 1 0 0
2138 1 22.36266793818229 7.659615332262337 13.56224990321374 0 1 0
3996 2 9.351496269162638 12.929606182021422 26.766820162498313 0 0 0
2891 1 20.082234588035078 15.043218246347202 17.537852271946434 1 1 1
1122 1 6.262791466229217 14.663356848343758 16.142926850851957 0 0 1
1749 1 24.34228860477417 23.97841112183675 13.605022514032989 0 1 1
2814 1 4.988384904032387 1.0151312262807553 16.017384026918002 1 1 1
2211 1 8.13137188134114 4.911167626054148 9.029310780918784 1 1 0
5949 1 16.296601570696623 0.2935631189045636 1.2920482124656063 1 1 1
480 1 5.543196533598282 5.940314460529731 17.11187867763647 0 0 0
2099 1 9.614101190479056 4.320046653033963 14.15489490234136 1 0 0
3619 1 3.949749804352276 3.4845506690040318 2.612215538470181 0 1 0
53 1 16.114053032707396 13.464845334016236 13.798593538088344 1 1 0
5473 1 22.992037377193746 5.136533874966091 7.030693761411577 0 1 0
2905 1 20.18887832414115 8.147902790695142 11.469763787074212 1 1 1
274 1 22.137836961479152 20.266406548086305 20.692425204912826 0 0 1
5222 1 14.016799787909386 0.41605294920172375 9.67019958371618 2 0 0
2882 1 12.972703373805805 19.276902334670037 1.9136064119597667 -1 -2 1
883 1 22.21969985542023 14.789229960738329 1.96938632441147 1 0 1
5323 1 7.337857220431576 10.66240615597843 13.238957371967608 1 -1 0
2576 1 21.476278397922552 1.8114659591343676 15.561875421716955 0 1 1
2713 1 9.681350218778546 4.076901766774181 11.266942189377502 1 1 1
2485 1 7.245712472472374 11.242279974310046 19.63477030279002 1 0 1
2062 1 16.53331572011603 13.129857211557596 19.719267368263424 1 0 0
2801 1 11.498164276790574 4.377522116445668 21.909617332275914 0 0 0
130 1 4.8193920486472965 4.291673375019265 10.438336432329233 0 -1 1
3435 1 10.185132065609551 6.928083881807379 14.672574838075823 0 1 0
2890 1 13.591045771656614 3.4902986300302086 8.713718184734256 0 1 1
238 1 5.541339691590096 14.760726757245607 20.16103852890914 1 0 1
5853 1 4.594316507038632 8.604304772822232 15.09990082896213 1 0 0
6003 1 20.002611510922144 2.1445590653165505 21.111920285125475 0 -1 1
3721 1 13.865909797678704 9.815130136253542 14.339090382130829 2 -1 0
5360 1 17.848026282919484 6.266989021271748 17.908683183356775 1 -1 0
4335 1 14.186131982591917 3.5687447164089843 5.658395651295924 0 0 1
3979 2 6.890496269156172 12.929606182021422 26.766820162498313 0 0 0
282 1 19.356839207679002 1.0111165305631022 13.372103359320699 1 0 0
127 1 5.091256377834392 12.967135059698423 23.057038700595683 0 -1 0
1203 1 2.203182429907231 10.823274540726523 20.730009437768878 1 0 0
5363 1 2.7050330864815284 9.02730948648728 11.694655445049534 2 0 0
2011 1 14.344710175253844 16.934969679132138 18.679805336585503 0 -1 0
5381 1 7.5768225894543475 12.199528146372904 15.718759209785398 1 0 1
6212 1 9.416479280164726 13.936245184912607 10.66253669029797 1 1 1
139 1 14.807802845686908 20.113690692265287 19.748378472432098 0 1 0
2430 1 10.909832334235414 13.870479819024174 20.87922974803604 1 -1 1
5803 1 19.822598117917543 19.802804631230387 12.345181149714552 1 0 1
3805 1 20.052969596369714 16.55424697315154 10.456307063448566 0 0 1
397 1 22.88598350136113 17.016587834345135 17.8295118831407 1 -1 0
2475 1 18.76886709195066 13.563526466254645 14.451231126725832 -1 0 1
756 1 3.4023878165828187 20.291733478767384 0.3057073231452687 0 0 1
1029 1 9.834476021754888 12.287676045860286 13.17967515446403 0 0 1
4402 1 8.065561044077466 21.65081935623109 16.497804384816735 1 1 1
1763 1 0.44349667805779847 19.33724363060526 21.33621019438885 2 0 0
80 1 24.493287457029524 20.82625105396486 19.65121886812078 1 0 1
423 1 3.4592657876131203 18.598772225510157 19.46580133293004 0 1 0
38 1 13.186389020814621 19.950349741649163 11.790278348681294 1 0 0
313 1 11.388699830342883 15.499934797203709 18.215362199597966 1 1 0
3516 1 19.08086829125033 20.374140184443725 15.6746579487041 1 1 0
1125 1 20.468175954821785 22.987426646900833 19.248152335265306 1 0 0
4158 1 21.4806107371618 18.676633442291216 8.192679182956027 0 0 1
180 1 6.185123811076095 8.75388704372735 6.403557228650802 1 1 0
4567 1 12.017224893291825 3.2120240704491656 13.199957603494905 0 0 1
5451 1 1.4463355637453428 4.556985590565222 2.119017487453591 0 1 0
348 1 10.77346333273382 5.236203110136705 7.452254545652335 0 0 0
3937 2 3.198996269152585 15.060894700724411 26.766820162498313 0 0 0
1972 1 2.6808870868859525 22.10534835210979 22.663913457841716 2 0 0
2527 1 19.37129487683342 1.1841357286801506 17.794576466341876 -1 -1 1
1166 1 3.461925710206257 15.582098407335678 1.29858657128559 0 0 1
502 1 22.93855335931318 19.959109472353692 3.4177454978550683 1 1 0
1109 1 17.258162063303196 16.67611441904665 5.097947981439593 0 0 1
190 1 19.394530281870438 18.25579890886336 20.30949113772748 1 0 1
5780 2 13.042996269176042 0.14187506956105086 26.766820162498313 0 1 0
1881 1 18.369921236123783 20.31003101656769 22.105476546419755 0 0 0
357 1 21.552055043787437 15.17130611293126 6.890020512659299 0 -1 0
2273 2 22.88699626919064 0.14187506956105086 26.766820162498313 -1 1 0
3579 1 7.162777996675698 6.879781697071153 20.832619353749728 1 1 0
912 1 1.6518925856325442 11.396308720867326 0.7322519872850967 0 0 1
3534 1 6.735134252856245 18.182472877154968 6.270670008009097 1 0 1
5411 1 4.681857195743762 17.12255454567372 21.716086228315962 -1 1 0
358 1 19.480785049970468 5.47224835009833 12.894973299455467 0 1 0
6044 1 6.018930140874191 7.2739331836709145 23.574905059440834 0 1 1
1148 1 1.4612512884593498 10.58007828474386 13.947770008880916 1 0 1
5574 2 17.96499626919855 0.14187506956105086 26.766820162498313 0 1 0
548 2 20.425996269213037 23.586048775534312 26.766820162498313 -1 0 0
2067 1 15.280830026056375 1.9934107814131143 11.81298268847567 1 0 0
6167 1 15.476400147130372 4.0573215632518975 15.126390778827462 2 2 1
223 1 19.134939409017132 6.39337882841198 0.9284151549319105 2 -1 0
4220 1 18.75666911941939 15.599563301816538 3.2521067937489825 -1 1 1
3997 2 10.581996269166655 13.640035688255939 26.766820162498313 0 0 0
5978 1 24.600411088287498 8.233590646333358 16.609568053141498 2 1 1
1716 1 24.065667757328196 14.42368636547211 9.922937360361217 0 0 1
97 1 18.237662670385728 1.6167939885980245 24.016116876035408 1 0 1
3851 1 3.6867705336915755 5.884195949775223 19.660689457612566 1 1 0
1966 1 7.9911854401780635 6.132180323092635 24.352421415672588 1 -1 0
2771 1 9.36722949140681 6.583747780637001 17.67322224837689 1 1 1
1065 1 22.615000416589353 20.751113661940984 23.316477910761737 0 -1 1
5271 1 9.379389786997804 8.448254490209958 23.104856255166105 0 0 0
5122 1 21.700296637084666 4.385610581940566 20.72395458894019 1 1 0
3559 1 13.524131355363082 10.875534985941952 17.041685683434174 0 0 0
4435 1 14.2794680410784 9.567855937830545 24.425652839445974 1 2 0
3748 1 11.58516011793834 6.517748786196981 23.45914079697806 1 -1 0
2132 1 11.087141294965496 23.673216356428327 18.552177134656255 2 1 0
4266 1 0.13156213863484506 8.527223583872056 7.746095728640842 1 2 1
2574 1 12.140532624774513 24.46588326841594 1.6112836035297775 2 1 0
1863 1 14.266446152929793 7.444391747478839 22.783659438059203 1 1 0
3920 2 1.9684962691473409 15.771324206958624 26.766820162498313 0 0 0
5560 1 17.70002956434359 3.001567227661861 13.395947884398765 -1 1 0
5140 1 8.605913470968485 9.465844891323975 17.213106644226073 2 0 0
3757 1 11.431227072114677 23.801045642991845 15.57084703154067 0 0 0
2533 1 15.207017408192346 1.8523365204518067 21.290913797351305 1 1 1
1932 1 16.925472647010047 8.460093795254506 20.519304746063266 1 1 0
5867 1 0.14922617456649823 20.263764266525065 0.558243573428925 1 1 1
407 1 1.0373282053608992 7.864049982654573 17.280678418210524 0 1 0
3556 1 14.479737604632229 8.879006910768595 18.396907516459073 1 1 0
4528 1 12.831445028929966 8.961795011221964 20.751694171977487 1 0 1
4271 1 16.400015375186392 5.583080971604488 20.905823879044004 1 -1 1
5538 1 20.682100880021984 6.337283965158195 15.532978574151011 0 0 0
3574 1 14.439600490339155 5.8731860588888445 1.1754301778982477 1 0 0
1875 1 17.838850373680206 8.108429580073826 13.687919141244185 1 1 0
4174 1 13.078362036948219 7.173015177228324 15.026294391347808 1 -1 1
16 1 19.86401870109766 9.089676444891742 15.747747655933885 0 1 0
6130 1 7.718342412091488 23.97401324242275 23.901559698944258 1 0 0
2251 2 20.425996269213037 0.14187506956105086 26.766820162498313 -1 1 0
2765 1 0.9470963199379909 21.441011047582705 24.71272615704197 0 1 1
6078 1 10.425308569767525 14.374036230266105 24.389078582536598 1 1 1
5530 1 4.649233815590509 18.31455491126518 12.01779182254346 2 1 0
1753 1 9.989334546586125 10.8532932545026 20.861645251657247 2 1 0
1755 1 10.684021834606904 7.430468062132443 20.18854027467523 1 0 0
2050 1 14.181996343086784 4.698967050169011 11.975445433436839 2 1 0
6193 1 14.037586829286488 13.707568365666903 18.608509606190562 1 0 0
871 1 17.542405533110298 14.107199297087009 23.795622521587966 0 0 1
5436 1 16.03453435337799 15.53972403565616 11.596378651732236 0 0 0
3720 1 8.735509962334515 18.61315052161338 24.273454006026885 2 -1 0
436 1 23.350881829796737 15.263003430975745 15.456277881450838 0 0 0
779 1 0.5773086717558497 22.82564404233295 15.528737611952897 0 0 1
2904 1 16.332578312318535 8.323305653145347 15.77104602357129 0 1 1
399 1 18.295830956940208 11.574303435406218 18.49953822985578 0 0 0
5387 1 0.6325630646189244 21.99536769315903 20.468135131408424 2 -1 0
4016 2 11.812496269171525 15.771324206958624 26.766820162498313 0 0 0
1070 1 11.656939799688129 20.587901452476075 14.65084956440513 2 0 1
6074 1 5.295990263452492 11.255689868705021 16.48421292125786 -1 1 1
5890 1 10.670969038636382 19.3905026011517 20.65170484777851 2 1 1
7 1 9.821539726480037 15.137799117384352 13.655681343215496 1 -1 1
3597 1 8.691782544918114 3.355905742993076 6.015927825990552 0 2 1
5233 1 15.720048448775827 17.27086742114068 13.785428313349826 1 0 0
337 1 12.329547498566258 15.46764604870665 15.234131870930291 1 -1 0
384 1 22.29714712981331 22.662596030837125 16.35249417051901 1 -1 0
2703 1 16.6570330476122 9.828747281219187 23.21620806042979 -1 0 1
277 1 22.57349127281072 17.134532462202657 20.72639895262812 0 0 0
2508 1 21.79934683745579 14.4870655297821 19.681190466563418 0 1 1
4617 1 4.7170583621477675 4.054894793706924 4.942987230880204 1 0 1
5123 1 22.65392357941884 6.760430963817631 17.793679676707246 2 2 0
1867 1 22.06274194926668 8.483528224140217 8.033114314799523 1 -1 0
2731 1 8.547172314839843 17.06857527897014 0.8971893646060853 1 0 0
462 1 0.5123881534345227 11.573230334221664 24.354133091770205 2 0 0
3672 1 0.17190657612566348 10.903960088906071 10.143705294340455 2 -1 0
332 1 1.7592713586354902 19.93892683691058 12.756323219750634 1 0 0
3664 1 5.233929860416105 23.01608777300317 20.503224615248847 -1 0 0
994 1 20.001045681107737 18.71912686895104 24.013730673824227 1 -1 0
862 1 19.900754334539943 12.677786425746126 24.10012446091314 1 0 1
3532 1 6.756861684875457 2.095780529195475 11.156022642895849 1 1 0
2101 1 16.783901692793506 1.9078575322988554 5.9174451743476695 1 0 0
4592 1 19.965511134567866 7.938267723738518 18.791590674513916 0 0 0
5125 1 2.2139279603125934 1.7122005492647665 6.732590915390406 1 0 0
3562 1 5.59899988792667 21.92952750684309 22.997463097853018 1 -1 0
5438 1 14.711183065646049 4.128163140119004 19.383123285728075 -1 -1 0
3605 1 3.431945862716509 13.131391798484996 13.329002167530657 1 0 0
6306 1 10.256446086395583 1.210690369282222 9.784987513843827 2 1 1
2511 1 13.304579389806714 21.967410273135417 3.2659327731306678 0 -1 1
5930 1 9.188729604216032 1.9083847773785148 20.99198373393324 0 -1 0
3994 2 8.120996269159217 15.060894700724411 26.766820162498313 0 0 0
207 1 1.0494248908719621 13.434544428420836 12.486281272012711 1 1 0
3817 1 7.478902157841051 12.63766141826993 0.5729593645702591 0 -1 0
2566 1 4.831669640150442 12.113332517044658 0.5701243947900763 1 1 1
1157 1 1.9516062782188004 18.18067560189897 15.116159138378652 1 1 0
3376 1 5.406299090204723 2.8588821144173093 21.530257908382534 1 0 0
1891 1 24.059509838884445 5.986119141878687 19.824377942958158 1 1 1