LAMMPS data file via write_data, version 29 Oct 2020, timestep = 50000

6736 atoms
2 atom types

0.0 49.22 xlo xhi
0.0 49.019635930410494 ylo yhi
-0.03986673756308434 60.101866737562695 zlo zhi

Masses

1 18.015
2 12.01

Atoms # atomic

265 1 9.379562132283853 1.80158979242691 15.20153550177098 0 0 0
2470 1 8.158623352707714 0.13325492668761998 19.17768255255135 0 1 1
1835 1 4.4008596281914265 13.429359930559858 6.59030689516347 0 -1 0
1025 1 1.8068409749021677 8.572317613659235 9.267671571897093 1 0 1
322 1 6.583011440803632 9.643530317227256 7.54304178377724 0 0 0
5824 1 17.062823084966492 11.589134834845831 1.2815222932068122 1 2 0
4607 1 24.28336673993261 13.496893836861224 6.954206717908213 0 0 1
2904 1 7.889678477523025 14.97252144592239 0.49617724947524844 0 0 1
5251 1 18.992753806808917 4.397404953647777 7.026189706959367 0 1 0
4468 1 22.081528438042373 15.062535708397618 7.0912435669091005 1 0 1
2852 1 1.807243061770852 0.5294115259246038 9.209985927602414 -1 1 1
4485 1 0.38828752836970765 14.467240313356884 4.850961064889521 1 0 1
124 1 17.598282591873264 8.82764452307865 2.3897065671023787 -2 -1 0
5238 1 22.713162164094165 4.610571103000474 12.66999670126913 0 1 0
4336 1 5.019905921819442 2.790322204268391 1.8266324955904278 -1 0 1
4494 1 1.554187800038773 19.100596209859173 7.251176946009046 -1 0 1
3417 1 15.711093747049853 5.802482397543301 3.1848823701502638 1 0 0
3680 1 2.8728608292880247 1.803572307030404 23.139800955941695 1 1 0
3525 1 21.918920447391223 24.09538544357861 15.831666534892774 -2 1 0
3396 1 6.466304260369602 21.863431906321026 13.694310480728943 0 1 1
2103 1 9.974914473973339 17.52576164062394 24.02548439102609 0 0 0
3483 1 18.820873350578683 2.5009712678537976 4.992736391211986 0 0 0
3394 1 13.145340990957864 1.1460269647559487 13.211537323495081 1 -1 0
4318 1 17.44733929358154 6.206821379139867 5.136598394778969 1 0 1
1028 1 3.485155843000509 3.4035163817093212 5.137138533938459 0 0 1
768 1 16.778557167542004 6.588728001277755 7.886705618772243 0 0 1
6049 1 5.269142705374106 14.135476444037318 8.984450049572912 1 1 1
332 1 2.688285914433611 13.016069814211841 0.8704527787379015 1 0 0
5810 1 9.10483408003476 8.745933300071716 4.766882336310858 1 0 1
2441 1 5.726133881310754 6.084168238582556 2.5509518891322704 0 0 1
6247 1 20.155463098704193 6.84327079695828 3.0226957695722136 -1 1 1
4487 1 12.013295433386318 4.162664659537092 8.402490960645903 2 0 1
1801 1 1.8948168111117514 12.676320695028275 13.224696018125542 1 1 0
5855 1 8.19337561142434 10.921133521977486 1.351758918189144 0 0 0
2762 1 19.695966692237867 12.428044797623938 6.067028097050451 0 1 1
752 1 21.0187071933845 7.867998509095729 7.096541339014225 0 1 1
4412 1 15.594527754592965 8.790946401041671 8.523006555279652 1 0 1
3431 1 16.524702991035735 16.967168615288372 11.340883466991482 1 1 1
2585 1 0.6137257972751547 21.41997131852396 19.599541219971037 1 0 1
6156 1 21.155072058436858 11.551054336398396 23.879117682309612 0 0 1
5204 1 22.946138517514097 11.842167663689368 0.3893129644925622 1 1 0
778 1 14.514128290270182 3.311121939828752 4.438899258890507 0 -1 1
4509 1 20.66006803683759 23.137126087112417 24.466704201175837 0 0 0
3728 1 15.066353494851981 1.6310420176979752 10.706342726786483 0 1 0
1954 1 4.3855694733668065 11.724697999678602 11.844491028858512 0 -1 0
2825 1 18.614500719312588 18.658523923148003 0.6117097037380543 1 -1 0
6033 1 15.276520647233825 22.48546440397974 11.651147112792282 0 1 1
6053 1 20.723470994582428 21.08423974473334 3.3851990344875666 -2 0 1
42 1 7.169883150023839 3.144353986414378 0.008990836394278633 1 1 0
2760 1 0.23313385173128068 23.718673069251874 11.63451008680353 1 -1 1
5979 1 9.363481735897983 8.457764752175049 7.782645454976027 0 -1 1
5917 1 15.28505756317731 22.63734135270377 2.583637242268164 0 1 1
5984 1 13.953042216888088 19.624067542838695 8.27503382408908 1 0 1
170 1 14.187081804894145 5.869422261649974 1.0541438240980432 0 0 0
5986 1 8.110073601270408 21.336702114114868 15.74648855936185 0 0 1
3497 1 4.881169862237702 10.917869199665672 5.837178836299209 1 0 0
1049 1 4.785903884594 22.65977433284911 4.882968606305284 0 0 1
3418 1 7.795702449620447 20.992153427067546 9.330221948021187 0 2 1
287 1 8.354886338179773 13.707991773841806 6.2329616187257555 1 0 0
262 1 1.5307692539008881 14.078241079955378 20.77652697032732 0 1 1
1090 1 22.300656774132722 22.399527192644534 5.320644169936276 -1 0 0
3685 1 18.09266419556256 19.38074838744148 9.817450635396417 0 0 0
4241 1 6.421848936791799 20.45250850095763 4.8986445236129255 0 -1 1
2608 1 21.860768481681106 13.948228745304295 9.884196732803057 -2 -1 1
5568 1 20.85239227271172 19.23496599263463 19.06953713738407 0 0 0
6212 1 18.911147055556807 19.333644815456946 12.883294525371012 -1 0 1
1069 1 2.325440800931792 16.58835580325643 6.931253669677116 0 0 1
125 1 13.608927847141079 16.759926538701706 7.106250399328132 0 0 1
4361 1 6.313625321602764 14.787703845306014 4.592397977713406 0 0 1
977 1 17.9268123911615 5.326486912285373 1.7368296279516078 -1 0 1
3700 1 10.01375122007561 11.6783529863017 5.218684834616917 0 0 0
1172 1 16.390648545387034 19.777598083758207 2.4564961378200456 2 0 1
20 1 13.819528831603971 3.0314858387511197 19.379309085154254 -1 0 0
2767 1 3.337505193292222 6.090887285956178 4.954237496526927 0 1 1
1861 1 21.54826069757998 21.284596687624344 21.653279412967184 -1 0 1
5292 1 0.7969811400506287 2.8910582491738763 19.85498202969694 2 0 1
928 1 18.951937684120676 3.605328197040875 9.620894806356459 0 0 1
2115 1 24.188006023352493 24.1568684261034 3.654232401273012 1 2 0
3795 1 14.220567527820762 18.018423946633447 3.375871608473899 0 -1 0
5330 1 11.195139848140588 1.995079229047763 1.659209878427011 0 0 0
1999 1 1.847820742366451 17.655403770343145 24.073997181757004 1 0 0
4602 1 23.869658348285437 0.37778012615459156 23.74049437198628 -1 -1 1
4504 1 13.555453352503992 11.427350544614532 4.049098917786191 0 1 1
5113 1 4.326587226230062 15.27324800918877 13.127522413652015 0 0 1
5515 1 3.5851462741937112 1.7459758745425185 7.672720419405641 -1 -1 0
3669 1 8.68310472407847 0.4709441952756171 5.723480229106962 2 0 0
3765 1 14.352064212282896 5.442169495749991 6.7416634134968225 -1 0 0
5118 1 8.403176775379263 3.8209062385945214 10.057269151978318 1 0 1
3382 1 12.640673630852783 6.127914170155038 10.906042011417028 2 0 0
770 1 6.237074414205645 19.693982671287063 7.744192103995083 1 0 1
3627 1 8.145939339203371 3.597430455778546 5.069957934510458 0 1 0
5255 1 12.281765537125867 19.024763710366823 5.280944181262985 1 2 0
329 1 23.279070030302073 11.337399235795441 5.800913413501803 0 1 0
1904 1 2.3560254733701815 21.49566283084763 6.548049742294671 1 -1 1
3665 1 14.135632769932334 18.255179318648956 10.634216850119191 0 -1 0
1967 1 7.865447468690508 6.47612191942974 3.507029925813995 1 0 0
4357 1 21.46314234070711 3.7293439849778984 17.31514300532575 -2 0 1
3588 1 0.5917734142535188 17.853112087315235 21.20935430528323 0 0 0
5873 1 5.511919341573075 24.338128776540085 9.40111593216812 0 0 1
5246 1 10.26137293604637 2.0261228581532094 7.630492803935243 2 0 0
2764 1 5.475743303702733 6.435775222312141 9.119537803971346 0 1 1
3825 1 3.2181000715269263 11.673398052328631 9.248013154389323 1 0 1
882 1 20.7778840477462 9.877145454366374 9.12614893756065 0 1 1
2065 1 24.118418733143454 8.8425709634476 22.618140010369782 1 0 0
6083 1 19.180133095034208 14.24367553295058 1.8238413571912462 1 -1 1
6041 1 6.0832139148483435 3.0483750378029777 20.614785857187318 1 1 1
4466 1 15.609334354879607 14.840936081058668 14.086236578944973 1 0 0
3539 1 17.150636890744167 11.42632590959435 12.59764561431348 0 -1 0
6138 1 14.410625947094859 2.846020182153928 8.157148673422254 1 1 0
2776 1 0.14015794330560288 3.863225258497911 10.407756460591822 -1 2 1
1130 1 10.796751578069482 11.945028802505536 2.7220693604065467 0 0 1
2808 1 8.560120186905428 0.830324975963095 24.090120785342584 0 3 0
5122 1 17.0720811915713 21.492189578020444 4.642238647363081 1 -1 0
2104 1 23.10071246994708 10.524737149366345 14.840426928494319 0 0 0
190 1 5.282167323232041 8.815671667492829 2.1574806392508092 1 1 1
1918 1 5.775860684771224 13.78518808353047 1.4963416986248885 0 1 0
2667 1 12.45743598191933 9.47879149661448 10.475260500105499 -1 0 1
2596 1 3.3326560803874354 0.9342651443448812 12.518124442536818 0 0 1
2081 1 11.833870707337312 6.990991448377587 4.239920472381738 1 1 0
1121 1 12.941504083843004 13.305448389282427 13.666781044811843 1 0 1
6271 1 19.460157285605774 22.727146614107546 21.493180128658317 -1 0 1
3709 1 8.139516358766265 24.265773414802542 22.876198399675303 1 0 0
4474 1 12.832974826827229 11.744810485835254 6.74734403462666 0 1 0
493 2 20.9185 22.023314693372832 26.716516417892556 0 0 0
5936 1 5.834108963059577 7.742723467163613 5.65152601571596 2 1 1
4128 1 17.01742530217705 16.712062953612605 8.14798871673184 2 -1 0
2168 1 6.771430064397062 10.46995065416157 3.586108657169192 0 1 0
5801 1 8.191920599043058 12.322650932714232 8.806589143497453 0 1 1
5225 1 21.203193270144812 17.40275421279574 4.766058644239815 1 -1 0
3397 1 20.034340812780886 14.656591765278975 15.735599636411964 0 -1 1
2639 1 10.09213410690708 8.053472312086763 10.695195796944644 0 0 1
1209 1 9.507129360631055 5.310154087622522 8.331414288863847 -1 1 1
1783 1 13.493174093154364 3.191934462804396 0.5825200034424657 1 1 0
1232 1 22.905982732850035 5.841145480651227 3.5335481764713603 -1 2 1
1013 1 22.60972903740866 17.162702244036787 9.49794720642494 0 0 1
2814 1 8.519174296068073 18.85480762236023 1.1139651595832794 -1 1 1
5293 1 18.826981365921878 22.579322198878202 10.4258352693 -1 1 0
1116 1 9.390581244503712 16.84482466510414 7.097658658087568 1 0 1
3751 1 11.083586653384943 14.659920418664894 6.064711797658391 1 -1 0
6288 1 0.165861834549903 21.04982341002532 24.241408594640145 0 1 0
3586 1 24.603392470476546 11.431610474701245 22.679993282439877 -1 -1 0
21 1 21.980238150156012 6.469308265076349 15.819734595572145 1 -1 0
5496 1 7.82097552687571 18.206565231384378 13.577186799824693 1 0 0
3461 1 16.651026685449363 16.983490958718985 5.290064477587186 0 0 0
352 2 20.9185 23.4441737058485 26.716516417892556 0 0 0
234 1 5.079984646147717 3.4325691401936926 17.09386461430717 -2 0 1
1022 1 0.6552868796698147 7.019052001737017 20.107662174529516 1 0 1
5124 1 16.2763411834944 0.4280283070470911 19.308856695310794 0 1 1
5949 1 13.692133509410336 16.47710942376121 1.553878828361207 0 0 1
5321 1 9.286295404555688 18.805968013876825 5.12008402230025 0 -1 1
886 1 4.084561369549646 16.654318779252012 0.8513435518021586 0 -1 1
1842 1 10.357456702565194 22.167072266349138 19.403344314830623 1 1 0
2056 1 12.487499056147918 21.94028191491667 8.170113669194368 -1 0 1
2542 1 10.304621507231065 17.87255008956962 11.795597295255112 1 1 1
2752 1 15.69229904036891 2.1606831814298313 2.4016549043504636 -1 0 0
2751 1 11.901584609553415 23.784685887469216 20.763844086073394 0 0 1
5576 1 3.91847136055467 6.31459086600035 17.002722639321156 0 -1 0
4618 1 16.14188709424332 0.9356414582861049 5.750476841390996 -2 0 1
2849 1 18.57770056885723 24.26583835491534 5.406335946803891 0 -1 1
1795 1 13.836256636631475 13.962389320913386 9.685019297425272 -3 0 0
5388 1 12.455209453358247 9.864143345082798 0.9118362238881411 1 0 0
5893 1 10.15463247871053 19.30877703842292 15.828776056271668 1 -1 1
1228 1 21.18950239351016 11.466206069575543 12.746728973556717 0 0 1
1030 1 21.513780047213267 5.427130741727036 6.479621221954534 0 0 1
182 1 1.1827974704068767 8.036908187349525 22.42453459034338 1 0 0
4439 1 2.705311599875258 4.442934764221273 0.6043087183042635 0 0 0
6050 1 5.837256301392282 19.516886025260096 0.9996695007570677 1 1 1
5531 1 9.083284989912965 20.986993708123038 2.099685648080629 1 1 0
760 1 6.913999783439662 16.399879693859344 8.5093034876976 0 -1 1
3634 1 21.041491044059118 5.584585985575665 10.517354779059316 0 0 0
438 1 1.9699664138101154 23.751847973171852 7.944011419439105 -1 0 0
6176 1 10.258066663257502 14.406761347844201 1.9652569237612774 0 1 1
5843 1 24.047313530682104 21.437617786795872 0.5256639175107302 1 0 0
2739 1 3.153364223366052 21.97907905467573 20.81759264453649 0 1 1
2725 1 18.350584623225195 7.263656517076818 12.318300931927212 2 1 1
5399 1 16.931616614906098 20.939490550324912 16.786708186280382 0 -1 0
2820 1 0.9713957985638099 11.721538696701856 19.029966830183433 0 1 1
504 1 17.499450025613697 8.66593378247149 14.794998177602118 0 1 0
875 1 18.522660903749948 8.8554576454204 5.429714555852349 -1 1 1
989 1 17.39373319230347 9.545013853636544 10.806696771061045 0 1 1
4543 1 1.6050424678082567 7.300724106914677 13.900865730284774 1 1 0
5372 1 9.212461439052843 9.25792602098947 20.88470265812655 1 0 0
2083 1 14.566645705677995 8.925401309189807 3.406091862026708 1 0 0
876 1 23.363380807121917 13.673812234188036 2.820603868280417 1 1 1
2164 1 2.656893466664172 1.3076599989312512 17.640954054505958 1 0 1
2798 1 6.640075537319012 5.328234349759154 7.061498308089456 0 0 0
4453 1 8.421347030707514 10.017684833835427 10.954779208956905 1 0 1
920 1 1.5549770553223727 9.601990884701562 0.1302588850378496 1 -1 1
1118 1 4.452333065018824 3.1223240796649585 11.763791963538774 1 0 1
4614 1 13.748075925387578 7.772181553654186 5.7113743173852045 0 0 1
1146 1 4.390810501018871 21.776987446434983 9.141273618242797 1 1 1
5468 1 16.666336743199377 21.64536972702123 20.04250478153423 0 -1 0
879 1 11.379966434036975 22.87785143068246 5.283343031671409 0 0 1
5436 1 22.249272394436804 22.368870213273095 13.751958465556683 -2 0 0
1033 1 15.009328305665845 9.06215330175415 0.243569759397052 0 1 1
6134 1 4.145834122898814 8.85746972390342 12.074957967522458 -1 0 1
94 1 22.75931321378282 8.309357224007934 13.473962975610396 -1 1 1
5342 1 7.611908827279682 21.97131740288662 18.378196266686142 -1 0 0
2855 1 5.171808723361648 12.144964826892698 17.629860398531445 0 0 1
302 1 3.098974911028972 6.698671817816783 10.48243958352317 2 0 1
994 1 7.3051026890245785 5.318791922753623 13.390653449030536 3 0 0
978 1 11.0767957159872 14.05772808284444 9.019786094858453 0 1 1
2579 1 1.1132941928341178 1.6158555357399302 15.135354035621441 3 0 1
5546 1 12.30988176865623 9.254435648338593 7.57503928565294 0 0 0
1981 1 14.019937859247513 4.495866191108015 12.86835442657137 0 2 0
3846 1 11.479842325679222 10.621063140703917 19.844489918884385 0 1 1
6064 1 15.843156801825616 21.611871513607525 9.451345152686804 2 0 1
4214 1 20.739249817680268 8.520430442049197 11.375285862370099 0 1 1
3547 1 16.398356493586075 10.153195182326582 5.881095318497975 -1 -1 1
782 1 18.179129297341472 24.293299570886333 19.42421836396097 1 0 1
1998 1 16.472903079007754 12.711224695925837 5.8273921321112745 0 0 1
503 1 23.267676537942705 8.166735397617337 20.038067875123062 -1 0 0
36 1 20.6903859127974 3.4944364940897072 20.54455941119204 1 1 0
3409 1 11.084335678204187 16.23775922152526 3.850837606766764 1 1 0
226 1 6.234223768559304 8.971634494765068 10.126636217692885 0 -1 1
466 1 5.873584858378396 9.854263843983198 15.069800923864062 1 0 0
1812 1 3.7159223972702624 15.859043937182786 15.695291728488751 -1 0 0
1800 1 2.957315768444478 9.528105355887975 15.1711704223668 0 2 0
5453 1 6.648386470501846 13.853729806681143 14.024352115916233 0 0 0
2033 1 10.642415458147148 12.357006344698933 12.335084856468022 1 0 0
799 1 11.288576847190981 17.60188646266958 8.593803221018744 0 1 0
3716 1 13.333395451165444 12.03326482932372 16.005713668823173 -1 0 0
3692 1 21.091051511146798 19.993248826435497 14.920061233853787 0 0 0
3660 1 12.504423989630931 15.894961212228885 11.629441635237942 1 0 0
5281 1 13.965512895651957 13.968064021659572 17.435327688927522 -1 0 0
2111 1 20.820928723356538 12.03798551933465 3.3971496754696386 0 -1 0
5964 1 1.4712205776766303 21.69538256237209 15.995784200108417 0 0 1
1224 1 18.056789984632232 2.7737748693979967 2.3068436400873518 0 0 1
988 1 2.009278806534249 24.107704067502482 14.212350546743611 1 0 1
501 2 18.4575 23.44417370584849 26.716516417892556 0 0 0
1760 1 1.3557615871627262 16.595012211812037 10.74463418865996 0 2 0
2031 1 15.610258081379474 22.002533255078795 22.489794142905385 -1 0 0
1184 1 1.2485598838832352 17.17156414308005 15.579641575714476 -1 -1 1
1942 1 0.4261616042379977 7.01703760429458 0.7278768166495531 0 2 0
2425 1 14.499111170520575 19.706497236099892 12.724376902414575 0 -1 1
3489 1 17.05033282037063 21.29396268491205 13.820703688564873 0 0 0
840 1 1.778638258350584 19.057578418848568 9.796290016497661 0 1 0
2720 1 19.16436641328368 15.331167811557249 7.056482964697913 -1 0 1
5426 1 24.089555764947168 3.7299260982303744 4.741587304921129 0 0 0
26 1 23.495173613033774 6.486356598838636 8.516130336065038 1 0 0
5514 1 4.725420525131082 16.05076156692931 18.08781618050471 1 0 0
4409 1 4.474555369320238 20.67787735717671 16.297082066708324 0 0 1
2717 1 24.187436257215282 17.29688179968521 13.478100008074996 1 0 1
5540 1 2.1436070712979403 5.099065216248882 8.171362953877699 2 2 0
1753 1 21.111572955928086 8.761994913872368 1.2277415548591943 1 0 0
5189 1 6.440137886998527 16.88436299627728 11.401404170676466 0 0 0
4179 1 12.088397680427303 2.2056893938821873 4.484772479633577 0 -1 1
764 1 20.547511132740933 20.750421986859614 8.25496187169693 0 1 1
2875 1 22.562349595532876 2.1358469028788583 2.119662076559061 -1 1 1
4362 1 3.7867986011843326 16.523091817011473 4.573249991168752 -1 -1 1
2006 1 11.672022442662469 20.217535508138116 17.977562834840946 0 0 0
481 1 5.842988070425187 21.053151062112168 20.34150201459719 0 1 0
4393 1 10.08336261907738 14.955637968175044 12.819185195897374 0 -1 1
5328 1 1.0195418290095066 1.776642704038534 4.991068932721836 1 0 0
997 1 10.271417692498662 21.394585206848575 11.023468046404517 1 -1 1
676 2 15.996500000000003 22.023314693372832 26.716516417892556 0 0 0
740 1 0.2732258764070902 4.663324182766295 23.626351449595074 0 0 1
180 1 10.220918192749416 22.978885271743195 24.327293980672646 1 0 0
2744 1 23.715554632590383 9.1354297232804 0.42184302128399365 0 1 1
3498 1 13.03718844214579 0.17673646138732316 7.521854732386894 1 1 0
6013 1 9.717686695085638 4.8109439785099015 1.5739677889057115 0 -1 1
5459 1 13.747735018430657 12.61567400977808 21.00554003272034 0 1 0
5407 1 20.98910312176534 2.3430708113688663 15.2631409066049 2 0 0
4473 1 10.712255002943188 3.2086466865385725 12.901143211868575 -1 2 0
4294 1 21.34245296303772 14.338575094515482 20.84903561878734 0 -1 1
3655 1 20.83818250905071 20.38859697326373 0.5344513443077312 0 1 0
5971 1 20.123388999856818 0.5141407863785352 4.041843572425442 0 1 1
1930 1 0.10000612526500484 16.018393249634467 13.364395513783375 1 -1 0
2707 1 0.2814497275961996 23.534587720949418 17.710441101279603 -1 1 1
2456 1 8.33492727279588 6.922140549686683 17.320082443278046 0 -1 0
1063 1 7.604809512222447 3.855389921397281 17.078702810623174 -1 0 0
2423 1 9.58103707012703 6.940890942506539 13.643949934472017 0 1 1
5389 1 6.13861054507788 6.73564946650016 15.503491939579215 1 1 0
27 1 7.264844672540615 6.1654932742764705 11.013508309769101 0 0 0
3367 1 12.532817148109146 1.5306245785267454 15.886378241505978 1 1 1
5128 1 14.663495486706612 8.016633983006331 11.81835485203636 0 1 0
6219 1 15.275280548786762 6.658283655499212 14.652696213657675 1 1 1
4360 1 16.364778260629354 3.9963027696892985 20.962436554155513 0 0 1
397 1 19.241816737505864 2.1689145299248476 11.819333273388743 -1 -1 0
81 1 19.32076817973854 5.6539942037774065 15.549907320190895 0 0 0
178 1 2.875565992102279 8.164157759251225 6.903674113768764 -1 0 1
4122 1 14.192288386902241 14.742301579865158 4.79537066135838 0 0 1
1154 1 13.184810707194606 7.8503984261055715 16.46353915572072 0 1 1
3602 1 5.200556321099526 13.048688785438337 21.328066671978238 1 1 0
421 1 0.7448998596031783 9.938049839596054 12.318981162959451 1 0 0
4304 1 4.227858037769623 5.434858547173004 13.082821215034752 1 -1 0
2179 1 14.745562896461383 9.928453540301726 14.213699159538256 0 1 0
3492 1 23.670405396771212 8.446100210825591 16.981957112028503 0 0 0
3834 1 11.899715059618943 8.490938545005472 24.07109986551749 -1 0 0
5491 1 19.293914312552587 1.1590315721378663 22.673021108688946 1 0 0
1888 1 22.99327672168913 23.969410695519652 18.072457997784873 0 0 1
4164 1 13.473722734910073 12.513898645152288 0.4360002784337913 0 0 0
801 1 22.430056316057573 17.737950364173503 1.0510228923381542 0 -1 1
6160 1 6.162029286488713 1.3084640453469445 14.953615490926383 1 0 1
4433 1 23.8673260826716 2.9425841492248592 7.240723900521384 -1 0 1
5532 1 15.22039902280068 13.402917153590932 2.6225068146817776 0 0 0
970 1 2.764645866126185 12.786909431289908 15.74425965090035 -1 0 1
906 1 7.1115080118779765 8.709094387259885 19.366699132379445 0 0 1
1187 1 6.877963247154504 14.38078851932794 18.664642698005217 1 0 1
4151 1 7.570167471637959 11.020917459394633 13.66454751402971 1 0 1
3612 1 16.863919307470017 14.581234704862633 16.253705505643747 1 1 0
5918 1 8.309418102214996 12.696763543867867 21.57542013245616 1 0 0
771 1 16.22211524091908 11.063170957823194 17.01521527397504 1 0 1
4342 1 14.038061970411754 12.379902356775366 23.837685566880094 0 0 1
3401 1 18.52972077956909 11.897376387842508 15.233287703634192 1 0 0
1929 1 15.401933237739758 8.633254340206118 18.799463120367705 0 0 0
5551 1 21.231008179400217 9.620087237181117 4.518142145252721 1 1 0
465 1 1.3534968746103455 14.59637788134428 23.83299093064627 0 0 0
72 1 12.410623842834354 3.0470284909856993 22.414305799067613 -1 1 1
6173 1 1.5942715378206886 13.357623613295049 7.178214946161741 1 0 1
4330 1 23.30649503803494 19.25843438900376 3.5990640764389856 -1 0 1
5140 1 19.415781949800813 1.2739471122046044 0.7496337258288159 2 1 0
4326 1 10.389968698713187 11.858629017953326 15.740232226870122 2 0 1
390 1 0.7660524781154181 19.263637056103878 13.552931568323404 0 0 0
5114 1 9.864485853352921 15.285303487877492 15.684800309293298 0 0 0
431 1 24.071086424562356 17.598909556552005 19.086210369673307 -1 0 0
360 1 15.688579060521354 19.392583510369377 19.0267933760799 0 -1 0
3565 1 2.3878245212314977 0.6049745570009022 2.804665880408048 -1 1 0
385 1 20.85077753671212 10.21198106984635 16.228083743412995 0 0 0
5400 1 2.4094050977590933 8.960058524690472 18.27818462400671 1 1 0
726 2 18.4575 22.023314693372832 26.716516417892556 0 0 0
6022 1 0.5592607345648918 10.6376658217748 21.515823608630505 1 2 1
127 1 4.326821167027972 22.88969266127643 14.783742610647801 0 1 0
6005 1 3.0297835868858862 20.36266614675366 12.708218939687974 0 0 1
4176 1 11.797736564748455 20.184484698569136 13.419301129222964 0 0 1
2736 1 4.350418983221144 17.766322366186348 9.043474849703088 -1 0 1
3678 1 7.4329569138516565 16.05060493340539 15.527093738587672 1 -1 0
3773 1 3.081161394276352 14.542598424685531 10.747443624872806 1 -2 0
2788 1 18.233519454260712 18.425866440043997 16.62691362354834 0 -1 1
3695 1 13.889301053853956 21.773648111287454 17.80895172854031 1 0 0
762 1 19.7198084066382 12.707747603386716 10.468710816077852 -2 0 1
2634 1 16.42382181139406 13.89664590125293 11.375148609950656 1 1 1
4224 1 4.892689842892245 18.47641616461496 14.606645114109728 1 0 1
2763 1 8.730542088762709 22.380491357470998 4.953020790144966 1 1 1
4391 1 11.008166549832335 4.551367974611897 5.195610068066925 0 0 1
3433 1 6.2645242331982525 20.005072730780046 11.970228057881034 -2 1 0
5475 1 2.667587722642849 4.7754419059922295 15.116494313267943 0 1 0
1023 1 8.049769599452947 6.54698768811134 23.113643319440587 1 1 1
724 2 17.227 24.154603212086325 26.716516417892556 0 0 0
5897 1 18.6979045988446 5.707628381816878 23.823054243077312 0 0 1
674 2 14.766000000000002 24.154603212086325 26.716516417892556 0 0 0
993 1 9.929576879627266 2.060406587684908 18.709072893598652 0 1 1
5435 1 8.582992378363343 4.43536003984468 19.647626255744306 0 0 0
3446 1 2.553329687173804 20.41365758206474 23.210152641949556 0 1 1
6008 1 0.5274264868750443 1.34525351893204 11.802559904221312 1 1 1
665 2 12.305 24.154603212086325 26.716516417892556 0 0 0
666 2 12.305 21.312885187135 26.716516417892556 0 0 0
2022 1 4.225824748098098 8.14592397929168 20.195197437239294 1 -1 0
2797 1 0.4723962243430299 6.2599760654058 5.000253704781681 -1 0 1
3691 1 12.67475384073339 21.194141770257968 3.9236072632883516 1 0 0
725 2 17.226999999999997 21.312885187134995 26.716516417892556 0 0 0
54 1 13.149335810887832 5.984599369108785 19.114017639054623 -1 0 1
411 1 24.001977008342546 21.441892921683365 11.542008181952616 -1 0 0
1213 1 22.091027078172406 8.975365245159226 24.32101803339649 0 1 1
3599 1 9.951392448938162 6.543249504855986 20.793825454451117 1 0 1
4138 1 16.210911003891464 5.618072698313106 18.69912487708338 1 0 1
151 1 6.233875919175927 14.035429266661437 23.88059738010125 0 2 0
380 1 0.32993384398227493 12.227292523920072 10.113902961369517 0 -2 0
4457 1 9.296347768895288 8.9849106683641 15.34595740056972 1 1 1
1856 1 10.780521355126558 6.131485118455487 23.94035552392899 0 1 1
3516 1 12.887832705722754 10.066087806441534 17.740861673617168 2 0 0
4594 1 18.091030963489715 9.712765756880705 20.7558371397253 0 0 0
4248 1 18.843421504074158 8.20827545894837 17.019291588226707 1 0 1
147 1 18.752412616675475 7.57652048982855 19.30484986775128 0 1 1
4459 1 19.331049806282802 13.388984205118266 22.60854959577522 0 1 1
5471 1 20.037024277678313 11.895099604229678 0.218762564861542 0 0 0
4242 1 1.941539549707996 9.72462974302464 4.876946448674533 0 -1 1
2883 1 7.08932805447463 4.361408749849006 24.014313886263064 2 1 1
6297 1 7.5794263292196 10.457037822034238 17.51476855561904 0 1 0
203 1 8.636481950380242 20.16264090067979 24.273375524320944 -1 1 0
221 1 9.631861916712579 20.778623933986715 21.659730429074596 0 2 0
6171 1 10.419870391805729 13.91645485555331 24.163378778099833 1 -1 1
189 1 9.174902811718635 12.337842673349114 18.368586560943427 1 1 0
104 1 11.488733767742277 5.446474647453039 15.049836591093607 1 0 1
4604 1 12.703181955151413 15.40278785195763 23.907530840690868 1 -1 0
5108 1 10.453293460105183 15.127396418023869 18.410499393920325 0 1 1
2479 1 12.642875703128885 16.497140059594184 20.864205540218347 -1 1 0
494 1 15.583870769823493 4.896182612156421 23.471685400021332 -2 0 1
1008 1 5.97523587462351 22.877511438701934 2.487744607706624 0 0 1
4568 1 15.308314811241095 7.79989130565114 23.840901770109703 1 0 1
2157 1 14.586394977766634 2.6434966472955423 24.800029641933143 0 1 1
3376 1 7.127132442087579 0.3429763703809492 8.25523893920424 1 -1 0
4517 1 23.944558611765164 24.241191483009548 0.36996988079538745 0 0 1
3437 1 16.320579276560316 13.047641946584555 19.141007693139404 0 0 0
291 2 22.149000000000004 24.154603212086336 26.716516417892556 0 0 0
673 2 13.5355 23.4441737058485 26.716516417892556 0 0 0
6108 1 4.613334322480241 4.129108248844376 22.448384758935426 0 0 1
5448 1 11.931578488678126 7.016766440994468 1.3580737788088093 1 0 0
4609 1 8.231975085752444 15.495219395636957 22.681140926503197 0 0 1
3443 1 15.41818493010155 15.732069923522248 21.077958330289018 0 1 0
1873 1 17.045882618300777 11.87785322625043 23.729550520768363 1 1 0
6298 1 3.345526549517573 18.560352284656737 19.22561158654859 -1 1 0
3472 1 21.768626037263797 10.870018604395836 18.594322518018473 1 1 1
3753 1 10.886655113937325 11.199944251984128 23.835603214078837 2 0 0
5252 1 15.247060201579455 9.99233003368072 21.560296654484738 1 -1 0
2134 1 23.411783919014205 11.798482293207284 10.714512953487823 0 0 0
5100 1 23.68221717522983 18.30852438269087 16.296436973214952 -1 0 1
5875 1 17.41283731814555 5.562153292547551 10.875577678284937 1 2 1
4559 1 13.814534385473557 11.664220659528466 11.452824506704602 0 0 1
2896 1 18.526355873630987 2.2337294591842407 19.788453276888696 0 0 1
4227 1 2.3959548175789007 23.87621084512764 4.158927198771769 1 0 1
1916 1 8.31605972328509 23.876661174370376 7.508802089663824 1 -1 0
476 1 18.959570957503196 16.272537298681808 20.477575968770132 1 -1 0
2568 1 10.613634404177882 18.71798936050489 20.55333650217569 -1 0 1
6119 1 22.738477685039786 20.66506774512429 17.90066023864762 1 2 1
1875 1 15.05830273685724 18.196464400854126 24.350908187027244 -1 1 0
1886 1 20.9104261968968 17.385687437636353 16.89378462668462 -1 -1 1
158 1 6.389501620400958 18.542600491842194 19.984849822939513 0 0 0
6137 1 7.676083921366857 14.211506792531244 11.45808985589668 0 0 1
6131 1 13.767085253805783 17.15531903362104 13.869599045815717 0 1 1
5543 1 23.389821061176868 12.796991461825424 24.328822396754486 0 2 0
2647 1 14.01011761671916 17.289680491990353 18.68573801941961 0 0 0
29 1 23.815968629312476 0.18266395557982612 11.087193664480196 0 1 0
5808 1 23.58045358561261 20.611972278582055 7.9617825935892945 0 0 1
4235 1 2.96286589655228 10.333943312961681 2.5221501981804892 0 1 1
3582 1 9.914583895526258 1.696078882889231 10.533857288242238 0 2 0
394 1 18.578009528902353 11.092594436431904 8.540577484248246 0 0 0
427 1 8.490203609102183 24.412446131704368 16.08541571948455 0 0 0
1891 1 19.81525306319862 7.828887925084139 22.934001562822363 1 0 1
4329 1 3.6718583170370582 6.783376253811303 22.31145202156792 0 0 1
3845 1 16.816096989674907 20.598270234509194 24.59569417042877 0 0 0
6006 1 14.326676219646249 23.71770726029274 19.4137585612661 -1 0 1
5373 1 21.95530850007933 17.572928218835216 21.176226580916044 0 -1 0
1142 1 12.487975263777551 16.593421373757643 16.24918876388514 -1 0 1
192 1 6.895964844477694 18.557984832653183 17.36533952950383 0 1 0
3531 1 5.254128848793879 0.7501248075771316 18.768217571451004 0 0 0
4519 1 11.623886305339584 23.169036214956076 15.658777754077528 0 1 1
678 2 15.996499999999997 23.44417370584849 26.716516417892556 0 0 0
667 2 13.5355 22.023314693372832 26.716516417892556 0 0 0
5976 1 7.834706022997676 16.787321387012035 3.179711518561833 0 0 1
2091 1 0.7209005622289136 3.522647984082032 2.491837321167636 1 1 0
2027 1 16.855011730628956 0.40444202994397177 23.61263796936315 1 1 0
3451 1 3.7930976095682643 11.143250612286487 19.585367711817607 1 1 0
2007 1 5.369401025472481 7.5980877735799295 23.981350391795754 0 1 0
5552 1 16.617681473926318 3.921502873198393 16.444008907157457 1 1 0