
# read in water data
read_data data.liquid_mW group water extra/atom/types 1
Reading data file ...
  orthogonal box = (0.0000000 0.0000000 -0.398382) to (49.220000 49.019636 60.460382)
  2 by 2 by 2 MPI processor grid
  reading atoms ...
  4896 atoms
  reading velocities ...
  4896 velocities
  read_data CPU = 0.016 seconds

# remove area for graphite
region substrate block 0 ${XDIM} 0 ${YDIM} ${Z_LO} ${Z_HI}
region substrate block 0 49.22 0 ${YDIM} ${Z_LO} ${Z_HI}
region substrate block 0 49.22 0 49.019635930410494 ${Z_LO} ${Z_HI}
region substrate block 0 49.22 0 49.019635930410494 25 ${Z_HI}
region substrate block 0 49.22 0 49.019635930410494 25 35.062
delete_atoms region substrate
Deleted 802 atoms, new total = 4094

# Insert substrate
read_data data.graphite_test add append shift 0.0 0.0 ${Z_LO} group graphite offset 1 0 0 0 0
read_data data.graphite_test add append shift 0.0 0.0 25 group graphite offset 1 0 0 0 0
Reading data file ...
  orthogonal box = (0.0000000 0.0000000 -0.398382) to (49.220000 49.019636 60.460382)
  2 by 2 by 2 MPI processor grid
  reading atoms ...
  2760 atoms
  reading velocities ...
  2760 velocities
  read_data CPU = 0.005 seconds

write_data data.substrate_test2
System init for write_data ...
WARNING: Communication cutoff is 0.0. No ghost atoms will be generated. Atoms may get lost. (../comm_brick.cpp:167)


# Define potential
# CHECK ON THIS %%%%%%%%%%%%
#
pair_style sw
pair_coeff * * mWC.sw mW C
Reading sw potential file mWC.sw with DATE: 2019-02-27


# Delete water and ice atoms that are overlapping
#
delete_atoms overlap 2.5 water graphite
System init for delete_atoms ...
Neighbor list info ...
  update every 1 steps, delay 10 steps, check yes
  max neighbors/atom: 2000, page size: 100000
  master list distance cutoff = 7.76
  ghost atom cutoff = 7.76
  binsize = 3.88, bins = 13 13 16
  2 neighbor lists, perpetual/occasional/extra = 1 1 0
  (1) command delete_atoms, occasional, copy from (2)
      attributes: full, newton on
      pair build: copy
      stencil: none
      bin: none
  (2) pair sw, perpetual
      attributes: full, newton on
      pair build: full/bin/atomonly
      stencil: full/bin/3d
      bin: standard
Deleted 118 atoms, new total = 6736

# set timestep
#
timestep 10.0

# Define output
#
compute 1 all msd
thermo 50
thermo_style custom step temp press vol etotal ke pe c_1[4]

# Neighbor lists
#
neigh_modify delay 0 every 1 check yes


# Fix graphite atoms in place
# CHECK ON THIS %%%%%%%%%%%%%%%%%%%%
#
fix 1 graphite setforce 0.0 0.0 0.0
velocity graphite set 0.0 0.0 0.0

# Set fixes
#
fix 2 all momentum 10 linear 1 1 1 rescale
fix 3 all nph z ${PRES} ${PRES} ${PCOUPL}
fix 3 all nph z 1 ${PRES} ${PCOUPL}
fix 3 all nph z 1 1 ${PCOUPL}
fix 3 all nph z 1 1 10000.0
fix 4 all temp/csvr ${TEMP} ${TEMP} ${TCOUPL} 837492
fix 4 all temp/csvr 220 ${TEMP} ${TCOUPL} 837492
fix 4 all temp/csvr 220 220 ${TCOUPL} 837492
fix 4 all temp/csvr 220 220 5000.0 837492


# Run 0.5 ns equilibration of water
#
dump 1 all atom 1000 eq.all.${NAME}.dump
dump 1 all atom 1000 eq.all.graphite_substrate.dump
run 50000
Neighbor list info ...
  update every 1 steps, delay 0 steps, check yes
  max neighbors/atom: 2000, page size: 100000
  master list distance cutoff = 7.76
  ghost atom cutoff = 7.76
  binsize = 3.88, bins = 13 13 16
  1 neighbor lists, perpetual/occasional/extra = 1 0 0
  (1) pair sw, perpetual
      attributes: full, newton on
      pair build: full/bin/atomonly
      stencil: full/bin/3d
      bin: standard
Per MPI rank memory allocation (min/avg/max) = 4.636 | 4.820 | 5.004 Mbytes
Step Temp Press Volume TotEng KinEng PotEng c_1[4] 
       0    130.02948   -423.80608    146836.77   -38860.189    2610.4401    -41470.63            0 
      50    138.60914   -1248.4919    146654.52   -38678.627    2782.6832    -41461.31   0.66106454 
     100    142.65913   -1510.2084    145884.96   -38554.226    2863.9899   -41418.216    1.1907729 
     150    147.85214   -1200.6617    144705.16    -38417.44    2968.2435   -41385.683    1.7826447 
     200    150.11603   -483.63543    143736.99   -38281.258    3013.6926   -41294.951    2.2527563 
     250     153.9136   -272.84251    143109.91   -38146.276    3089.9319   -41236.208    2.7398954 
     300    157.28083   -430.91085    142677.67   -38002.639    3157.5316   -41160.171    3.4083173 
     350    158.31689   -428.76964    142329.16   -37837.158    3178.3312   -41015.489    4.0300864 
     400    159.63051   -16.557157    142046.55   -37752.647    3204.7031    -40957.35    4.6313495 
     450    158.38326   -84.833256    141823.89    -37640.06    3179.6636   -40819.724    5.3098025 
     500      161.022   -152.07196    141625.57   -37531.992    3232.6384    -40764.63     6.005229 
     550    166.99256   -230.06409    141469.48   -37432.922    3352.5019   -40785.424    6.5698945 
     600    167.43541   -167.38929    141397.93    -37321.53    3361.3925   -40682.922    7.4718565 
     650    165.67023   -287.61402     141388.5    -37234.46    3325.9551   -40560.415    8.2437125 
     700    167.74203   -430.04013    141374.37    -37110.73    3367.5481   -40478.278    9.1421379 
     750    170.74312   -217.10277    141291.46   -37020.647    3427.7972   -40448.444    10.224479 
     800    167.97971   -76.649826    141160.02   -36919.204    3372.3196   -40291.524    11.294234 
     850    174.02136   -302.79303    141038.91   -36844.834    3493.6102   -40338.445    12.394618 
     900    176.64413    -97.79098    140926.09    -36760.16    3546.2643   -40306.425    13.389985 
     950    176.35519   -47.320846    140857.27    -36689.56    3540.4637   -40230.023     14.38888 
    1000    175.89791    61.647085    140889.25   -36579.536    3531.2835   -40110.819    15.491072 
    1050    179.55474   -48.665545    140986.06   -36510.387    3604.6972   -40115.085    16.480842 
    1100    180.25332    136.77904    141144.97   -36415.143    3618.7216   -40033.864    17.623252 
    1150    182.85275   -83.490024    141331.42   -36346.034    3670.9071   -40016.941    18.736733 
    1200    183.56587   -1.4516871    141489.56   -36290.749    3685.2236   -39975.972     19.60452 
    1250    184.24926   -218.91515    141641.47   -36225.899    3698.9432   -39924.842    20.731909 
    1300    182.28772   -299.83846    141814.62   -36176.451    3659.5636   -39836.015    22.050045 
    1350    185.12917   -290.59733    141970.14   -36080.328    3716.6081   -39796.936    23.416161 
    1400    189.99488   -66.372604    142099.67    -36006.11    3814.2909   -39820.401    24.966161 
    1450    188.64648   -156.75297    142220.78   -35928.525    3787.2206   -39715.746    26.338681 
    1500    189.12483   -215.65449    142318.46   -35910.902    3796.8239   -39707.726    27.778623 
    1550    189.26985   -160.85194    142311.67   -35820.261    3799.7352   -39619.996    28.950603 
    1600     193.0009   -17.297663     142282.5   -35769.509    3874.6389   -39644.148    30.241352 
    1650    191.36181    30.708706    142294.09   -35732.506     3841.733   -39574.239    31.776393 
    1700    195.31213   -288.27186    142344.62    -35681.94    3921.0386   -39602.979    32.929123 
    1750    192.61266   -505.76057    142389.83   -35594.701    3866.8448   -39461.546    34.073159 
    1800    195.73837    10.458197    142439.87    -35579.67    3929.5958   -39509.266    35.375808 
    1850    194.87419   -161.14553    142530.16   -35512.076    3912.2467   -39424.323    36.906637 
    1900    199.87749    -280.6602    142591.77    -35466.04    4012.6917   -39478.732    38.423841 
    1950    197.58786   -97.418648    142615.83   -35421.127    3966.7257   -39387.852    39.970498 
    2000    200.91302    22.608291    142659.65   -35349.364    4033.4807   -39382.845    41.943889 
    2050    200.01813   -131.19323    142780.96   -35314.454    4015.5152   -39329.969    43.594484 
    2100    199.66347   -178.72117    142922.79     -35279.6     4008.395   -39287.995    45.240067 
    2150    206.61319   -428.49724    143047.06   -35217.782    4147.9158   -39365.698    47.016565 
    2200    202.69088   -115.39726    143120.02   -35160.965    4069.1726   -39230.138     48.98538 
    2250    208.65497   -149.57708    143198.46   -35141.813    4188.9061    -39330.72    50.769267 
    2300    202.29306    -196.5393     143216.1   -35116.084     4061.186    -39177.27    52.528472 
    2350     209.1134    322.34845    143168.04   -35074.079    4198.1095   -39272.189    54.141763 
    2400    203.70886    12.845983    143176.04    -35064.14    4089.6093   -39153.749     55.82639 
    2450    206.04941   -32.395224    143240.56   -35080.799    4136.5976   -39217.396    57.547714 
    2500    203.97072    55.145445    143391.71   -35089.462    4094.8664   -39184.328    59.114934 
    2550    204.04363    92.890829    143590.76   -35018.771    4096.3301   -39115.102    60.567044 
    2600    203.91399   -246.20246    143729.32   -35021.871    4093.7275   -39115.598    62.175189 
    2650    205.55728     -33.9932    143803.94   -35016.854    4126.7178   -39143.572    63.819754 
    2700    206.78765   -277.00117    143866.04    -34981.95    4151.4184   -39133.368    65.721504 
    2750    209.18522   -954.63927    143876.41   -34945.851    4199.5513   -39145.402    67.863259 
    2800    203.55806   -132.15808    143782.29   -34947.822    4086.5819   -39034.404     69.50453 
    2850    205.64305   -201.62051    143653.87   -34914.789    4128.4397   -39043.229    71.181489 
    2900    209.32449    61.962651    143567.75   -34899.783    4202.3473    -39102.13    73.189288 
    2950    213.13655   -445.01749    143558.52   -34888.627    4278.8773   -39167.504    75.108736 
    3000    206.62333   -86.108457    143608.45    -34885.25    4148.1194    -39033.37     77.06569 
    3050    210.97522   -298.08077    143680.46   -34861.619     4235.487   -39097.106    78.994014 
    3100    218.29611    -137.1522    143743.49   -34811.574    4382.4593   -39194.033     80.76175 
    3150     212.5921    48.447777    143833.59   -34777.525    4267.9471   -39045.472    82.893645 
    3200    212.94842   -448.96799    143902.27   -34752.978    4275.1005   -39028.078    85.028284 
    3250    213.49814    19.276537    143941.19   -34727.595    4286.1364   -39013.732     86.71828 
    3300    213.54466   -124.29287    143965.43   -34724.352    4287.0705   -39011.423    88.408977 
    3350    214.79747   -351.58903    143921.84   -34744.706    4312.2216   -39056.927    90.027813 
    3400     210.9023   -179.10573     143859.4   -34746.389     4234.023   -38980.412    92.399825 
    3450    213.36982     -217.883    143838.67   -34772.901    4283.5603   -39056.461     94.49345 
    3500    211.91516    -149.5285    143817.39   -34770.038     4254.357   -39024.395      96.3934 
    3550    212.66671   -283.55823       143787   -34747.619     4269.445   -39017.064    98.289423 
    3600      211.885   -376.85385     143762.7   -34734.508    4253.7514   -38988.259    100.20512 
    3650    213.91038      -112.31    143735.08   -34712.438    4294.4125    -39006.85    101.70024 
    3700    216.70826   -251.97921    143716.76   -34676.001     4350.582   -39026.583    103.63267 
    3750    217.12891   -16.543372    143724.14   -34600.016    4359.0269   -38959.043    104.98444 
    3800    213.61873   -230.43441    143781.01   -34597.743    4288.5574     -38886.3    106.81052 
    3850    212.10038   -268.05233    143900.56   -34564.143    4258.0754   -38822.218    108.46181 
    3900    212.94491   -480.98995    144079.51   -34536.376    4275.0301   -38811.406    110.34923 
    3950    217.08249   -177.28264    144188.66   -34533.127    4358.0951   -38891.222    112.10767 
    4000    215.60152   -105.77543    144266.65    -34558.73    4328.3634   -38887.094     113.6997 
    4050    215.68457   -398.67134    144351.95   -34555.777    4330.0308   -38885.808    116.16829 
    4100    218.78803   -145.34586    144418.92   -34546.671     4392.335   -38939.006    118.12525 
    4150    214.18131   -490.73265    144452.94   -34563.614    4299.8516   -38863.466    120.11924 
    4200    215.76647   -526.93684    144391.45   -34542.802     4331.675   -38874.477    121.93494 
    4250     212.6316   -260.71469    144292.87   -34523.206      4268.74   -38791.946    123.72677 
    4300     217.5049   -530.75536    144166.72   -34510.847    4366.5753   -38877.422    125.54463 
    4350    214.18689    -239.8702     143994.2   -34513.192    4299.9638   -38813.155    127.64157 
    4400    216.13574    1.6216658    143832.98   -34506.851    4339.0883   -38845.939    129.32078 
    4450    218.95977   -224.32404    143758.46   -34488.245    4395.7828   -38884.028    131.45418 
    4500    218.54166   -28.015458    143738.95   -34489.158     4387.389   -38876.547     133.7179 
    4550    217.99097   -141.11427    143776.08    -34473.32    4376.3335   -38849.653    135.48438 
    4600    217.41253    70.121228    143816.16   -34461.916    4364.7208   -38826.637    137.42803 
    4650    218.95812    49.828281    143873.26   -34432.404    4395.7496   -38828.153    139.39699 
    4700    218.90492   -63.638238    143985.92   -34439.468    4394.6817    -38834.15    141.91884 
    4750    218.78849   -184.06324    144117.19    -34453.81    4392.3443   -38846.154    143.60565 
    4800    217.91986   -359.70923    144246.82   -34423.145    4374.9058    -38798.05    145.54712 
    4850    217.64077   -213.60893    144298.46   -34411.797    4369.3029     -38781.1    147.32388 
    4900    216.52085   -191.11877    144293.05   -34406.697    4346.8196   -38753.517    148.85968 
    4950    218.12363    -515.5594    144239.27   -34408.675    4378.9968   -38787.671    150.94008 
    5000    219.81299   -160.24936    144160.48   -34398.769     4412.912   -38811.681    152.63948 
    5050    221.78122   -73.869358    144081.95   -34410.236    4452.4256   -38862.661    154.26409 
    5100    212.60658   -114.53853    144048.87   -34393.111    4268.2377   -38661.348    156.01565 
    5150    217.00619   -291.33371    144056.95   -34403.643    4356.5633   -38760.207    157.51211 
    5200    217.89838   -23.468743    144110.11   -34369.668    4374.4746   -38744.142    159.45877 
    5250    224.35314   -264.62098    144171.54   -34352.374    4504.0588   -38856.433    161.14648 
    5300      222.575   -91.251657    144222.24   -34324.731    4468.3613   -38793.092    163.28595 
    5350    220.23553    155.17177    144269.04   -34319.562    4421.3947   -38740.957    165.17186 
    5400    220.71244   -13.201941    144365.12   -34323.089     4430.969   -38754.059    167.40249 
    5450    220.99278   -191.31124    144487.31   -34308.055    4436.5971   -38744.652    170.38873 
    5500     220.5777   -417.17262    144595.25   -34317.818    4428.2641   -38746.082     172.5155 
    5550    220.80124   -66.422452    144627.85   -34323.794    4432.7518   -38756.546    174.26651 
    5600    221.50636     18.14356    144668.72   -34306.345    4446.9075   -38753.252    175.87743 
    5650    223.48322   -252.05824    144714.99   -34299.289    4486.5946   -38785.884    177.50544 
    5700    222.90984   -53.068203    144733.37   -34269.431    4475.0835   -38744.515    179.93549 
    5750    224.91605   -373.99457    144673.63   -34276.017    4515.3597   -38791.376    181.83128 
    5800    223.61418    -178.2641    144523.57   -34290.978    4489.2236   -38780.202    183.62732 
    5850    221.39763   -523.79013    144367.46    -34297.19    4444.7247   -38741.915    185.56407 
    5900    219.74027   -46.943647    144212.32   -34266.524     4411.452   -38677.975    187.35366 
    5950    223.45523   -88.971676    144109.41   -34258.781    4486.0326   -38744.814    189.85341 
    6000    221.11649    213.09631    144059.25   -34286.473    4439.0806   -38725.553    192.27133 
    6050    217.59461     482.8956    144125.02   -34316.025    4368.3763   -38684.401    194.01527 
    6100    219.99875   -367.61321    144259.96   -34306.992    4416.6411   -38723.633    196.68767 
    6150     218.1796   -218.33367    144331.55   -34288.544    4380.1204   -38668.664    199.01904 
    6200    225.76151   -137.17386    144303.87   -34278.143    4532.3329   -38810.476    201.11642 
    6250    224.46431   -223.83148    144340.59   -34248.709    4506.2906       -38755     203.1231 
    6300     223.2524    27.897711    144419.29   -34263.811    4481.9606   -38745.772    205.88727 
    6350    221.25389    -118.8078    144532.33   -34282.728     4441.839   -38724.566    209.06414 
    6400    225.41605   -253.97592    144662.72    -34237.41    4525.3975   -38762.807     210.7008 
    6450    222.94752   -410.43433    144831.13   -34233.615    4475.8399   -38709.455    212.70239 
    6500    221.88222   -528.30449    144938.91   -34226.085    4454.4532   -38680.538    214.44102 
    6550    224.05739   -221.13093    144969.06   -34228.733    4498.1214   -38726.855    216.25348 
    6600     223.0487   -384.80555     144995.8   -34273.145    4477.8712   -38751.016    217.87287 
    6650    223.30647    142.84795    144947.73   -34307.116    4483.0461   -38790.162    220.00868 
    6700    216.70625   -198.79773     144850.3   -34307.105    4350.5416   -38657.647    222.64265 
    6750    218.40334   -125.73569    144687.67   -34326.459     4384.612   -38711.071    224.36697 
    6800    223.48464   -164.92423    144461.48   -34322.237    4486.6231    -38808.86    226.11829 
    6850    220.91615   -174.07193    144278.95   -34346.903    4435.0586   -38781.962    228.29553 
    6900    218.82271    -8.215945    144199.22   -34353.835    4393.0313   -38746.867    230.45443 
    6950    219.92535   -75.635316    144184.17   -34338.899    4415.1676   -38754.067    232.52937 
    7000    220.41553   -45.334115    144255.25   -34332.524    4425.0084   -38757.533     235.1267 
    7050    218.27364    262.00714    144340.16   -34316.991    4382.0082   -38698.999    237.54608 
    7100    219.86009    39.219085    144487.47   -34288.759    4413.8575   -38702.616    240.28684 
    7150    219.66928   -265.01189    144682.62    -34279.01    4410.0269   -38689.037    243.12882 
    7200    221.28238   -151.57711    144844.24   -34279.178    4442.4111   -38721.589    245.40696 
    7250    220.44287   -140.77164     144954.5   -34239.725    4425.5572   -38665.282    246.71277 
    7300    222.74482   -158.61222    145025.28    -34252.21    4471.7707    -38723.98    248.16283 
    7350    219.21031   -132.51136    145076.25   -34259.289    4400.8126   -38660.102    249.82626 
    7400    221.29677   -215.46365    145102.84   -34260.032    4442.6999   -38702.732    251.70236 
    7450    222.12502   -172.76361    145037.42   -34256.878    4459.3277   -38716.205    253.66268 
    7500    221.16368   -326.69006    144951.53   -34259.906     4440.028   -38699.934    255.97012 
    7550    220.58641   -265.25402     144872.4   -34306.387    4428.4389   -38734.826    257.78964 
    7600    219.53487   -51.995994    144771.07   -34305.588    4407.3284   -38712.916    258.76516 
    7650    218.11342    -264.4783     144630.4   -34292.447    4378.7918   -38671.239    260.45022 
    7700    219.18197   -45.629391    144485.82    -34292.31    4400.2436   -38692.553    262.19804 
    7750     225.6397    79.681828    144417.44   -34296.543    4529.8874    -38826.43    263.74233 
    7800    220.36485   -111.04232    144409.26   -34335.982    4423.9908   -38759.973    265.97773 
    7850    224.08642   -231.09078     144436.6   -34305.606    4498.7043   -38804.311    267.88509 
    7900     222.1194    -366.7157    144504.49   -34291.222    4459.2148   -38750.437    270.23297 
    7950    217.98088   -357.21529    144585.12   -34298.395    4376.1309   -38674.526    272.39951 
    8000    222.05148   -300.58934    144655.22   -34299.059    4457.8513    -38756.91    273.78946 
    8050    219.52859   -279.27826    144702.37   -34317.837    4407.2023   -38725.039    275.46457 
    8100    218.95861    68.512214    144744.41   -34335.733    4395.7595   -38731.493    277.24992 
    8150    218.05962   -286.23018    144802.66       -34363    4377.7116   -38740.712     279.6055 
    8200    219.04799   -70.522307    144890.94   -34338.997    4397.5539   -38736.551    281.85424 
    8250    218.41735    -150.9617    145012.53    -34332.57    4384.8934   -38717.463    283.42647 
    8300    220.78464   -343.66504    145099.79   -34325.433    4432.4185   -38757.852    285.78258 
    8350    220.94063   -471.54218    145123.77   -34364.585    4435.5502   -38800.136    287.84725 
    8400    219.90922   -257.34635    145096.59   -34363.274    4414.8437   -38778.118    289.63832 
    8450    215.34607   -464.40381    145038.45   -34354.422    4323.2351   -38677.657    291.15351 
    8500    218.26442   -91.015877    144899.34   -34336.208    4381.8232   -38718.031    292.83533 
    8550    221.48964   -295.30004     144790.9   -34309.469    4446.5719   -38756.041    294.80973 
    8600    218.29786   -161.60036    144703.73   -34301.691    4382.4945   -38684.186     296.9027 
    8650    221.49348   -196.39932    144596.83   -34279.414    4446.6491   -38726.063      299.106 
    8700    221.42467    141.33611    144476.57   -34259.704    4445.2675   -38704.971    301.16789 
    8750    221.21267    76.380386    144406.44   -34238.096    4441.0115   -38679.108    303.43298 
    8800    227.63911   -155.77696    144380.03   -34222.616    4570.0272   -38792.643    305.53968 
    8850    222.70009   -78.083726    144398.89   -34208.978    4470.8727   -38679.851    308.23139 
    8900    221.41752   -110.45012    144467.03    -34214.94    4445.1241   -38660.064    311.03097 
    8950    225.90683    193.44565    144552.08   -34217.335    4535.2502   -38752.586    313.53243 
    9000    221.47998   -504.23277    144640.33   -34203.868    4446.3779   -38650.246    315.70806 
    9050    221.34572   -139.84399    144654.53   -34222.219    4443.6826   -38665.902    317.89317 
    9100    225.05597     139.0879     144694.2   -34215.132    4518.1687   -38733.301     319.5349 
    9150    221.43318   -313.51754    144848.58   -34216.567    4445.4384   -38662.006    321.64349 
    9200    221.69961    -324.9592    145005.85   -34190.612    4450.7873   -38641.399    324.96568 
    9250    223.92985   -560.17273    145083.84   -34188.679    4495.5609    -38684.24    328.64359 
    9300    222.66847   -472.32494    145032.63   -34233.145    4470.2377   -38703.382    331.10659 
    9350    220.75577    90.379323    144873.56   -34239.628    4431.8388   -38671.466    333.01871 
    9400     221.0837   -2.2276075    144705.55   -34249.377    4438.4222   -38687.799    335.70976 
    9450    221.01028   -302.04564     144565.8   -34260.912    4436.9483    -38697.86    338.65893 
    9500    224.95651   -447.62729    144456.02   -34263.993     4516.172   -38780.165    340.36687 
    9550    222.41461    223.30125    144353.04   -34272.889    4465.1415    -38738.03    341.64995 
    9600    222.76769   -95.815658    144315.94    -34262.66    4472.2297    -38734.89    344.34925 
    9650    223.42453   -204.02247    144323.98   -34229.719    4485.4162   -38715.135    346.70981 
    9700    224.10163   -46.975806    144368.91   -34247.388    4499.0095   -38746.398    348.82435 
    9750     221.1455    430.72515    144469.72   -34293.807     4439.663    -38733.47    351.59877 
    9800    223.24364   -294.85095    144648.89   -34290.007    4481.7849   -38771.792    354.07708 
    9850    223.75858   -246.96178    144847.12   -34275.435    4492.1226   -38767.557     356.7305 
    9900    220.92537   -346.39648    145020.99    -34250.94    4435.2438   -38686.184    358.41779 
    9950    222.17269   -334.50042    145166.95   -34251.253    4460.2847   -38711.537    360.70786 
   10000    220.15879   -195.70322    145268.68   -34269.538    4419.8541   -38689.392    363.87961 
   10050    217.13169   -556.23018    145332.15   -34260.133    4359.0828   -38619.216    366.45289 
   10100    221.39372     -193.537    145320.05   -34266.382    4444.6461   -38711.028      368.866 
   10150    220.78025   -16.267817    145271.63   -34260.815    4432.3303   -38693.145    371.92727 
   10200    221.39489   -222.35857    145206.89    -34264.52    4444.6697    -38709.19    375.35459 
   10250     224.3608   -170.93963    145141.57   -34224.921    4504.2126   -38729.133     377.2023 
   10300    220.75543   -258.01001       145082   -34197.927     4431.832   -38629.759    379.10573 
   10350    224.32701   -285.84642    145004.58   -34216.542    4503.5342   -38720.076    380.21403 
   10400     222.3131   -625.83162    144939.57    -34223.83    4463.1035   -38686.933    381.35335 
   10450    220.68479   -74.728331    144772.42   -34205.099     4430.414   -38635.513    383.93253 
   10500    220.47244    305.98302     144661.2   -34193.125    4426.1509   -38619.276    385.38875 
   10550    223.57661   -108.87783    144663.97   -34205.362    4488.4693   -38693.831    387.05788 
   10600    222.77674   -7.6359482    144686.76   -34204.373    4472.4115   -38676.784    388.15518 
   10650    222.75861   -197.58611     144734.5   -34227.746    4472.0474   -38699.793    391.33033 
   10700    223.41026   -444.29624    144827.78   -34250.494    4485.1299   -38735.624    393.73732 
   10750    217.73608    -408.3817    144894.36   -34256.871    4371.2163   -38628.088    396.04706 
   10800    222.09133   -40.305679     144898.8   -34255.295    4458.6512   -38713.947    398.08735 
   10850    223.60725   -360.49696    144818.96   -34262.039    4489.0845   -38751.124    399.84245 
   10900    220.01802   -306.92298     144695.3   -34263.767    4417.0281   -38680.795    401.40586 
   10950    221.77701   -95.919596    144538.24   -34286.886    4452.3412   -38739.228    402.55254 
   11000    221.98459   -35.318533    144425.44    -34303.93    4456.5084   -38760.438    405.26002 
   11050    218.24886   -189.55612    144346.38   -34298.572    4381.5107   -38680.083    407.77407 
   11100    220.20166   -92.410653    144270.15   -34347.001    4420.7146   -38767.716    410.47206 
   11150     222.3572   -210.43457    144163.67   -34326.197    4463.9887   -38790.186    411.35759 
   11200    220.42864   -198.52736    144062.02   -34329.598    4425.2715   -38754.869    413.51711 
   11250    219.02154    70.984375    143977.04   -34325.051    4397.0229   -38722.074     415.8016 
   11300     221.9184   -100.14559    143925.73   -34348.966    4455.1796   -38804.146    417.67693 
   11350      220.438   -80.185562     143921.5   -34340.329    4425.4595   -38765.789    420.25768 
   11400    222.85498    110.11371    143914.46   -34366.289    4473.9821   -38840.271     422.0877 
   11450    222.51039    78.400843    143988.28   -34345.899    4467.0641   -38812.964    423.17659 
   11500    222.15862     287.6393    144116.57    -34298.54    4460.0021   -38758.543    424.83058 
   11550    223.74078   -398.72381    144309.91   -34307.056    4491.7652   -38798.821    427.66216 
   11600    220.25653   -301.10342     144456.2   -34330.946    4421.8163   -38752.762    429.38411 
   11650    222.47458   -390.38664    144520.92   -34380.854    4466.3453     -38847.2    431.85028 
   11700    220.79043   -323.99637    144488.12   -34356.072    4432.5347   -38788.607    433.93049 
   11750    217.64106   -128.76522    144406.84   -34396.533    4369.3087   -38765.842    435.72532 
   11800    219.63144    -95.85935    144364.79   -34415.559    4409.2672   -38824.826    438.21496 
   11850    217.00174   -97.738463    144360.93   -34419.313     4356.474   -38775.787    440.49725 
   11900    221.25123   -157.07431    144349.25     -34406.8    4441.7855   -38848.585    441.48183 
   11950    221.34417   -262.92772    144384.71   -34404.984    4443.6516   -38848.636    443.04306 
   12000    218.08174   -259.11082    144403.05   -34409.259    4378.1557   -38787.415     445.2666 
   12050    217.72297   -232.15602    144346.24   -34431.674    4370.9531   -38802.627    446.68337 
   12100    220.34482   -53.808881     144336.1   -34407.593    4423.5888   -38831.182    448.07869 
   12150    219.46434   -18.357731    144413.71   -34393.459    4405.9124   -38799.371    450.32429 
   12200    220.54012   -126.50415    144522.04   -34366.697    4427.5095   -38794.207    452.80854 
   12250    213.64893   -131.89001    144628.21   -34378.647    4289.1638    -38667.81    454.40192 
   12300    223.71875   -277.11571    144719.03   -34325.772     4491.323   -38817.095    456.04808 
   12350    219.32813   -187.36862    144780.05   -34359.741     4403.178   -38762.919    458.39519 
   12400    222.24966    22.310405    144808.07    -34324.67      4461.83     -38786.5    460.01933 
   12450    218.46318   -296.55958    144744.31   -34325.186    4385.8134   -38710.999    462.36287 
   12500    219.73691    267.83497    144643.23   -34337.795    4411.3845   -38749.179    463.88067 
   12550    219.92753   -359.41232    144617.33    -34323.03    4415.2113   -38738.241     465.7825 
   12600    221.94202    36.854942    144560.32   -34345.438    4455.6538   -38801.092    467.99437 
   12650    222.00273   -228.28881     144521.5   -34339.758    4456.8725    -38796.63    470.81397 
   12700    221.95251   -71.836587    144511.39    -34349.11    4455.8645   -38804.974    473.05827 
   12750    219.43427     143.8885    144540.12   -34340.281    4405.3088    -38745.59    475.69601 
   12800     220.4776   -76.591343    144636.95   -34365.184    4426.2545   -38791.439    476.92288 
   12850    217.93385   -397.93513    144754.97   -34377.205    4375.1867   -38752.392    479.22463 
   12900    218.64248   -345.93288    144802.13   -34364.105    4389.4131   -38753.519    481.29775 
   12950    219.63332   -181.51404    144792.71   -34360.234    4409.3049   -38769.539    484.46684 
   13000    218.32077   -169.55707    144821.11   -34328.639    4382.9544   -38711.593     487.3333 
   13050    223.83011   -91.378231    144879.86   -34306.918    4493.5586   -38800.476    490.43345 
   13100    221.06587   -185.42523    144929.83   -34297.305    4438.0645   -38735.369    492.77337 
   13150    217.73053   -190.79559    144957.32   -34313.794     4371.105   -38684.899    495.42774 
   13200    221.21938   -555.09212    144951.63   -34298.856    4441.1462   -38740.002    497.39347 
   13250    218.24078   -146.86147     144797.6   -34293.667    4381.3486   -38675.016    498.87248 
   13300    216.89084    -292.4573    144581.84   -34305.067    4354.2475   -38659.314    501.69034 
   13350    223.56639   -406.34137    144325.14   -34288.945    4488.2642   -38777.209    503.50863 
   13400    224.28071    110.75234    144085.83   -34312.082    4502.6048   -38814.687    504.97587 
   13450    221.82636    104.52258     143927.2   -34297.761    4453.3319   -38751.093    507.24629 
   13500    223.28329    -58.90691    143841.12   -34313.655    4482.5808   -38796.236    509.20023 
   13550     217.8387    77.102937    143804.83   -34291.053    4373.2764   -38664.329    510.88659 
   13600    220.92438    221.12833    143790.97   -34308.597     4435.224   -38743.821    513.55518 
   13650    219.86702   -61.152313    143852.09   -34331.927    4413.9965   -38745.923    516.45184 
   13700    218.70629    95.894835    143977.72   -34340.084     4390.694   -38730.778    519.17813 
   13750    223.76121   -252.85792    144166.27   -34344.336    4492.1754   -38836.512    521.11571 
   13800    219.91007       192.03    144362.57   -34333.093    4414.8608   -38747.953    523.78775 
   13850    224.25893   -396.07145    144578.16   -34328.295    4502.1675   -38830.462    526.58651 
   13900    219.80173    -70.18365    144764.96   -34339.515    4412.6857     -38752.2    529.10418 
   13950    220.07268   -496.96867    144948.42   -34331.475    4418.1253   -38749.601     532.2878 
   14000    219.59842   -597.54558    145083.32   -34352.753    4408.6042   -38761.358     535.4497 
   14050    220.60893   -149.39935    145124.35   -34352.207    4428.8911   -38781.098    537.31281 
   14100    222.88724    -249.8305    145073.56   -34335.192    4474.6297   -38809.822    539.14859 
   14150    222.09512   -118.49477    144975.19   -34338.497    4458.7273   -38797.224    541.13484 
   14200    218.81387   -353.51776    144884.96   -34353.814    4392.8537   -38746.668    542.98918 
   14250    220.12192   -212.72443    144801.75   -34387.677    4419.1138   -38806.791    545.65738 
   14300     224.3528   -219.15268    144713.23    -34375.55     4504.052   -38879.602    547.28442 
   14350    218.55223   -159.17976    144608.15   -34400.386    4387.6012   -38787.987    549.12022 
   14400    218.05625   -258.42481    144462.25   -34387.587    4377.6439    -38765.23    551.40581 
   14450    223.03417    -493.5755     144297.3   -34376.198    4477.5795   -38853.778    553.20644 
   14500     223.3803   -38.859263    144040.42   -34359.584    4484.5284   -38844.112    554.84447 
   14550    222.69428    -274.8939    143816.64   -34376.122    4470.7561   -38846.878    557.34967 
   14600    219.23664    90.125597    143672.36   -34369.776    4401.3412   -38771.117    559.19667 
   14650    221.65102   -369.46253    143666.51   -34370.642    4449.8117   -38820.454     560.4282 
   14700    223.04593    144.18296    143678.39   -34356.505    4477.8156    -38834.32    562.75958 
   14750    220.71983    38.131888    143727.58   -34364.213    4431.1174    -38795.33    565.16615 
   14800    222.83796   -34.566129    143809.65   -34359.384    4473.6405   -38833.025    567.72368 
   14850    222.63605    -122.5945    143949.54   -34376.699    4469.5869   -38846.286    569.77215 
   14900    223.63258    33.067472    144142.86   -34376.583     4489.593   -38866.176    571.50385 
   14950    218.90923   -419.23356    144341.19   -34408.301    4394.7681   -38803.069    573.25621 
   15000    217.68295    5.2814721    144478.19   -34431.881    4370.1497    -38802.03    574.97961 
   15050    219.11245   -424.57065    144611.16   -34438.768    4398.8479   -38837.616    577.22186 
   15100    212.88779   -179.48069    144705.54   -34452.162    4273.8833   -38726.045    579.72667 
   15150    216.14541   -110.86446    144728.47   -34460.386    4339.2824   -38799.668    580.88748 
   15200    215.88554   -248.36699    144718.24   -34492.894    4334.0653   -38826.959    581.89074 
   15250    212.94541   -438.70403    144682.98   -34472.304      4275.04   -38747.344    582.57282 
   15300    218.47705   -107.94324    144586.92   -34450.049    4386.0918   -38836.141    583.34816 
   15350    216.83067   -59.767675    144469.45   -34467.669    4353.0395   -38820.708    583.92406 
   15400    217.08793   -264.18502    144356.93   -34486.976    4358.2043   -38845.181    584.34553 
   15450    216.09345   -309.88548    144212.21   -34558.245    4338.2393   -38896.485    585.44566 
   15500    213.18023   -106.95838    144063.03   -34588.919    4279.7542   -38868.673    587.01788 
   15550    215.35282   -134.88601    143916.43   -34562.817    4323.3707   -38886.188     588.6966 
   15600    218.61083   -62.689024    143785.41   -34531.352    4388.7776    -38920.13    589.25507 
   15650    219.14552    86.908169    143730.18   -34504.001     4399.512   -38903.513    590.01695 
   15700    220.29155   -251.50797    143804.63   -34471.964    4422.5193   -38894.483    592.39145 
   15750    217.66177   -335.67588    143893.18   -34458.205    4369.7246   -38827.929    593.49524 
   15800    215.96544    -184.8903    143936.79   -34457.811    4335.6694   -38793.481    595.99678 
   15850    216.03218    -100.3822    143974.58    -34469.63    4337.0092   -38806.639    597.68345 
   15900    218.75419   -385.54261    144000.77   -34458.833    4391.6556   -38850.489    599.97091 
   15950    217.62273   -230.04138     144021.1   -34450.615    4368.9408   -38819.556    602.40193 
   16000    216.46407   -196.28294    144061.88   -34447.516    4345.6798   -38793.196    603.98232 
   16050    217.94802   -338.24632    144120.34   -34442.319    4375.4712    -38817.79    606.47989 
   16100    218.34874   -262.68535    144091.63   -34447.786     4383.516   -38831.302    608.73015 
   16150    219.45539   -197.82661    144052.96   -34429.715    4405.7329   -38835.448    610.72881 
   16200    223.01097    -195.7673     144020.1   -34374.649    4477.1137   -38851.763    612.19681 
   16250    217.88987   -53.317811     144002.2   -34383.531    4374.3037   -38757.835    614.62041 
   16300    217.78546    134.60716    144009.97   -34366.646    4372.2076   -38738.854    616.17896 
   16350     220.0043    192.68945    144052.96   -34343.982    4416.7525   -38760.735     620.2248 
   16400    219.64181   -290.59035    144172.11   -34381.501    4409.4752   -38790.977    622.20327 
   16450     219.8079   -167.99001    144262.06   -34363.126    4412.8096   -38775.936    624.55482 
   16500    218.59492   -527.91086    144343.09   -34366.058    4388.4581   -38754.516    627.04481 
   16550    213.15559   -73.659681    144359.42   -34391.883    4279.2596   -38671.143    628.85459 
   16600     219.1165   -159.39838    144341.26   -34394.537    4398.9293   -38793.466    630.82574 
   16650    223.11518   -471.00002     144338.4   -34409.639    4479.2059   -38888.845    632.16109 
   16700      220.302   -11.811499    144332.91   -34377.733    4422.7292   -38800.462    634.14195 
   16750     219.2816   -279.29767    144364.41   -34366.519    4402.2438   -38768.763    636.11343 
   16800    217.79031    96.978542    144357.69   -34331.462    4372.3051   -38703.767      637.018 
   16850    219.05341   -321.69221    144379.98   -34325.552    4397.6627   -38723.214    639.63036 
   16900    220.09055   -184.72623    144397.04   -34355.294     4418.484   -38773.778    641.75394 
   16950    225.96278   -288.04994    144429.31   -34344.382    4536.3736   -38880.756     643.7688 
   17000    222.29705   -212.46501    144482.58   -34366.479    4462.7812   -38829.261    644.84739 
   17050    219.55739    170.78062    144586.14   -34349.435    4407.7805   -38757.216    646.41688 
   17100    217.42933   -213.68544    144764.23    -34335.84     4365.058   -38700.898    648.66029 
   17150    221.73939   -427.22554    144947.86   -34343.415    4451.5858   -38795.001     651.4992 
   17200    218.77925   -451.64218    145071.82   -34343.774    4392.1588   -38735.933    654.25621 
   17250    220.09852   -220.63761    145132.18   -34365.753    4418.6442   -38784.397    656.79572 
   17300    214.96311   -475.18283    145157.68   -34383.663    4315.5469    -38699.21    657.69331 
   17350     216.0307   -279.43441    145092.08   -34385.341    4336.9796   -38722.321    659.46351 
   17400    219.22875   -321.54865    144971.72   -34377.205    4401.1829   -38778.388    659.67174 
   17450    217.94098    -524.6318    144812.95   -34393.847    4375.3299   -38769.177    662.35044 
   17500    214.60802   -264.93564    144604.86   -34428.474    4308.4183   -38736.892    663.69821 
   17550    219.44656   -284.12965    144364.03   -34433.694    4405.5555   -38839.249    665.02931 
   17600    217.82872   -367.54334    144148.06   -34420.239    4373.0761   -38793.315    667.04166 
   17650    217.95737   -297.59518    143955.24   -34422.327    4375.6589   -38797.986    670.05281 
   17700    222.26779   -122.34184    143821.65   -34428.896    4462.1938    -38891.09    671.72197 
   17750    220.02828   -166.91291    143756.17   -34475.922     4417.234   -38893.155    673.34827 
   17800    216.03684   -164.56716     143792.4   -34463.626    4337.1028   -38800.729     676.1331 
   17850    220.92913   -112.74548    143854.65   -34498.394    4435.3193   -38933.713    678.62434 
   17900    216.57816    41.958837    143970.01   -34483.975    4347.9703   -38831.945    681.03105 
   17950     217.7334   -14.684991    144176.48    -34489.72    4371.1625   -38860.883    683.71001 
   18000    216.99487   -684.53854    144387.95    -34499.85    4356.3359   -38856.186    686.11259 
   18050    218.14311   -120.46639    144496.71   -34522.163    4379.3877   -38901.551    688.19078 
   18100    213.95273   -63.528562    144555.83   -34512.494    4295.2626   -38807.757    690.73508 
   18150    217.22133   -237.09134    144554.16    -34514.38    4360.8823   -38875.262    692.17527 
   18200    211.06461   -452.48674    144553.91   -34521.858    4237.2815    -38759.14    693.81986 
   18250      219.118   -207.02646    144541.97   -34528.348    4398.9595   -38927.307    695.31048 
   18300    215.50889   -238.39528    144462.28   -34519.933    4326.5039   -38846.437    696.46213 
   18350    214.56201   -151.22444    144389.48   -34506.977    4307.4945   -38814.472    698.75059 
   18400    212.29451    -135.8553    144298.61   -34516.521    4261.9727   -38778.494    700.03108 
   18450    216.13227   -143.84158    144207.84   -34509.689    4339.0186   -38848.707    701.53703 
   18500    219.44635   -192.81138    144140.88   -34487.795    4405.5514   -38893.347    703.25744 
   18550    218.36656    -91.83549    144106.42   -34474.682    4383.8736   -38858.556    705.60355 
   18600    218.31402   -17.529538    144122.42   -34454.274     4382.819   -38837.093    707.20157 
   18650     217.8192   -336.77467     144160.2   -34450.952     4372.885   -38823.837    709.78101 
   18700    214.19635   -44.671188    144108.34   -34420.257    4300.1536   -38720.411    712.28275 
   18750    217.10201   -270.85968    144028.61   -34379.568    4358.4869   -38738.055    715.03827 
   18800    221.51741    137.42237     143999.3     -34381.6    4447.1294    -38828.73    716.94629 
   18850    220.82357    110.07285    144049.94   -34376.741       4433.2   -38809.941    718.65728 
   18900    217.71961    74.029408    144179.76   -34409.039    4370.8857   -38779.924    721.02673 
   18950    217.53517   -323.74913    144302.07   -34434.702     4367.183   -38801.885    724.55423 
   19000    220.68919   -522.88545     144345.9   -34404.301    4430.5022   -38834.803       725.69 
   19050    219.04717   -129.19763    144371.64   -34423.226    4397.5374   -38820.764    727.73342 
   19100    218.66099   -8.5356475    144438.57   -34422.663    4389.7847   -38812.448    729.44797 
   19150    216.69406    38.887526    144496.54   -34410.329    4350.2971   -38760.626    730.92314 
   19200    218.42224   -9.9434975    144546.86   -34379.244    4384.9915   -38764.236    732.90839 
   19250    219.51066   -348.11086    144642.95   -34407.024    4406.8424   -38813.867    735.16929 
   19300    218.52842   -405.69407    144720.42   -34381.145    4387.1231   -38768.269    738.52343 
   19350    220.58071   -415.82317    144779.26   -34369.857    4428.3244   -38798.181    739.77583 
   19400    219.76396   -141.97612    144768.98    -34341.94    4411.9276   -38753.868    741.29175 
   19450    220.40018   -285.07983    144720.54   -34331.648    4424.7002   -38756.348    742.86912 
   19500    219.07676   -188.11059    144627.86   -34347.701    4398.1315   -38745.832    745.19329 
   19550    218.17655   -156.23145    144505.74   -34382.878    4380.0592   -38762.937    745.96619 
   19600     223.7548   -452.82834    144417.71   -34382.612    4492.0467   -38874.659     747.8779 
   19650    222.21147     95.54775    144378.36   -34366.693    4461.0632   -38827.756    748.26331 
   19700     215.5745   -191.83377    144450.42   -34368.162    4327.8211   -38695.983     751.3752 
   19750    215.76809    13.415722    144538.89   -34356.674    4331.7074   -38688.382    753.84926 
   19800    219.21652   -230.74521    144689.56   -34374.175    4400.9372   -38775.112    757.10527 
   19850    219.32651    66.546925    144818.46   -34359.425    4403.1454   -38762.571    758.96694 
   19900    219.64463   -680.00455    144980.93   -34340.803    4409.5318   -38750.335    761.12686 
   19950    221.82424   -496.13824    145079.47   -34338.207    4453.2893   -38791.496     762.0039 
   20000    221.98661    82.825013    145086.53   -34356.422     4456.549   -38812.971    762.25106 
   20050    218.27136   -430.65897    145056.72   -34379.513    4381.9625   -38761.476    764.83571 
   20100    215.80537   -220.76523    144990.05   -34387.733    4332.4559   -38720.189    767.17809 
   20150    216.91042   -196.76978    144803.88   -34401.122    4354.6406   -38755.762    768.90493 
   20200    215.99123    62.850701     144513.1   -34389.026    4336.1871   -38725.213    769.78552 
   20250    217.16183    -396.1375    144255.82   -34391.257    4359.6879   -38750.945     772.3257 
   20300     216.9106   -2.2729114     144025.9   -34393.803    4354.6443   -38748.447    773.77258 
   20350    219.60941   -108.54163    143824.51   -34365.275    4408.8249     -38774.1    773.97448 
   20400    222.32472    140.21373    143747.57    -34373.31    4463.3368   -38836.647    774.69919 
   20450    221.03758    367.69891    143814.67   -34391.362    4437.4965   -38828.859    776.90994 
   20500    218.58332    -600.6475    143985.34   -34398.711    4388.2253   -38786.936     779.5895 
   20550     220.4482   -525.95526    144122.22   -34389.873    4425.6642   -38815.537    781.94505 
   20600      218.326   -79.353671    144232.62   -34387.109    4383.0594   -38770.169    783.50042 
   20650    217.99752   -632.13412    144327.01   -34399.381    4376.4649   -38775.846     785.6143 
   20700    219.74726   -62.129638    144350.39   -34412.069    4411.5924   -38823.662    787.23111 
   20750    217.64505   -333.92729    144396.04   -34367.024    4369.3889   -38736.413    790.05553 
   20800     219.1807   -317.19364     144430.6   -34402.465    4400.2182   -38802.683    790.96178 
   20850    216.03207     -76.5946    144447.04   -34375.627     4337.007   -38712.634    792.86622 
   20900    221.26465    127.43603    144419.94   -34371.332    4442.0552   -38813.387    793.08175 
   20950    213.21333    12.897628    144378.89   -34389.582    4280.4187       -38670    794.84626 
   21000    217.16968    123.41863    144338.75   -34389.383    4359.8455   -38749.228    795.99528 
   21050    216.29157   -336.47302    144357.77   -34402.545    4342.2167   -38744.761    798.96174 
   21100    219.14806   -19.317745    144378.55    -34388.62     4399.563   -38788.183    799.98478 
   21150    218.70703   -353.77852    144428.69   -34394.024    4390.7089   -38784.733    803.62642 
   21200    218.43478   -34.191597    144478.24   -34385.141    4385.2433   -38770.384    806.48989 
   21250    221.65073   -53.622056     144532.8   -34390.662    4449.8059   -38840.468    808.93117 
   21300    215.16989   -371.51493    144593.06   -34378.278    4319.6981   -38697.976     810.5849 
   21350    219.94524   -267.49441    144612.51   -34372.591    4415.5669   -38788.158    814.56558 
   21400    217.24287    -179.3096    144584.34   -34375.161    4361.3149   -38736.476    816.61496 
   21450    224.08691    340.14299    144609.54   -34355.626    4498.7141    -38854.34    819.59502 
   21500    216.83831    -393.3024     144751.6   -34343.134     4353.193   -38696.327    823.02893 
   21550    221.84756   -59.445413    144760.06   -34331.369    4453.7574   -38785.127    825.45284 
   21600    219.48889   -396.43568    144712.37   -34319.349    4406.4053   -38725.754    827.66542 
   21650    219.85622   -475.45962    144637.71   -34290.779    4413.7798   -38704.559    829.31515 
   21700    218.92076   -191.18492    144538.58   -34272.195    4394.9996   -38667.195     831.5181 
   21750    223.65924   -111.86117    144399.01   -34283.883    4490.1283   -38774.011    832.86955 
   21800    226.73004   -44.876446    144280.84   -34267.057    4551.7769   -38818.834    834.55681 
   21850    221.91264   -120.20658    144256.56   -34267.079     4455.064   -38722.143    836.73879 
   21900     220.4951   -134.15354    144291.46    -34281.76    4426.6059   -38708.366    838.40224 
   21950    217.84619    115.54676    144327.61   -34301.063    4373.4269    -38674.49    840.42126 
   22000    221.55869   -162.34394    144320.87   -34286.346    4447.9582   -38734.305    844.22421 
   22050    220.80787   -150.37982    144292.95   -34281.721    4432.8849   -38714.606    847.10545 
   22100     225.2874   -380.69056    144299.16   -34272.516    4522.8148   -38795.331    849.52522 
   22150    224.78034   -95.340288    144327.02   -34268.736    4512.6352   -38781.371    851.55724 
   22200     224.2411   -439.52265    144401.43   -34245.822    4501.8096   -38747.631    853.27003 
   22250    225.81128   -192.42634    144476.59   -34265.212    4533.3321   -38798.544    856.16088 
   22300    217.95816   -154.71597    144568.59   -34212.655    4375.6748   -38588.329    858.57889 
   22350    224.99003   -324.38871    144763.02   -34229.178    4516.8449   -38746.023    862.19312 
   22400    224.56126   -393.72976    144994.85    -34239.56    4508.2369   -38747.797    864.93037 
   22450    219.36437   -390.91443    145192.48   -34231.049    4403.9055   -38634.955    866.72049 
   22500    216.18077   -304.17123    145304.61   -34216.031    4339.9923   -38556.023    869.63173 
   22550    217.34556   -276.76406     145304.1   -34242.275    4363.3764   -38605.651    871.79957 
   22600       221.63   -188.51424    145234.18   -34224.163    4449.3898   -38673.552    874.42151 
   22650    219.30212   -419.81556    145126.73   -34222.363    4402.6557   -38625.018    877.16922 
   22700    222.30148   -296.49961    145002.33     -34243.9    4462.8702    -38706.77     878.8391 
   22750    220.97741   -59.642697    144890.23   -34265.459    4436.2885   -38701.748    881.20132 
   22800    219.97806   -264.90817    144826.99   -34259.676    4416.2257   -38675.902    884.28352 
   22850    222.67681   -326.35082    144755.94   -34268.816    4470.4053   -38739.222    887.27549 
   22900    220.22609    22.638575    144658.25   -34278.674    4421.2052   -38699.879    889.05805 
   22950    224.27959   -375.92874     144587.9   -34293.667    4502.5822    -38796.25     891.2325 
   23000    225.02989    37.982068    144512.74   -34294.114     4517.645   -38811.759    893.87788 
   23050    220.06148   -105.74885    144512.23   -34273.188    4417.9005   -38691.089    896.40855 
   23100    221.27416   -357.77345    144542.96   -34251.315     4442.246   -38693.561    898.98733 
   23150    221.56025   -308.48161    144569.13   -34270.123    4447.9894   -38718.112    901.46981 
   23200    222.29794    -201.6753    144546.22   -34271.478    4462.7991   -38734.277    905.05662 
   23250    222.12627   -48.555072    144479.62   -34276.207    4459.3528    -38735.56    908.26864 
   23300    223.99734    59.703718     144412.8   -34289.775    4496.9158   -38786.691    910.16454 
   23350    221.45021   -379.10832    144365.77   -34306.512    4445.7803   -38752.293    912.16695 
   23400     225.2426    55.800187    144286.58   -34291.811    4521.9153   -38813.726    913.86056 
   23450    225.29918   -406.45019    144269.23   -34315.527    4523.0512   -38838.578    916.50068 
   23500    219.89395    44.744952    144233.59   -34326.726    4414.5372   -38741.263    917.85282 
   23550    218.88828    -395.8352    144274.88   -34328.441    4394.3477   -38722.788    920.38295 
   23600    218.33673   -30.626331    144283.97   -34316.422    4383.2749   -38699.697     922.6471 
   23650    219.36055    155.50528    144326.05   -34283.889    4403.8289   -38687.717    925.66707 
   23700    223.97076   -382.45106    144456.71   -34265.417    4496.3822   -38761.799    928.38765 
   23750    219.56694   -405.31423    144608.15   -34254.599    4407.9723   -38662.571    931.35649 
   23800    224.73302   -15.549152    144707.52   -34243.475    4511.6851    -38755.16    936.56584 
   23850    221.06388   -219.07597    144775.41   -34256.558    4438.0245   -38694.583    940.16186 
   23900     223.5163     116.2853    144831.24    -34250.68    4487.2587   -38737.938    942.23322 
   23950    219.78579    -134.0619    144899.37   -34287.439    4412.3659   -38699.805    945.99352 
   24000    220.50788   -509.05819    144898.57   -34291.456    4426.8624   -38718.319     948.7172 
   24050    220.39353   -127.24326    144822.14    -34269.75    4424.5667   -38694.317    951.12191 
   24100     221.1725   -248.69758    144727.99   -34252.456    4440.2052   -38692.661    954.73269 
   24150    220.18582   -291.46447    144627.08   -34255.188    4420.3967   -38675.585    957.51752 
   24200    221.32685    -37.33731    144569.69   -34272.612    4443.3038   -38715.916    959.31999 
   24250    222.72798   -230.35795    144558.53   -34274.274    4471.4326   -38745.707     960.7332 
   24300    217.01997    129.68845    144482.74   -34278.249    4356.8399   -38635.089    963.83855 
   24350    223.50535    20.744661    144424.87    -34281.62    4487.0389   -38768.659    966.63626 
   24400    220.63473    -202.6525    144376.74   -34288.249    4429.4089   -38717.658    969.07707 
   24450    219.41811   -106.33797    144279.57   -34303.501    4404.9844   -38708.485     972.5596 
   24500    220.77374    156.30187    144203.61   -34308.333    4432.1998   -38740.532    974.39828 
   24550    222.00291   -96.538701     144184.8   -34306.714    4456.8762   -38763.591    976.31022 
   24600    219.97404   -85.085346    144236.33   -34293.152    4416.1452   -38709.297    978.59594 
   24650    221.20837   -77.609683    144350.83   -34272.768    4440.9253   -38713.693    982.30232 
   24700    219.25209   -165.71377    144476.36     -34245.6    4401.6513   -38647.251     983.7134 
   24750    221.19637   -64.509063    144597.72   -34225.586    4440.6844    -38666.27    986.41805 
   24800    220.77078    -219.6949     144744.2   -34189.189    4432.1402   -38621.329    988.99528 
   24850    221.33626    73.491007    144816.12   -34166.114    4443.4928   -38609.607     991.4715 
   24900    228.37556   -185.78245    144877.79   -34177.288    4584.8119   -38762.099    993.57685 
   24950    223.70839   -260.69297    144964.19    -34191.13    4491.1149   -38682.245    997.20244 
   25000    221.95816   -490.90728    145081.56   -34214.543    4455.9778    -38670.52    1000.7035 
   25050    218.94782   -114.55703    145134.43   -34217.181     4395.543   -38612.724    1003.7206 
   25100    223.45501   -175.83576    145141.54   -34200.141    4486.0282   -38686.169    1005.1147 
   25150    221.51927   -53.324157    145106.55   -34221.573    4447.1668   -38668.739    1007.9492 
   25200    219.45955   -139.65844     145040.8   -34244.813    4405.8164   -38650.629    1012.5435 
   25250    223.05524   -613.75936    144925.29   -34282.188    4478.0024    -38760.19    1016.2054 
   25300    217.63255    -356.1887    144761.67   -34306.528    4369.1379   -38675.666     1018.542 
   25350    220.93653   -267.08694    144615.83   -34329.859    4435.4679   -38765.326    1020.5799 
   25400    220.60908   -235.78248    144480.62   -34333.022    4428.8939   -38761.916     1022.436 
   25450    218.73755    46.337393    144370.14   -34312.218    4391.3217   -38703.539    1025.6617 
   25500    218.89271   -194.39958    144312.38   -34304.433    4394.4365   -38698.869    1026.9345 
   25550    221.35554   -190.94703    144277.88   -34323.287    4443.8797   -38767.167    1029.0057 
   25600    220.45919   -36.488204    144275.75   -34373.173    4425.8848   -38799.057    1033.1593 
   25650    220.04951    -289.0668     144294.6   -34358.214    4417.6601   -38775.874    1035.6006 
   25700    221.25358   -12.899523    144343.01   -34348.784    4441.8328   -38790.617    1038.3935 
   25750    217.43769    144.12245    144428.85   -34324.565    4365.2259   -38689.791    1040.9393 
   25800    220.87576   -101.12936    144530.14   -34339.003    4434.2478   -38773.251    1042.7708 
   25850    219.46345    -259.1266    144621.76   -34309.323    4405.8946   -38715.218    1045.9159 
   25900    223.19002   -426.22996    144643.66   -34308.718    4480.7083   -38789.426    1049.4674 
   25950    219.11132    -55.25565    144635.94   -34318.501    4398.8254   -38717.326     1052.613 
   26000    216.73201     160.2348    144622.56   -34305.153    4351.0589   -38656.212    1056.5819 
   26050    220.93937   -315.93563     144587.6   -34366.585    4435.5249    -38802.11    1058.3155 
   26100    219.27435   -225.33752    144460.97   -34385.433    4402.0982   -38787.531    1058.7252 
   26150    222.83892    165.88522    144346.02   -34367.449    4473.6597   -38841.108    1061.4811 
   26200    221.34597   -240.39856    144259.93    -34362.04    4443.6877   -38805.728    1064.8419 
   26250    220.61647   -78.974144    144196.75    -34387.35    4429.0424   -38816.392      1068.16 
   26300    222.67674    18.227705    144187.51   -34402.739    4470.4039   -38873.143    1070.8252 
   26350    218.22515   -177.95041    144289.62   -34406.368    4381.0348   -38787.403     1074.924 
   26400    216.13744   -203.66272    144402.17   -34398.286    4339.1224   -38737.408    1079.0323 
   26450    223.82908   -460.65481    144493.16   -34375.564     4493.538   -38869.102    1081.8805 
   26500    219.78952   -196.30039    144533.61   -34394.432    4412.4406   -38806.873    1084.4423 
   26550    216.94337   -174.75301    144578.68   -34392.322     4355.302   -38747.624    1087.1332 
   26600    219.27034   -306.76847    144631.82   -34394.273    4402.0178   -38796.291     1088.495 
   26650    215.01519   -239.13301    144664.63   -34373.623    4316.5923   -38690.216     1091.514 
   26700    219.22506   -299.95958    144678.53   -34357.434    4401.1088   -38758.542    1093.5454 
   26750    221.88732   -361.52052    144616.91   -34362.595    4454.5556    -38817.15    1097.0308 
   26800    219.72343   -198.61371    144482.39   -34387.565     4411.114   -38798.679    1099.5944 
   26850    222.00247   -164.97883    144317.51   -34372.404    4456.8674   -38829.271     1102.064 
   26900    225.53678   -255.59013    144221.24       -34354    4527.8214   -38881.821    1104.7207 
   26950    218.26569   -212.99664    144154.23   -34371.669    4381.8486   -38753.518    1106.7981 
   27000    216.13817   -64.757078    144116.78   -34381.211    4339.1371   -38720.348     1109.785 
   27050    216.52126   -45.230275    144113.22   -34383.556     4346.828   -38730.384    1113.9832 
   27100    217.43898   -193.43759    144167.45   -34381.533    4365.2519   -38746.785    1117.4983 
   27150    217.71522   -290.89683    144268.39   -34401.082    4370.7976    -38771.88    1120.1102 
   27200    217.84355   -378.19975    144287.61   -34368.787    4373.3738   -38742.161    1122.0375 
   27250    220.54123   -172.55154    144277.96   -34357.722     4427.532   -38785.254    1123.3999 
   27300    219.95323   -235.63543    144262.37   -34350.667    4415.7274   -38766.395    1126.2415 
   27350    221.27892    -176.9014    144239.71   -34348.914    4442.3416   -38791.256    1129.0141 
   27400    216.65773   -121.04646    144252.19   -34327.338    4349.5676   -38676.906    1132.5273 
   27450     222.2296   -300.30407    144321.73   -34337.906    4461.4271   -38799.333    1135.1053 
   27500    224.71146    -64.85632    144421.16   -34314.573    4511.2523   -38825.825    1137.0014 
   27550    217.80639   -272.78127    144592.56   -34330.598    4372.6278   -38703.225    1141.0213 
   27600    220.79846   -154.22057    144740.03   -34337.233    4432.6959   -38769.929    1144.0601 
   27650    220.30604   -163.82506    144860.57   -34353.075    4422.8103   -38775.885    1146.0429 
   27700    221.01399   -520.48158    144928.31   -34340.375    4437.0229   -38777.398    1148.9025 
   27750    220.36666   -212.72165    144912.08   -34340.746    4424.0273   -38764.773    1151.5873 
   27800    219.53077   -217.09788    144805.68   -34327.571    4407.2462   -38734.818     1153.913 
   27850    219.07172   -71.948043    144691.24   -34321.151    4398.0304   -38719.182    1156.2446 
   27900    219.56438   -37.832706    144619.75    -34325.66    4407.9209    -38733.58    1158.9091 
   27950    219.23831   -111.51281    144577.15    -34328.32    4401.3748   -38729.695    1161.9587 
   28000    223.51608   -115.27195    144576.23   -34319.666    4487.2543    -38806.92    1163.5265 
   28050    220.10719   -385.28736    144628.87   -34324.137    4418.8181   -38742.955    1165.5198 
   28100    221.08915   -607.83399    144605.04   -34338.635    4438.5318   -38777.167    1168.5153 
   28150    221.24298   -147.39033    144494.81    -34328.01    4441.6199    -38769.63    1171.6768 
   28200     222.1843    76.089949    144423.12   -34347.761    4460.5178   -38808.279    1174.9182 
   28250    218.62956   -226.76431    144359.91   -34382.813    4389.1536   -38771.967    1177.9757 
   28300    215.97764   -239.46592    144338.66    -34374.36    4335.9143   -38710.275    1181.0714 
   28350    220.17144   -420.90257    144340.95    -34375.44     4420.108   -38795.548    1184.7521 
   28400    218.75325    159.97718    144334.45   -34340.722    4391.6369   -38732.359    1187.0041 
   28450    222.15962   -104.60389    144358.52   -34334.565    4460.0223   -38794.587    1189.8312 
   28500     219.4587   -147.17726     144390.6    -34356.55    4405.7993   -38762.349     1191.927 
   28550    217.57705   -187.60855    144398.45   -34362.962    4368.0238   -38730.986    1194.1426 
   28600     221.6435   -125.96831     144374.1   -34355.967    4449.6608   -38805.628    1197.5462 
   28650    220.16204   -279.88266     144322.9   -34359.915    4419.9192   -38779.834     1199.057 
   28700     217.0793    255.08087    144265.92   -34372.454     4358.031   -38730.485    1202.3742 
   28750    219.04374   -44.686135    144258.13   -34386.034    4397.4685   -38783.502    1205.4918 
   28800    219.29289   -90.238246    144267.58   -34370.479    4402.4704   -38772.949    1207.6521 
   28850    221.70396    74.343782    144337.89    -34367.44    4450.8745   -38818.314    1211.7702 
   28900    222.01347   -307.72924    144417.07   -34386.822    4457.0881    -38843.91    1213.2817 
   28950     219.4831   -245.97749       144481   -34407.401    4406.2891    -38813.69    1215.7372 
   29000    218.04618   -321.49487    144541.16    -34428.09    4377.4418   -38805.531    1218.0506 
   29050    219.86602   -308.56516    144613.66   -34426.216    4413.9765   -38840.192    1220.1327 
   29100    215.53452   -393.19035    144693.25   -34433.746    4327.0184   -38760.765    1222.1146 
   29150    222.30952   -84.313087    144740.92   -34432.926    4463.0316   -38895.958    1224.8033 
   29200    216.69567   -51.773961    144801.55   -34449.501    4350.3294    -38799.83    1227.9522 
   29250    214.57161    -155.2127    144829.62   -34463.839    4307.6872   -38771.527    1229.9679 
   29300    216.90809   -299.26528    144816.57   -34458.178    4354.5939   -38812.771    1232.5893 
   29350    218.38606   -475.69223    144771.19   -34453.289    4384.2652   -38837.554    1235.1571 
   29400    218.14163    185.52932    144686.39   -34442.077    4379.3581   -38821.435    1237.7045 
   29450    215.58925   -53.041028    144589.54     -34432.4    4328.1171   -38760.517    1238.3317 
   29500    216.16365   -402.53168    144484.87   -34421.904    4339.6486   -38761.553    1240.1765 
   29550    220.12401   -34.614236    144368.18   -34370.459    4419.1558   -38789.615    1241.5686 
   29600    223.34417    -71.20251    144249.18   -34392.162     4483.803   -38875.965    1243.4219 
   29650    220.94689    50.083354    144239.21   -34375.008    4435.6758   -38810.684    1246.4734 
   29700    216.27998    89.832626    144362.97   -34356.494    4341.9841   -38698.478    1249.1107 
   29750    217.61327   -121.59538    144548.65   -34333.955    4368.7508   -38702.706    1252.3873 
   29800    218.58327   -495.80073    144713.55   -34307.313    4388.2243   -38695.538    1254.7586 
   29850    223.16637   -453.35864    144802.53   -34297.227    4480.2336    -38777.46    1257.0062 
   29900    222.54443   -151.95646    144874.22   -34298.744    4467.7477   -38766.492    1259.7586 
   29950    217.08534   -408.78096    144833.51   -34298.511    4358.1523   -38656.663    1262.3751 
   30000    217.77101   -248.42077    144680.41   -34282.529    4371.9177   -38654.447    1264.8698 
   30050    224.48919   -147.18785    144542.78   -34276.418    4506.7902   -38783.208    1265.6743 
   30100    220.94297   -162.58858    144389.51   -34291.774    4435.5971   -38727.372    1268.2708 
   30150    224.46681   -202.11308     144217.7   -34277.258    4506.3408   -38783.599    1270.5318 
   30200    221.53474    32.918686     144053.9   -34300.949    4447.4773   -38748.427    1272.8046 
   30250     222.7257   -143.83411    143924.82   -34319.209    4471.3867   -38790.596    1274.5455 
   30300     221.1769   -6.5057663    143835.06   -34344.687    4440.2934    -38784.98    1274.9107 
   30350    221.17386   -155.11587    143835.16   -34360.471    4440.2324   -38800.703    1278.2286 
   30400    219.80101    125.65663    143891.35   -34382.672    4412.6714   -38795.343    1280.6665 
   30450    221.48315   -389.21714    144009.95   -34393.814    4446.4416   -38840.255     1282.579 
   30500    219.77703   -13.537257    144153.93     -34415.8      4412.19    -38827.99    1283.4424 
   30550    220.10436   -199.55387    144434.03    -34361.25    4418.7614   -38780.011    1286.7699 
   30600    222.94776   -350.99482    144728.27   -34324.966    4475.8447    -38800.81    1292.7206 
   30650    218.08408    9.8837246    144955.08   -34331.255    4378.2027   -38709.458    1295.4996 
   30700    217.78379   -449.66157    145167.91    -34331.79    4372.1742   -38703.964    1298.1831 
   30750    218.15441   -516.56501    145314.42   -34287.646    4379.6147   -38667.261     1299.807 
   30800    216.06088   -448.94966    145352.77   -34296.183    4337.5854   -38633.769     1302.787 
   30850    217.38872   -123.13976       145283   -34251.498    4364.2428   -38615.741    1304.3742 
   30900    221.21662   -243.44746    145151.11   -34253.067    4441.0908   -38694.157    1305.2557 
   30950    221.20566   -491.53506    144957.32   -34286.219    4440.8708   -38727.089    1305.8174 
   31000    218.01906   -91.128262    144752.28   -34278.068    4376.8974   -38654.965    1307.2828 
   31050    219.68227   -10.374221    144573.09   -34307.383    4410.2876   -38717.671    1308.3207 
   31100    219.56957    -7.616466    144394.29   -34262.603    4408.0251   -38670.628    1311.0277 
   31150    222.49344    200.46636    144239.49   -34270.162     4466.724   -38736.887    1312.5068 
   31200    223.95536    76.112117    144157.94   -34282.569    4496.0731   -38778.642    1314.7564 
   31250    216.01366    -123.2326    144104.52   -34286.147    4336.6374   -38622.784     1317.928 
   31300    218.65293   -238.82065    144038.93   -34307.646    4389.6227   -38697.268     1320.557 
   31350    221.83478   -18.158322    144037.44   -34308.962    4453.5008   -38762.462    1322.8371 
   31400    225.14107    95.241796    144101.16   -34294.654     4519.877   -38814.531    1324.5035 
   31450    221.01194   -129.22285    144200.67   -34313.914    4436.9817   -38750.896    1328.1418 
   31500    220.09952   -127.60888    144276.84   -34337.123    4418.6643   -38755.788     1331.451 
   31550    217.03759   -82.201286    144353.66   -34378.888    4357.1936   -38736.082    1333.1647 
   31600    215.71497   -158.80793    144478.67   -34345.193    4330.6411   -38675.834    1335.4544 
   31650    222.70937   -381.65537    144600.56   -34329.655    4471.0589   -38800.714    1338.7522 
   31700    222.14512   -29.627738    144676.09   -34297.847    4459.7312   -38757.579    1341.9223 
   31750    219.54649   -559.60932    144712.87   -34285.603    4407.5616   -38693.165    1345.5591 
   31800    220.55393   -455.89801    144658.38   -34308.053    4427.7869    -38735.84    1346.4491 
   31850    224.09485   -250.21959    144582.98     -34303.6    4498.8734   -38802.473    1348.8337 
   31900    218.82328   -315.10061    144535.52   -34293.467    4393.0428    -38686.51     1351.879 
   31950    223.90519   -359.50051    144479.24   -34271.486    4495.0659   -38766.552    1354.2943 
   32000    217.72436      159.453    144425.28   -34269.777     4370.981   -38640.758    1357.4319 
   32050    222.70064   -231.42071    144415.95   -34288.029    4470.8836   -38758.913    1361.0732 
   32100    218.90636   -313.76646    144403.52   -34303.104    4394.7106   -38697.814     1364.008 
   32150    223.67263    67.926993    144377.21   -34328.755    4490.3971   -38819.152    1364.6281 
   32200    218.66186   -139.58375    144366.61   -34326.611     4389.802   -38716.413    1367.4844 
   32250    225.66997    30.298316    144326.98   -34283.029    4530.4952   -38813.524    1371.0254 
   32300    220.18582   -187.99057    144276.71   -34306.438    4420.3967   -38726.835     1374.557 
   32350    218.74487      31.2602    144216.16   -34339.074    4391.4686   -38730.542    1376.7111 
   32400    223.66167   -25.526706       144182    -34326.32     4490.177   -38816.497    1376.5583 
   32450    223.33653   -169.51954    144223.83   -34316.719    4483.6497   -38800.369    1379.4417 
   32500    224.39155    -131.8497    144293.01   -34301.196    4504.8299   -38806.026     1381.883 
   32550    221.30894    115.66767    144361.52   -34301.583    4442.9443   -38744.527    1385.6693 
   32600    221.55821   -343.70193     144435.5   -34316.669    4447.9485   -38764.617    1387.7935 
   32650     219.5146   -190.50119    144521.12   -34310.917    4406.9215   -38717.838    1389.5074 
   32700    218.54265   -262.04477    144566.74   -34315.147    4387.4088   -38702.556     1393.447 
   32750    219.97196    -122.0545    144597.26   -34320.062    4416.1033   -38736.166    1396.9997 
   32800    220.65211   -121.51957    144641.19   -34310.256    4429.7579   -38740.014    1398.9835 
   32850    221.02265   -24.144812    144691.94   -34301.213    4437.1967    -38738.41    1402.7103 
   32900    223.16402   -3.7344183    144787.74   -34287.279    4480.1864   -38767.465    1403.5344 
   32950     221.6807   -280.05115    144878.79   -34289.255    4450.4076   -38739.662    1405.1654 
   33000     220.8322   -364.76858    144940.53   -34299.775    4433.3733   -38733.148    1406.6249 
   33050    216.71047   -231.39996    144963.28   -34301.446    4350.6265   -38652.073    1409.5186 
   33100    219.99719    -455.3994    144933.21   -34292.712    4416.6098   -38709.322    1411.9144 
   33150    222.54965   -328.64764    144834.35   -34265.855    4467.8525   -38733.707    1413.1897 
   33200     220.5545   -172.92041    144717.61   -34294.216    4427.7983   -38722.014    1414.6144 
   33250    219.82696   -37.704759    144528.17   -34265.082    4413.1924   -38678.274    1415.3364 
   33300    218.75648   -186.86049    144332.24   -34263.756    4391.7017   -38655.458    1417.5556 
   33350    226.07226   -212.78193    144199.54   -34261.112    4538.5715   -38799.684    1419.7547 
   33400    221.79005    179.07369    144076.37   -34246.842    4452.6029   -38699.445     1418.618 
   33450     223.1685    39.855195    144006.59   -34224.928    4480.2763   -38705.204    1420.9203 
   33500    221.69925    212.43097    144026.43   -34191.008      4450.78   -38641.788    1424.1349 
   33550    224.51864    97.512511    144124.73   -34159.685    4507.3813   -38667.067    1427.1605 
   33600    223.61034   -52.996691    144278.19   -34173.498    4489.1466   -38662.644    1428.8686 
   33650    221.67205   -431.44545    144517.29   -34182.908    4450.2338   -38633.142    1430.9932 
   33700    221.90451   -355.60069    144703.25   -34177.182    4454.9007   -38632.083    1434.9775 
   33750    220.94243   -110.97272    144838.89    -34213.95    4435.5863   -38649.537       1437.7 
   33800    220.44935    -155.3862    144968.52    -34217.24    4425.6872   -38642.928    1440.5333 
   33850    222.01602   -527.14863    145081.34   -34259.697    4457.1394   -38716.837    1442.6398 
   33900    221.57455   -390.64364     145147.5   -34261.651    4448.2765   -38709.928    1446.0231 
   33950    222.56345   -294.34169     145127.5   -34240.906    4468.1295   -38709.036    1448.7578 
   34000    218.14418   -51.929032    145079.31   -34245.016    4379.4093   -38624.425    1450.7053 
   34050    221.86324   -322.51016    145080.24   -34270.243    4454.0722   -38724.316    1452.1098 
   34100     223.0097   -453.39101    145073.41   -34265.521    4477.0882   -38742.609    1453.1893 
   34150    219.14461   -102.62921    145012.03    -34290.45    4399.4936   -38689.943    1454.9662 
   34200    218.72859   -328.42279    144914.38    -34301.15    4391.1417   -38692.292    1457.2656 
   34250    220.30569   -414.39465     144791.6    -34353.59    4422.8033   -38776.393    1457.4513 
   34300    218.54373    -117.7968    144639.53   -34367.558    4387.4305   -38754.989    1459.0784 
   34350    218.32034   -225.40302    144529.26   -34339.241    4382.9457   -38722.187    1459.4021 
   34400     217.8617    -204.8061    144391.77   -34364.142    4373.7383    -38737.88    1460.3857 
   34450    223.22205   -3.4404384    144244.66   -34369.463    4481.3514   -38850.814    1461.4229 
   34500    225.12201   -176.15415    144143.27   -34379.324    4519.4944   -38898.818     1462.744 
   34550    222.66863    221.08342    144064.13   -34343.219    4470.2409    -38813.46    1465.4006 
   34600     220.5548   -199.82955    144066.64   -34331.572    4427.8043   -38759.376    1467.6247 
   34650    219.00733   -140.64389     144131.7   -34332.892    4396.7377    -38729.63    1469.1621 
   34700    223.68328   -239.50885    144247.21   -34341.808     4490.611   -38832.419    1470.5997 
   34750    214.59469    176.39747    144351.33   -34387.645    4308.1505   -38695.796    1470.9813 
   34800    220.06389   -152.44213    144497.81   -34380.889    4417.9488   -38798.838    1471.5536 
   34850    217.26345    -270.9191    144654.55   -34392.655    4361.7279   -38754.383    1473.5423 
   34900    217.23804   -391.70358    144763.49   -34383.257    4361.2178   -38744.475    1477.8348 
   34950    217.09976   -31.291145     144787.4   -34414.817    4358.4417   -38773.259    1480.5617 
   35000    220.19168   -327.92665    144774.41   -34403.021    4420.5144   -38823.535    1482.6289 
   35050    216.95061   -446.27471    144695.56   -34405.113    4355.4474    -38760.56    1485.8753 
   35100     221.9904    16.256816    144549.52    -34399.71    4456.6251   -38856.335    1487.4804 
   35150    221.17824    41.973563     144373.9   -34389.013    4440.3203   -38829.333    1489.5603 
   35200    219.73998    -25.34121    144264.54   -34378.166    4411.4461   -38789.612    1492.1941 
   35250    222.13491    263.56411    144192.37     -34377.2    4459.5262   -38836.727    1493.8195 
   35300    220.39647    147.07157    144221.69    -34338.37    4424.6258   -38762.996    1498.4332 
   35350    221.95325   -54.908922    144300.15   -34351.862    4455.8792   -38807.741    1502.3563 
   35400    225.10231    30.243419    144404.75   -34335.105    4519.0991   -38854.204    1503.0083 
   35450    217.96997    -136.4173    144541.59   -34371.176    4375.9118   -38747.088    1503.6051 
   35500    220.61848   -357.78958    144684.98   -34353.084    4429.0826   -38782.167    1506.7879 
   35550    221.68953   -52.529182    144787.31   -34352.775    4450.5848    -38803.36    1508.6798 
   35600    221.02861   -96.107334    144881.52   -34317.042    4437.3164   -38754.358    1510.3367 
   35650    218.72845   -275.10729    144933.07   -34333.125    4391.1389   -38724.264    1513.5707 
   35700    219.35278   -26.143892     144944.4   -34329.705    4403.6727   -38733.378    1516.5961 
   35750    218.12653   -405.12227    144882.81   -34317.102    4379.0549   -38696.157    1518.5699 
   35800    220.81003   -82.852332    144768.84   -34315.269    4432.9283   -38748.198    1520.4906 
   35850    219.79625   -435.85392    144684.68   -34314.047    4412.5758   -38726.623    1522.7691 
   35900    222.82287    -121.3427    144518.85   -34296.908    4473.3376   -38770.246    1524.9854 
   35950    218.38617   -260.72164    144306.31   -34306.917    4384.2674   -38691.185    1526.6114 
   36000    220.63827   -214.01456    144068.14     -34313.1    4429.4799    -38742.58    1528.1244 
   36050    220.44409     58.98897    143881.29   -34330.375    4425.5816   -38755.956      1527.95 
   36100    224.25328    71.525478    143818.66   -34311.947    4502.0541   -38814.001     1530.974 
   36150    222.62606   -324.77326    143824.04   -34344.527    4469.3863   -38813.913    1531.5721 
   36200     216.3658    30.453734    143812.97   -34350.312    4343.7069   -38694.019    1533.3522 
   36250    220.17818    7.1312614    143848.19   -34356.794    4420.2433   -38777.037     1535.401 
   36300    217.92832    112.60471     143940.5   -34376.401    4375.0757   -38751.476    1539.1217 
   36350      218.918    115.56611    144098.49    -34390.88    4394.9443   -38785.824     1541.715 
   36400    220.01749   -127.32287    144318.63   -34388.219    4417.0173   -38805.236     1544.592 
   36450    221.08828   -422.15549    144563.47   -34335.073    4438.5143   -38773.588    1547.2122 
   36500    222.23678   -168.81096    144766.49   -34322.312    4461.5714   -38783.883    1548.4544 
   36550    221.40351   -244.89338    144910.15   -34319.179    4444.8428   -38764.022    1550.4653 
   36600    217.95753   -280.27739    145025.09   -34354.929    4375.6621   -38730.591     1553.867 
   36650    218.99927    -459.2212    145126.01   -34364.187    4396.5758   -38760.762    1556.6426 
   36700    216.52931   -280.99995    145177.27   -34390.708    4346.9895   -38737.698    1559.9326 
   36750    217.90856   -94.695983    145117.03   -34377.362     4374.679   -38752.041    1561.7518 
   36800    216.88288   -251.74872    144973.95   -34390.587    4354.0877   -38744.674    1563.2355 
   36850    217.33737   -330.66133    144774.68   -34374.616     4363.212   -38737.828    1565.7253 
   36900    218.71864   -50.931997    144550.32    -34346.44    4390.9419   -38737.382     1568.398 
   36950    218.41524   -109.09498    144422.71   -34356.877     4384.851   -38741.728    1569.3838 
   37000    218.68668    214.44305    144393.59   -34372.994    4390.3003   -38763.295    1571.3682 
   37050    220.76888   -340.98465    144413.02   -34361.692    4432.1021   -38793.794    1573.6373 
   37100    219.61939   -184.47508    144426.25   -34329.116    4409.0252   -38738.141    1576.2353 
   37150    216.31353   -319.17522    144461.96   -34318.532    4342.6576    -38661.19    1576.5426 
   37200    218.91267    41.569056    144526.41   -34321.288    4394.8373   -38716.125    1578.0923 
   37250    223.80922   -661.08766    144595.66   -34342.331    4493.1393    -38835.47    1580.8357 
   37300     220.9418    43.550003    144638.59   -34361.635    4435.5737   -38797.209    1583.2641 
   37350    219.76314   -211.56979    144648.02   -34336.631    4411.9111   -38748.542    1586.5389 
   37400    221.69815   -186.41634    144599.86    -34311.49    4450.7578   -38762.247    1586.7002 
   37450    221.64885    4.2464999    144546.98   -34296.922    4449.7682    -38746.69    1587.4155 
   37500      223.589   -168.44707    144539.18   -34286.397    4488.7182   -38775.116    1590.9345 
   37550    219.01811    155.58288    144516.33   -34326.673    4396.9541   -38723.627    1591.5009 
   37600    218.17066   -342.04886    144510.17    -34342.27    4379.9409   -38722.211    1593.6388 
   37650    221.09189   -99.005466    144508.29   -34340.138    4438.5868   -38778.725    1595.5647 
   37700    217.88434   -116.10028    144560.98   -34334.124    4374.1929   -38708.316    1597.6439 
   37750    218.22306   -647.71371    144614.12   -34337.721    4380.9928   -38718.714     1599.398 
[...]
   40850    219.29767   -17.124564     144034.6   -34475.217    4402.5664   -38877.784    1735.9328 
   40900    220.20557    180.46099    143763.82   -34457.654    4420.7932   -38878.447    1736.4852 
   40950    219.80172    24.351468    143587.34   -34430.326    4412.6857   -38843.012     1736.246 
   41000    224.88542    269.93134    143535.51   -34432.748    4514.7448   -38947.493    1738.1116 
   41050    221.22166   -1.6930486    143676.18   -34436.475     4441.192   -38877.667     1739.546 
   41100    219.92839    135.68874    143855.87    -34442.13    4415.2287   -38857.359    1741.3442 
   41150    219.20251   -29.979819    144056.66   -34468.319     4400.656   -38868.975    1744.9039 
   41200    222.02076   -334.27074    144313.14   -34454.078    4457.2345   -38911.312    1749.5448 
   41250    216.92319   -106.69741    144493.82   -34412.771     4354.897   -38767.668    1752.6022 
   41300    219.24572   -263.60156    144560.77   -34420.366    4401.5236   -38821.889     1757.276 
   41350    217.81814   -236.88326    144587.62   -34426.138    4372.8638   -38799.002    1760.8903 
   41400     215.5723   -143.08315    144577.02   -34411.664    4327.7768    -38739.44    1762.2771 
   41450    217.55352   -133.81016    144555.17    -34391.58    4367.5513   -38759.131    1762.6392 
   41500    220.28122    10.685286    144549.02   -34406.502    4422.3119   -38828.813     1763.658 
   41550    219.46884   -301.88194    144554.55   -34400.643    4406.0028   -38806.646    1764.4266 
   41600    218.61808   -287.36896    144577.64   -34403.969    4388.9232   -38792.892    1767.9305 
   41650    215.91154    207.34578    144603.84   -34395.469    4334.5873   -38730.056     1769.205 
   41700    217.77536   -279.05243    144664.79   -34397.056     4372.005   -38769.061    1769.7777 
   41750    219.81688   -251.87687    144694.87   -34387.743      4412.99   -38800.733    1771.5457 
   41800    216.47848   -484.68538    144687.18   -34409.159    4345.9691   -38755.128    1772.6409 
   41850    219.54375   -433.15542    144602.21    -34401.86    4407.5067   -38809.367    1774.8914 
   41900    220.48151   -97.921493    144448.32   -34360.187     4426.333    -38786.52    1776.4728 
   41950    221.66352    238.68795    144330.78   -34351.623    4450.0627   -38801.686    1777.3797 
   42000    223.35095   -89.003768    144280.71   -34377.254    4483.9391   -38861.193     1778.159 
   42050    220.05466   -182.61565    144276.92   -34354.452    4417.7636   -38772.216    1780.3075 
   42100    219.93871   -171.75757    144291.29   -34368.464    4415.4359   -38783.899    1782.3351 
   42150     218.5581    55.777987    144300.96   -34406.108    4387.7191   -38793.828     1784.092 
   42200    220.73012   -18.260951    144333.06   -34406.826     4431.324    -38838.15    1785.2724 
   42250    218.32957   -126.48659    144337.84   -34407.699    4383.1312    -38790.83    1786.8005 
   42300    220.65175    71.394469    144272.43   -34455.654    4429.7506   -38885.405    1787.6544 
   42350    216.06597     -219.508     144161.8   -34465.123    4337.6876    -38802.81    1789.9852 
   42400    216.87024    17.902525    143965.06    -34473.49    4353.8339   -38827.324    1790.9636 
   42450    217.99546    33.248021    143750.49   -34493.422    4376.4235   -38869.846    1791.3568 
   42500    216.29157    137.48535    143595.82   -34484.129    4342.2166   -38826.345    1793.2662 
   42550    222.41531    210.60476     143475.4   -34490.153    4465.1553   -38955.309    1796.3914 
   42600     219.3669    56.817014     143450.8   -34518.197    4403.9564   -38922.153     1796.869 
   42650    218.72973   -316.28077    143528.68   -34512.705    4391.1646   -38903.869    1797.7677 
   42700    218.05667    20.510099    143601.17   -34538.257    4377.6523   -38915.909    1798.9061 
   42750    214.73913   -147.41761    143730.49   -34530.011    4311.0503   -38841.061    1802.2651 
   42800     214.2739   -338.04345    143877.07   -34512.706    4301.7104   -38814.416    1804.8714 
   42850    219.28374   -268.01075    143981.04   -34497.939    4402.2867   -38900.226    1807.9923 
   42900    214.90778   -329.19457    144084.45    -34481.38     4314.436   -38795.816     1809.854 
   42950    216.43437   -148.40799    144153.51    -34447.22    4345.0835   -38792.303    1810.1304 
   43000    219.54664    -225.3344    144228.42   -34457.542    4407.5646   -38865.106    1810.6173 
   43050    214.99821   -214.99202    144326.66   -34461.797    4316.2515   -38778.048    1814.2356 
   43100    220.68535   -297.17329    144430.14   -34474.777    4430.4252   -38905.202    1816.4624 
   43150    217.87936    -335.5758    144528.82   -34472.013    4374.0928   -38846.106     1820.547 
   43200    218.23998   -252.31224    144560.45   -34475.115    4381.3325   -38856.448    1822.9931 
   43250    211.77083    147.40419    144563.17   -34485.346    4251.4594   -38736.806    1823.4985 
   43300    216.91765      70.7623    144556.58   -34475.031    4354.7857   -38829.817    1825.1855 
   43350    213.82669   -17.755004    144561.69   -34481.999    4292.7323   -38774.731    1826.8321 
   43400    217.51481   -355.47484    144526.89   -34472.233    4366.7743   -38839.007    1829.4442 
   43450    220.90853    115.73703    144417.94   -34477.482    4434.9058   -38912.388    1830.3944 
   43500    215.19228   -183.34419    144311.95   -34457.176    4320.1475   -38777.323    1831.3581 
   43550     215.5873    -127.6169    144175.53   -34452.398     4328.078   -38780.476    1831.9408 
   43600    217.86547    75.054985    144033.56   -34442.008     4373.814   -38815.822    1833.3882 
   43650    221.24814    -137.7259    143909.47   -34431.209    4441.7237   -38872.932    1835.9533 
   43700    218.24892   -62.610688    143859.22   -34379.672    4381.5121   -38761.184     1838.899 
   43750    217.27351   -84.537921    143910.29   -34394.432      4361.93   -38756.362    1841.8085 
   43800    221.06301    22.993882    144044.95   -34412.724     4438.007   -38850.731    1846.4826 
   43850    217.50273   -47.025808    144260.98   -34395.977    4366.5316   -38762.508    1849.4366 
   43900    220.07849   -244.16342     144501.4    -34406.07     4418.242   -38824.312    1852.0662 
   43950    214.88674   -487.01582     144679.6   -34436.365    4314.0137   -38750.379    1854.3018 
   44000    219.44503   -539.15908    144678.79   -34435.963    4405.5248   -38841.488    1856.6903 
   44050    218.58224   -218.14141    144547.47     -34424.9    4388.2036   -38813.104    1858.8777 
   44100    217.34233   -286.87503    144420.81   -34417.365    4363.3116   -38780.677    1859.9102 
   44150    222.00141   -243.10173    144335.83   -34430.396     4456.846   -38887.242     1861.915 
   44200    215.76689   -181.43136    144289.28   -34459.749    4331.6833   -38791.432    1864.4959 
   44250    218.90222    177.67042    144230.97   -34444.861    4394.6275   -38839.489    1866.5259 
   44300    215.82003   -239.84652    144256.15   -34445.891    4332.7502   -38778.641    1869.5973 
   44350    220.57202    -244.2904    144316.35   -34419.802      4428.15   -38847.952    1871.8576 
   44400    219.11178   -76.222341    144349.15   -34439.311    4398.8345   -38838.145    1874.0528 
   44450     216.5098   -108.40446    144411.66   -34403.165    4346.5979   -38749.763    1875.7562 
   44500    222.14105   -170.57764    144516.25   -34394.959    4459.6495   -38854.609    1877.2124 
   44550    219.12908   -293.30293    144647.22    -34358.72    4399.1818   -38757.902    1879.0523 
   44600    217.06073   -406.35688    144785.68   -34350.053    4357.6581   -38707.711    1881.2122 
   44650    221.63605    -330.2697    144888.49   -34341.674    4449.5112   -38791.185    1882.1673 
   44700    216.44218   -620.87736    144950.09   -34365.046    4345.2404   -38710.286    1884.0266 
   44750    216.43827   -457.03406    144917.49   -34342.218    4345.1618    -38687.38    1888.3814 
   44800    219.32752   -404.69428    144783.13   -34309.201    4403.1656   -38712.367    1891.4824 
   44850    221.83218   -352.89725    144636.79   -34311.634    4453.4487   -38765.083    1891.3733 
   44900    222.42482     -85.4985    144494.62   -34300.451    4465.3464   -38765.798    1891.7869 
   44950    221.48966   -180.95253    144380.49   -34284.543    4446.5723   -38731.116    1892.7665 
   45000     220.0212   -136.47928    144300.48   -34359.419    4417.0919   -38776.511    1895.6639 
   45050    220.99021    17.939391    144185.61   -34359.891    4436.5454   -38796.436    1895.8942 
   45100    220.00411   -218.53194    144103.51   -34378.273    4416.7488   -38795.021    1896.7265 
   45150    222.04633    -147.0602    144057.49    -34402.23    4457.7478   -38859.978    1900.0589 
   45200    218.91697    -12.93424    144044.68   -34396.758    4394.9236   -38791.682    1901.9392 
   45250    219.42336   -250.64372     144103.2    -34405.05    4405.0898   -38810.139     1904.332 
   45300    218.67296   -271.85123    144150.23   -34420.047    4390.0249   -38810.072    1906.7669 
   45350    220.68098   -266.25289    144199.78   -34444.327    4430.3375   -38874.665    1908.4341 
   45400    216.68981   -126.57306    144247.95   -34454.757    4350.2117   -38804.969    1911.6868 
   45450     219.9912   -225.02081    144334.01   -34462.729    4416.4895   -38879.219    1915.6012 
   45500     219.5242   -157.64625    144430.73    -34448.13    4407.1141   -38855.244    1918.1124 
   45550    215.93422   -306.17828    144488.45   -34454.483    4335.0426   -38789.526    1920.5817 
   45600    219.20825   -359.90123    144547.61   -34473.931    4400.7713   -38874.702    1924.3168 
   45650    217.29552   -410.66288    144577.86   -34466.152    4362.3717   -38828.523    1925.0645 
   45700    216.36935   -179.11447    144530.92   -34477.795    4343.7783   -38821.573    1928.6195 
   45750    216.95025   -100.47514    144459.74    -34441.63    4355.4402   -38797.071    1930.0044 
   45800    216.31306   -530.38762    144315.59   -34439.067    4342.6482   -38781.715    1931.3775 
   45850    224.12995    336.35228    144166.34   -34427.998     4499.578   -38927.576    1934.1986 
   45900    219.93448   -273.26142    144151.58    -34427.59     4415.351   -38842.941     1935.389 
   45950    222.06698     10.61181    144186.76   -34444.387    4458.1625   -38902.549    1938.4428 
   46000    217.79606   -204.11265    144266.71   -34441.883    4372.4204   -38814.303      1939.43 
   46050     221.6653   -235.25401    144362.62   -34452.336    4450.0983   -38902.434    1939.3505 
   46100     216.2407   -155.09304    144487.52   -34439.643    4341.1954   -38780.838    1941.3225 
   46150    219.36394   -221.37858    144611.55   -34425.316    4403.8969   -38829.213    1943.7093 
   46200    215.56445     -129.702    144718.04   -34473.923    4327.6193   -38801.543    1945.2946 
   46250    214.39463   -258.19855    144818.11    -34482.77    4304.1341   -38786.904    1947.8447 
   46300    215.18441   -170.88527    144872.36    -34478.13    4319.9896   -38798.119    1950.7254 
   46350    216.62715   -398.32616    144838.26   -34449.239    4348.9538   -38798.192    1952.4595 
   46400    219.07212   -205.44398     144718.4   -34438.326    4398.0383   -38836.364    1954.5326 
   46450    217.39803   -413.05003    144527.18   -34428.239    4364.4298   -38792.669    1956.1331 
   46500    216.46536   -93.363051    144296.72   -34444.029    4345.7057   -38789.735    1957.2077 
   46550    217.73217     -118.385    144091.62   -34442.383    4371.1379   -38813.521    1958.4842 
   46600    217.51535   -38.480994    143979.89   -34435.118    4366.7851   -38801.903    1960.9147 
   46650    220.88809   -77.916607    143990.65   -34439.303    4434.4954   -38873.798     1963.371 
   46700    220.37826   -194.41521     144051.7   -34401.452      4424.26   -38825.712    1967.6201 
   46750    220.18729    203.51844    144153.12   -34393.797    4420.4263   -38814.223    1970.9001 
   46800    220.77503   -336.61755    144313.94   -34394.076    4432.2256   -38826.302    1974.0475 
   46850     219.4183    22.357013    144463.05   -34392.311    4404.9881     -38797.3    1975.4244 
   46900     219.0318   -652.64156    144624.09   -34376.724    4397.2288   -38773.952    1978.2582 
   46950    223.58068   -219.90745    144701.21   -34332.921    4488.5511   -38821.472    1980.9456 
   47000    218.73074   -423.05697    144770.97   -34361.552    4391.1849   -38752.736    1983.2748 
   47050    220.31417   -405.63445    144833.78   -34318.852    4422.9734   -38741.826    1988.0425 
   47100    220.96878    -444.7077    144876.77   -34322.339    4436.1153   -38758.455    1991.0893 
   47150    217.59869   -393.37447    144872.64   -34301.525    4368.4582   -38669.983    1993.1036 
   47200    221.43462   -204.68926    144796.54   -34316.226    4445.4673   -38761.693     1995.738 
   47250    220.31114   -238.56316    144710.98   -34284.205    4422.9125   -38707.117    1996.5707 
   47300    221.55347   -292.10949    144605.75   -34266.245    4447.8533   -38714.099     1997.639 
   47350    226.80355    -28.22451    144488.78   -34260.119    4553.2526   -38813.372    1999.7511 
   47400    223.58306   -110.37936    144440.14   -34248.445    4488.5988   -38737.044    2001.8641 
   47450    222.45639   -285.64889     144431.6   -34260.474    4465.9802   -38726.454    2005.2804 
   47500    225.19667   -34.885887    144405.22    -34235.05    4520.9933   -38756.044    2006.3377 
   47550    224.61301   -27.033953    144401.57    -34225.78    4509.2759   -38735.056    2008.5978 
   47600    220.89531   -113.22066     144444.1   -34224.337    4434.6402   -38658.978    2010.3767 
   47650    221.44517   -313.28821    144454.75   -34199.442    4445.6792   -38645.121    2013.9458 
   47700    219.50519     55.93093    144458.79   -34223.034    4406.7325   -38629.767      2015.34 
   47750     220.5347     233.1065    144492.81   -34205.856    4427.4008   -38633.257    2017.0533 
   47800    223.71833    56.935136    144585.97   -34197.665    4491.3145    -38688.98    2020.6466 
   47850    224.79325   -604.01775    144735.49   -34171.836    4512.8943   -38684.731    2024.4642 
   47900    219.44457   -119.66321    144832.78   -34196.759    4405.5156   -38602.274    2027.1384 
   47950    224.61028    -212.2822    144887.88   -34198.262    4509.2212   -38707.483    2030.3973 
   48000    222.64145   -538.46501    144898.77   -34223.999    4469.6953   -38693.694    2032.9678 
   48050    223.05012   -157.28297    144811.14   -34207.232    4477.8998   -38685.132    2036.3525 
   48100    220.90917    44.264097    144748.06    -34221.33    4434.9185   -38656.248    2041.7202 
   48150    216.50682   -519.53503     144720.5    -34226.72    4346.5381   -38573.258    2045.9121 
   48200    220.01532   -194.90744    144672.87   -34232.224    4416.9738   -38649.198    2047.8044 
   48250    220.19453   -207.58638    144634.18   -34230.816    4420.5716   -38651.388    2050.4174 
   48300    217.49312   -115.24702    144608.84   -34200.343    4366.3387   -38566.681    2052.0657 
   48350    222.40073   -247.31956    144557.46   -34202.932    4464.8626   -38667.795    2055.4328 
   48400    224.99802   -27.058354    144497.13   -34206.012    4517.0053   -38723.018    2057.9664 
   48450    224.09628    13.197031    144499.74   -34236.418    4498.9021    -38735.32    2059.4156 
   48500    219.44756   -409.17569    144536.14   -34287.961    4405.5755   -38693.537    2063.8643 
   48550    223.43965    -30.47087    144552.81   -34294.714    4485.7198   -38780.434    2067.3434 
   48600    221.50326   -267.12283    144617.03   -34292.088    4446.8454   -38738.934    2069.0932 
   48650    219.10102   -31.466729    144649.64   -34270.656    4398.6185   -38669.275    2072.1942 
   48700    217.38761    53.490501    144716.62     -34277.5    4364.2206   -38641.721    2074.8201 
   48750    222.56793   -285.76051    144799.19   -34247.421    4468.2194   -38715.641    2080.2542 
   48800    225.58219    237.03079     144807.3   -34225.703    4528.7329   -38754.435    2084.3585 
   48850    224.36156   -334.85393    144874.42   -34220.642    4504.2278   -38724.869    2085.3779 
   48900    224.00021   -106.46767    144912.35   -34237.766    4496.9736   -38734.739    2086.3254 
   48950    221.99197   -625.88399    144923.63   -34204.271    4456.6566   -38660.927    2090.1772 
   49000     219.6627   -142.33924    144808.35   -34209.177    4409.8947   -38619.072    2092.5924 
   49050    221.24594   -367.99104    144627.51   -34216.404    4441.6795   -38658.084    2093.8996 
   49100    224.74755   -209.92437    144426.59   -34227.088    4511.9769   -38739.065    2095.8386 
   49150    223.79033    203.33593    144246.53   -34235.672      4492.76   -38728.432    2096.3654 
   49200    222.42996    145.26725    144165.89   -34250.488    4465.4496   -38715.938    2099.8993 
   49250    221.20554   -390.94695    144223.25   -34240.473    4440.8683   -38681.341    2104.0796 
   49300     225.2386   -122.66342    144318.61   -34248.489    4521.8351   -38770.324    2107.7802 
   49350     228.2417   -81.896463    144421.55   -34252.087    4582.1247   -38834.212     2110.047 
   49400    224.15761   -724.50843    144552.11   -34273.952    4500.1334   -38774.085    2114.1589 
   49450    221.58039     101.4049    144613.59   -34265.385    4448.3937   -38713.778    2118.5873 
   49500    219.73157    -29.51314    144722.63   -34277.002    4411.2773   -38688.279    2121.4691 
   49550    223.29845   -378.66935    144895.34   -34288.771    4482.8852   -38771.656    2123.6704 
   49600    219.19154    -132.3684    145061.55   -34279.115    4400.4357   -38679.551    2126.2359 
   49650    224.62193   -191.68958     145198.8    -34268.81     4509.455   -38778.265    2128.6275 
   49700    219.80797   -219.43025    145296.34   -34259.997    4412.8111   -38672.808    2131.9915 
   49750    223.41222   -347.30879    145357.75   -34247.433    4485.1691   -38732.602    2134.4226 
   49800    221.44396   -371.45934    145337.33   -34277.955    4445.6549    -38723.61    2136.1346 
   49850    221.43319   -331.55318    145246.73   -34286.321    4445.4385   -38731.759     2138.498 
   49900    224.02075    -100.6287    145052.61   -34265.403    4497.3858   -38762.789    2141.3385 
   49950    221.36446   -257.71161    144857.36   -34240.838    4444.0588   -38684.897    2142.6994 
   50000    221.99487   -323.32609    144649.48   -34248.664    4456.7148   -38705.378    2144.5521 
Loop time of 406.336 on 8 procs for 50000 steps with 6736 atoms

Performance: 106.316 ns/day, 0.226 hours/ns, 123.051 timesteps/s
98.5% CPU use with 8 MPI tasks x no OpenMP threads

MPI task timing breakdown:
Section |  min time  |  avg time  |  max time  |%varavg| %total
---------------------------------------------------------------
Pair    | 302.25     | 309.49     | 323.21     |  45.1 | 76.17
Neigh   | 34.148     | 37.829     | 42.088     |  52.4 |  9.31
Comm    | 32.245     | 49.994     | 60.266     | 152.1 | 12.30
Output  | 0.18132    | 0.21111    | 0.36114    |  12.4 |  0.05
Modify  | 7.4911     | 7.6609     | 7.855      |   4.7 |  1.89
Other   |            | 1.154      |            |       |  0.28

Nlocal:        842.000 ave         965 max         715 min
Histogram: 3 1 0 0 0 0 0 0 1 3
Nghost:        2855.25 ave        2975 max        2736 min
Histogram: 4 0 0 0 0 0 0 0 0 4
Neighs:        0.00000 ave           0 max           0 min
Histogram: 8 0 0 0 0 0 0 0 0 0
FullNghs:      98210.0 ave      123191 max       73351 min
Histogram: 4 0 0 0 0 0 0 0 0 4

Total # of neighbors = 785680
Ave neighs/atom = 116.63895
Neighbor list builds = 8085
Dangerous builds = 0

# Create data file for import to other simulations
#
write_data data.${NAME}
write_data data.graphite_substrate
System init for write_data ...


Total wall time: 0:06:46
