
# Create simulation box of size 49.22 x 49.019 x 60.06 Angstrom
#
region 	     all block 0 ${XDIM} 0 ${YDIM} 0 ${ZDIM} units box
region 	     all block 0 49.22 0 ${YDIM} 0 ${ZDIM} units box
region 	     all block 0 49.22 0 49.019635930410494 0 ${ZDIM} units box
region 	     all block 0 49.22 0 49.019635930410494 0 60.062 units box
create_box          1 all
Created orthogonal box = (0.0000000 0.0000000 0.0000000) to (49.220000 49.019636 60.062000)
  2 by 2 by 2 MPI processor grid

# fill box with 4096 randomly distributed atoms
# plus ~800 atoms that eill eventually be removed to insert the substrate
#
create_atoms        1 random 4896 63782 all
Created 4896 atoms
  create_atoms CPU = 0.001 seconds
mass                1 18.015

# Define potential
#
pair_style          sw
pair_coeff          * * mW.sw mW
Reading sw potential file mW.sw with DATE: 2019-02-27

# Run minimization
#
minimize            1.0e-8 1.0e-8 10000 1000
WARNING: Using 'neigh_modify every 1 delay 0 check yes' setting during minimization (../min.cpp:187)
Neighbor list info ...
  update every 1 steps, delay 0 steps, check yes
  max neighbors/atom: 2000, page size: 100000
  master list distance cutoff = 6.3065
  ghost atom cutoff = 6.3065
  binsize = 3.15325, bins = 16 16 20
  1 neighbor lists, perpetual/occasional/extra = 1 0 0
  (1) pair sw, perpetual
      attributes: full, newton on
      pair build: full/bin/atomonly
      stencil: full/bin/3d
      bin: standard
Per MPI rank memory allocation (min/avg/max) = 4.225 | 4.228 | 4.234 Mbytes
Step Temp E_pair E_mol TotEng Press 
       0            0    4347277.3            0    4347277.3    2883142.5 
     709            0   -55361.265            0   -55361.265   -288.90829 
Loop time of 3.48599 on 8 procs for 709 steps with 4896 atoms

97.5% CPU use with 8 MPI tasks x no OpenMP threads

Minimization stats:
  Stopping criterion = max force evaluations
  Energy initial, next-to-last, final = 
      4347277.33431654  -55360.9344343246  -55361.2654094337
  Force two-norm initial, final = 72579639.0 4.2248788
  Force max component initial, final = 41918807.0 1.5365459
  Final line search alpha, max atom move = 0.062915779 0.09667298
  Iterations, force evaluations = 709 1001

MPI task timing breakdown:
Section |  min time  |  avg time  |  max time  |%varavg| %total
---------------------------------------------------------------
Pair    | 2.5582     | 2.7118     | 2.8409     |   6.0 | 77.79
Neigh   | 0.058972   | 0.063908   | 0.081803   |   2.7 |  1.83
Comm    | 0.41626    | 0.55071    | 0.72128    |  14.5 | 15.80
Output  | 0          | 0          | 0          |   0.0 |  0.00
Modify  | 0          | 0          | 0          |   0.0 |  0.00
Other   |            | 0.1596     |            |       |  4.58

Nlocal:        612.000 ave         619 max         604 min
Histogram: 1 1 0 0 0 2 2 1 0 1
Nghost:        1388.62 ave        1403 max        1369 min
Histogram: 1 0 0 1 1 1 1 0 2 1
Neighs:        0.00000 ave           0 max           0 min
Histogram: 8 0 0 0 0 0 0 0 0 0
FullNghs:      20363.8 ave       20818 max       19789 min
Histogram: 2 0 0 0 1 0 2 0 1 2

Total # of neighbors = 162910
Ave neighs/atom = 33.274101
Neighbor list builds = 39
Dangerous builds = 0

# Add velocity/set timestep
#
velocity            all create ${TEMP} 120598 rot yes dist gaussian
velocity            all create 220 120598 rot yes dist gaussian
timestep            5.0

# Define output
#
compute	            1 all msd
thermo	            100
thermo_style        custom step temp press vol etotal ke pe c_1[4] density

# Neighbor lists
#
neigh_modify        delay 0 every 1 check yes

# Set fixes
#
fix                 1 all momentum 10 linear 1 1 1 rescale
fix                 2 all nve
fix                 3 all temp/csvr ${TEMP} ${TEMP} 500.0 928347
fix                 3 all temp/csvr 220 ${TEMP} 500.0 928347
fix                 3 all temp/csvr 220 220 500.0 928347
fix                 4 all press/berendsen z ${PRES} ${PRES} 1000.0 modulus 20000
fix                 4 all press/berendsen z 1 ${PRES} 1000.0 modulus 20000
fix                 4 all press/berendsen z 1 1 1000.0 modulus 20000

# Run 0.5 ns equilibration
#
dump                1 all custom 1000 eq.${NAME}.dump id type x y z vx vy vz
dump                1 all custom 1000 eq.liquid_mW.dump id type x y z vx vy vz
run                 100000
Per MPI rank memory allocation (min/avg/max) = 3.475 | 3.478 | 3.484 Mbytes
Step Temp Press Volume TotEng KinEng PotEng c_1[4] Density 
     709          220    723.67568    144914.38   -52151.231    3210.0343   -55361.265            0     1.010679 
     800    145.28934    496.50176    145813.82   -50931.134    2119.9263    -53051.06    0.3246959    1.0044447 
     900     172.3767     490.2637    146203.45   -50125.092    2515.1597   -52640.251   0.61517345    1.0017679 
    1000    188.41354    169.99278    146395.59   -49570.699    2749.1542   -52319.853   0.91763761    1.0004531 
    1100    199.43721    232.04542     146551.4   -49224.069    2910.0014    -52134.07    1.2462075   0.99938946 
    1200    205.48349    56.976387    146674.09    -49001.49    2998.2229   -51999.713    1.6359171   0.99855347 
    1300    215.05907    341.43735    146762.95   -48747.967     3137.941   -51885.908    2.0548924   0.99794893 
    1400    215.86652    319.45776    146887.19   -48713.641    3149.7225   -51863.363     2.433293   0.99710479 
    1500    217.50127    286.54955    146913.76   -48642.086    3173.5752   -51815.662    2.8388585   0.99692446 
    1600    219.02027    27.481027    146863.81   -48613.528    3195.7391   -51809.267    3.2881815   0.99726357 
    1700    218.88718   -314.59962     146687.2    -48665.56    3193.7971   -51859.357     3.666399   0.99846425 
    1800    217.18119    127.58674    146611.59   -48605.774    3168.9049   -51774.678    3.9878989   0.99897915 
    1900    219.71077   -268.45748    146609.59   -48584.025    3205.8142   -51789.839     4.467627   0.99899281 
    2000    219.62827   -76.218548     146621.8   -48504.648    3204.6104   -51709.259    4.8374623   0.99890963 
    2100    219.94538   -51.206892    146473.48   -48521.263    3209.2373   -51730.501    5.2278377   0.99992109 
    2200    216.98864    15.505287    146451.48   -48552.179    3166.0954   -51718.275    5.7565856    1.0000713 
    2300    221.54611    58.083341    146534.75   -48494.877    3232.5937   -51727.471    6.2169751   0.99950304 
    2400    219.59193   -56.525506    146505.51   -48537.086    3204.0802   -51741.167    6.7632557   0.99970251 
    2500    220.14303   -14.933693     146437.5   -48519.307    3212.1213   -51731.429     7.266773    1.0001668 
    2600    222.80942   -135.95026    146475.54   -48447.077    3251.0268   -51698.104    7.6272018   0.99990705 
    2700    223.89204   -28.240542    146478.28   -48413.102    3266.8233   -51679.925    8.1566879   0.99988834 
    2800    219.53084   -196.68396    146401.79   -48524.872    3203.1888   -51728.061    8.4852572    1.0004107 
    2900    220.90113      33.5272    146407.87    -48468.05    3223.1827   -51691.233    8.8392619    1.0003692 
    3000     226.7668   -64.766811    146639.74   -48459.863    3308.7692   -51768.633    9.2116801   0.99878742 
    3100    221.26204   -237.60472     146630.6   -48464.044    3228.4489   -51692.493    9.6441027   0.99884965 
    3200    221.41193   -204.38359    146646.07   -48512.424    3230.6359    -51743.06     10.04232   0.99874429 
    3300    223.58347   -71.792536    146714.44   -48519.447     3262.321   -51781.768    10.558432   0.99827888 
    3400    222.63786   -196.06971    146658.38    -48539.48    3248.5235   -51788.004     10.97439   0.99866048 
    3500    224.44796   -200.90584    146673.52   -48484.729    3274.9348   -51759.664    11.550213   0.99855735 
    3600    219.61167   -90.245814    146621.68   -48482.664    3204.3682   -51687.032    11.970855   0.99891041 
    3700    223.14964   -131.89077    146639.82   -48555.521    3255.9909   -51811.512    12.387769   0.99878685 
    3800    217.64032   -86.765513    146616.74   -48502.248     3175.604   -51677.852    12.820861   0.99894407 
    3900    216.69869    -49.25339     146508.4   -48571.192    3161.8646   -51733.056    13.145881    0.9996828 
    4000    219.10674    140.45751    146423.93   -48656.362    3197.0007   -51853.363    13.398916    1.0002595 
    4100    218.31566   -183.79032    146349.78   -48576.484     3185.458   -51761.942    13.728847    1.0007663 
    4200    218.96908   -85.911219     146355.3   -48579.371    3194.9921   -51774.363    14.097288    1.0007285 
    4300    220.38154    23.330173    146290.91   -48573.642    3215.6015   -51789.243    14.518121     1.001169 
    4400    223.64024   -102.36072    146167.66   -48514.967    3263.1494   -51778.117    14.788483    1.0020132 
    4500     223.4495    18.915759    146287.28    -48506.43    3260.3662   -51766.796    15.271769    1.0011939 
    4600    218.49082    144.49044    146261.01   -48517.154    3188.0137   -51705.167    15.756769    1.0013736 
    4700    216.47105   -110.39076    146254.74   -48549.994    3158.5432   -51708.538    16.190913    1.0014166 
    4800    219.07262    49.135962    146122.64   -48535.271    3196.5029   -51731.773    16.616845    1.0023219 
    4900      222.144   -23.651558    146037.53   -48536.379    3241.3177   -51777.696    17.066396    1.0029061 
    5000    221.89078    172.36352    146052.69   -48613.726    3237.6229   -51851.349    17.510662     1.002802 
    5100    219.68958     115.9259    146093.23   -48561.664    3205.5049   -51767.169    18.044686    1.0025237 
    5200    216.31523   -51.100913    146241.56   -48593.244    3156.2696   -51749.513      18.5837    1.0015068 
    5300    214.13685   -133.32213    146259.03    -48616.72    3124.4848   -51741.205    18.906677    1.0013872 
    5400    218.70191   -41.009726    146285.72   -48538.966    3191.0939    -51730.06    19.272087    1.0012045 
    5500    221.63145    100.32854    146274.53   -48465.578    3233.8389   -51699.417    19.845014    1.0012811 
    5600    224.45321    194.67527    146328.66   -48408.666    3275.0114   -51683.678    20.407233    1.0009107 
    5700    219.00165   -240.21155    146412.38   -48505.199    3195.4674   -51700.666     20.87746    1.0003384 
    5800    222.92339   -63.126199    146462.58   -48470.701    3252.6898   -51723.391    21.257771   0.99999553 
    5900    221.63058    -43.12341    146505.59   -48513.122    3233.8263   -51746.948    21.685338   0.99970198 
    6000    221.05271   -195.65756    146412.03   -48587.845    3225.3946    -51813.24    22.279091    1.0003408 
    6100     222.1587   -250.72543    146356.83   -48577.093    3241.5321   -51818.625    22.724348     1.000718 
    6200    222.01438   -40.838289    146272.11   -48572.773    3239.4263     -51812.2    23.284824    1.0012977 
    6300    218.67717    8.9721079    146260.25   -48630.797    3190.7328    -51821.53     23.65962    1.0013789 
    6400    222.25954    114.22666    146075.09   -48600.386    3243.0034   -51843.389    23.999219    1.0026482 
    6500     218.3372    44.408386    146103.99   -48582.523    3185.7723   -51768.295    24.329479    1.0024498 
    6600    219.96319    134.61792    146145.98   -48628.968    3209.4973   -51838.465    24.625263    1.0021618 
    6700     218.6991    60.514912    146093.05   -48655.092    3191.0529   -51846.145    25.134847    1.0025249 
    6800    218.34312   -12.514619    146183.49   -48684.442    3185.8587   -51870.301    25.490835    1.0019047 
    6900    218.33518    143.09685    146247.04   -48681.836    3185.7429   -51867.579     25.88219    1.0014693 
    7000    219.60277    182.64809    146287.03    -48598.44    3204.2383   -51802.679    26.371712    1.0011956 
    7100    215.26473    1.0478015    146347.63   -48640.539    3140.9417   -51781.481    26.828729     1.000781 
    7200    216.63356    19.007894    146286.81   -48642.718    3160.9144   -51803.632    27.278555    1.0011971 
    7300    219.72856   -2.8999242     146258.7   -48633.063    3206.0737   -51839.136    27.806538    1.0013895 
    7400    215.83365    86.775125    146373.56   -48665.156    3149.2428   -51814.399    28.378648    1.0006037 
    7500    220.35048   -119.41338    146392.26     -48641.4    3215.1482   -51856.548    28.847056    1.0004759 
    7600    220.50678    -88.59501    146265.77   -48578.288    3217.4289   -51795.717    29.421053     1.001341 
    7700    219.84381    117.67817    146355.49   -48567.583    3207.7553   -51775.338    29.905164    1.0007272 
    7800    222.04486    47.761742    146277.27   -48583.632    3239.8711   -51823.503    30.362781    1.0012623 
    7900    214.72679    1.4927972    146218.55   -48669.564    3133.0926   -51802.656    30.870949    1.0016644 
    8000    215.78526   -82.460368    146163.02   -48720.455    3148.5368   -51868.992    31.154887     1.002045 
    8100    216.94883   -9.3049549    146205.08   -48658.235    3165.5146   -51823.749    31.815465    1.0017567 
    8200    216.12673   -77.637591     146196.2   -48605.836    3153.5192   -51759.355    32.148825    1.0018176 
    8300    221.81692    97.307389    146288.99    -48555.67    3236.5451   -51792.215    32.550711    1.0011821 
    8400    220.21461   -2.2642969    146342.47   -48645.117    3213.1657   -51858.283    32.882079    1.0008162 
    8500    215.77898   -87.123865    146325.65   -48694.447    3148.4451   -51842.892    33.325059    1.0009313 
    8600    220.71891   -23.680062     146306.6   -48622.258     3220.524   -51842.782    33.699646    1.0010616 
    8700    221.95438    108.95152    146300.58   -48557.969    3238.5509    -51796.52    34.086683    1.0011028 
    8800    223.20818    222.46574    146357.75   -48524.446    3256.8451   -51781.292    34.425995    1.0007118 
    8900    219.89342    106.77767    146589.69   -48564.796    3208.4792   -51773.275    34.954822   0.99912843 
    9000    218.51768   -121.49312    146674.34   -48517.836    3188.4057   -51706.241    35.417713   0.99855175 
    9100    222.52731   -92.045327    146748.22   -48493.143    3246.9105   -51740.053    35.755513    0.9980491 
    9200    220.96336   -78.327229    146739.65   -48561.354    3224.0908   -51785.445    36.251881   0.99810736 
    9300    221.25563    86.126248    146577.94   -48571.869    3228.3553   -51800.224    36.643797   0.99920852 
    9400    219.59689    226.81976    146643.67   -48571.541    3204.1526   -51775.694    36.819732   0.99876065 
    9500    222.43482   -138.88809    146669.26   -48621.251     3245.561   -51866.812    37.161962    0.9985864 
    9600     217.7306    -62.29744       146611   -48654.691    3176.9214   -51831.613    37.689222   0.99898315 
    9700     219.9747    -151.1121    146607.29   -48545.015    3209.6652   -51754.681    38.466241   0.99900846 
    9800    217.47721     30.14239    146628.19   -48603.781    3173.2242   -51777.005    38.864934    0.9988661 
    9900    218.41727   -53.847049    146725.19   -48528.659    3186.9406     -51715.6    39.248865   0.99820573 
   10000    221.01095    10.452889    146796.57    -48621.55    3224.7852   -51846.335    39.672889   0.99772031 
   10100    217.95076   -89.442318    146733.64   -48576.665    3180.1337   -51756.799    40.190614   0.99814824 
   10200    218.16319   -43.920571    146505.13   -48603.429    3183.2333   -51786.663    40.527306   0.99970506 
   10300     219.5256   -142.81793    146546.13   -48586.646    3203.1123   -51789.758    40.885328   0.99942542 
   10400    222.43095   -201.68269    146475.96   -48541.356    3245.5045   -51786.861    41.340158   0.99990418 
   10500    223.82413   -263.91599    146403.81   -48503.229    3265.8325   -51769.062    41.731867    1.0003969 
   10600    223.94099    58.756225    146431.18   -48528.298    3267.5376   -51795.836      42.2275    1.0002099 
   10700    224.53958    143.04805    146467.09   -48549.924    3276.2716   -51826.196    42.529052   0.99996475 
   10800     218.8281    117.48692    146658.92   -48523.369    3192.9351   -51716.305    43.013413   0.99865676 
   10900    223.23597    37.645929    146734.06   -48447.957    3257.2506   -51705.207    43.666806   0.99814536 
   11000    222.41854    -52.76628    146835.76   -48448.301    3245.3234   -51693.625    43.928177   0.99745407 
   11100    224.00698   -84.607233    146860.89   -48452.028    3268.5005   -51720.528    44.039778    0.9972834 
   11200    216.76233   -94.093379     146758.8   -48483.086    3162.7932    -51645.88    44.459963   0.99797714 
   11300    221.32573   -123.81314    146619.77   -48507.653    3229.3782   -51737.031    45.168596   0.99892345 
   11400    223.51931    38.613371    146539.68   -48524.406    3261.3848   -51785.791    45.725952   0.99946939 
   11500    215.78821   -150.73725    146474.73   -48591.168    3148.5799   -51739.748    46.022476   0.99991255 
   11600    221.06136    64.188057     146447.9    -48603.88    3225.5206   -51829.401    46.408748    1.0000958 
   11700    216.11447    6.6523254    146323.21    -48623.16    3153.3403   -51776.501    46.846905     1.000948 
   11800    217.62529    75.585974    146410.87   -48562.959    3175.3847   -51738.344    46.908453    1.0003487 
   11900    216.48291   -40.814852    146430.05   -48648.101    3158.7163   -51806.817    47.441191    1.0002177 
   12000    219.56384    93.983512    146367.41   -48621.979    3203.6702    -51825.65    47.885096    1.0006457 
   12100    221.17719    131.91643    146419.77   -48586.751    3227.2109   -51813.962    48.180002    1.0002879 
   12200     224.7063    65.816092    146523.86   -48534.641    3278.7043   -51813.345    48.656133   0.99957728 
   12300    221.35073    109.62321     146652.4   -48500.026    3229.7429   -51729.769    49.271076   0.99870117 
   12400    224.26991    191.71702    146857.34   -48426.282    3272.3369   -51698.619    49.961294    0.9973075 
   12500    219.86995    50.659313    146897.03   -48494.626    3208.1368   -51702.763    50.441635   0.99703804 
   12600    219.80036   -21.228413    146800.34    -48521.85    3207.1214   -51728.971    50.823812   0.99769471 
   12700    223.45507    89.457652     146913.7   -48502.787    3260.4475   -51763.234     51.01825   0.99692488 
   12800    220.18196    148.44179    146846.86   -48581.645    3212.6894   -51794.334    51.470493   0.99737868 
   12900    220.30398   -58.614328    146744.97   -48558.813    3214.4697   -51773.283    52.133084   0.99807114 
   13000    219.63261    -108.5584    146653.31   -48635.891    3204.6738   -51840.565    52.640386     0.998695 
   13100    219.83218    29.615668    146695.21   -48603.694    3207.5857   -51811.279    52.825196   0.99840971 
   13200    222.12059    58.089259    146699.38   -48561.525     3240.976   -51802.501    53.033175   0.99838137 
   13300    218.55897    125.30584    146856.86   -48531.366    3189.0081   -51720.374    53.543758   0.99731077 
   13400    221.22114    147.89196    146985.35   -48570.628     3227.852    -51798.48    53.766562   0.99643895 
   13500    218.39865    12.179714    146944.38   -48566.586    3186.6689   -51753.255     54.28994   0.99671671 
   13600    217.06909   -58.432842    146790.52   -48614.155    3167.2692   -51781.424    54.705075   0.99776147 
   13700    218.54257   -16.430441    146722.45   -48605.825    3188.7689   -51794.594    55.009426   0.99822436 
   13800    219.96565   -80.922054    146706.94   -48624.283    3209.5332   -51833.816    55.825331   0.99832988 
   13900    217.02773    81.393178     146718.6   -48649.045    3166.6657   -51815.711    56.447886   0.99825055 
   14000    217.74096     50.56234    146890.79   -48691.181    3177.0725   -51868.254    57.017242   0.99708037 
   14100    218.81961    85.559687    146887.36   -48760.277    3192.8112   -51953.088    57.505811   0.99710366 
   14200    218.20515   -6.8728122    146940.37   -48677.764    3183.8456    -51861.61    57.913207   0.99674394 
   14300    216.41835   -76.568327    146947.87   -48657.614    3157.7742   -51815.388    58.327254   0.99669306 
   14400    219.10972   -84.437104    146749.23   -48668.612    3197.0441   -51865.656    58.397493   0.99804217 
   14500    217.43198    29.858946    146553.52   -48627.764    3172.5642   -51800.328    58.568236   0.99937503 
   14600    218.46486     89.54497    146564.32   -48619.996     3187.635   -51807.631    59.235443   0.99930136 
   14700    224.12746    47.940821    146629.83   -48500.739    3270.2584   -51770.997    59.633135   0.99885488 
   14800    220.84853    118.45064    146647.66   -48567.711    3222.4154   -51790.126    60.163346   0.99873343 
   14900    220.58718    242.26308    146687.09   -48554.201     3218.602   -51772.803    60.658346   0.99846501 
   15000    219.23361   -162.11657    146684.62   -48580.781    3198.8519   -51779.633    61.281084   0.99848183 
   15100    219.57642    24.970693    146704.39   -48628.916    3203.8539    -51832.77    61.379426   0.99834725 
   15200    221.95514   -11.732854    146732.49    -48664.41    3238.5619   -51902.972    61.711814   0.99815605 
   15300    218.67394    33.862075     146729.5   -48654.512    3190.6857   -51845.198    61.922823   0.99817642 
   15400    222.95247    61.643631    146755.78   -48613.873     3253.114   -51866.987    62.274728   0.99799767 
   15500    221.53066   -116.01846    146717.82   -48574.773    3232.3683   -51807.141    62.637933   0.99825586 
   15600    218.92418   -86.658922    146745.76   -48584.392     3194.337   -51778.729    63.167948   0.99806582 
   15700    218.43034   -10.243944    146602.09   -48615.945    3187.1313   -51803.076    63.997215   0.99904392 
   15800    223.55261   -46.276803     146555.4   -48630.925    3261.8708   -51892.796    64.284355    0.9993622 
   15900    222.90916     112.6424    146601.32   -48616.769    3252.4821   -51869.251    64.627199   0.99904915 
   16000    216.85548   -95.930858    146617.63   -48662.692    3164.1525   -51826.844    64.919642   0.99893798 
   16100    219.25652    -178.8101    146691.92   -48703.594    3199.1862    -51902.78    65.174084   0.99843214 
   16200    220.70314   -100.51427    146774.46    -48659.97    3220.2939   -51880.264    65.398849   0.99787062 
   16300    223.53718    98.942097     146883.6     -48563.3    3261.6456   -51824.946    65.871357   0.99712919 
   16400    219.24378    84.567331    146943.32   -48568.392    3199.0002   -51767.392    66.377515   0.99672392 
   16500    223.81416   -53.188371    146901.79    -48562.83     3265.687   -51828.517    67.085514   0.99700569 
   16600    222.19487    -87.39977    146830.53   -48564.919    3242.0598   -51806.979    67.683847   0.99748956 
   16700    221.65965   -131.33902    146846.61   -48582.676    3234.2505   -51816.926    68.218331   0.99738036 
   16800    220.46201     -98.1084    146721.06   -48651.605    3216.7755    -51868.38    68.374043   0.99823382 
   16900    217.84273   -70.609537    146602.41   -48610.546    3178.5575   -51789.104    68.997785   0.99904173 
   17000    217.96613   -15.560051    146649.71    -48610.97     3180.358   -51791.328    69.682751   0.99871951 
   17100    219.81539   -51.308044    146620.34   -48614.556    3207.3408   -51821.897    69.942022   0.99891954 
   17200    221.37201    114.44053    146660.76   -48546.012    3230.0534   -51776.066    70.460262   0.99864426 
   17300    220.65345    129.73828    146636.09   -48500.593    3219.5688   -51720.162    71.044151   0.99881224 
   17400    222.20801    116.36227    146578.01   -48531.998    3242.2516   -51774.249    71.394069   0.99920802 
   17500    222.05773    135.26605    146652.73   -48565.128    3240.0588   -51805.187    71.844733   0.99869891 
   17600    219.48404    104.01409    146617.69   -48594.253    3202.5059   -51796.759    72.395426   0.99893762 
   17700    215.21879    24.910948    146557.94   -48627.924    3140.2714   -51768.195    72.623993   0.99934485 
   17800    220.58068    94.063314    146598.93   -48566.292     3218.507   -51784.799    73.010282   0.99906543 
   17900     215.9102    30.568924    146654.45   -48613.389    3150.3598   -51763.749    73.200755   0.99868722 
   18000    210.96263    43.870744    146705.05   -48651.422    3078.1696   -51729.591    73.562798   0.99834273 
   18100    218.06626   -60.211513    146778.34   -48665.409     3181.819   -51847.228    73.952629   0.99784425 
   18200    218.51135    173.58783    146716.69   -48603.891    3188.3133   -51792.204    74.400742   0.99826352 
   18300    221.82088   -8.3810213    146884.87   -48632.834    3236.6029   -51869.437    75.066332   0.99712058 
   18400    219.84267   -1.4495623    146994.39   -48699.902    3207.7387   -51907.641    75.654243   0.99637766 
   18500    222.15763    125.05582    147058.58   -48686.833    3241.5165   -51928.349    76.187228    0.9959427 
   18600    218.27868   -118.31509    147091.46   -48625.104    3184.9184   -51810.023    76.758243   0.99572008 
   18700    223.58137   -4.1354284    146987.25   -48549.272    3262.2903   -51811.562    77.012828   0.99642605 
   18800    218.59661    2.8284249    146840.32   -48548.843    3189.5574     -51738.4    77.486081   0.99742309 
   18900    222.92676   -79.259062    146840.58   -48589.405    3252.7389   -51842.144    77.596516   0.99742131 
   19000    223.66958   -72.311701    146710.09   -48589.571    3263.5774   -51853.148    77.931427   0.99830846 
   19100    213.99059    -61.92686    146615.62    -48668.36    3122.3506   -51790.711    78.359105   0.99895173 
   19200    218.92347   -91.443213     146527.8   -48617.136    3194.3266   -51811.463    78.725013   0.99955042 
   19300    221.83547    88.191305    146402.74   -48586.427    3236.8158   -51823.242    79.055532    1.0004043 
   19400    222.02431    29.798483    146454.69   -48625.772    3239.5712   -51865.343    79.363426    1.0000494 
   19500    218.88281    114.78143    146461.32   -48640.749    3193.7333   -51834.482    79.536114    1.0000041 
   19600    220.37041    117.07661    146587.28   -48595.355    3215.4391   -51810.794    79.747126   0.99914486 
   19700    220.35202    208.05569    146575.57   -48598.485    3215.1706   -51813.656    80.212604   0.99922463 
   19800    221.69698     128.5979    146618.31   -48579.162    3234.7951   -51813.957    80.852138   0.99893336 
   19900     218.6124    158.48661    146621.78   -48603.692    3189.7878    -51793.48    81.461318   0.99890971 
   20000    225.11814    45.369056    146708.11   -48477.213    3284.7135   -51761.926    81.903448   0.99832193 
   20100    222.70627   -61.767498    146649.97   -48525.522    3249.5217   -51775.044    82.175318   0.99871775 
   20200    222.09402   -164.93251    146755.02   -48483.352    3240.5883   -51723.941    82.584701    0.9980028 
   20300     224.9014    11.374451    146837.29   -48483.441     3281.551   -51764.992    82.922069   0.99744363 
   20400    223.18843   -162.66258    146780.91   -48516.661    3256.5569   -51773.218    83.013108   0.99782679 
   20500    224.96738    13.546425    146822.02   -48478.744    3282.5137   -51761.257    83.646659   0.99754737 
   20600    222.64549   -7.9012599    146837.75   -48569.783    3248.6348   -51818.418    83.749588   0.99744051 
   20700    220.53241    -2.437764    146868.17   -48599.232    3217.8028   -51817.035    84.092074   0.99723397 
   20800    218.71216   -92.424859    146845.29   -48608.831    3191.2433   -51800.074    84.510868   0.99738931 
   20900    220.45965   -66.774752    146911.23   -48621.215    3216.7411   -51837.956    84.807826   0.99694167 
   21000    221.24884   -64.618609    146942.68   -48579.756    3228.2562   -51808.013    85.647948   0.99672829 
   21100    223.61153   -52.597614    146914.53   -48593.312    3262.7304   -51856.042    86.040762   0.99691926 
   21200    216.52249    27.417713    146814.29   -48647.912    3159.2938   -51807.206    86.525398   0.99759995 
   21300    217.50328   -71.569159    146681.26   -48644.105    3173.6045    -51817.71    86.956468   0.99850469 
   21400     217.5926    33.138695    146662.26   -48598.127    3174.9079   -51773.034    87.529423   0.99863405 
   21500      222.667    -84.51611    146562.24   -48537.348    3248.9487   -51786.297    87.886038   0.99931554 
   21600    219.95727   -29.270675    146590.23   -48582.204    3209.4109   -51791.615      88.2642   0.99912474 
   21700    218.03834    55.608377    146530.03   -48604.758    3181.4116    -51786.17    88.826826    0.9995352 
   21800    219.37563    131.65885    146588.43   -48520.292    3200.9242   -51721.217    89.314137   0.99913697 
   21900    221.69685   -18.575286    146650.31   -48501.837    3234.7932    -51736.63    89.794642   0.99871538 
   22000    219.81421    17.884258    146756.38   -48482.901    3207.3235   -51690.225    90.726529   0.99799359 
   22100    221.00783    129.71231     146862.2   -48538.718    3224.7396   -51763.458    91.330925   0.99727445 
   22200    224.29143    51.472362    146805.02     -48487.1    3272.6509   -51759.751    91.910847   0.99766289 
   22300    219.93089   -106.03413    146746.62   -48484.643     3209.026   -51693.669    92.360115   0.99805995 
   22400    220.51476   -167.50722    146635.22   -48577.039    3217.5452   -51794.585     92.78173   0.99881821 
   22500    220.11832   -92.525954    146570.73   -48596.039    3211.7607   -51807.799    93.544905   0.99925767 
   22600    219.97067    71.237968    146483.88   -48602.645    3209.6064   -51812.251    93.850557   0.99985013 
   22700    225.28562   -67.316399    146567.55   -48645.172    3287.1571   -51932.329    94.367569   0.99927933 
   22800    214.51598   -168.57842    146429.91   -48701.985    3130.0166   -51832.002    94.409738    1.0002187 
   22900     218.2802    22.764508    146329.24   -48756.855    3184.9407   -51941.796    94.648588    1.0009067 
   23000    220.15129    83.345172    146447.66   -48702.232    3212.2418   -51914.473    94.739339    1.0000974 
   23100    220.44554    125.47606    146583.36   -48647.504    3216.5352   -51864.039    94.650248   0.99917158 
   23200    220.90964    53.211704    146860.49   -48629.857    3223.3069   -51853.164    95.024501   0.99728609 
   23300    219.55226   -99.798222    146856.71   -48673.251    3203.5013   -51876.752    95.314439   0.99731173 
   23400    222.36425   -198.93898    146923.13    -48717.06    3244.5313   -51961.592    95.643608    0.9968609 
   23500    222.05287    64.422487    146966.42   -48645.203    3239.9879   -51885.191    96.013875   0.99656727 
   23600    219.16042   -123.60213    146910.81   -48700.598    3197.7839   -51898.382    95.901648   0.99694453 
   23700    222.37624   -331.85608    146851.49   -48738.613    3244.7062   -51983.319     96.43233   0.99734724 
   23800    222.14328   -23.504033    146738.81   -48701.157    3241.3071   -51942.464    96.607665   0.99811307 
   23900     219.6722   -105.54427    146794.43   -48664.825    3205.2514   -51870.077    97.215181   0.99773491 
   24000    220.07529    3.6149106    146747.42   -48661.175    3211.1329   -51872.308    97.401764   0.99805449 
   24100    217.26269    91.000583    146835.41   -48649.675     3170.094   -51819.769    97.822534   0.99745646 
   24200    226.71289    136.55386    146839.56   -48589.847    3307.9826   -51897.829    98.358743   0.99742827 
   24300    219.44588   -6.8819103    147012.86   -48564.087    3201.9492   -51766.036     98.51072   0.99625249 
   24400    222.36245   -141.00599     147001.2   -48568.102     3244.505   -51812.607    99.235568    0.9963315 
   24500    221.27958    40.338656    147044.85   -48553.981    3228.7048   -51782.686    99.810046   0.99603575 
   24600    218.96735    -103.3413    147029.87   -48601.384    3194.9669   -51796.351    100.29125   0.99613722 
   24700     219.8655    22.154489    147002.88   -48574.502    3208.0719   -51782.574    100.57909   0.99632012 
   24800    219.34617    119.32724    146940.47   -48511.193    3200.4943   -51711.687    100.64026   0.99674326 
   24900    221.35867   -34.289938    146939.17   -48585.607    3229.8588   -51815.466    101.26335   0.99675211 
   25000    219.69852   -102.81315    146944.57   -48620.357    3205.6354   -51825.992    101.66985   0.99671544 
   25100     221.4227   -127.44392    146921.63   -48655.807    3230.7931     -51886.6    102.05545   0.99687109 
   25200    220.37072    1.7646337    146792.79   -48601.736    3215.4435    -51817.18    102.18359   0.99774605 
   25300    217.61592   -69.929755    146709.96    -48645.72     3175.248   -51820.968    102.67533   0.99830934 
   25400    219.48649   -156.77753    146612.75   -48613.135    3202.5417   -51815.677    103.05442   0.99897128 
   25500    215.66031   -67.217876       146671   -48582.291    3146.7136   -51729.004    103.59428   0.99857451 
   25600    214.25867   -197.70634    146499.31   -48632.124    3126.2622   -51758.386    104.23255   0.99974477 
   25700    216.40238   -14.391292    146506.48   -48580.443    3157.5413   -51737.985     104.6904   0.99969586 
   25800    219.57255   -42.655312    146547.85   -48637.118    3203.7974   -51840.916    105.11114   0.99941368 
   25900     216.4535    21.957149    146671.32   -48758.978    3158.2871   -51917.265    105.49203   0.99857232 
   26000     219.8156   -117.28673    146594.06   -48661.627    3207.3437   -51868.971    106.12572   0.99909863 
   26100      219.602   -45.617012    146584.06   -48683.144    3204.2271   -51887.371     106.8849    0.9991668 
   26200     218.0257   -221.84896    146496.94   -48643.703    3181.2272   -51824.931    107.45423   0.99976099 
   26300    221.21066    130.91866    146560.16   -48543.332    3227.6992   -51771.031    107.86119   0.99932971 
   26400    216.41036    313.42774    146681.38   -48621.041    3157.6576   -51778.698    108.73003   0.99850387 
   26500     226.0422    118.09583     146793.9    -48511.45    3298.1965   -51809.647    109.56803    0.9977385 
   26600    220.62688   -7.9475766     146982.1   -48526.296    3219.1812   -51745.477    110.07481   0.99646097 
   26700    221.77682    266.98512    147104.44   -48558.547      3235.96   -51794.507    110.75594   0.99563222 
   26800    221.44275    24.167324    147259.44    -48534.67    3231.0857   -51765.755    111.29376    0.9945843 
   26900    217.93906   -209.25541    147234.01   -48632.684    3179.9631   -51812.647    111.57462   0.99475605 
   27000    221.15963   -149.39573    147155.74   -48601.669    3226.9546   -51828.623    111.80822   0.99528518 
   27100    222.58189   -103.04642    147166.85   -48649.122    3247.7069   -51896.829     111.9204   0.99521005 
   27200    222.62997   -196.95291    147151.35   -48601.342    3248.4084    -51849.75    112.24016   0.99531483 
   27300    223.51976   -280.20909    147040.98   -48600.867    3261.3914   -51862.258    112.23681   0.99606195 
   27400    220.15602    -19.50286    147048.21   -48577.736    3212.3108   -51790.047    112.43633   0.99601294 
   27500    218.02219   -164.47634    147030.37   -48604.286     3181.176   -51785.462    112.60363    0.9961338 
   27600    217.26348    -30.59182    147071.21   -48584.131    3170.1056   -51754.237    112.85952   0.99585724 
   27700      219.519   -84.096701    147157.05   -48576.839     3203.016   -51779.855    113.52382   0.99527632 
   27800     223.0068   -79.442018    147010.26   -48573.228    3253.9068   -51827.135       113.86    0.9962701 
   27900    219.69319   -20.711441    147136.64   -48637.864    3205.5577   -51843.421    114.64047   0.99541439 
   28000    224.82642   -108.17591    147168.57   -48519.137    3280.4569   -51799.593    115.14757   0.99519841 
   28100    223.67967   -43.206501    147151.22   -48578.878    3263.7246   -51842.603    115.49516   0.99531571 
   28200     221.0425    -96.60096    147106.62   -48638.156    3225.2455   -51863.401    115.87022   0.99561746 
   28300    218.59442   -299.08161    146974.18   -48709.281    3189.5254   -51898.806    116.05279   0.99651466 
   28400    218.60597   -49.103948       146958   -48635.439     3189.694   -51825.133    116.72604    0.9966244 
   28500    223.02913   -156.89479    146945.77   -48607.749    3254.2325   -51861.981     117.0693    0.9967073 
   28600    222.31174    -39.71932    146871.86   -48673.033    3243.7651   -51916.798    117.59937   0.99720886 
   28700    215.13628     172.3723    146872.37   -48739.352    3139.0675   -51878.419    117.81102   0.99720542 
   28800    216.76398    61.817097    146865.92   -48715.273    3162.8174    -51878.09    117.80533   0.99724922 
   28900    220.62814   -10.390082    146888.44   -48686.666    3219.1996   -51905.866    118.34834   0.99709634 
   29000    219.50009   -9.0500768    146793.07   -48704.524    3202.7402   -51907.265    118.54122   0.99774412 
   29100    225.74928    47.500452    146834.52   -48673.947    3293.9225    -51967.87    119.09333   0.99746246 
   29200      218.881     52.54371    146821.85   -48702.973     3193.707    -51896.68    119.07231   0.99754852 
   29300    219.29944    87.502887    146862.55   -48696.545    3199.8124   -51896.357    119.52818    0.9972721 
   29400    223.46309    91.730038     146909.9   -48723.987    3260.5645   -51984.551    119.84361   0.99695068 
   29500    219.62099     -56.5669    146953.67   -48759.174    3204.5042   -51963.678    120.26624   0.99665374 
   29600    223.25385    116.55801    146966.72   -48728.995    3257.5115   -51986.507    120.60143   0.99656522 
   29700    223.76493    106.94973     146970.6   -48678.772    3264.9687   -51943.741    120.61383    0.9965389 
   29800    221.26161   -206.64797    147005.79   -48693.926    3228.4426   -51922.368    120.99334   0.99630036 
   29900    223.73261    103.29025    147110.71   -48616.852    3264.4971   -51881.349    121.12582   0.99558983 
   30000    220.77076    7.0481638    147126.67   -48650.469    3221.2805   -51871.749    121.49802    0.9954818 
   30100     218.8154   -333.59875    147029.96   -48630.635    3192.7497   -51823.385    121.49478    0.9961366 
   30200    221.15902   -27.069132    147082.69   -48656.134    3226.9456    -51883.08    122.15713   0.99577951 
   30300    220.25756    56.778976    146985.15   -48648.152    3213.7924   -51861.944    122.16672   0.99644028 
   30400    217.89146   -339.76853    146960.35   -48712.344    3179.2684   -51891.612    122.30796   0.99660845 
   30500    217.61952   -176.78552    146850.86   -48763.003    3175.3005   -51938.304    122.73478   0.99735149 
   30600    218.67454   -91.499722    146848.59   -48740.024    3190.6945   -51930.718    123.00429   0.99736693 
   30700    218.24341    53.537358    146791.92   -48730.489    3184.4038   -51914.893    123.50824   0.99775192 
   30800    219.63707     13.51485    147019.59   -48704.744    3204.7388   -51909.482     124.4079   0.99620688 
   30900    215.75547   -232.39431    147024.11   -48726.098    3148.1022     -51874.2    124.43762   0.99617621 
   31000    218.31322   -96.552352    146898.08   -48717.412    3185.4225   -51902.834    124.82477   0.99703091 
   31100    221.41764    57.145803    146858.03   -48711.402    3230.7192   -51942.122    124.93018    0.9973028 
   31200    217.69865    -121.4929    146867.72   -48770.171    3176.4551   -51946.627    125.00304   0.99723702 
   31300    220.04498    104.84884    146824.11   -48689.929    3210.6906   -51900.619    124.90926   0.99753319 
   31400    217.75824    134.26447    146762.69   -48726.131    3177.3246   -51903.456    125.48854   0.99795063 
   31500    219.50137    388.70146     146870.7   -48691.079    3202.7587   -51893.838    125.84176   0.99721676 
   31600    217.50921   -1.6019414    146952.29   -48612.076    3173.6911   -51785.767     126.5841   0.99666311 
   31700    218.52436    -5.726087    146973.15   -48644.668    3188.5032   -51833.171    126.87764   0.99652166 
   31800    221.17943    75.605599    146978.71   -48639.712    3227.2435   -51866.955     127.4358   0.99648391 
   31900    220.11492   -157.15784    146909.41     -48599.1    3211.7111   -51810.811    127.54398   0.99695397 
   32000    221.50848   -37.893173    146773.43   -48563.986    3232.0447   -51796.031     127.7786   0.99787765 
   32100    218.96507   -159.21234    146765.88   -48608.036    3194.9336   -51802.969    128.17424   0.99792895 
   32200    223.51426    136.35947    146696.08   -48594.725    3261.3112   -51856.036    128.18025   0.99840381 
   32300    220.11317   -128.33991    146654.96   -48627.169    3211.6857   -51838.855     128.6566   0.99868373 
   32400    219.89401   -52.158156    146666.71   -48570.354    3208.4878   -51778.842    128.85871   0.99860376 
   32500       221.47    220.73174    146652.49   -48606.812    3231.4832   -51838.295    128.87178   0.99870058 
   32600    219.50987   -18.502689    146632.29   -48615.483    3202.8828   -51818.366    129.17739   0.99883814 
   32700    217.19733   -16.742864    146574.38   -48599.218    3169.1405   -51768.358    129.97714   0.99923275 
   32800    220.74117   -119.22337    146508.43   -48614.185    3220.8488   -51835.034    130.48508   0.99968255 
   32900    219.26021    62.218566    146421.38   -48699.694      3199.24   -51898.935    131.21728    1.0002769 
   33000    216.91987    156.52245    146411.48   -48675.176     3165.092   -51840.268    131.56061    1.0003446 
   33100     217.0608   -5.6547806    146455.67   -48695.485    3167.1483   -51862.634    132.14965    1.0000427 
   33200    219.25814    69.841243     146513.5   -48607.167    3199.2099   -51806.377    132.81235   0.99964798 
   33300    219.76069    57.085976    146524.68   -48584.629    3206.5425   -51791.171    133.15981    0.9995717 
   33400    215.10538    69.070591    146676.71    -48642.66    3138.6166   -51781.277     133.5816   0.99853565 
   33500    223.34424    165.44469    146697.09   -48519.218    3258.8304   -51778.048    133.90912   0.99839692 
   33600    219.01849   -24.519234    146718.75   -48590.233     3195.713   -51785.946    134.04247   0.99824952 
   33700    220.67293    17.778667    146688.64   -48562.797    3219.8532   -51782.651    134.35612   0.99845447 
   33800    220.06573    117.25008    146786.98   -48587.567    3210.9934    -51798.56    134.84918    0.9977855 
   33900    220.20195   -5.8214655     146826.6   -48573.351    3212.9811   -51786.332    135.17872   0.99751631 
   34000    221.94238   -23.568255    146777.57    -48578.62    3238.3757   -51816.995    135.35542    0.9978495 
   34100    217.00203    124.48683    146864.35   -48631.922    3166.2908   -51798.213    135.93021   0.99725987 
   34200     215.8627   -185.06136    146792.89   -48654.262    3149.6667   -51803.928    136.20066   0.99774537 
   34300    222.10947   -209.12203     146719.2   -48632.172    3240.8137   -51872.985     136.5492   0.99824646 
   34400    221.46292     -110.797    146636.31    -48598.26      3231.38    -51829.64    136.98733   0.99881076 
   34500    224.41684   -120.41348    146654.82   -48494.821    3274.4807   -51769.302    137.26324   0.99868471 
   34600     221.5197    48.096866       146629   -48496.775    3232.2083   -51728.984    137.51109   0.99886057 
   34700    220.08958   -100.47793    146559.49   -48605.852    3211.3414   -51817.194     137.9477    0.9993343 
   34800    221.43342    61.771116    146503.67   -48596.866    3230.9495   -51827.815    138.06611   0.99971506 
   34900    218.31814   -35.294451     146558.5    -48603.79    3185.4943   -51789.285    138.21884   0.99934105 
   35000    217.26105    96.549765    146638.98   -48656.955    3170.0701   -51827.025    138.68042   0.99879255 
   35100    220.52484    163.93598    146728.69   -48589.858    3217.6923    -51807.55    139.22834   0.99818189 
   35200    222.48337   -41.763178    146805.46   -48521.886    3246.2693   -51768.155    139.96022   0.99765991 
   35300    221.73604    216.39095    146903.83   -48491.355    3235.3651    -51726.72    140.05391   0.99699188 
   35400    218.24867   -242.71453    146816.89   -48587.132    3184.4806   -51771.613    140.14486   0.99758225 
   35500    220.01075    87.374671    146727.41   -48622.476    3210.1912   -51832.667    140.31952   0.99819061 
   35600      220.771   -41.778178    146642.15   -48572.328    3221.2841   -51793.612    140.81202   0.99877101 
   35700    219.68184    130.53578    146675.59   -48570.266     3205.392   -51775.658    141.02579   0.99854327 
   35800    224.18501    7.2265158    146712.16   -48540.717    3271.0982   -51811.815    141.19247   0.99829439 
   35900    218.69764   -11.730643    146796.79     -48510.3    3191.0315   -51701.331     141.7826   0.99771886 
   36000     218.8515   -33.813672    146835.43   -48530.406    3193.2765   -51723.682    142.23231   0.99745628 
   36100    219.66419    105.78386    146932.63   -48567.577    3205.1345   -51772.711    142.80992   0.99679644 
   36200    221.09042   -178.87424    146798.53   -48551.587    3225.9447   -51777.531    142.92733   0.99770701 
   36300    222.25938   -109.93496    146703.07   -48579.344     3243.001   -51822.345    143.27974   0.99835622 
   36400    218.03937   -20.833057    146721.24   -48532.525    3181.4267   -51713.951    143.28282   0.99823259 
   36500    224.89389   -67.713011    146736.83    -48430.89    3281.4414   -51712.331    143.69965   0.99812656 
   36600    218.77043    45.708885    146755.66    -48481.48    3192.0937   -51673.574    143.86707   0.99799848 
   36700    222.54072    30.602227    146767.87   -48541.415    3247.1061   -51788.522    144.16438   0.99791542 
   36800    219.87548    48.314802    146831.51   -48581.278    3208.2175   -51789.495    144.95751   0.99748295 
   36900    219.33058    45.871089    146775.74   -48590.889    3200.2668   -51791.156    145.33468   0.99786193 
   37000    221.15944   -224.31128    146664.44   -48568.467    3226.9518   -51795.419    145.90637   0.99861916 
   37100    217.73474    61.118875    146693.16   -48591.535    3176.9818   -51768.516     146.1849   0.99842365 
   37200    221.03251   -64.426265    146633.01   -48591.714    3225.0998   -51816.814    146.50376   0.99883324 
   37300    222.17336   -54.663917    146726.61   -48559.103     3241.746   -51800.849    147.12558   0.99819605 
   37400    218.07934   -54.135498    146813.14   -48596.264    3182.0099   -51778.274    147.66771   0.99760771 
   37500    217.26508   -51.983127     146866.5   -48636.576     3170.129   -51806.705    148.63113   0.99724531 
   37600    217.60124    147.46246    146841.64    -48618.62    3175.0339   -51793.654    148.99666    0.9974141 
   37700    220.64892    23.305544    146810.06   -48608.652    3219.5028   -51828.155    149.26154   0.99762867 
   37800    220.26488    98.068995    146863.76   -48670.423    3213.8992   -51884.322    150.12173    0.9972639 
   37900    220.48025    3.9379203    146774.32   -48682.435    3217.0417   -51899.477    150.47274   0.99787162 
   38000    221.93224   -27.447352    146806.78   -48696.855    3238.2277   -51935.082    150.41832   0.99765094 
   38100    219.37837    26.012875    146872.33   -48723.488    3200.9641   -51924.452    150.80177   0.99720571 
   38200     216.9143   -131.74423    146908.31   -48685.615    3165.0107   -51850.626    151.38576   0.99696148 
   38300    218.80273   -261.36272    146849.69    -48726.84    3192.5649   -51919.405    151.82799   0.99735942 
   38400    217.85299    -86.92083    146736.67   -48834.505    3178.7071   -52013.212    152.10543   0.99812759 
   38500    220.13308    150.57703    146784.94   -48869.874    3211.9761    -52081.85    152.28499   0.99779937 
   38600    221.78977    35.549162    146757.74   -48801.864     3236.149   -52038.013    152.35305   0.99798434 
   38700    218.96954    43.226784    146829.54   -48743.695    3194.9988   -51938.694    152.46706   0.99749632 
   38800     222.6925    178.58008    146900.15   -48767.629    3249.3208   -52016.949    152.93708   0.99701683 
   38900    222.83221    164.40915    147040.69   -48736.216    3251.3593   -51987.575    153.36201   0.99606392 
   39000    220.71451    278.07816    147081.62   -48776.808    3220.4598   -51997.268    153.93045    0.9957867 
   39100    221.27857    -69.15083    147086.28   -48730.237    3228.6901   -51958.927    154.36401    0.9957552 
   39200    220.69314    143.63391    147144.88   -48768.991     3220.148   -51989.139    155.04879    0.9953586 
   39300    220.33944    26.190421    147138.31   -48752.211    3214.9871   -51967.198     155.4049   0.99540305 
   39400     216.2379    101.15824    147024.95   -48729.457    3155.1413   -51884.598     155.7247   0.99617056 
   39500    217.74026   -74.661754    146906.15   -48754.195    3177.0623   -51931.257    155.67338   0.99697614 
   39600    222.98591   -73.376538    146758.22   -48660.718    3253.6019    -51914.32    155.63027   0.99798109 
   39700    220.92097    13.248115    146693.43     -48699.2    3223.4722   -51922.672      155.925   0.99842187 
   39800    218.47755   -20.431408     146748.7   -48718.853    3187.8201   -51906.673    156.03992   0.99804582 
   39900    221.81368    110.73098    146763.72   -48786.822    3236.4979    -52023.32    156.22636   0.99794368 
   40000    221.03975   -57.843445    146736.19   -48862.203    3225.2053   -52087.409    156.15234   0.99813088 
   40100     217.5031    187.19564    146765.36    -48751.79    3173.6018   -51925.392    156.81082   0.99793253 
   40200    215.97901    90.159654    146921.73   -48747.193    3151.3639   -51898.557    157.50866   0.99687037 
   40300    216.95272    64.369779     146839.5   -48729.199    3165.5713    -51894.77    158.06631   0.99742868 
   40400    218.23561    -99.26036    146860.48    -48725.14    3184.2901    -51909.43    157.99305   0.99728617 
   40500    217.84083    28.501781    146930.75   -48759.151    3178.5297   -51937.681    158.16037   0.99680921 
   40600    218.95812    115.02833    146963.07   -48703.304    3194.8322   -51898.136    158.49898   0.99658997 
   40700    218.59272   -41.875762    147074.84   -48733.545    3189.5006   -51923.045    159.01511    0.9958326 
   40800    221.39002   -21.819713    147171.38   -48739.149    3230.3163   -51969.465    159.28284    0.9951794 
   40900    220.09641   -89.490537    147211.79   -48710.028    3211.4411   -51921.469    159.53427   0.99490619 
   41000    218.45041   -66.916563    147176.69   -48741.321    3187.4242   -51928.745    159.69121    0.9951435 
   41100    215.59527     44.75003    147209.27    -48784.64    3145.7646   -51930.404    160.17547   0.99492323 
   41200    219.82419    11.617069    147095.63   -48699.516     3207.469   -51906.985    160.52578   0.99569185 
   41300    223.66703    130.61833    147150.28   -48720.108    3263.5402   -51983.648    160.93435   0.99532207 
   41400    213.63599     81.41758    147244.25    -48789.37    3117.1767   -51906.547    161.02185   0.99468688 
   41500    224.29746   -77.044214    147174.75    -48742.59    3272.7389   -52015.329    161.37079   0.99515659 
   41600    220.28313    51.142232    147186.99    -48785.96    3214.1655   -52000.125    161.67133   0.99507386 
   41700    219.41301    54.915998    147350.54   -48791.884    3201.4695   -51993.354    162.08613    0.9939694 
   41800    217.14366   -159.92318    147367.56   -48803.406    3168.3573   -51971.763    162.65209   0.99385455 
   41900    221.44865    -131.0124    147297.35   -48735.172    3231.1716   -51966.344    162.88647   0.99432829 
   42000    220.40056   -192.95081    147199.86   -48767.139     3215.879   -51983.018    163.20933   0.99498684 
   42100     219.9067    56.898257    147183.11   -48734.633     3208.673   -51943.306    163.65414   0.99510007 
   42200    222.06277   -1.7355248    147214.23   -48723.728    3240.1324   -51963.861    164.08265   0.99488973 
   42300    218.38135    49.223321    147228.08   -48744.032    3186.4165   -51930.448    164.56064   0.99479612 
   42400    216.47535   -87.709743    147119.16   -48832.998     3158.606   -51991.604    164.89794   0.99553264 
   42500     219.3969   -77.756053    147009.14   -48756.605    3201.2345   -51957.839    165.06267   0.99627768 
   42600    218.99675   -42.545096    147027.77   -48801.104    3195.3959   -51996.499    165.11322   0.99615143 
   42700    215.91778   -78.357372    147070.47   -48794.461    3150.4704   -51944.931    165.12069   0.99586223 
   42800    216.98509    57.873543    147177.34   -48847.202    3166.0437   -52013.246    165.82566   0.99513911 
   42900    216.48477   -103.28537    147146.06   -48804.693    3158.7434   -51963.437    166.21412    0.9953506 
   43000    221.42337   -19.756824     147271.3   -48789.477    3230.8029    -52020.28    167.17302   0.99450422 
   43100    216.67711    10.485275    147231.55   -48798.073    3161.5498   -51959.623     167.6351    0.9947727 
   43200     222.5372   -291.82202    147232.22   -48769.146    3247.0547   -52016.201    168.36363   0.99476816 
   43300    217.96305    -231.0458    147173.31   -48794.521    3180.3131   -51974.834    168.63669   0.99516633 
   43400    214.60853   -95.703032    147035.22   -48849.193     3131.367    -51980.56    168.71517   0.99610094 
   43500    221.58489   -101.32701    146910.49    -48765.14    3233.1595     -51998.3     169.1176   0.99694665 
   43600    219.61117    79.981183    146876.14   -48793.465     3204.361   -51997.826    169.76247   0.99717982 
   43700     218.1602   -73.555646    146728.37   -48757.692    3183.1897   -51940.882    169.51153   0.99818412 
   43800    220.05807    246.30203    146822.67   -48692.531    3210.8817   -51903.413    170.29299     0.997543 
   43900    219.79612   -115.30029    146887.96     -48702.7    3207.0596    -51909.76    170.27983   0.99709956 
   44000    219.26138   -291.12155    146664.69   -48760.682    3199.2571   -51959.939    170.41238   0.99861745 
   44100    217.99616   -2.7710424    146647.41   -48679.812    3180.7962   -51860.608    170.73742   0.99873517 
   44200    219.96919    54.388889    146611.22   -48676.452    3209.5848   -51886.037    171.07825   0.99898171 
   44300    224.99729   -30.994338    146583.83    -48710.63    3282.9501    -51993.58    171.62554   0.99916834 
   44400    218.98573    100.09821    146578.48   -48783.922    3195.2351   -51979.157    172.24693   0.99920482 
   44500     214.9936    129.07113    146523.13   -48779.835    3136.9857   -51916.821    172.94279    0.9995823 
   44600    214.78554    105.76192    146630.64   -48716.485    3133.9498   -51850.435    173.52359   0.99884936 
   44700    221.07513   -142.43836     146493.2   -48806.393    3225.7217   -52032.115    173.92118    0.9997865 
   44800    217.29586    238.86248    146498.16   -48814.821    3170.5781   -51985.399    174.41065   0.99975265 
   44900    219.09014   -15.679221    146511.88   -48747.297    3196.7585   -51944.056    174.39155   0.99965906 
   45000    219.04455    88.811569    146639.62   -48741.331    3196.0933   -51937.425    174.64589   0.99878822 
   45100    219.60372    181.49844    146607.08    -48787.45    3204.2522   -51991.703    175.18138   0.99900991 
   45200    218.46059    212.99563    146684.97   -48781.029    3187.5728   -51968.602    175.51808   0.99847943 
   45300    217.24437     150.5848    146690.52   -48772.199    3169.8268   -51942.026    176.34743   0.99844161 
   45400    221.33893   -22.219803    146742.24   -48764.518    3229.5708   -51994.089    177.02463   0.99808974 
   45500    217.64215    156.44014    146796.91   -48763.211    3175.6308   -51938.842    177.54574     0.997718 
   45600    219.67452    85.783173    146914.48   -48744.604    3205.2852   -51949.889    177.91296   0.99691957 
   45700     218.3825    124.12718    147068.66   -48757.272    3186.4334   -51943.705    178.61029   0.99587449 
   45800    219.31057    49.071458     147160.9   -48657.453    3199.9748   -51857.427    178.75042   0.99525027 
   45900    222.38491    145.54766    147163.07   -48688.354    3244.8327   -51933.187     178.8349   0.99523561 
   46000    216.93261     171.0533    147155.22    -48740.21    3165.2778   -51905.488    178.80823   0.99528871 
   46100    218.16561    174.36191    147197.22   -48742.609    3183.2686   -51925.877    179.38092   0.99500469 
   46200     217.8077    83.184026    147297.67    -48712.19    3178.0464   -51890.236    179.55209   0.99432616 
   46300    219.69583    113.79495    147280.62    -48689.65    3205.5962   -51895.246    180.35859   0.99444124 
   46400    222.22607    6.4112761    147249.02   -48696.291    3242.5151   -51938.806    180.37211   0.99465469 
   46500    219.98738   -76.278956    147235.46   -48695.982    3209.8502   -51905.832     180.1318   0.99474629 
   46600    225.85088    56.807951    147257.74   -48665.761     3295.405   -51961.166    180.40924   0.99459576 
   46700    222.22147    203.06944    147184.97   -48679.132     3242.448    -51921.58     180.8433    0.9950875 
   46800    224.03154    98.296038    147287.78   -48612.365    3268.8588   -51881.224    181.18891   0.99439288 
   46900    221.47385    17.897045    147343.09    -48627.89    3231.5393    -51859.43    181.59641   0.99401963 
   47000    221.17922   -50.804196    147297.43   -48606.557    3227.2404   -51833.798    182.05999   0.99432775 
   47100    222.14539   -159.20284     147173.8   -48644.858    3241.3379   -51886.196    182.40401   0.99516299 
   47200    221.70155   -166.69813    147242.81   -48608.142    3234.8617   -51843.004    182.86316   0.99469662 
   47300    220.72566   -66.325955    147235.73    -48687.38    3220.6225   -51908.002    183.87341   0.99474446 
   47400    222.67379   -61.490699    147298.23   -48624.086    3249.0478   -51873.133    183.96823   0.99432235 
   47500    222.94381    73.418377    147275.51    -48624.75    3252.9876   -51877.738    184.74529   0.99447574 
   47600    221.16036    13.985489    147213.99   -48648.713    3226.9653   -51875.678    185.16858   0.99489135 
   47700    221.85459    12.167116    147224.97    -48701.49    3237.0948   -51938.584    185.75094   0.99481716 
   47800    218.02356   -5.4600476    147165.57    -48719.08     3181.196   -51900.276    186.10729   0.99521865 
   47900    216.88791    58.754051    147060.51   -48754.444    3164.6256    -51919.07    185.58334   0.99592968 
   48000    215.09851   -53.092889    146912.54   -48772.051    3138.5164   -51910.567    185.84843   0.99693275 
   48100    215.93793    186.48389    146999.81   -48751.443    3150.7645   -51902.208    186.00432   0.99634088 
   48200    218.63379   -64.991966    147163.27   -48754.909    3190.0999   -51945.009    186.62583   0.99523424 
   48300    213.45821   -45.901628    147106.86    -48707.41    3114.5827   -51821.993    187.14183   0.99561589 
   48400    219.09365   -154.45787    147036.48   -48629.799    3196.8097   -51826.608     187.2932   0.99609242 
   48500    218.42668   -162.24547    146993.92   -48669.291    3187.0779   -51856.369    187.45744   0.99638084 
   48600    216.90134   -80.734988    146976.43   -48712.734    3164.8216   -51877.556     188.2845   0.99649942 
   48700    218.62842    87.070064    146915.32   -48658.955    3190.0215   -51848.976    188.55957   0.99691392 
   48800    216.18317    116.89161    146984.65   -48701.935    3154.3427   -51856.278     189.1164   0.99644367 
   48900    216.12475   -46.064175    146957.66   -48752.764    3153.4903   -51906.254    190.03517   0.99662669 
   49000    218.61571   -29.044407    146869.84   -48702.304    3189.8361    -51892.14    190.51745   0.99722262 
   49100    222.02833   -149.71281    146719.57   -48679.336    3239.6299   -51918.966    190.74483   0.99824399 
   49200    217.90056    178.62385    146520.09   -48759.587    3179.4012   -51938.988    190.89712   0.99960301 
   49300    216.85089     101.6849    146694.41   -48764.788    3164.0855   -51928.874    190.78623   0.99841519 
   49400    215.53223    174.77797    146777.78   -48726.972    3144.8449   -51871.817    191.17114   0.99784808 
   49500     218.0766   -119.20019    146816.97    -48743.07    3181.9699    -51925.04    191.63547   0.99758169 
   49600    217.69293   -110.16147    146784.67   -48704.925    3176.3718   -51881.296    191.92035   0.99780122 
   49700    219.50858   -147.87025       146727   -48741.049     3202.864   -51943.913    191.92318   0.99819341 
   49800    219.90059     10.64168    146625.14   -48684.321    3208.5839   -51892.905    192.58136   0.99888687 
   49900    221.18144   -32.238558    146642.66   -48680.969    3227.2728   -51908.242    192.15899   0.99876748 
   50000    219.26136   -23.834659    146670.08   -48699.622    3199.2568   -51898.879    192.04812   0.99858076 
   50100    220.22242   -7.2113984    146828.17   -48762.812    3213.2796   -51976.091    192.87947    0.9975056 
   50200    223.54064    40.624725    147031.49    -48692.99     3261.696   -51954.686    193.36255   0.99612624 
   50300    219.85448    150.49784    147092.62    -48771.72     3207.911   -51979.631     193.8543   0.99571226 
   50400    220.69449   -95.211891    147041.08   -48772.048    3220.1678   -51992.216    194.25158   0.99606124 
   50500    217.82773    164.14761     147049.7   -48775.155    3178.3386   -51953.494    194.62753   0.99600287 
   50600     217.5917   -10.010679    147141.85   -48757.319    3174.8947   -51932.213    195.33714   0.99537911 
   50700    219.04761    -183.1772     147164.8    -48733.81     3196.138   -51929.948    195.51597   0.99522387 
   50800    223.58432    89.368712    147179.03   -48617.043    3262.3334   -51879.377    195.73678   0.99512767 
   50900    219.65749     180.9569    147271.81   -48690.519    3205.0367   -51895.555    196.44798   0.99450077 
   51000    222.85366   -72.641123    147373.04   -48708.081    3251.6723   -51959.753    196.85192   0.99381764 
   51100    222.20988    15.308906    147352.71     -48717.5    3242.2789   -51959.779    196.80804    0.9939547 
   51200    218.61867    -59.01553    147314.22    -48689.73    3189.8793   -51879.609    197.01878   0.99421442 
   51300    222.94613    40.856427    147274.19   -48586.707    3253.0215   -51839.728    197.22326   0.99448467 
   51400    215.29665   -328.92381    147196.98    -48759.59    3141.4075   -51900.998    197.71014   0.99500633 
   51500    217.61154   -15.645636    146997.16   -48783.354    3175.1841   -51958.539    198.26736   0.99635889 
   51600    217.49918    69.616979    146835.71   -48759.283    3173.5447   -51932.828    198.59321   0.99745442 
   51700    221.87431    213.17914    146735.88   -48759.291    3237.3825   -51996.674    198.96153     0.998133 
   51800    218.68457    204.13227    146863.74   -48753.732    3190.8408   -51944.573    199.28196   0.99726404 
   51900    216.29619    88.366805    146993.92   -48808.925    3155.9918   -51964.917    200.11547   0.99638081 
   52000    215.09031   -47.457709    146956.28   -48829.764    3138.3967    -51968.16    200.45726   0.99663605 
   52100    217.80145    34.865028    146949.71   -48778.681    3177.9552   -51956.636     200.8454   0.99668062 
   52200    217.35217   -85.727246    146995.29   -48792.641    3171.3997    -51964.04    201.00548   0.99637157 
   52300    218.55835    114.83676    146950.32   -48755.753    3188.9991   -51944.752    200.97643   0.99667647 
   52400    219.94974    28.514854    146994.52   -48696.336     3209.301   -51905.637     201.3641   0.99637679 
   52500    220.25076    102.85023    147063.37   -48679.537    3213.6932    -51893.23    201.54817   0.99591033 
   52600    216.73933     57.43247    146881.46    -48757.95    3162.4577   -51920.408    202.17297   0.99714368 
   52700    219.22834   -38.141922    146850.55   -48737.884     3198.775   -51936.659    202.57981   0.99735356 
   52800    218.63754    100.20439    146711.52    -48789.44    3190.1546   -51979.595    202.94856   0.99829875 
   52900     215.2556    217.39654    146767.77   -48815.882    3140.8085    -51956.69    203.44448   0.99791611 
   53000    216.42349    130.83559    146822.28   -48808.191    3157.8493    -51966.04    203.88349   0.99754562 
   53100    213.03435    87.838504    146955.45   -48877.081     3108.398   -51985.479    203.74799   0.99664164 
   53200    219.86938    362.86957    146927.19    -48804.92    3208.1285   -52013.048    203.92504   0.99683333 
   53300    216.60596   -40.483527    146962.62   -48724.211    3160.5117   -51884.723    204.62929   0.99659304 
   53400    219.39416   -36.558434    147011.84   -48704.312    3201.1945   -51905.506    205.39206   0.99625938 
   53500    222.54434    168.31871    147083.31   -48612.886    3247.1589   -51860.045    205.57097   0.99577526 
   53600    220.98824    80.052081    147115.43   -48632.968    3224.4538   -51857.422    206.35046   0.99555785 
   53700    222.64684    140.28442     147134.5   -48598.966    3248.6545    -51847.62    206.58287    0.9954288 
   53800    218.46853    43.466515    147009.34   -48662.288    3187.6885   -51849.976    206.82954   0.99627633 
   53900    216.33098   -35.781244    146966.19     -48702.5    3156.4994   -51858.999    206.99537   0.99656885 
   54000    219.30247    -53.55982    146954.88   -48688.755    3199.8566   -51888.611    207.25996   0.99664552 
   54100    220.72855    76.354268     146961.9   -48624.787    3220.6647   -51845.452    207.92876   0.99659789 
   54200    222.98034    -42.19412    146987.96   -48594.864    3253.5206   -51848.385    208.82826    0.9964212 
   54300    217.56772   -8.8896772    146881.11   -48650.946    3174.5447   -51825.491    209.22893   0.99714609 
   54400    218.55321    20.606287    146959.65   -48622.736    3188.9241    -51811.66    209.61387   0.99661321 
   54500    221.79524   -184.25027    146838.39   -48666.769    3236.2288   -51902.998    209.75684    0.9974362 
   54600    221.03949   -154.33195    146920.28   -48672.641    3225.2017   -51897.842    210.16711   0.99688026 
   54700    220.52903    -108.9276    146944.22   -48682.318    3217.7535   -51900.071    210.50988   0.99671784 
   54800    221.21557   -35.605077     147020.8   -48661.835    3227.7709   -51889.606    210.90171   0.99619863 
   54900    219.77805    73.517841     147059.8   -48630.391    3206.7959   -51837.187    211.29348   0.99593447 
   55000      223.748    3.7708569    147165.63   -48577.495    3264.7217   -51842.217    211.67093   0.99521825 
   55100    220.47587    29.967652    146966.49   -48527.511    3216.9778   -51744.489    211.46097   0.99656682 
   55200    222.85132    20.574922    146872.91   -48575.526    3251.6382   -51827.164    212.10966   0.99720177 
   55300    222.81896    49.016511    146716.38   -48560.137     3251.166   -51811.303    212.44216   0.99826569 
   55400    219.56199    120.81926    146849.69    -48575.94    3203.6434   -51779.583    213.22869   0.99735946 
   55500    223.16104    -63.13938    146831.43    -48554.32    3256.1573   -51810.478    213.75329   0.99748344 
   55600    219.86326   -89.633161    146890.65    -48586.84    3208.0392   -51794.879    214.69594   0.99708131 
   55700    217.09592   -227.22031    146829.48   -48571.655    3167.6608   -51739.315     214.7128    0.9974967 
   55800    216.06548    -69.50213    146659.47   -48568.558    3152.6255   -51721.184     214.8981   0.99865302 
   55900    218.63209    -247.4277    146508.13   -48666.586    3190.0751   -51856.661    215.59833   0.99968465 
   56000    218.12806   -75.793006    146463.06   -48692.672    3182.7207   -51875.393    215.86128   0.99999225 
   56100    221.06545   -123.09982    146379.09   -48658.709    3225.5804   -51884.289    216.31544    1.0005659 
   56200    218.24003    58.464904    146396.44   -48633.995    3184.3545   -51818.349     216.5974    1.0004473 
   56300    219.48941    70.118252    146426.96   -48561.069    3202.5842   -51763.653    216.99447    1.0002388 
   56400    221.42033    111.46511    146504.96   -48512.814    3230.7585   -51743.573    217.71701   0.99970622 
   56500    223.01714    216.96755    146519.53   -48499.932    3254.0576    -51753.99    218.22064   0.99960684 
   56600    222.85028    405.03352     146683.7   -48512.436     3251.623   -51764.059    219.05462   0.99848809 
   56700    222.44068    111.20132       146626   -48521.795    3245.6465   -51767.441    220.02789   0.99888102 
   56800    218.92148   -82.238032    146593.28    -48519.41    3194.2975   -51713.707    220.07419   0.99910398 
   56900     220.7454    143.66022    146656.87   -48527.057    3220.9106   -51747.968    220.51244    0.9986707 
   57000    223.71524   -2.7434177    146610.35   -48579.671    3264.2436   -51843.915    220.40802   0.99898764 
   57100    222.83309    30.328379    146596.46   -48634.923    3251.3722   -51886.295    220.42937   0.99908227 
   57200    220.87466   -62.618565    146720.16   -48694.049    3222.7965   -51916.845    221.17006   0.99823993 
   57300     219.8189   -102.28736    146676.13   -48748.136    3207.3919   -51955.528    221.59178   0.99853962 
   57400    221.29007    146.04764    146634.77   -48728.683    3228.8579   -51957.541    222.27666   0.99882123 
   57500     221.5145   -64.325128    146759.77   -48649.236    3232.1325   -51881.369    222.50816   0.99797054 
   57600    215.82523    46.243788    146710.59   -48740.807    3149.1201   -51889.927    222.72329   0.99830507 
   57700     220.6104    65.763177    146524.22   -48748.559    3218.9408     -51967.5    222.50211   0.99957484 
   57800    221.80094   -118.69327    146541.63   -48662.858     3236.312    -51899.17    223.45613   0.99945612 
   57900     219.4245   -97.609674    146494.18   -48656.388    3201.6372   -51858.025    223.66311   0.99977984 
   58000    215.40714    48.163269    146489.86   -48751.835    3143.0197   -51894.855    223.44597   0.99980933 
   58100     218.5723    179.99807    146574.03   -48655.299    3189.2027   -51844.502    223.39079   0.99923519 
   58200    221.36723   -24.002258    146684.82   -48652.412    3229.9838   -51882.395    223.63846   0.99848041 
   58300    216.99176    14.656486    146698.66   -48768.616    3166.1409   -51934.757    223.77528   0.99838626 
   58400    215.80163    264.74671    146739.88   -48703.788    3148.7757   -51852.564    224.19374   0.99810578 
   58500    221.23908    200.94131     146881.6   -48649.963    3228.1139   -51878.077    224.63458   0.99714277 
   58600    216.95494    191.97959    146865.27   -48666.819    3165.6037   -51832.423    225.39666   0.99725366 
   58700    219.27824   -37.435086    146819.38   -48592.754    3199.5031   -51792.257    225.59922   0.99756535 
   58800    219.09679     144.5522    146765.08   -48646.149    3196.8556   -51843.005    225.79495   0.99793444 
   58900    221.16898   -7.4458848    146766.18   -48556.754     3227.091   -51783.845     226.4587   0.99792693 
   59000    219.39275    196.68603    146779.35   -48618.836     3201.174    -51820.01    227.02326   0.99783742 
   59100    220.61791    148.52114    146940.11   -48660.222    3219.0504   -51879.272    227.27029   0.99674568 
   59200    217.67842    159.42387    147005.12   -48678.694      3176.16   -51854.854    228.09317   0.99630491 
   59300    222.02914    70.567965    147057.39   -48714.593    3239.6416   -51954.235    228.70839    0.9959508 
   59400    220.36402   -109.00815    147078.04   -48684.075    3215.3458    -51899.42    229.40441   0.99581096 
   59500     217.2085   -155.41434    147104.86   -48739.298    3169.3034   -51908.601    230.03456    0.9956294 
   59600    222.20749   -4.7449056    147016.58   -48634.797     3242.244   -51877.041    230.60343   0.99622727 
   59700    223.25252   -43.453212    146994.07   -48599.735     3257.492   -51857.227    230.74903    0.9963798 
   59800    224.90146    174.07576    147007.52   -48597.869    3281.5518   -51879.421    231.25708   0.99628864 
   59900    219.58962    5.4916462    147047.13   -48667.737    3204.0464   -51871.783    232.05778    0.9960203 
   60000    219.15486   -293.83949    146984.75   -48669.705    3197.7028   -51867.408    232.15947   0.99644298 
   60100    219.64509   -82.477953    146852.65   -48632.307    3204.8559   -51837.163    232.69014   0.99733931 
   60200     218.1827    25.218373     146859.7   -48732.682    3183.5179     -51916.2     233.1246   0.99729145 
   60300    219.64426   -59.263446    146874.53   -48697.656    3204.8437   -51902.499    233.73666   0.99719078 
   60400    218.32465   -21.509112    146924.18   -48642.591    3185.5892    -51828.18    233.55119    0.9968538 
   60500    221.33228   -57.217815    146792.59   -48718.722    3229.4738   -51948.196    233.62659   0.99774741 
   60600    218.33051    24.022468    146835.18   -48729.815    3185.6747   -51915.489    233.73254   0.99745799 
   60700    217.16122   -260.86382    146765.54   -48721.078    3168.6135   -51889.692    234.12425    0.9979313 
   60800    221.02561    61.649187    146740.32    -48694.56    3224.9991   -51919.559      233.862   0.99810283 
   60900    221.20626    148.40409    146735.89    -48688.34    3227.6349   -51915.975    234.37871   0.99813295 
   61000    222.53096   -34.764766    146888.53   -48643.441    3246.9638   -51890.405    234.91615    0.9970957 
   61100     220.6895   -33.889591    146879.03   -48636.836    3220.0949   -51856.931    235.21277   0.99716022 
   61200    223.37276   -3.1152622    146818.07   -48651.022    3259.2465   -51910.268     235.1865   0.99757422 
   61300    220.24093    26.765294    146781.09   -48682.667    3213.5497   -51896.217    235.64971   0.99782558 
   61400    221.74807   -79.099693    146736.75    -48555.41    3235.5406    -51790.95    236.25734   0.99812709 
   61500    218.93248    76.712768    146760.68   -48564.733    3194.4581   -51759.191    236.35055   0.99796433 
   61600    222.89088   -28.760012    146835.04   -48594.125    3252.2154    -51846.34    236.74833   0.99745894 
   61700    218.90885   -144.05452    146839.74   -48645.284    3194.1132   -51839.397    236.58279   0.99742699 
   61800    219.58064   -78.542633    146716.27   -48629.794    3203.9154   -51833.709    236.69811    0.9982664 
   61900    220.11749    24.989798    146684.43   -48614.451    3211.7487     -51826.2    236.84266   0.99848311 
   62000    226.56692    87.013353    146575.86   -48647.367    3305.8528   -51953.219    237.64594   0.99922268 
   62100    216.87995   -24.651389    146507.97   -48695.924    3164.5094   -51860.433    237.92446   0.99968572 
   62200    222.26175   -14.784079    146479.54   -48682.766    3243.0357   -51925.802    239.11093   0.99987976 
   62300    217.19461   -3.8360179    146467.35   -48735.828    3169.1007   -51904.928    239.44466   0.99996296 
   62400    217.14076    194.53926    146409.12   -48732.479     3168.315   -51900.794    239.23933    1.0003607 
   62500     217.6013    93.957543    146647.87     -48750.6    3175.0347   -51925.634    239.74775   0.99873199 
   62600    220.80955   -51.386117    146625.37   -48652.269    3221.8465   -51874.115    240.21174    0.9988853 
   62700    225.36155   -32.469911    146546.81   -48655.943    3288.2651   -51944.208    240.71759   0.99942073 
   62800    216.26701    115.51291    146548.74   -48698.754     3155.566    -51854.32     241.4392   0.99940759 
   62900     225.6334    16.787315    146668.85    -48619.08    3292.2316   -51911.312    241.50423   0.99858916 
   63000    220.44817    80.936226    146597.55   -48680.921    3216.5736   -51897.495    241.46196   0.99907485 
   63100    220.19159   -56.915493     146519.2   -48667.177    3212.8298   -51880.006    241.38135   0.99960907 
   63200    218.74578    44.444661     146582.2   -48689.472     3191.734   -51881.206    242.28523   0.99917949 
   63300    215.71802    -74.81903     146563.6   -48723.153    3147.5557   -51870.709    242.31649   0.99930625 
   63400    216.65001    126.61946    146397.78   -48744.278    3161.1544   -51905.433    242.05946    1.0004382 
   63500    215.88169    141.44328    146384.88   -48738.779    3149.9438   -51888.723    242.58234    1.0005263 
   63600    219.09236    267.96233    146324.75   -48663.657    3196.7909   -51860.448    242.75819    1.0009375 
   63700    215.57583    203.50659    146463.02    -48678.49    3145.4809   -51823.971     243.4062   0.99999253 
   63800    213.70826    30.746087    146483.65   -48729.984    3118.2311   -51848.215    243.52543   0.99985165 
   63900    219.39301   -27.446045    146504.81   -48628.631    3201.1778   -51829.809    244.08948   0.99970724 
   64000    220.36544    97.489437    146551.31   -48714.295    3215.3665   -51929.662    244.23547   0.99939007 
   64100    217.02387    121.43963    146625.41   -48765.631    3166.6094   -51932.241    244.69354     0.998885 
   64200    220.45513   -52.163627    146677.72   -48714.241    3216.6751   -51930.916     245.2097   0.99852875 
   64300    217.64776   -129.26988     146697.3    -48778.14    3175.7126   -51953.853    245.54479   0.99839549 
   64400    217.42317    221.82048     146828.1   -48791.278    3172.4357   -51963.714    246.12977   0.99750609 
   64500    212.77476    160.87586    146912.83   -48849.608    3104.6104   -51954.218    246.78168   0.99693078 
   64600    218.80056   -64.560548    146973.02    -48770.22    3192.5332   -51962.753     246.8971   0.99652253 
   64700     222.1779    -103.1246    146939.35   -48715.735    3241.8122   -51957.548    247.38634   0.99675087 
   64800    219.38238    211.69955    147047.85   -48688.518    3201.0227    -51889.54    247.64799   0.99601543 
   64900    220.01021   -40.291093    146987.86   -48664.779    3210.1834   -51874.962    247.87052    0.9964219 
   65000    220.73413    105.09974    146979.46   -48664.873     3220.746   -51885.619    248.06889   0.99647888 
   65100    215.90668   -6.8008727     146960.5   -48722.951    3150.3084    -51873.26    248.68356   0.99660744 
   65200    221.09213   -82.369422    146948.19   -48715.809    3225.9697   -51941.779    249.36435   0.99669089 
   65300    219.20852    54.493414    146996.97   -48748.354    3198.4858    -51946.84    249.46032   0.99636017 
   65400    220.23532    109.64785     147105.2   -48770.488    3213.4679   -51983.956    249.80064   0.99562712 
   65500    218.83838    120.98593    147265.42   -48754.137    3193.0851   -51947.222    249.99199   0.99454388 
   65600    221.56404   -142.29077    147185.32   -48692.793    3232.8554   -51925.649    249.93267   0.99508512 
   65700    222.70092   -97.661913    147064.41   -48657.995    3249.4436   -51907.438     250.0409   0.99590326 
   65800     220.5431   -2.0343845    146988.74   -48697.497    3217.9588   -51915.456    250.28925   0.99641596 
   65900    219.86205   -26.652111    147063.69    -48712.62    3208.0215   -51920.641    250.41338    0.9959081 
   66000    219.90612    270.91512    147167.72   -48647.655    3208.6646   -51856.319    250.64791   0.99520413 
   66100    218.33354   -112.68995    147160.82   -48699.758    3185.7189   -51885.477    250.83502   0.99525081 
   66200    222.10135    82.127144    147086.62   -48647.782    3240.6953   -51888.478    251.13899   0.99575289 
   66300    219.08629    101.08685    147121.87   -48633.371    3196.7024   -51830.073    251.58518   0.99551426 
   66400    219.53365   -74.644903     147149.4   -48614.859    3203.2298   -51818.089    252.47724   0.99532807 
   66500    219.08617    -142.7214    147122.93   -48692.237    3196.7006   -51888.938    252.20264   0.99550713 
   66600    220.72688   -344.48175    146993.76   -48693.756    3220.6403   -51914.396     252.6256   0.99638192 
   66700    220.11408   -134.29642    146930.65   -48705.794    3211.6989   -51917.493    253.26041   0.99680989 
   66800    219.31321    15.710102    146902.78    -48696.28    3200.0133   -51896.293    253.89562   0.99699902 
[...]
   84600    216.75658    85.052065    146727.14   -48800.402    3162.7093   -51963.112    318.45954   0.99819247 
   84700     218.3717    60.236343    146925.79   -48819.008    3186.2757   -52005.284    318.85474   0.99684288 
   84800    221.23421    167.87632     147075.5   -48766.252    3228.0428   -51994.295    319.06367   0.99582819 
   84900    219.19619     88.08095     147279.4   -48768.557    3198.3059   -51966.862    320.02712   0.99444946 
   85000     217.8683   -154.21194    147190.81     -48798.3    3178.9305    -51977.23    320.14148   0.99504803 
   85100    219.07257    122.61792    147065.91   -48758.728    3196.5022    -51955.23    319.89074   0.99589312 
   85200    214.01215    90.945697    147123.48    -48796.14    3122.6652   -51918.805     320.8702   0.99550339 
   85300    218.43432    235.26934    147315.91   -48720.467    3187.1894   -51907.656    322.01478   0.99420302 
   85400    219.23976   -58.630954     147537.6   -48692.629    3198.9416   -51891.571    322.87468   0.99270917 
   85500    221.37221   -172.01861    147536.45   -48682.815    3230.0564   -51912.872    322.92784   0.99271689 
   85600    221.73566    33.906508    147426.38   -48648.223    3235.3594   -51883.582    322.98823   0.99345808 
   85700    220.48518   -5.2322535    147356.61   -48738.653    3217.1137   -51955.767     323.3412   0.99392846 
   85800    222.79093   -119.66932    147398.42   -48739.216     3250.757   -51989.973     324.2342   0.99364651 
   85900    218.36506   -170.42762    147352.69    -48792.59    3186.1788   -51978.769    323.85659    0.9939549 
   86000    218.26801   -133.88143    147361.39   -48781.422    3184.7628   -51966.184    323.80094   0.99389617 
   86100    216.81781   -12.677788    147364.89   -48801.789    3163.6028   -51965.391    324.12735   0.99387255 
   86200    219.50752    15.094715    147300.52   -48801.972    3202.8485    -52004.82    324.57024   0.99430689 
   86300    222.75447   -224.73246    147204.92    -48837.97     3250.225   -52088.195     324.6457   0.99495265 
   86400    221.74648     16.02569    147047.11   -48838.691    3235.5174   -52074.208    325.00885   0.99602043 
   86500    220.50197    69.387687    147142.28   -48791.129    3217.3586   -52008.488    325.84799    0.9953762 
   86600    213.99347   -84.152226    147253.14   -48765.258    3122.3927   -51887.651    326.70754   0.99462682 
   86700    216.69049   -98.573532    147185.85   -48811.272    3161.7451   -51973.017    326.63002   0.99508154 
   86800    218.43316    -81.44554    147224.59   -48769.759    3187.1725   -51956.931      327.018   0.99481971 
   86900    220.51757   -118.67624    147168.01   -48732.612    3217.5862   -51950.198    327.57295   0.99520217 
   87000    219.46348   -183.50244    147128.64   -48780.781    3202.2059   -51982.987    327.00631   0.99546847 
   87100    219.12069    -79.74551    147034.45   -48816.002    3197.2043   -52013.206    327.46209   0.99610615 
   87200    216.02976   -20.408093    147161.07   -48840.159    3152.1043   -51992.263     328.1053    0.9952491 
   87300    216.47626   -124.95683    147093.28   -48715.347    3158.6192   -51873.967    328.17379    0.9957078 
   87400    218.80196    -49.13355    146940.81   -48675.439    3192.5536   -51867.992    327.98644   0.99674099 
   87500    221.63566   -85.875953    146946.91   -48744.225    3233.9003   -51978.125    328.23161   0.99669959 
   87600    222.18528   -36.878235    146793.98   -48739.049    3241.9199   -51980.969    328.24592   0.99773797 
   87700    218.54023    16.825464     146787.2   -48727.467    3188.7347   -51916.202    328.38917   0.99778401 
   87800    218.50978    53.330378    146712.54   -48760.192    3188.2905   -51948.483    328.53475    0.9982918 
   87900    219.77824    217.95454    146748.76   -48703.895    3206.7987   -51910.693    328.83109   0.99804542 
   88000    220.04183    184.16193    146936.62   -48664.159    3210.6447   -51874.804    329.25681   0.99676938 
   88100    217.42867   -7.3861022    147017.37   -48676.263    3172.5159   -51848.779    330.11108   0.99622192 
   88200    219.65073    142.75213    146974.46   -48646.179    3204.9381   -51851.118    330.06729   0.99651274 
   88300    220.87252   -139.10528    147031.37   -48669.803    3222.7653   -51892.568     330.2236   0.99612705 
   88400    221.18722    -75.07769    147029.49    -48660.39    3227.3572   -51887.747    330.45237   0.99613977 
   88500    220.48648   -150.96784    147107.86   -48684.873    3217.1325   -51902.006    331.12945   0.99560912 
   88600     218.7078   -215.40374    146996.33   -48727.395    3191.1798   -51918.575    331.70857   0.99636448 
   88700    220.24292   -152.98442    147090.32   -48663.852    3213.5788   -51877.431    332.42561   0.99572781 
   88800    219.21028   -43.989556    147000.87    -48672.42    3198.5114   -51870.931    332.45832   0.99633372 
   88900    214.97891   -110.20596    147035.55   -48718.563    3136.7713   -51855.335     332.7756   0.99609869 
   89000    224.07863    -174.8024    146874.58   -48666.929    3269.5459   -51936.475    332.89343    0.9971904 
   89100    220.55723    48.951983    146902.41   -48638.623    3218.1649   -51856.787    333.26483   0.99700152 
   89200    219.09171   -234.94467    147005.16   -48710.626    3196.7814   -51907.408     333.0923   0.99630468 
   89300    218.93992    108.15943    146974.59   -48686.009    3194.5667   -51880.575    333.32511   0.99651186 
   89400     219.5609   -364.72753    147004.96     -48678.7    3203.6274   -51882.328    333.72087   0.99630601 
   89500    216.86248    118.99039    146887.18   -48701.534    3164.2547   -51865.789    334.10453   0.99710487 
   89600    218.77923    -140.9076    146965.42   -48706.186     3192.222   -51898.408    334.04034   0.99657406 
   89700    221.56275    6.2363899    146947.66   -48648.417    3232.8365   -51881.253    334.28856   0.99669453 
   89800    222.50913   -155.49064     147022.5   -48688.193    3246.6452   -51934.839    334.69054   0.99618712 
   89900    222.36866   -102.48387    146953.25   -48682.405    3244.5957   -51927.001    334.79446   0.99665656 
   90000    220.25059   -128.49793    146935.23   -48760.289    3213.6907    -51973.98    334.64849   0.99677878 
   90100    217.05493    73.591728    146995.73   -48665.326    3167.0627   -51832.388    334.70997   0.99636857 
   90200    220.05789   -124.42274    146979.47   -48733.295     3210.879   -51944.174    335.10076    0.9964788 
   90300    216.19736   -215.42183    146925.07   -48799.673    3154.5498   -51954.223    335.43718   0.99684775 
   90400    219.27906   -121.49844    146953.92   -48713.445     3199.515    -51912.96    335.98652   0.99665207 
   90500    221.51268   -167.12208    146959.33   -48651.295    3232.1059   -51883.401    336.03948   0.99661534 
   90600    219.08776   -45.211681    146957.58   -48646.472    3196.7238   -51843.195    336.56475   0.99662724 
   90700    219.22496   -97.870916    146993.97   -48662.122    3198.7257   -51860.848    336.68065   0.99638049 
   90800    223.04359   -103.87588    146984.82   -48648.888    3254.4436   -51903.331    337.15812   0.99644255 
   90900     219.9639   -30.671682    146929.24   -48710.824    3209.5076   -51920.332    337.14075   0.99681945 
   91000    220.40336     191.6428    146962.43   -48702.344    3215.9198   -51918.264     337.6264    0.9965943 
   91100     220.1822   -51.551014    147075.69   -48656.592    3212.6928   -51869.284    338.03563   0.99582686 
   91200    217.60182   -140.61036    146921.23   -48693.314    3175.0424   -51868.356    337.67166   0.99687382 
   91300    217.84065   -45.656624    146855.83   -48668.787    3178.5271   -51847.314    338.16274   0.99731776 
   91400    220.03216    11.425804    146747.99   -48697.562    3210.5035   -51908.065    337.97026    0.9980506 
   91500    218.28256    28.048431    146656.33   -48704.495    3184.9751    -51889.47    338.09882   0.99867443 
   91600    220.55147    201.49127    146556.59   -48661.787    3218.0809   -51879.867    338.53945   0.99935409 
   91700    216.47019    225.88402    146597.37   -48729.797    3158.5306   -51888.328    338.62009   0.99907604 
   91800    218.52348    91.201341    146495.76   -48815.587    3188.4904   -52004.077    338.54787   0.99976904 
   91900    214.55135    124.13284    146541.09   -48793.119    3130.5328   -51923.651    338.96433   0.99945979 
   92000    217.53073   -30.192175    146534.19   -48769.912    3174.0051   -51943.918    339.35586   0.99950686 
   92100    220.78521    128.20362    146561.27   -48734.417    3221.4914   -51955.908    339.37223   0.99932217 
   92200    222.80005    145.97151    146722.22   -48613.643    3250.8901   -51864.533    339.78349   0.99822595 
   92300     222.1309    27.637098    146712.32   -48644.308    3241.1265   -51885.434    340.03049    0.9982933 
   92400    222.46915    164.59388    146799.93   -48722.141    3246.0618   -51968.203     340.2761   0.99769754 
   92500    220.20401   -272.69651    146684.36   -48650.954     3213.011   -51863.965     340.2275   0.99848359 
   92600    218.51908    171.16297    146592.49   -48682.386    3188.4262   -51870.812    340.37074   0.99910932 
   92700    221.00728     99.66427    146691.76   -48695.881    3224.7316   -51920.612    340.78039   0.99843323 
   92800    217.96174   -50.270182    146695.68   -48710.898     3180.294   -51891.192    341.41439    0.9984065 
   92900    217.73994    43.647322    146624.27   -48728.286    3177.0577   -51905.343    341.45125   0.99889277 
   93000    222.12772    -64.24061    146584.56   -48606.998      3241.08   -51848.078    341.68897   0.99916336 
   93100    218.78678    46.207812    146567.46   -48627.795    3192.3322   -51820.127    341.89522   0.99927998 
   93200    216.90526     8.896436    146680.99   -48643.444    3164.8788   -51808.323     342.0972    0.9985065 
   93300    224.06797    -21.51761    146688.86   -48592.412    3269.3903   -51861.802     342.7103   0.99845293 
   93400    222.87113    106.84901    146766.77   -48630.497    3251.9271   -51882.424    343.20175   0.99792293 
   93500    219.19616   -53.127078     146836.3   -48645.246    3198.3054   -51843.552      343.115   0.99745038 
   93600    219.39156   -186.29189    146834.03   -48688.556    3201.1565   -51889.713    343.85018   0.99746582 
   93700     223.3157    46.720805    146917.72   -48710.302    3258.4139   -51968.716    344.09189   0.99689762 
   93800    218.10316    217.96319    147005.15   -48690.484    3182.3575   -51872.841    344.67127    0.9963047 
   93900    219.55798   -2.7632153    147106.67   -48690.619    3203.5848   -51894.204    345.48388   0.99561712 
   94000    218.86071   -7.6118095    147208.14   -48740.711    3193.4109   -51934.122    345.98054   0.99493089 
   94100    217.96232    16.580822    147100.72   -48795.752    3180.3024   -51976.054     346.5469    0.9956574 
   94200    220.31812   -157.31537    146944.33   -48768.364     3214.676    -51983.04    346.62193   0.99671711 
   94300    219.93846   -83.312607    146905.46   -48754.556    3209.1365   -51963.693    346.52077   0.99698084 
   94400    219.72401   -3.9103823    146812.49   -48735.845    3206.0074   -51941.852    346.31184   0.99761216 
   94500     220.3327   -49.007565    146763.42   -48769.689    3214.8888   -51984.578    346.52456   0.99794571 
   94600    219.24935   -225.68606    146818.74   -48806.923    3199.0816   -52006.004    347.45324   0.99756968 
   94700    218.44566    6.0021485    146714.76   -48805.509    3187.3549   -51992.864    347.97984    0.9982767 
   94800    221.59847    12.637715    146697.12   -48736.358    3233.3577   -51969.716    348.51262    0.9983967 
   94900    220.82935    166.65158    146595.71   -48692.256    3222.1355   -51914.391    348.37608   0.99908737 
   95000    216.02033    -30.28601     146618.7   -48706.677    3151.9667   -51858.644    348.71548    0.9989307 
   95100    220.60706    50.989674    146549.86   -48677.962    3218.8921   -51896.854    348.52542   0.99939995 
   95200    219.99988    146.75481     146680.6   -48667.976    3210.0325   -51878.009    348.97842   0.99850919 
   95300    221.40986   -49.417284    146679.24    -48711.08    3230.6057   -51941.686    349.63287   0.99851844 
   95400    220.91753   -53.118161    146707.96   -48712.527     3223.422   -51935.949    350.03381   0.99832296 
   95500    213.43418   -62.012683    146701.29   -48714.504    3114.2321   -51828.737    349.88112   0.99836834 
   95600    219.88859   -188.27776    146801.72   -48763.289    3208.4087   -51971.698    350.54928   0.99768535 
   95700    220.78431   -83.680733    146756.25   -48758.581    3221.4783   -51980.059    350.88238   0.99799449 
   95800    219.06001   -166.03422    146676.41   -48745.542    3196.3188   -51941.861     351.3349   0.99853769 
   95900    218.24639    27.073777    146613.98    -48743.78    3184.4473   -51928.228    351.21161   0.99896286 
   96000    218.49343   -51.597769    146778.84    -48745.26    3188.0519   -51933.312    351.85482   0.99784084 
   96100    221.30247   -173.10978    146806.86   -48696.547    3229.0388   -51925.586    352.46978   0.99765039 
   96200    218.44796    114.40282    146731.39   -48679.804    3187.3885   -51867.192    352.43164   0.99816356 
   96300    220.32781   -48.021433    146682.83   -48720.258    3214.8175   -51935.075    352.82777   0.99849398 
   96400    221.20553   -32.909519    146674.05     -48719.9    3227.6243   -51947.524    353.49174   0.99855378 
   96500    220.35196   -8.9306239    146753.86   -48715.286    3215.1698   -51930.455    353.98527    0.9980107 
   96600    218.49872    61.250217    146740.97   -48722.987    3188.1291   -51911.116    353.95095   0.99809841 
   96700    222.26639    5.6140892    146813.45   -48693.634    3243.1034   -51936.738    354.21174   0.99760565 
   96800    224.39878     37.62613    146958.86   -48647.947    3274.2172   -51922.164    355.07838   0.99661852 
   96900    224.10577   -96.520566    146931.93   -48688.677    3269.9419   -51958.619    355.73345    0.9968012 
   97000    222.56254   -150.86256    146909.93   -48702.228    3247.4245   -51949.653    355.35526    0.9969505 
   97100    224.90921     -100.141    147068.04   -48747.638     3281.665   -52029.303    356.32906    0.9958787 
   97200    217.99618   -67.831825       147138   -48717.124    3180.7964   -51897.921    357.39878   0.99540513 
   97300    218.28907   -87.239989    147064.56   -48745.632    3185.0701   -51930.702    357.22665   0.99590226 
   97400    219.62054   -95.653505    147027.13   -48747.154    3204.4976   -51951.651    357.22732   0.99615576 
   97500    215.73592    39.049396    147020.66   -48773.428    3147.8169   -51921.245    357.43488   0.99619962 
   97600    218.47402     11.81716    146975.62   -48821.364    3187.7687   -52009.132    357.36707   0.99650487 
   97700    218.01066     121.0649    146978.43   -48812.058    3181.0078   -51993.066    357.95676   0.99648581 
   97800    213.50764   -61.802293    146914.95   -48776.328    3115.3038   -51891.632    358.11252   0.99691637 
   97900    220.81415    82.280469    146838.17   -48750.678    3221.9137   -51972.592    358.10122   0.99743766 
   98000    223.47594    62.166603    146869.53   -48660.385     3260.752   -51921.137    358.47279    0.9972247 
   98100    221.72122   -49.863391    146875.13   -48710.512    3235.1488   -51945.661    358.68672   0.99718666 
   98200    221.74753   -236.14846    147037.26   -48708.111    3235.5327   -51943.643    359.56829   0.99608714 
   98300     221.2476   -66.013119     146969.5   -48679.721    3228.2381   -51907.959    359.64246    0.9965464 
   98400     224.0576   -46.801151    146943.29    -48612.78    3269.2391   -51882.019    360.02118   0.99672411 
   98500    223.42275   -181.37418     146881.3   -48669.891    3259.9759   -51929.867    360.19963   0.99714477 
   98600    223.03299   -3.2214106    146949.11   -48636.058     3254.289   -51890.347    361.38878   0.99668469 
   98700    219.98596   -39.926881    146975.96   -48700.986    3209.8295   -51910.815    361.29646   0.99650257 
   98800    222.85911   -25.860672    147018.78   -48697.208    3251.7518    -51948.96     361.1865   0.99621236 
   98900    220.51516   -31.895416    147045.05   -48722.392     3217.551   -51939.943    361.88758   0.99603436 
   99000    221.16359   -252.01146    146979.16   -48679.409    3227.0124   -51906.421    362.12829   0.99648087 
   99100    220.20704    57.413086    146914.04   -48675.472    3213.0553   -51888.528    363.01929   0.99692261 
   99200    220.42144   -21.500948    146978.93   -48690.774    3216.1836   -51906.958    363.33013   0.99648244 
   99300    218.87682    50.356829    146966.53   -48691.954    3193.6459     -51885.6    363.90855   0.99656652 
   99400     220.4092    -131.9157    147042.58   -48648.352    3216.0051   -51864.358    364.31158   0.99605109 
   99500    223.58357    -371.6063    146941.63   -48613.762    3262.3224   -51876.084     364.2425   0.99673542 
   99600    218.52656   -82.741915    146925.75   -48667.743    3188.5352   -51856.278    364.57127   0.99684311 
   99700     220.1185    34.592781    146885.91   -48635.941    3211.7634   -51847.705    365.16232   0.99711349 
   99800    218.52867    -81.31434     146865.3   -48659.523     3188.566   -51848.089    365.74231   0.99725341 
   99900    215.74467   -55.944552    146892.03   -48630.104    3147.9446   -51778.049    365.95678   0.99707196 
  100000    219.85805    10.763865     146967.9   -48624.598    3207.9632   -51832.561    366.59468   0.99655725 
  100100    220.77472    22.802174    146929.47   -48638.788    3221.3383   -51860.127    367.44559   0.99681792 
  100200    221.47573   -63.435372    146880.38   -48618.972    3231.5668   -51850.539     367.7205   0.99715105 
  100300    217.40921   -107.84268     146930.4   -48608.796     3172.232   -51781.028    368.39095   0.99681159 
  100400    219.66239   -27.330089    146843.82   -48611.946    3205.1082   -51817.054    368.58059   0.99739933 
  100500    218.78004   -169.05988    146751.26   -48623.189    3192.2339   -51815.423     368.6668   0.99802837 
  100600    216.69173    101.78958     146782.1   -48689.899    3161.7632   -51851.662    368.85845   0.99781868 
  100700    220.33948    303.63862    146777.02   -48636.252    3214.9876   -51851.239    369.22747    0.9978532 
  100709    218.26836    332.33003    146836.77   -48647.941    3184.7679   -51832.709    369.61113    0.9974472 
Loop time of 344.165 on 8 procs for 100000 steps with 4896 atoms

Performance: 125.521 ns/day, 0.191 hours/ns, 290.558 timesteps/s
97.9% CPU use with 8 MPI tasks x no OpenMP threads

MPI task timing breakdown:
Section |  min time  |  avg time  |  max time  |%varavg| %total
---------------------------------------------------------------
Pair    | 276.53     | 278.24     | 285.65     |  17.0 | 80.84
Neigh   | 11.176     | 11.407     | 11.587     |   4.6 |  3.31
Comm    | 36.391     | 43.545     | 45.37      |  41.7 | 12.65
Output  | 0.42618    | 0.45767    | 0.61519    |   8.8 |  0.13
Modify  | 8.565      | 8.9229     | 9.1246     |   6.8 |  2.59
Other   |            | 1.592      |            |       |  0.46

Nlocal:        612.000 ave         621 max         605 min
Histogram: 1 2 0 0 2 1 0 0 1 1
Nghost:        1375.62 ave        1387 max        1369 min
Histogram: 3 1 0 0 0 3 0 0 0 1
Neighs:        0.00000 ave           0 max           0 min
Histogram: 8 0 0 0 0 0 0 0 0 0
FullNghs:      20366.8 ave       20775 max       19866 min
Histogram: 1 0 1 1 1 0 0 1 2 1

Total # of neighbors = 162934
Ave neighs/atom = 33.279003
Neighbor list builds = 6087
Dangerous builds = 0

undump              1
unfix               2
unfix               3
unfix               4


write_data		data.${NAME}
write_data		data.liquid_mW
System init for write_data ...
Total wall time: 0:05:47
