LAMMPS data file via write_data, version 16 Mar 2018, timestep = 100000

4055 atoms
2 atom types

0.0000000000000000e+00 4.9219999999999999e+01 xlo xhi
0.0000000000000000e+00 4.9019635930410494e+01 ylo yhi
1.7861870181305406e+00 2.6153812981870288e+01 zlo zhi

Masses

1 18.015
2 12.01

Atoms # atomic

53 2 0.0000000000000000e+00 2.8417180249513345e+00 3.3219471850611866e+00 0 0 0
55 2 0.0000000000000000e+00 0.0000000000000000e+00 3.3219471850611866e+00 0 0 0
57 2 1.2305000000000001e+00 7.1042950623783474e-01 3.3219471850611866e+00 0 0 0
64 2 1.2305000000000001e+00 2.1312885187134998e+00 3.3219471850611866e+00 0 0 0
66 2 2.4610000000000003e+00 2.8417180249513345e+00 3.3219471850611866e+00 0 0 0
68 2 2.4610000000000003e+00 0.0000000000000000e+00 3.3219471850611866e+00 0 0 0
70 2 3.6915000000000004e+00 7.1042950623783474e-01 3.3219471850611866e+00 0 0 0
85 2 3.6914999999999996e+00 2.1312885187134998e+00 3.3219471850611866e+00 0 0 0
87 2 4.9220000000000006e+00 2.8417180249513332e+00 3.3219471850611866e+00 0 0 0
89 2 4.9220000000000006e+00 0.0000000000000000e+00 3.3219471850611866e+00 0 0 0
60 2 0.0000000000000000e+00 4.2625770374269996e+00 3.3219471850611866e+00 0 0 0
81 2 2.4610000000000003e+00 4.2625770374269996e+00 3.3219471850611866e+00 0 0 0
110 2 4.9220000000000006e+00 4.2625770374269978e+00 3.3219471850611866e+00 0 0 0
62 2 1.2305000000000001e+00 4.9730065436648339e+00 3.3219471850611866e+00 0 0 0
77 2 1.2305000000000001e+00 6.3938655561404980e+00 3.3219471850611866e+00 0 0 0
83 2 3.6914999999999996e+00 4.9730065436648339e+00 3.3219471850611866e+00 0 0 0
106 2 3.6914999999999996e+00 6.3938655561404980e+00 3.3219471850611866e+00 0 0 0
58 2 0.0000000000000000e+00 7.1042950623783341e+00 3.3219471850611866e+00 0 0 0
73 2 0.0000000000000000e+00 8.5251540748539991e+00 3.3219471850611866e+00 0 0 0
75 2 1.2305000000000001e+00 9.2355835810918343e+00 3.3219471850611866e+00 0 0 0
79 2 2.4610000000000003e+00 7.1042950623783341e+00 3.3219471850611866e+00 0 0 0
102 2 2.4610000000000003e+00 8.5251540748539991e+00 3.3219471850611866e+00 0 0 0
104 2 3.6915000000000004e+00 9.2355835810918343e+00 3.3219471850611866e+00 0 0 0
108 2 4.9220000000000006e+00 7.1042950623783341e+00 3.3219471850611866e+00 0 0 0
139 2 4.9220000000000006e+00 8.5251540748539991e+00 3.3219471850611866e+00 0 0 0
54 2 0.0000000000000000e+00 1.4208590124756650e+00 6.2271427550041265e+00 0 0 0
56 2 0.0000000000000000e+00 0.0000000000000000e+00 6.2271427550041265e+00 0 0 0
65 2 1.2305000000000001e+00 2.1312885187134998e+00 6.2271427550041265e+00 0 0 0
67 2 2.4610000000000003e+00 1.4208590124756650e+00 6.2271427550041265e+00 0 0 0
69 2 2.4610000000000003e+00 0.0000000000000000e+00 6.2271427550041265e+00 0 0 0
86 2 3.6914999999999996e+00 2.1312885187134998e+00 6.2271427550041265e+00 0 0 0
382 2 0.0000000000000000e+00 2.8417180249513345e+00 9.1323383249464953e+00 0 0 0
383 2 0.0000000000000000e+00 0.0000000000000000e+00 9.1323383249464953e+00 0 0 0
384 2 1.2305000000000001e+00 7.1042950623783474e-01 9.1323383249464953e+00 0 0 0
388 2 1.2305000000000001e+00 2.1312885187134998e+00 9.1323383249464953e+00 0 0 0
389 2 2.4610000000000003e+00 2.8417180249513345e+00 9.1323383249464953e+00 0 0 0
390 2 2.4610000000000003e+00 0.0000000000000000e+00 9.1323383249464953e+00 0 0 0
391 2 3.6915000000000004e+00 7.1042950623783474e-01 9.1323383249464953e+00 0 0 0
399 2 3.6914999999999996e+00 2.1312885187134998e+00 9.1323383249464953e+00 0 0 0
88 2 4.9220000000000006e+00 1.4208590124756650e+00 6.2271427550041265e+00 0 0 0
90 2 4.9220000000000006e+00 0.0000000000000000e+00 6.2271427550041265e+00 0 0 0
400 2 4.9220000000000006e+00 2.8417180249513332e+00 9.1323383249464953e+00 0 0 0
401 2 4.9220000000000006e+00 0.0000000000000000e+00 9.1323383249464953e+00 0 0 0
61 2 0.0000000000000000e+00 4.2625770374269996e+00 6.2271427550041265e+00 0 0 0
63 2 1.2305000000000001e+00 3.5521475311891644e+00 6.2271427550041265e+00 0 0 0
82 2 2.4610000000000003e+00 4.2625770374269996e+00 6.2271427550041265e+00 0 0 0
84 2 3.6914999999999996e+00 3.5521475311891644e+00 6.2271427550041265e+00 0 0 0
386 2 0.0000000000000000e+00 4.2625770374269996e+00 9.1323383249464953e+00 0 0 0
397 2 2.4610000000000003e+00 4.2625770374269996e+00 9.1323383249464953e+00 0 0 0
111 2 4.9220000000000006e+00 4.2625770374269978e+00 6.2271427550041265e+00 0 0 0
412 2 4.9220000000000006e+00 4.2625770374269978e+00 9.1323383249464953e+00 0 0 0
59 2 0.0000000000000000e+00 5.6834360499026637e+00 6.2271427550041265e+00 0 0 0
78 2 1.2305000000000001e+00 6.3938655561404980e+00 6.2271427550041265e+00 0 0 0
80 2 2.4610000000000003e+00 5.6834360499026637e+00 6.2271427550041265e+00 0 0 0
107 2 3.6914999999999996e+00 6.3938655561404980e+00 6.2271427550041265e+00 0 0 0
387 2 1.2305000000000001e+00 4.9730065436648339e+00 9.1323383249464953e+00 0 0 0
395 2 1.2305000000000001e+00 6.3938655561404980e+00 9.1323383249464953e+00 0 0 0
398 2 3.6914999999999996e+00 4.9730065436648339e+00 9.1323383249464953e+00 0 0 0
410 2 3.6914999999999996e+00 6.3938655561404980e+00 9.1323383249464953e+00 0 0 0
109 2 4.9220000000000006e+00 5.6834360499026637e+00 6.2271427550041265e+00 0 0 0
74 2 0.0000000000000000e+00 8.5251540748539991e+00 6.2271427550041265e+00 0 0 0
76 2 1.2305000000000001e+00 7.8147245686161639e+00 6.2271427550041265e+00 0 0 0
103 2 2.4610000000000003e+00 8.5251540748539991e+00 6.2271427550041265e+00 0 0 0
105 2 3.6914999999999996e+00 7.8147245686161639e+00 6.2271427550041265e+00 0 0 0
385 2 0.0000000000000000e+00 7.1042950623783341e+00 9.1323383249464953e+00 0 0 0
393 2 0.0000000000000000e+00 8.5251540748539991e+00 9.1323383249464953e+00 0 0 0
394 2 1.2305000000000001e+00 9.2355835810918343e+00 9.1323383249464953e+00 0 0 0
396 2 2.4610000000000003e+00 7.1042950623783341e+00 9.1323383249464953e+00 0 0 0
408 2 2.4610000000000003e+00 8.5251540748539991e+00 9.1323383249464953e+00 0 0 0
409 2 3.6915000000000004e+00 9.2355835810918343e+00 9.1323383249464953e+00 0 0 0
140 2 4.9220000000000006e+00 8.5251540748539991e+00 6.2271427550041265e+00 0 0 0
411 2 4.9220000000000006e+00 7.1042950623783341e+00 9.1323383249464953e+00 0 0 0
427 2 4.9220000000000006e+00 8.5251540748539991e+00 9.1323383249464953e+00 0 0 0
4009 1 3.7508001468726091e+00 4.3053177741602591e+00 1.1578265342507430e+01 0 1 -1
3909 1 2.3780690569507978e+00 1.6555213381904910e+00 1.2079356584405794e+01 1 1 0
1957 1 1.8632450258154760e+00 6.6195764264127810e+00 1.1722021740457489e+01 0 0 1
3905 1 4.2133989216016845e+00 7.5842557467379947e+00 1.1807776405008680e+01 1 -1 0
2593 1 5.2957906629194285e-01 9.0864892582865444e+00 1.1873433158416089e+01 1 1 0
1977 1 2.3222115994610335e+00 4.6264256534612409e+00 1.5570874901852020e+01 -1 2 -1
3259 1 4.3297802940643173e+00 1.8265131075330782e-01 2.4837371524883810e+01 0 0 -1
1373 1 5.8660027637375443e+00 3.3332156954866705e+00 1.8927768298895824e+01 0 0 -2
3419 1 1.8306226851299430e+00 2.1651507519169959e+00 1.4839834192025187e+01 0 1 0
1344 1 3.6583290765750989e+00 1.6534185269207511e+00 1.9523398396618674e+01 0 0 0
1259 1 5.0243151623887199e+00 4.8722926058985454e+00 1.4036663567364883e+01 2 -1 0
1916 1 5.8953121208484536e+00 4.6875204532167940e+00 2.5441779288595217e+01 0 1 0
761 1 1.3775099129620467e+00 7.7625633973117401e+00 2.2343663957167212e+01 0 1 0
2092 1 2.3386103879758298e+00 8.4729539002313228e+00 1.8751232389057272e+01 0 1 0
3985 1 5.0476421337701947e+00 7.4709618799105897e+00 1.7988969602968563e+01 0 0 -1
1340 1 4.1184702880217836e+00 2.4044836526687905e+00 2.2513311224366031e+01 1 1 0
698 1 5.1662678069001080e+00 7.4283093281237349e+00 1.5089878237441740e+01 1 0 -1
686 1 9.1342100187071229e-01 6.3780895666477955e+00 1.4181229396539415e+01 0 1 0
1427 1 1.9505627180947391e+00 4.1728436949793863e+00 2.0438518170646752e+01 1 1 -1
4030 1 1.3021167075989732e+00 2.2853056357895984e+00 1.7791991715348956e+01 1 -1 1
1292 1 3.2585122313608315e+00 4.9778924857898508e+00 2.4924859249820319e+01 0 0 -1
687 1 3.5120945548553144e+00 5.2153624606449656e+00 1.8319241815517483e+01 1 0 0
1918 1 3.3402049973277466e+00 5.8691545266510730e+00 2.2123855730030186e+01 1 0 0
599 1 2.8729937640917119e-01 6.4022809394102964e+00 1.9523091159168239e+01 1 2 1
2676 1 5.2131420497881145e+00 9.6683332333702392e+00 2.4718837279265230e+01 0 1 0
3315 1 2.1998826525833408e+00 2.0709803369020827e+00 2.5082853225006744e+01 1 0 0
709 1 1.8493519852066724e+00 7.3051598630292096e+00 2.5118326209725264e+01 1 0 0
3445 1 3.6927287183323354e-01 4.2953932689828195e-01 2.2455833483657038e+01 0 0 0
2000 1 5.5991832672129904e+00 7.2784813618345670e+00 2.1100994122944257e+01 0 0 0
50 1 4.0329154933841878e+00 3.4091356663111239e-01 1.6103908906931736e+01 1 1 2
71 2 0.0000000000000000e+00 1.1366872099805333e+01 3.3219471850611866e+00 0 0 0
94 2 0.0000000000000000e+00 1.2787731112280996e+01 3.3219471850611866e+00 0 0 0
96 2 1.2305000000000001e+00 1.3498160618518829e+01 3.3219471850611866e+00 0 0 0
98 2 1.2305000000000001e+00 1.0656442593567498e+01 3.3219471850611866e+00 0 0 0
100 2 2.4610000000000003e+00 1.1366872099805333e+01 3.3219471850611866e+00 0 0 0
131 2 2.4610000000000003e+00 1.2787731112280996e+01 3.3219471850611866e+00 0 0 0
133 2 3.6915000000000004e+00 1.3498160618518829e+01 3.3219471850611866e+00 0 0 0
135 2 3.6914999999999996e+00 1.0656442593567499e+01 3.3219471850611866e+00 0 0 0
137 2 4.9220000000000006e+00 1.1366872099805333e+01 3.3219471850611866e+00 0 0 0
176 2 4.9220000000000006e+00 1.2787731112280996e+01 3.3219471850611866e+00 0 0 0
178 2 6.1524999999999990e+00 1.3498160618518829e+01 3.3219471850611866e+00 0 0 0
92 2 0.0000000000000000e+00 1.5629449137232333e+01 3.3219471850611866e+00 0 0 0
123 2 0.0000000000000000e+00 1.7050308149707998e+01 3.3219471850611866e+00 0 0 0
127 2 1.2305000000000001e+00 1.4919019630994494e+01 3.3219471850611866e+00 0 0 0
129 2 2.4610000000000003e+00 1.5629449137232328e+01 3.3219471850611866e+00 0 0 0
168 2 2.4610000000000003e+00 1.7050308149707998e+01 3.3219471850611866e+00 0 0 0
172 2 3.6915000000000004e+00 1.4919019630994494e+01 3.3219471850611866e+00 0 0 0
174 2 4.9220000000000006e+00 1.5629449137232333e+01 3.3219471850611866e+00 0 0 0
215 2 4.9220000000000006e+00 1.7050308149707998e+01 3.3219471850611866e+00 0 0 0
219 2 6.1524999999999990e+00 1.4919019630994494e+01 3.3219471850611866e+00 0 0 0
125 2 1.2305000000000001e+00 1.7760737655945832e+01 3.3219471850611866e+00 0 0 0
164 2 1.2305000000000001e+00 1.9181596668421495e+01 3.3219471850611866e+00 0 0 0
170 2 3.6914999999999996e+00 1.7760737655945832e+01 3.3219471850611866e+00 0 0 0
211 2 3.6914999999999996e+00 1.9181596668421495e+01 3.3219471850611866e+00 0 0 0
72 2 0.0000000000000000e+00 9.9460130873296642e+00 6.2271427550041265e+00 0 0 0
101 2 2.4610000000000003e+00 9.9460130873296642e+00 6.2271427550041265e+00 0 0 0
138 2 4.9220000000000006e+00 9.9460130873296642e+00 6.2271427550041265e+00 0 0 0
95 2 0.0000000000000000e+00 1.2787731112280996e+01 6.2271427550041265e+00 0 0 0
97 2 1.2305000000000001e+00 1.2077301606043163e+01 6.2271427550041265e+00 0 0 0
99 2 1.2305000000000001e+00 1.0656442593567498e+01 6.2271427550041265e+00 0 0 0
132 2 2.4610000000000003e+00 1.2787731112280996e+01 6.2271427550041265e+00 0 0 0
134 2 3.6914999999999996e+00 1.2077301606043163e+01 6.2271427550041265e+00 0 0 0
136 2 3.6914999999999996e+00 1.0656442593567499e+01 6.2271427550041265e+00 0 0 0
392 2 0.0000000000000000e+00 1.1366872099805333e+01 9.1323383249464953e+00 0 0 0
404 2 0.0000000000000000e+00 1.2787731112280996e+01 9.1323383249464953e+00 0 0 0
405 2 1.2305000000000001e+00 1.3498160618518829e+01 9.1323383249464953e+00 0 0 0
406 2 1.2305000000000001e+00 1.0656442593567498e+01 9.1323383249464953e+00 0 0 0
407 2 2.4610000000000003e+00 1.1366872099805333e+01 9.1323383249464953e+00 0 0 0
423 2 2.4610000000000003e+00 1.2787731112280996e+01 9.1323383249464953e+00 0 0 0
424 2 3.6915000000000004e+00 1.3498160618518829e+01 9.1323383249464953e+00 0 0 0
425 2 3.6914999999999996e+00 1.0656442593567499e+01 9.1323383249464953e+00 0 0 0
177 2 4.9220000000000006e+00 1.2787731112280996e+01 6.2271427550041265e+00 0 0 0
426 2 4.9220000000000006e+00 1.1366872099805333e+01 9.1323383249464953e+00 0 0 0
446 2 4.9220000000000006e+00 1.2787731112280996e+01 9.1323383249464953e+00 0 0 0
447 2 6.1524999999999990e+00 1.3498160618518829e+01 9.1323383249464953e+00 0 0 0
93 2 0.0000000000000000e+00 1.4208590124756663e+01 6.2271427550041265e+00 0 0 0
130 2 2.4610000000000003e+00 1.4208590124756663e+01 6.2271427550041265e+00 0 0 0
175 2 4.9220000000000006e+00 1.4208590124756663e+01 6.2271427550041265e+00 0 0 0
124 2 0.0000000000000000e+00 1.7050308149707998e+01 6.2271427550041265e+00 0 0 0
126 2 1.2305000000000001e+00 1.6339878643470165e+01 6.2271427550041265e+00 0 0 0
128 2 1.2305000000000001e+00 1.4919019630994494e+01 6.2271427550041265e+00 0 0 0
169 2 2.4610000000000003e+00 1.7050308149707998e+01 6.2271427550041265e+00 0 0 0
171 2 3.6915000000000004e+00 1.6339878643470165e+01 6.2271427550041265e+00 0 0 0
173 2 3.6915000000000004e+00 1.4919019630994494e+01 6.2271427550041265e+00 0 0 0
403 2 0.0000000000000000e+00 1.5629449137232333e+01 9.1323383249464953e+00 0 0 0
419 2 0.0000000000000000e+00 1.7050308149707998e+01 9.1323383249464953e+00 0 0 0
421 2 1.2305000000000001e+00 1.4919019630994494e+01 9.1323383249464953e+00 0 0 0
422 2 2.4610000000000003e+00 1.5629449137232328e+01 9.1323383249464953e+00 0 0 0
442 2 2.4610000000000003e+00 1.7050308149707998e+01 9.1323383249464953e+00 0 0 0
444 2 3.6915000000000004e+00 1.4919019630994494e+01 9.1323383249464953e+00 0 0 0
216 2 4.9220000000000006e+00 1.7050308149707998e+01 6.2271427550041265e+00 0 0 0
220 2 6.1524999999999990e+00 1.4919019630994494e+01 6.2271427550041265e+00 0 0 0
445 2 4.9220000000000006e+00 1.5629449137232333e+01 9.1323383249464953e+00 0 0 0
466 2 4.9220000000000006e+00 1.7050308149707998e+01 9.1323383249464953e+00 0 0 0
468 2 6.1524999999999990e+00 1.4919019630994494e+01 9.1323383249464953e+00 0 0 0
122 2 0.0000000000000000e+00 1.8471167162183658e+01 6.2271427550041265e+00 0 0 0
165 2 1.2305000000000001e+00 1.9181596668421495e+01 6.2271427550041265e+00 0 0 0
167 2 2.4610000000000003e+00 1.8471167162183658e+01 6.2271427550041265e+00 0 0 0
212 2 3.6914999999999996e+00 1.9181596668421495e+01 6.2271427550041265e+00 0 0 0
420 2 1.2305000000000001e+00 1.7760737655945832e+01 9.1323383249464953e+00 0 0 0
440 2 1.2305000000000001e+00 1.9181596668421495e+01 9.1323383249464953e+00 0 0 0
443 2 3.6914999999999996e+00 1.7760737655945832e+01 9.1323383249464953e+00 0 0 0
464 2 3.6914999999999996e+00 1.9181596668421495e+01 9.1323383249464953e+00 0 0 0
214 2 4.9220000000000006e+00 1.8471167162183658e+01 6.2271427550041265e+00 0 0 0
2686 1 4.3495293890004980e+00 1.6300709162920896e+01 1.2297482973680181e+01 0 0 0
1370 1 5.4827058075195207e+00 1.2695490108634505e+01 1.2422240530690901e+01 0 0 -1
1975 1 1.1061544942675179e+00 1.1919924728136413e+01 1.2029130736863927e+01 1 0 0
1994 1 1.0214660583577846e+00 1.6758710033762835e+01 1.1522865283109846e+01 0 1 0
4034 1 3.6377468003644751e+00 1.0449407116238341e+01 1.1785813818971366e+01 0 0 0
2026 1 2.8228106410714626e+00 1.4104078831125431e+01 1.1684640473835465e+01 0 0 0
2630 1 3.8771716555859079e+00 1.8915279422976742e+01 1.1489040299252121e+01 0 0 0
3338 1 1.0258603853296548e+00 1.7045784672255902e+01 1.4522279306938207e+01 0 0 -1
1249 1 4.1882899612782865e+00 1.5427170172248841e+01 1.6979461733975068e+01 0 1 0
9 1 1.1006797261210477e+00 1.7193189915488947e+01 1.9691396550129245e+01 0 1 0
1938 1 3.8620454636530153e+00 1.4530832262052723e+01 2.3694930816852466e+01 0 0 0
1243 1 5.5766290672754995e+00 1.9575421992950925e+01 1.6189856939127619e+01 1 0 0
3929 1 1.6736300323002029e+00 1.4322843612058731e+01 1.6662188505528032e+01 0 2 -1
2061 1 1.6857282224479504e+00 1.0497473165339448e+01 1.5791944542116514e+01 0 0 -1
3942 1 1.1861722495684663e+00 1.0560627018528454e+01 2.5290897701438141e+01 0 0 0
3244 1 3.0181267172049226e+00 1.2533653580717630e+01 1.8398645559922670e+01 0 -1 0
1413 1 4.4688219634301314e+00 1.7475558369034836e+01 2.2350830702496975e+01 0 0 1
1412 1 4.1896639198994166e+00 9.8337109842623658e+00 1.4482460313308826e+01 0 1 1
3977 1 3.8447777546032658e+00 1.8133652642855871e+01 1.8257639269870470e+01 0 0 -1
2087 1 5.3192122892715794e+00 1.5694042245222322e+01 1.9803539611865471e+01 1 0 0
1986 1 1.1305633829673152e+00 1.2751575646302593e+01 1.4613012244766400e+01 1 1 0
1922 1 4.7364896294053533e+00 1.0544077794981456e+01 1.7390995816936666e+01 1 0 -1
2581 1 1.5081254344404149e+00 1.2896232008800485e+01 2.2473799483203010e+01 0 1 0
1287 1 1.1070907145877409e+00 1.7366591478950017e+01 2.5060988340702792e+01 0 0 1
1356 1 2.7456040590765780e+00 1.0289426750651309e+01 2.3128891466152574e+01 -1 1 -2
2746 1 4.1166003079227194e+00 1.3177331799147222e+01 2.0959744891084458e+01 0 1 -1
1242 1 1.3939518138609670e+00 1.3336658559463659e+01 2.5419261932898323e+01 0 1 0
1308 1 1.2096710161332789e+00 1.0739782074331963e+01 1.8672157251346594e+01 1 0 -1
3906 1 3.6561482578548388e+00 1.7073040097092004e+01 1.4690187964104945e+01 1 0 0
1267 1 4.1366552288673022e+00 1.7263426258435320e+01 2.5152858453307509e+01 -1 1 0
1273 1 1.4497086128191119e+00 1.6317390509166906e+01 2.2320504249090064e+01 0 0 0
1368 1 4.3196530088592313e+00 9.8058275038196872e+00 2.0591569516514667e+01 0 0 0
699 1 5.6823315706416482e+00 1.2629912457549858e+01 2.4568014849679454e+01 0 0 0
121 2 0.0000000000000000e+00 1.9892026174659328e+01 3.3219471850611866e+00 0 0 0
166 2 2.4610000000000003e+00 1.9892026174659328e+01 3.3219471850611866e+00 0 0 0
213 2 4.9220000000000006e+00 1.9892026174659328e+01 3.3219471850611866e+00 0 0 0
158 2 0.0000000000000000e+00 2.4154603212086325e+01 3.3219471850611866e+00 0 0 0
160 2 0.0000000000000000e+00 2.1312885187134999e+01 3.3219471850611866e+00 0 0 0
162 2 1.2304999999999993e+00 2.2023314693372832e+01 3.3219471850611866e+00 0 0 0
203 2 1.2304999999999993e+00 2.3444173705848499e+01 3.3219471850611866e+00 0 0 0
205 2 2.4610000000000003e+00 2.4154603212086325e+01 3.3219471850611866e+00 0 0 0
207 2 2.4610000000000003e+00 2.1312885187134995e+01 3.3219471850611866e+00 0 0 0
209 2 3.6914999999999996e+00 2.2023314693372832e+01 3.3219471850611866e+00 0 0 0
250 2 3.6915000000000004e+00 2.3444173705848499e+01 3.3219471850611866e+00 0 0 0
252 2 4.9220000000000006e+00 2.4154603212086325e+01 3.3219471850611866e+00 0 0 0
254 2 4.9220000000000006e+00 2.1312885187134995e+01 3.3219471850611866e+00 0 0 0
256 2 6.1524999999999990e+00 2.2023314693372832e+01 3.3219471850611866e+00 0 0 0
774 2 0.0000000000000000e+00 2.5575462224561992e+01 3.3219471850611866e+00 0 0 0
776 2 1.2305000000000001e+00 2.6285891730799833e+01 3.3219471850611866e+00 0 0 0
784 2 1.2305000000000010e+00 2.7706750743275496e+01 3.3219471850611866e+00 0 0 0
788 2 2.4610000000000003e+00 2.5575462224561992e+01 3.3219471850611866e+00 0 0 0
790 2 3.6914999999999991e+00 2.6285891730799833e+01 3.3219471850611866e+00 0 0 0
806 2 3.6914999999999996e+00 2.7706750743275496e+01 3.3219471850611866e+00 0 0 0
810 2 4.9220000000000006e+00 2.5575462224561992e+01 3.3219471850611866e+00 0 0 0
836 2 6.1524999999999990e+00 2.7706750743275496e+01 3.3219471850611866e+00 0 0 0
772 2 0.0000000000000000e+00 2.8417180249513333e+01 3.3219471850611866e+00 0 0 0
786 2 2.4610000000000003e+00 2.8417180249513326e+01 3.3219471850611866e+00 0 0 0
808 2 4.9220000000000006e+00 2.8417180249513336e+01 3.3219471850611866e+00 0 0 0
163 2 1.2305000000000001e+00 2.0602455680897162e+01 6.2271427550041265e+00 0 0 0
210 2 3.6915000000000004e+00 2.0602455680897162e+01 6.2271427550041265e+00 0 0 0
418 2 0.0000000000000000e+00 1.9892026174659328e+01 9.1323383249464953e+00 0 0 0
441 2 2.4610000000000003e+00 1.9892026174659328e+01 9.1323383249464953e+00 0 0 0
465 2 4.9220000000000006e+00 1.9892026174659328e+01 9.1323383249464953e+00 0 0 0
159 2 0.0000000000000000e+00 2.2733744199610655e+01 6.2271427550041265e+00 0 0 0
161 2 0.0000000000000000e+00 2.1312885187134999e+01 6.2271427550041265e+00 0 0 0
204 2 1.2304999999999993e+00 2.3444173705848499e+01 6.2271427550041265e+00 0 0 0
206 2 2.4610000000000003e+00 2.2733744199610655e+01 6.2271427550041265e+00 0 0 0
208 2 2.4610000000000003e+00 2.1312885187134995e+01 6.2271427550041265e+00 0 0 0
251 2 3.6915000000000004e+00 2.3444173705848499e+01 6.2271427550041265e+00 0 0 0
437 2 0.0000000000000000e+00 2.4154603212086325e+01 9.1323383249464953e+00 0 0 0
438 2 0.0000000000000000e+00 2.1312885187134999e+01 9.1323383249464953e+00 0 0 0
439 2 1.2304999999999993e+00 2.2023314693372832e+01 9.1323383249464953e+00 0 0 0
460 2 1.2304999999999993e+00 2.3444173705848499e+01 9.1323383249464953e+00 0 0 0
461 2 2.4610000000000003e+00 2.4154603212086325e+01 9.1323383249464953e+00 0 0 0
462 2 2.4610000000000003e+00 2.1312885187134995e+01 9.1323383249464953e+00 0 0 0
463 2 3.6914999999999996e+00 2.2023314693372832e+01 9.1323383249464953e+00 0 0 0
484 2 3.6915000000000004e+00 2.3444173705848499e+01 9.1323383249464953e+00 0 0 0
253 2 4.9220000000000006e+00 2.2733744199610655e+01 6.2271427550041265e+00 0 0 0
255 2 4.9220000000000006e+00 2.1312885187134995e+01 6.2271427550041265e+00 0 0 0
485 2 4.9220000000000006e+00 2.4154603212086325e+01 9.1323383249464953e+00 0 0 0
486 2 4.9220000000000006e+00 2.1312885187134995e+01 9.1323383249464953e+00 0 0 0
487 2 6.1524999999999990e+00 2.2023314693372832e+01 9.1323383249464953e+00 0 0 0
773 2 0.0000000000000000e+00 2.6996321237037659e+01 6.2271427550041265e+00 0 0 0
775 2 0.0000000000000000e+00 2.5575462224561992e+01 6.2271427550041265e+00 0 0 0
777 2 1.2305000000000001e+00 2.4865032718324155e+01 6.2271427550041265e+00 0 0 0
785 2 1.2305000000000010e+00 2.7706750743275496e+01 6.2271427550041265e+00 0 0 0
787 2 2.4610000000000003e+00 2.6996321237037659e+01 6.2271427550041265e+00 0 0 0
789 2 2.4610000000000003e+00 2.5575462224561992e+01 6.2271427550041265e+00 0 0 0
791 2 3.6914999999999996e+00 2.4865032718324166e+01 6.2271427550041265e+00 0 0 0
807 2 3.6914999999999996e+00 2.7706750743275496e+01 6.2271427550041265e+00 0 0 0
1088 2 0.0000000000000000e+00 2.5575462224561992e+01 9.1323383249464953e+00 0 0 0
1089 2 1.2305000000000001e+00 2.6285891730799833e+01 9.1323383249464953e+00 0 0 0
1093 2 1.2305000000000010e+00 2.7706750743275496e+01 9.1323383249464953e+00 0 0 0
1095 2 2.4610000000000003e+00 2.5575462224561992e+01 9.1323383249464953e+00 0 0 0
1096 2 3.6914999999999991e+00 2.6285891730799833e+01 9.1323383249464953e+00 0 0 0
1104 2 3.6914999999999996e+00 2.7706750743275496e+01 9.1323383249464953e+00 0 0 0
809 2 4.9220000000000006e+00 2.6996321237037659e+01 6.2271427550041265e+00 0 0 0
811 2 4.9220000000000006e+00 2.5575462224561992e+01 6.2271427550041265e+00 0 0 0
813 2 6.1524999999999990e+00 2.4865032718324155e+01 6.2271427550041265e+00 0 0 0
837 2 6.1524999999999990e+00 2.7706750743275496e+01 6.2271427550041265e+00 0 0 0
1106 2 4.9220000000000006e+00 2.5575462224561992e+01 9.1323383249464953e+00 0 0 0
1119 2 6.1524999999999990e+00 2.7706750743275496e+01 9.1323383249464953e+00 0 0 0
783 2 1.2304999999999993e+00 2.9127609755751163e+01 6.2271427550041265e+00 0 0 0
805 2 3.6914999999999991e+00 2.9127609755751152e+01 6.2271427550041265e+00 0 0 0
1087 2 0.0000000000000000e+00 2.8417180249513333e+01 9.1323383249464953e+00 0 0 0
1094 2 2.4610000000000003e+00 2.8417180249513326e+01 9.1323383249464953e+00 0 0 0
835 2 6.1524999999999981e+00 2.9127609755751152e+01 6.2271427550041265e+00 0 0 0
1105 2 4.9220000000000006e+00 2.8417180249513336e+01 9.1323383249464953e+00 0 0 0
1999 1 3.1414841864144432e+00 2.4183880048038251e+01 1.2498514303551181e+01 0 0 -1
3898 1 7.4611931949864185e-01 2.2905888348267691e+01 1.1673604375260963e+01 0 1 0
3231 1 2.4681095610088297e+00 2.6756805791685256e+01 1.1588159319397004e+01 1 -1 -2
3237 1 5.7029070917487692e+00 2.3365337529365927e+01 1.1971284021839987e+01 0 1 0
1934 1 5.3613142069653730e-02 2.7814226511614585e+01 1.2089581921223500e+01 2 0 1
3408 1 4.1448498882047646e+00 2.8579655824533489e+01 1.2554731632665133e+01 0 0 0
596 1 9.8045357406062250e-01 1.9938804039529202e+01 1.1866431524208023e+01 1 0 0
3989 1 3.5323779163743279e+00 2.2324262698801213e+01 1.5976381772373463e+01 1 -1 0
3412 1 3.5839764503124361e+00 1.9990852211950394e+01 2.0873017938260325e+01 0 0 0
555 1 2.7866292100542807e+00 2.1982840629547670e+01 1.8660999661252752e+01 1 1 0
578 1 5.6469065934492795e+00 2.5407411272206186e+01 2.5101101917297314e+01 1 0 0
2106 1 4.9954632674877288e+00 2.5204405762081738e+01 2.1997555304848429e+01 1 0 0
4026 1 3.1628970090929851e+00 2.6743569020437210e+01 1.4895108581573430e+01 0 0 1
24 1 5.4078393438820491e+00 2.8187743274604177e+01 1.6419971899566594e+01 1 1 0
3921 1 8.6721003579514166e-01 2.0727436937365152e+01 2.2358029061548500e+01 2 1 -1
1321 1 5.5969470235005536e+00 2.1914297023362028e+01 2.1645101933822072e+01 1 -1 -1
1939 1 5.0858147756249794e-01 1.9759726108294782e+01 1.4883274407880970e+01 1 0 -2
1351 1 4.7335721982292638e+00 2.4539642591692949e+01 1.5346051883615360e+01 0 0 -1
3421 1 5.3870614222919810e+00 2.3214141543931444e+01 1.9102030245046727e+01 1 1 -1
2552 1 3.4145812230271749e-01 2.3490154071714940e+01 1.9250383026591873e+01 1 0 -1
2 1 3.4638523544855473e+00 1.9971242178750405e+01 1.4172702985145971e+01 0 0 0
1327 1 2.2147223643620659e+00 2.8260833457886498e+01 2.4900217682643238e+01 0 -1 0
3262 1 1.3282987893133997e+00 2.6026393848945393e+01 1.8784194158134099e+01 0 0 -1
2053 1 9.3761241276769658e-01 2.5523404638460747e+01 1.6009779319387746e+01 0 -1 -2
2098 1 4.0998438180398624e+00 2.6590752978177537e+01 1.9681395052435388e+01 1 0 0
2740 1 2.0128245023272502e+00 2.5874152977078847e+01 2.2267682439764044e+01 1 0 0
3968 1 8.9554623597344363e-01 2.8281630175925358e+01 2.2003442223819714e+01 1 0 0
3308 1 6.7787503839000574e-01 2.3166120239745560e+01 2.4979837423920518e+01 1 0 -1
1298 1 2.6950995964918705e+00 2.5344866826535647e+01 2.4970462545616936e+01 0 0 1
2583 1 4.0792676028944106e+00 2.2722783424869462e+01 2.4041148633404386e+01 0 0 -1
750 1 9.4021669869034163e-01 2.2519276608386232e+01 1.4450106583692561e+01 0 0 -1
2683 1 5.0774095765466776e-01 2.0272490312079821e+01 2.5286624339250725e+01 1 2 0
2082 1 6.0944999361801058e+00 2.5715312936546546e+01 1.7628640132648940e+01 1 1 -1
3439 1 5.0210840280558990e+00 2.0158319310049919e+01 2.5146930609576962e+01 1 1 0
737 1 4.3079650452602664e-01 2.3617983920922349e+01 2.2079100485998339e+01 0 0 1
1981 1 1.1710721711893881e+00 1.9662487343307614e+01 1.7654673356123247e+01 0 -1 -1
780 2 0.0000000000000000e+00 2.9838039261988989e+01 3.3219471850611866e+00 0 0 0
782 2 1.2304999999999993e+00 3.0548468768226829e+01 3.3219471850611866e+00 0 0 0
802 2 2.4610000000000003e+00 2.9838039261988989e+01 3.3219471850611866e+00 0 0 0
804 2 3.6915000000000004e+00 3.0548468768226829e+01 3.3219471850611866e+00 0 0 0
832 2 4.9220000000000006e+00 2.9838039261988989e+01 3.3219471850611866e+00 0 0 0
778 2 0.0000000000000000e+00 3.2679757286940330e+01 3.3219471850611866e+00 0 0 0
794 2 0.0000000000000000e+00 3.4100616299415996e+01 3.3219471850611866e+00 0 0 0
798 2 1.2304999999999993e+00 3.1969327780702493e+01 3.3219471850611866e+00 0 0 0
800 2 2.4610000000000003e+00 3.2679757286940337e+01 3.3219471850611866e+00 0 0 0
824 2 2.4609999999999985e+00 3.4100616299415996e+01 3.3219471850611866e+00 0 0 0
828 2 3.6914999999999996e+00 3.1969327780702493e+01 3.3219471850611866e+00 0 0 0
830 2 4.9220000000000015e+00 3.2679757286940337e+01 3.3219471850611866e+00 0 0 0
862 2 4.9220000000000006e+00 3.4100616299415996e+01 3.3219471850611866e+00 0 0 0
796 2 1.2305000000000010e+00 3.4811045805653833e+01 3.3219471850611866e+00 0 0 0
826 2 3.6915000000000018e+00 3.4811045805653833e+01 3.3219471850611866e+00 0 0 0
792 2 0.0000000000000000e+00 3.6942334324367337e+01 3.3219471850611866e+00 0 0 0
816 2 0.0000000000000000e+00 3.8363193336842990e+01 3.3219471850611866e+00 0 0 0
820 2 1.2304999999999993e+00 3.6231904818129486e+01 3.3219471850611866e+00 0 0 0
822 2 2.4610000000000021e+00 3.6942334324367337e+01 3.3219471850611866e+00 0 0 0
854 2 2.4610000000000003e+00 3.8363193336842990e+01 3.3219471850611866e+00 0 0 0
858 2 3.6914999999999996e+00 3.6231904818129486e+01 3.3219471850611866e+00 0 0 0
860 2 4.9220000000000006e+00 3.6942334324367316e+01 3.3219471850611866e+00 0 0 0
899 2 4.9220000000000006e+00 3.8363193336842990e+01 3.3219471850611866e+00 0 0 0
818 2 1.2305000000000010e+00 3.9073622843080841e+01 3.3219471850611866e+00 0 0 0
856 2 3.6915000000000018e+00 3.9073622843080820e+01 3.3219471850611866e+00 0 0 0
779 2 0.0000000000000000e+00 3.1258898274464656e+01 6.2271427550041265e+00 0 0 0
781 2 0.0000000000000000e+00 2.9838039261988989e+01 6.2271427550041265e+00 0 0 0
801 2 2.4609999999999985e+00 3.1258898274464656e+01 6.2271427550041265e+00 0 0 0
803 2 2.4610000000000003e+00 2.9838039261988989e+01 6.2271427550041265e+00 0 0 0
1091 2 0.0000000000000000e+00 2.9838039261988989e+01 9.1323383249464953e+00 0 0 0
1092 2 1.2304999999999993e+00 3.0548468768226829e+01 9.1323383249464953e+00 0 0 0
1102 2 2.4610000000000003e+00 2.9838039261988989e+01 9.1323383249464953e+00 0 0 0
1103 2 3.6915000000000004e+00 3.0548468768226829e+01 9.1323383249464953e+00 0 0 0
831 2 4.9219999999999979e+00 3.1258898274464656e+01 6.2271427550041265e+00 0 0 0
833 2 4.9220000000000006e+00 2.9838039261988989e+01 6.2271427550041265e+00 0 0 0
1117 2 4.9220000000000006e+00 2.9838039261988989e+01 9.1323383249464953e+00 0 0 0
795 2 0.0000000000000000e+00 3.4100616299415996e+01 6.2271427550041265e+00 0 0 0
797 2 1.2304999999999993e+00 3.3390186793178160e+01 6.2271427550041265e+00 0 0 0
799 2 1.2304999999999993e+00 3.1969327780702493e+01 6.2271427550041265e+00 0 0 0
825 2 2.4609999999999985e+00 3.4100616299415996e+01 6.2271427550041265e+00 0 0 0
827 2 3.6914999999999978e+00 3.3390186793178160e+01 6.2271427550041265e+00 0 0 0
829 2 3.6914999999999996e+00 3.1969327780702493e+01 6.2271427550041265e+00 0 0 0
1090 2 0.0000000000000000e+00 3.2679757286940330e+01 9.1323383249464953e+00 0 0 0
1098 2 0.0000000000000000e+00 3.4100616299415996e+01 9.1323383249464953e+00 0 0 0