LAMMPS data file via write_data, version 16 Mar 2018, timestep = 8000000

4055 atoms
2 atom types

0.0000000000000000e+00 4.9219999999999999e+01 xlo xhi
0.0000000000000000e+00 4.9019635930410494e+01 ylo yhi
1.1347434031515018e+00 2.6805256596847542e+01 zlo zhi

Masses

1 18.015
2 12.01

Atoms # atomic

53 2 0.0000000000000000e+00 2.8417180249513345e+00 2.7526175319736179e+00 0 0 0
55 2 0.0000000000000000e+00 0.0000000000000000e+00 2.7526175319736179e+00 0 0 0
57 2 1.2305000000000001e+00 7.1042950623783474e-01 2.7526175319736179e+00 0 0 0
64 2 1.2305000000000001e+00 2.1312885187134998e+00 2.7526175319736179e+00 0 0 0
66 2 2.4610000000000003e+00 2.8417180249513345e+00 2.7526175319736179e+00 0 0 0
68 2 2.4610000000000003e+00 0.0000000000000000e+00 2.7526175319736179e+00 0 0 0
70 2 3.6915000000000004e+00 7.1042950623783474e-01 2.7526175319736179e+00 0 0 0
85 2 3.6914999999999996e+00 2.1312885187134998e+00 2.7526175319736179e+00 0 0 0
87 2 4.9220000000000006e+00 2.8417180249513332e+00 2.7526175319736179e+00 0 0 0
89 2 4.9220000000000006e+00 0.0000000000000000e+00 2.7526175319736179e+00 0 0 0
60 2 0.0000000000000000e+00 4.2625770374269996e+00 2.7526175319736179e+00 0 0 0
81 2 2.4610000000000003e+00 4.2625770374269996e+00 2.7526175319736179e+00 0 0 0
110 2 4.9220000000000006e+00 4.2625770374269978e+00 2.7526175319736179e+00 0 0 0
62 2 1.2305000000000001e+00 4.9730065436648339e+00 2.7526175319736179e+00 0 0 0
77 2 1.2305000000000001e+00 6.3938655561404980e+00 2.7526175319736179e+00 0 0 0
83 2 3.6914999999999996e+00 4.9730065436648339e+00 2.7526175319736179e+00 0 0 0
106 2 3.6914999999999996e+00 6.3938655561404980e+00 2.7526175319736179e+00 0 0 0
58 2 0.0000000000000000e+00 7.1042950623783341e+00 2.7526175319736179e+00 0 0 0
73 2 0.0000000000000000e+00 8.5251540748539991e+00 2.7526175319736179e+00 0 0 0
75 2 1.2305000000000001e+00 9.2355835810918343e+00 2.7526175319736179e+00 0 0 0
79 2 2.4610000000000003e+00 7.1042950623783341e+00 2.7526175319736179e+00 0 0 0
102 2 2.4610000000000003e+00 8.5251540748539991e+00 2.7526175319736179e+00 0 0 0
104 2 3.6915000000000004e+00 9.2355835810918343e+00 2.7526175319736179e+00 0 0 0
108 2 4.9220000000000006e+00 7.1042950623783341e+00 2.7526175319736179e+00 0 0 0
139 2 4.9220000000000006e+00 8.5251540748539991e+00 2.7526175319736179e+00 0 0 0
54 2 0.0000000000000000e+00 1.4208590124756650e+00 5.8131479800135510e+00 0 0 0
56 2 0.0000000000000000e+00 0.0000000000000000e+00 5.8131479800135510e+00 0 0 0
65 2 1.2305000000000001e+00 2.1312885187134998e+00 5.8131479800135510e+00 0 0 0
67 2 2.4610000000000003e+00 1.4208590124756650e+00 5.8131479800135510e+00 0 0 0
69 2 2.4610000000000003e+00 0.0000000000000000e+00 5.8131479800135510e+00 0 0 0
86 2 3.6914999999999996e+00 2.1312885187134998e+00 5.8131479800135510e+00 0 0 0
382 2 0.0000000000000000e+00 2.8417180249513345e+00 8.8736784280550118e+00 0 0 0
383 2 0.0000000000000000e+00 0.0000000000000000e+00 8.8736784280550118e+00 0 0 0
384 2 1.2305000000000001e+00 7.1042950623783474e-01 8.8736784280550118e+00 0 0 0
388 2 1.2305000000000001e+00 2.1312885187134998e+00 8.8736784280550118e+00 0 0 0
389 2 2.4610000000000003e+00 2.8417180249513345e+00 8.8736784280550118e+00 0 0 0
390 2 2.4610000000000003e+00 0.0000000000000000e+00 8.8736784280550118e+00 0 0 0
391 2 3.6915000000000004e+00 7.1042950623783474e-01 8.8736784280550118e+00 0 0 0
399 2 3.6914999999999996e+00 2.1312885187134998e+00 8.8736784280550118e+00 0 0 0
88 2 4.9220000000000006e+00 1.4208590124756650e+00 5.8131479800135510e+00 0 0 0
90 2 4.9220000000000006e+00 0.0000000000000000e+00 5.8131479800135510e+00 0 0 0
400 2 4.9220000000000006e+00 2.8417180249513332e+00 8.8736784280550118e+00 0 0 0
401 2 4.9220000000000006e+00 0.0000000000000000e+00 8.8736784280550118e+00 0 0 0
61 2 0.0000000000000000e+00 4.2625770374269996e+00 5.8131479800135510e+00 0 0 0
63 2 1.2305000000000001e+00 3.5521475311891644e+00 5.8131479800135510e+00 0 0 0
82 2 2.4610000000000003e+00 4.2625770374269996e+00 5.8131479800135510e+00 0 0 0
84 2 3.6914999999999996e+00 3.5521475311891644e+00 5.8131479800135510e+00 0 0 0
386 2 0.0000000000000000e+00 4.2625770374269996e+00 8.8736784280550118e+00 0 0 0
397 2 2.4610000000000003e+00 4.2625770374269996e+00 8.8736784280550118e+00 0 0 0
111 2 4.9220000000000006e+00 4.2625770374269978e+00 5.8131479800135510e+00 0 0 0
412 2 4.9220000000000006e+00 4.2625770374269978e+00 8.8736784280550118e+00 0 0 0
59 2 0.0000000000000000e+00 5.6834360499026637e+00 5.8131479800135510e+00 0 0 0
78 2 1.2305000000000001e+00 6.3938655561404980e+00 5.8131479800135510e+00 0 0 0
80 2 2.4610000000000003e+00 5.6834360499026637e+00 5.8131479800135510e+00 0 0 0
107 2 3.6914999999999996e+00 6.3938655561404980e+00 5.8131479800135510e+00 0 0 0
387 2 1.2305000000000001e+00 4.9730065436648339e+00 8.8736784280550118e+00 0 0 0
395 2 1.2305000000000001e+00 6.3938655561404980e+00 8.8736784280550118e+00 0 0 0
398 2 3.6914999999999996e+00 4.9730065436648339e+00 8.8736784280550118e+00 0 0 0
410 2 3.6914999999999996e+00 6.3938655561404980e+00 8.8736784280550118e+00 0 0 0
109 2 4.9220000000000006e+00 5.6834360499026637e+00 5.8131479800135510e+00 0 0 0
74 2 0.0000000000000000e+00 8.5251540748539991e+00 5.8131479800135510e+00 0 0 0
76 2 1.2305000000000001e+00 7.8147245686161639e+00 5.8131479800135510e+00 0 0 0
103 2 2.4610000000000003e+00 8.5251540748539991e+00 5.8131479800135510e+00 0 0 0
105 2 3.6914999999999996e+00 7.8147245686161639e+00 5.8131479800135510e+00 0 0 0
385 2 0.0000000000000000e+00 7.1042950623783341e+00 8.8736784280550118e+00 0 0 0
393 2 0.0000000000000000e+00 8.5251540748539991e+00 8.8736784280550118e+00 0 0 0
394 2 1.2305000000000001e+00 9.2355835810918343e+00 8.8736784280550118e+00 0 0 0
396 2 2.4610000000000003e+00 7.1042950623783341e+00 8.8736784280550118e+00 0 0 0
408 2 2.4610000000000003e+00 8.5251540748539991e+00 8.8736784280550118e+00 0 0 0
409 2 3.6915000000000004e+00 9.2355835810918343e+00 8.8736784280550118e+00 0 0 0
140 2 4.9220000000000006e+00 8.5251540748539991e+00 5.8131479800135510e+00 0 0 0
411 2 4.9220000000000006e+00 7.1042950623783341e+00 8.8736784280550118e+00 0 0 0
427 2 4.9220000000000006e+00 8.5251540748539991e+00 8.8736784280550118e+00 0 0 0
2628 1 4.1778922014363058e+00 2.3063604948852969e+00 1.1467723155961536e+01 1 0 -1
1994 1 1.7914322417387010e+00 3.2979737740169712e+00 1.2176453144149285e+01 0 1 0
3329 1 5.5012521638817411e+00 6.7765421172576747e+00 1.1257668800629224e+01 1 1 -1
3413 1 3.1150851530772856e+00 7.6531723944760861e+00 1.1933465697149638e+01 -1 1 1
4014 1 1.2826421002697843e+00 5.8106799311365540e+00 1.1129618142051338e+01 0 -1 -1
3419 1 6.0891294707757346e+00 4.2067564600299141e+00 1.2085686312674632e+01 0 1 0
541 1 4.7266473895143907e-02 1.3748079938662603e+00 1.1415703234000302e+01 -1 0 0
630 1 4.0737223783503627e+00 2.0770481754591503e+00 1.5762819155313549e+01 -1 1 0
1995 1 1.5455696722675440e+00 2.9410961768297055e+00 1.4830600014612077e+01 0 2 0
3340 1 4.0419685859569023e+00 2.1938941003752821e+00 1.8300926578016444e+01 0 1 0
3438 1 3.3457602373685598e+00 7.3767390328133926e+00 2.5544416684470008e+01 -1 0 1
1411 1 1.2454029721961293e+00 5.5314504846732797e+00 1.5571788820621565e+01 1 0 0
3262 1 2.8973490217985258e+00 7.4081084540332345e+00 1.4617436527978306e+01 0 0 -1
1382 1 5.2107674061573652e+00 6.4389077686717693e+00 1.5561627540203943e+01 0 0 0
694 1 5.6915085950214213e+00 6.5949815301435013e+00 1.8159994643417953e+01 0 0 0
2676 1 5.2518743111925685e+00 9.4161757386800140e+00 2.1812760652798602e+01 0 1 0
3313 1 3.8638632144127012e+00 4.6699705260425022e+00 1.9065661871952791e+01 1 0 0
2594 1 7.0751930329253299e-01 8.4653872593896722e+00 2.5825192047468619e+01 1 0 -1
686 1 3.6389260334628459e+00 4.7465126736314964e+00 2.1987257267277506e+01 0 1 0
1946 1 2.0575593435220756e+00 2.6139848574284570e+00 2.2823063071232419e+01 1 1 0
719 1 1.2330661414790780e+00 5.3955836373041448e+00 1.8244207173041005e+01 1 1 0
2685 1 9.4304759634756785e-01 7.8737141600924279e+00 1.9180420217455485e+01 0 -1 0
581 1 6.1102434507788894e-01 8.3175320169670410e+00 2.1911494539324678e+01 1 0 0
3369 1 2.2702861270692725e+00 4.5087467587480123e-01 1.8912535317151843e+01 1 0 -1
1385 1 5.3047111236037763e+00 9.0761782163974125e+00 1.9111796820528909e+01 0 1 1
1914 1 3.2666270011132452e+00 7.3963338235122764e+00 2.2764233038538968e+01 0 0 0
684 1 3.8320158674697424e+00 4.3430864233754152e+00 2.6094801448827084e+01 0 0 -1
3378 1 1.6855422509926739e+00 2.9245985078961692e+00 2.5419647843662460e+01 1 0 0
770 1 5.4894611286071111e+00 9.1956017893192517e+00 2.6234352252922470e+01 0 0 1
2095 1 2.1443708155659502e+00 3.2730046910500932e-01 2.5996075993460849e+01 1 1 1
2682 1 2.3853459463966122e+00 2.3704219083215367e-01 2.1872612883887847e+01 1 1 0
593 1 5.9079939096500871e+00 3.8832391441427485e+00 1.4653732199803695e+01 0 1 0
2746 1 6.1324598540059769e+00 4.1419277108313288e+00 2.2704676826126224e+01 0 1 -1
71 2 0.0000000000000000e+00 1.1366872099805333e+01 2.7526175319736179e+00 0 0 0
94 2 0.0000000000000000e+00 1.2787731112280996e+01 2.7526175319736179e+00 0 0 0
96 2 1.2305000000000001e+00 1.3498160618518829e+01 2.7526175319736179e+00 0 0 0
98 2 1.2305000000000001e+00 1.0656442593567498e+01 2.7526175319736179e+00 0 0 0
100 2 2.4610000000000003e+00 1.1366872099805333e+01 2.7526175319736179e+00 0 0 0
131 2 2.4610000000000003e+00 1.2787731112280996e+01 2.7526175319736179e+00 0 0 0
133 2 3.6915000000000004e+00 1.3498160618518829e+01 2.7526175319736179e+00 0 0 0
135 2 3.6914999999999996e+00 1.0656442593567499e+01 2.7526175319736179e+00 0 0 0
137 2 4.9220000000000006e+00 1.1366872099805333e+01 2.7526175319736179e+00 0 0 0
176 2 4.9220000000000006e+00 1.2787731112280996e+01 2.7526175319736179e+00 0 0 0
178 2 6.1524999999999990e+00 1.3498160618518829e+01 2.7526175319736179e+00 0 0 0
92 2 0.0000000000000000e+00 1.5629449137232333e+01 2.7526175319736179e+00 0 0 0
123 2 0.0000000000000000e+00 1.7050308149707998e+01 2.7526175319736179e+00 0 0 0
127 2 1.2305000000000001e+00 1.4919019630994494e+01 2.7526175319736179e+00 0 0 0
129 2 2.4610000000000003e+00 1.5629449137232328e+01 2.7526175319736179e+00 0 0 0
168 2 2.4610000000000003e+00 1.7050308149707998e+01 2.7526175319736179e+00 0 0 0
172 2 3.6915000000000004e+00 1.4919019630994494e+01 2.7526175319736179e+00 0 0 0
174 2 4.9220000000000006e+00 1.5629449137232333e+01 2.7526175319736179e+00 0 0 0
215 2 4.9220000000000006e+00 1.7050308149707998e+01 2.7526175319736179e+00 0 0 0
219 2 6.1524999999999990e+00 1.4919019630994494e+01 2.7526175319736179e+00 0 0 0
125 2 1.2305000000000001e+00 1.7760737655945832e+01 2.7526175319736179e+00 0 0 0
164 2 1.2305000000000001e+00 1.9181596668421495e+01 2.7526175319736179e+00 0 0 0
170 2 3.6914999999999996e+00 1.7760737655945832e+01 2.7526175319736179e+00 0 0 0
211 2 3.6914999999999996e+00 1.9181596668421495e+01 2.7526175319736179e+00 0 0 0
72 2 0.0000000000000000e+00 9.9460130873296642e+00 5.8131479800135510e+00 0 0 0
101 2 2.4610000000000003e+00 9.9460130873296642e+00 5.8131479800135510e+00 0 0 0
138 2 4.9220000000000006e+00 9.9460130873296642e+00 5.8131479800135510e+00 0 0 0
95 2 0.0000000000000000e+00 1.2787731112280996e+01 5.8131479800135510e+00 0 0 0
97 2 1.2305000000000001e+00 1.2077301606043163e+01 5.8131479800135510e+00 0 0 0
99 2 1.2305000000000001e+00 1.0656442593567498e+01 5.8131479800135510e+00 0 0 0
132 2 2.4610000000000003e+00 1.2787731112280996e+01 5.8131479800135510e+00 0 0 0
134 2 3.6914999999999996e+00 1.2077301606043163e+01 5.8131479800135510e+00 0 0 0
136 2 3.6914999999999996e+00 1.0656442593567499e+01 5.8131479800135510e+00 0 0 0
392 2 0.0000000000000000e+00 1.1366872099805333e+01 8.8736784280550118e+00 0 0 0
404 2 0.0000000000000000e+00 1.2787731112280996e+01 8.8736784280550118e+00 0 0 0
405 2 1.2305000000000001e+00 1.3498160618518829e+01 8.8736784280550118e+00 0 0 0
406 2 1.2305000000000001e+00 1.0656442593567498e+01 8.8736784280550118e+00 0 0 0
407 2 2.4610000000000003e+00 1.1366872099805333e+01 8.8736784280550118e+00 0 0 0
423 2 2.4610000000000003e+00 1.2787731112280996e+01 8.8736784280550118e+00 0 0 0
424 2 3.6915000000000004e+00 1.3498160618518829e+01 8.8736784280550118e+00 0 0 0
425 2 3.6914999999999996e+00 1.0656442593567499e+01 8.8736784280550118e+00 0 0 0
177 2 4.9220000000000006e+00 1.2787731112280996e+01 5.8131479800135510e+00 0 0 0
426 2 4.9220000000000006e+00 1.1366872099805333e+01 8.8736784280550118e+00 0 0 0
446 2 4.9220000000000006e+00 1.2787731112280996e+01 8.8736784280550118e+00 0 0 0
447 2 6.1524999999999990e+00 1.3498160618518829e+01 8.8736784280550118e+00 0 0 0
93 2 0.0000000000000000e+00 1.4208590124756663e+01 5.8131479800135510e+00 0 0 0
130 2 2.4610000000000003e+00 1.4208590124756663e+01 5.8131479800135510e+00 0 0 0
175 2 4.9220000000000006e+00 1.4208590124756663e+01 5.8131479800135510e+00 0 0 0
124 2 0.0000000000000000e+00 1.7050308149707998e+01 5.8131479800135510e+00 0 0 0
126 2 1.2305000000000001e+00 1.6339878643470165e+01 5.8131479800135510e+00 0 0 0
128 2 1.2305000000000001e+00 1.4919019630994494e+01 5.8131479800135510e+00 0 0 0
169 2 2.4610000000000003e+00 1.7050308149707998e+01 5.8131479800135510e+00 0 0 0
171 2 3.6915000000000004e+00 1.6339878643470165e+01 5.8131479800135510e+00 0 0 0
173 2 3.6915000000000004e+00 1.4919019630994494e+01 5.8131479800135510e+00 0 0 0
403 2 0.0000000000000000e+00 1.5629449137232333e+01 8.8736784280550118e+00 0 0 0
419 2 0.0000000000000000e+00 1.7050308149707998e+01 8.8736784280550118e+00 0 0 0
421 2 1.2305000000000001e+00 1.4919019630994494e+01 8.8736784280550118e+00 0 0 0
422 2 2.4610000000000003e+00 1.5629449137232328e+01 8.8736784280550118e+00 0 0 0
442 2 2.4610000000000003e+00 1.7050308149707998e+01 8.8736784280550118e+00 0 0 0
444 2 3.6915000000000004e+00 1.4919019630994494e+01 8.8736784280550118e+00 0 0 0
216 2 4.9220000000000006e+00 1.7050308149707998e+01 5.8131479800135510e+00 0 0 0
220 2 6.1524999999999990e+00 1.4919019630994494e+01 5.8131479800135510e+00 0 0 0
445 2 4.9220000000000006e+00 1.5629449137232333e+01 8.8736784280550118e+00 0 0 0
466 2 4.9220000000000006e+00 1.7050308149707998e+01 8.8736784280550118e+00 0 0 0
468 2 6.1524999999999990e+00 1.4919019630994494e+01 8.8736784280550118e+00 0 0 0
122 2 0.0000000000000000e+00 1.8471167162183658e+01 5.8131479800135510e+00 0 0 0
165 2 1.2305000000000001e+00 1.9181596668421495e+01 5.8131479800135510e+00 0 0 0
167 2 2.4610000000000003e+00 1.8471167162183658e+01 5.8131479800135510e+00 0 0 0
212 2 3.6914999999999996e+00 1.9181596668421495e+01 5.8131479800135510e+00 0 0 0
420 2 1.2305000000000001e+00 1.7760737655945832e+01 8.8736784280550118e+00 0 0 0
440 2 1.2305000000000001e+00 1.9181596668421495e+01 8.8736784280550118e+00 0 0 0
443 2 3.6914999999999996e+00 1.7760737655945832e+01 8.8736784280550118e+00 0 0 0
464 2 3.6914999999999996e+00 1.9181596668421495e+01 8.8736784280550118e+00 0 0 0
214 2 4.9220000000000006e+00 1.8471167162183658e+01 5.8131479800135510e+00 0 0 0
3386 1 4.5626983970341524e+00 1.1917210252687001e+01 1.2096382083862876e+01 0 0 0
3967 1 5.1862951137899582e+00 1.8861630426314612e+01 1.1225147182634268e+01 0 -1 -2
1 1 3.5978013591537703e+00 1.4524420769685809e+01 1.1286287650111410e+01 1 -1 0
3923 1 1.1022553227983034e+00 1.5509096359637525e+01 1.1681724091909471e+01 1 1 0
1938 1 6.2622069919391377e-01 1.8317378441461386e+01 1.1228588595607794e+01 0 0 0
2590 1 5.7721617700961554e+00 1.6356363773313991e+01 1.1777423583126394e+01 1 0 -1
3337 1 2.5243948999566745e+00 1.0308250559220465e+01 1.1280827028477482e+01 1 0 -1
660 1 3.2021365064888463e-01 1.0932746928663127e+01 1.2114618694701177e+01 -1 0 0
598 1 4.5997664186905212e+00 1.1598686941903942e+01 1.4624282813831991e+01 1 1 1
1273 1 4.1009160643469755e+00 1.4150121862669787e+01 1.5305546740039546e+01 0 0 0
4041 1 3.4460966413265219e+00 1.7248361657890911e+01 2.5826876219977251e+01 1 0 -1
3912 1 1.4815791201841866e+00 1.5414382512348968e+01 2.5372902421881449e+01 1 1 0
1301 1 4.5142670087228076e+00 1.4209559798897088e+01 1.7963125500035154e+01 0 0 0
3375 1 5.5061003666988526e+00 1.8605836529649061e+01 1.4884149910748084e+01 1 0 -1
3359 1 1.2369225006823863e+00 1.7616537258136020e+01 1.5258199499031923e+01 0 0 0
1226 1 5.8627141914372229e+00 1.8885055899688712e+01 1.7911593736902297e+01 1 0 0
1337 1 1.4193045545058895e+00 1.7615098702545001e+01 1.8068258109805093e+01 1 0 0
3982 1 1.4787877758360739e+00 1.4938618148765418e+01 1.4578050172747062e+01 0 0 0
2770 1 2.8648404550473043e+00 1.2563628805988388e+01 1.9320155653031719e+01 0 0 1
28 1 2.3753005153308462e+00 1.2595531445359537e+01 2.1985601686624150e+01 0 1 0
2009 1 4.7372777642854675e+00 1.1721811594398805e+01 2.2781582338236106e+01 1 1 -1
2583 1 4.1992015866934853e+00 1.6766427303366658e+01 1.8856575261786205e+01 0 0 -1
2054 1 3.8705651684767997e+00 1.6868700968859979e+01 2.1784153189322240e+01 0 1 -2
1231 1 2.7734902015927290e+00 9.9362712123815857e+00 1.8323941686691434e+01 1 -1 0
3352 1 4.6712852577242820e+00 1.1858164698614001e+01 2.5482568082665864e+01 1 1 -1
2053 1 2.1768412033172111e+00 1.2686512613144453e+01 2.6090872438343645e+01 0 -1 -2
1278 1 4.3795913119427188e-01 1.0925369609648680e+01 2.2424896858745413e+01 0 0 -1
2627 1 6.0230387362203954e+00 1.5965252512955495e+01 1.4650406389662523e+01 0 0 1
562 1 1.6071107720026436e+00 1.5360769179755808e+01 2.2606658447682833e+01 0 1 -1
3412 1 2.7812979411787251e+00 9.9199965925982774e+00 1.5481524509741899e+01 0 0 0
550 1 3.2952195489438274e-01 1.0946065957779506e+01 2.5321085623938934e+01 1 0 0
3255 1 3.2401367019987770e+00 1.9494259000496438e+01 2.2436151688042173e+01 1 1 1
121 2 0.0000000000000000e+00 1.9892026174659328e+01 2.7526175319736179e+00 0 0 0
166 2 2.4610000000000003e+00 1.9892026174659328e+01 2.7526175319736179e+00 0 0 0
213 2 4.9220000000000006e+00 1.9892026174659328e+01 2.7526175319736179e+00 0 0 0
158 2 0.0000000000000000e+00 2.4154603212086325e+01 2.7526175319736179e+00 0 0 0
160 2 0.0000000000000000e+00 2.1312885187134999e+01 2.7526175319736179e+00 0 0 0
162 2 1.2304999999999993e+00 2.2023314693372832e+01 2.7526175319736179e+00 0 0 0
203 2 1.2304999999999993e+00 2.3444173705848499e+01 2.7526175319736179e+00 0 0 0
205 2 2.4610000000000003e+00 2.4154603212086325e+01 2.7526175319736179e+00 0 0 0
207 2 2.4610000000000003e+00 2.1312885187134995e+01 2.7526175319736179e+00 0 0 0
209 2 3.6914999999999996e+00 2.2023314693372832e+01 2.7526175319736179e+00 0 0 0
250 2 3.6915000000000004e+00 2.3444173705848499e+01 2.7526175319736179e+00 0 0 0
252 2 4.9220000000000006e+00 2.4154603212086325e+01 2.7526175319736179e+00 0 0 0
254 2 4.9220000000000006e+00 2.1312885187134995e+01 2.7526175319736179e+00 0 0 0
256 2 6.1524999999999990e+00 2.2023314693372832e+01 2.7526175319736179e+00 0 0 0
774 2 0.0000000000000000e+00 2.5575462224561992e+01 2.7526175319736179e+00 0 0 0
776 2 1.2305000000000001e+00 2.6285891730799833e+01 2.7526175319736179e+00 0 0 0
784 2 1.2305000000000010e+00 2.7706750743275496e+01 2.7526175319736179e+00 0 0 0
788 2 2.4610000000000003e+00 2.5575462224561992e+01 2.7526175319736179e+00 0 0 0
790 2 3.6914999999999991e+00 2.6285891730799833e+01 2.7526175319736179e+00 0 0 0
806 2 3.6914999999999996e+00 2.7706750743275496e+01 2.7526175319736179e+00 0 0 0
810 2 4.9220000000000006e+00 2.5575462224561992e+01 2.7526175319736179e+00 0 0 0
836 2 6.1524999999999990e+00 2.7706750743275496e+01 2.7526175319736179e+00 0 0 0
772 2 0.0000000000000000e+00 2.8417180249513333e+01 2.7526175319736179e+00 0 0 0
786 2 2.4610000000000003e+00 2.8417180249513326e+01 2.7526175319736179e+00 0 0 0
808 2 4.9220000000000006e+00 2.8417180249513336e+01 2.7526175319736179e+00 0 0 0
163 2 1.2305000000000001e+00 2.0602455680897162e+01 5.8131479800135510e+00 0 0 0
210 2 3.6915000000000004e+00 2.0602455680897162e+01 5.8131479800135510e+00 0 0 0
418 2 0.0000000000000000e+00 1.9892026174659328e+01 8.8736784280550118e+00 0 0 0
441 2 2.4610000000000003e+00 1.9892026174659328e+01 8.8736784280550118e+00 0 0 0
465 2 4.9220000000000006e+00 1.9892026174659328e+01 8.8736784280550118e+00 0 0 0
159 2 0.0000000000000000e+00 2.2733744199610655e+01 5.8131479800135510e+00 0 0 0
161 2 0.0000000000000000e+00 2.1312885187134999e+01 5.8131479800135510e+00 0 0 0
204 2 1.2304999999999993e+00 2.3444173705848499e+01 5.8131479800135510e+00 0 0 0
206 2 2.4610000000000003e+00 2.2733744199610655e+01 5.8131479800135510e+00 0 0 0
208 2 2.4610000000000003e+00 2.1312885187134995e+01 5.8131479800135510e+00 0 0 0
251 2 3.6915000000000004e+00 2.3444173705848499e+01 5.8131479800135510e+00 0 0 0
437 2 0.0000000000000000e+00 2.4154603212086325e+01 8.8736784280550118e+00 0 0 0
438 2 0.0000000000000000e+00 2.1312885187134999e+01 8.8736784280550118e+00 0 0 0
439 2 1.2304999999999993e+00 2.2023314693372832e+01 8.8736784280550118e+00 0 0 0
460 2 1.2304999999999993e+00 2.3444173705848499e+01 8.8736784280550118e+00 0 0 0
461 2 2.4610000000000003e+00 2.4154603212086325e+01 8.8736784280550118e+00 0 0 0
462 2 2.4610000000000003e+00 2.1312885187134995e+01 8.8736784280550118e+00 0 0 0
463 2 3.6914999999999996e+00 2.2023314693372832e+01 8.8736784280550118e+00 0 0 0
484 2 3.6915000000000004e+00 2.3444173705848499e+01 8.8736784280550118e+00 0 0 0
253 2 4.9220000000000006e+00 2.2733744199610655e+01 5.8131479800135510e+00 0 0 0
255 2 4.9220000000000006e+00 2.1312885187134995e+01 5.8131479800135510e+00 0 0 0
485 2 4.9220000000000006e+00 2.4154603212086325e+01 8.8736784280550118e+00 0 0 0
486 2 4.9220000000000006e+00 2.1312885187134995e+01 8.8736784280550118e+00 0 0 0
487 2 6.1524999999999990e+00 2.2023314693372832e+01 8.8736784280550118e+00 0 0 0
773 2 0.0000000000000000e+00 2.6996321237037659e+01 5.8131479800135510e+00 0 0 0
775 2 0.0000000000000000e+00 2.5575462224561992e+01 5.8131479800135510e+00 0 0 0
777 2 1.2305000000000001e+00 2.4865032718324155e+01 5.8131479800135510e+00 0 0 0
785 2 1.2305000000000010e+00 2.7706750743275496e+01 5.8131479800135510e+00 0 0 0
787 2 2.4610000000000003e+00 2.6996321237037659e+01 5.8131479800135510e+00 0 0 0
789 2 2.4610000000000003e+00 2.5575462224561992e+01 5.8131479800135510e+00 0 0 0
791 2 3.6914999999999996e+00 2.4865032718324166e+01 5.8131479800135510e+00 0 0 0
807 2 3.6914999999999996e+00 2.7706750743275496e+01 5.8131479800135510e+00 0 0 0
1088 2 0.0000000000000000e+00 2.5575462224561992e+01 8.8736784280550118e+00 0 0 0
1089 2 1.2305000000000001e+00 2.6285891730799833e+01 8.8736784280550118e+00 0 0 0
1093 2 1.2305000000000010e+00 2.7706750743275496e+01 8.8736784280550118e+00 0 0 0
1095 2 2.4610000000000003e+00 2.5575462224561992e+01 8.8736784280550118e+00 0 0 0
1096 2 3.6914999999999991e+00 2.6285891730799833e+01 8.8736784280550118e+00 0 0 0
1104 2 3.6914999999999996e+00 2.7706750743275496e+01 8.8736784280550118e+00 0 0 0
809 2 4.9220000000000006e+00 2.6996321237037659e+01 5.8131479800135510e+00 0 0 0
811 2 4.9220000000000006e+00 2.5575462224561992e+01 5.8131479800135510e+00 0 0 0
813 2 6.1524999999999990e+00 2.4865032718324155e+01 5.8131479800135510e+00 0 0 0
837 2 6.1524999999999990e+00 2.7706750743275496e+01 5.8131479800135510e+00 0 0 0
1106 2 4.9220000000000006e+00 2.5575462224561992e+01 8.8736784280550118e+00 0 0 0
1119 2 6.1524999999999990e+00 2.7706750743275496e+01 8.8736784280550118e+00 0 0 0
783 2 1.2304999999999993e+00 2.9127609755751163e+01 5.8131479800135510e+00 0 0 0
805 2 3.6914999999999991e+00 2.9127609755751152e+01 5.8131479800135510e+00 0 0 0
1087 2 0.0000000000000000e+00 2.8417180249513333e+01 8.8736784280550118e+00 0 0 0
1094 2 2.4610000000000003e+00 2.8417180249513326e+01 8.8736784280550118e+00 0 0 0
835 2 6.1524999999999981e+00 2.9127609755751152e+01 5.8131479800135510e+00 0 0 0
1105 2 4.9220000000000006e+00 2.8417180249513336e+01 8.8736784280550118e+00 0 0 0
2552 1 2.7025354655150982e+00 2.2745885473971747e+01 1.2077501713163999e+01 1 0 -1
671 1 4.4143180227334913e+00 2.5837477289621962e+01 1.1736666885586425e+01 0 0 -1
3259 1 1.4155388826674853e+00 2.6699844577969174e+01 1.2013163180194637e+01 0 -1 -1
1959 1 2.7363911071948501e+00 2.0021719898186454e+01 1.2072557618535289e+01 0 -1 -1
1978 1 1.0308926667946679e-01 2.4154641293888083e+01 1.1566322016438866e+01 1 2 0
3244 1 1.0234896650644361e+00 2.9314218337592667e+01 1.1471259344258891e+01 0 -2 0
692 1 2.8369464582120782e+00 2.2358743074998511e+01 1.5270470253234469e+01 0 -1 0
640 1 2.5135795072666993e+00 2.2256186068269649e+01 1.8063106156579110e+01 0 0 -1
689 1 4.7272097246606277e+00 2.4226567670686361e+01 1.4172811245018877e+01 0 -1 -1
633 1 3.6324987942612359e+00 2.8900549390723850e+01 1.8988548490704098e+01 0 -1 0
2097 1 4.2881475283364150e+00 2.6708474580691746e+01 1.5075495428271692e+01 0 0 -1
1999 1 1.5762744325451448e+00 2.7276251770073664e+01 1.4921166374296051e+01 0 0 -1
1422 1 3.8588858312543004e+00 2.6506971019024657e+01 1.7772977377287447e+01 1 0 0
600 1 2.1746593126290819e+00 2.4732660692316234e+01 2.5815261488431823e+01 0 -1 -1
610 1 8.6118563445286633e-01 2.0199461355460311e+01 1.8926638380066308e+01 1 -1 0
4022 1 5.2436491082470988e+00 2.1481421015464679e+01 1.8798059303382168e+01 0 0 -1
3316 1 5.2119667511817331e+00 2.1254269297715663e+01 2.1478220619899496e+01 1 0 0
2075 1 8.3517821463107000e-01 2.0423669103091363e+01 2.1551981329015099e+01 1 0 1
3403 1 1.2862705665173386e+00 2.7403889688430972e+01 2.2561841939602559e+01 1 0 -1
40 1 1.7165161960064153e+00 2.5063568511655024e+01 1.8772132147115471e+01 2 0 0
588 1 1.9853802696918330e+00 2.4955846116082984e+01 2.1578535750988053e+01 1 0 1
3987 1 5.8448236412627308e+00 2.8415376094857262e+01 2.2458096838028823e+01 0 0 0
2667 1 3.7636914123451048e+00 2.9200159929663190e+01 2.5716950732101900e+01 0 0 -1
3942 1 6.7200494455921866e-01 2.0758992985396411e+01 2.5968939810086759e+01 0 -1 0
578 1 4.4281690535631784e+00 2.3879901060458373e+01 2.2383483934860571e+01 1 0 0
579 1 1.5056668415791434e+00 2.7464873458282074e+01 2.5510115911541838e+01 0 0 0
3453 1 5.1381029878145759e+00 2.1395733706846617e+01 2.5857645060966391e+01 1 0 0
2062 1 4.6350591314280027e+00 2.3742939489756179e+01 2.5024547318256303e+01 1 0 -2
2679 1 3.0650804876385811e+00 2.0008139854107874e+01 2.5045881268933400e+01 1 -1 -1
2720 1 3.1939171757987852e+00 2.9295912705615489e+01 2.1860532784726011e+01 0 -1 0
3360 1 3.0916610729055551e+00 1.9614862341005797e+01 1.4677355153158640e+01 1 0 0
780 2 0.0000000000000000e+00 2.9838039261988989e+01 2.7526175319736179e+00 0 0 0
782 2 1.2304999999999993e+00 3.0548468768226829e+01 2.7526175319736179e+00 0 0 0
802 2 2.4610000000000003e+00 2.9838039261988989e+01 2.7526175319736179e+00 0 0 0
804 2 3.6915000000000004e+00 3.0548468768226829e+01 2.7526175319736179e+00 0 0 0
832 2 4.9220000000000006e+00 2.9838039261988989e+01 2.7526175319736179e+00 0 0 0
778 2 0.0000000000000000e+00 3.2679757286940330e+01 2.7526175319736179e+00 0 0 0
794 2 0.0000000000000000e+00 3.4100616299415996e+01 2.7526175319736179e+00 0 0 0
798 2 1.2304999999999993e+00 3.1969327780702493e+01 2.7526175319736179e+00 0 0 0
800 2 2.4610000000000003e+00 3.2679757286940337e+01 2.7526175319736179e+00 0 0 0
824 2 2.4609999999999985e+00 3.4100616299415996e+01 2.7526175319736179e+00 0 0 0
828 2 3.6914999999999996e+00 3.1969327780702493e+01 2.7526175319736179e+00 0 0 0
830 2 4.9220000000000015e+00 3.2679757286940337e+01 2.7526175319736179e+00 0 0 0
862 2 4.9220000000000006e+00 3.4100616299415996e+01 2.7526175319736179e+00 0 0 0
796 2 1.2305000000000010e+00 3.4811045805653833e+01 2.7526175319736179e+00 0 0 0
826 2 3.6915000000000018e+00 3.4811045805653833e+01 2.7526175319736179e+00 0 0 0
792 2 0.0000000000000000e+00 3.6942334324367337e+01 2.7526175319736179e+00 0 0 0
816 2 0.0000000000000000e+00 3.8363193336842990e+01 2.7526175319736179e+00 0 0 0
820 2 1.2304999999999993e+00 3.6231904818129486e+01 2.7526175319736179e+00 0 0 0
822 2 2.4610000000000021e+00 3.6942334324367337e+01 2.7526175319736179e+00 0 0 0
854 2 2.4610000000000003e+00 3.8363193336842990e+01 2.7526175319736179e+00 0 0 0
858 2 3.6914999999999996e+00 3.6231904818129486e+01 2.7526175319736179e+00 0 0 0
860 2 4.9220000000000006e+00 3.6942334324367316e+01 2.7526175319736179e+00 0 0 0
899 2 4.9220000000000006e+00 3.8363193336842990e+01 2.7526175319736179e+00 0 0 0
818 2 1.2305000000000010e+00 3.9073622843080841e+01 2.7526175319736179e+00 0 0 0
856 2 3.6915000000000018e+00 3.9073622843080820e+01 2.7526175319736179e+00 0 0 0
779 2 0.0000000000000000e+00 3.1258898274464656e+01 5.8131479800135510e+00 0 0 0
781 2 0.0000000000000000e+00 2.9838039261988989e+01 5.8131479800135510e+00 0 0 0
801 2 2.4609999999999985e+00 3.1258898274464656e+01 5.8131479800135510e+00 0 0 0
803 2 2.4610000000000003e+00 2.9838039261988989e+01 5.8131479800135510e+00 0 0 0
1091 2 0.0000000000000000e+00 2.9838039261988989e+01 8.8736784280550118e+00 0 0 0
1092 2 1.2304999999999993e+00 3.0548468768226829e+01 8.8736784280550118e+00 0 0 0
1102 2 2.4610000000000003e+00 2.9838039261988989e+01 8.8736784280550118e+00 0 0 0
1103 2 3.6915000000000004e+00 3.0548468768226829e+01 8.8736784280550118e+00 0 0 0
831 2 4.9219999999999979e+00 3.1258898274464656e+01 5.8131479800135510e+00 0 0 0
833 2 4.9220000000000006e+00 2.9838039261988989e+01 5.8131479800135510e+00 0 0 0
1117 2 4.9220000000000006e+00 2.9838039261988989e+01 8.8736784280550118e+00 0 0 0
795 2 0.0000000000000000e+00 3.4100616299415996e+01 5.8131479800135510e+00 0 0 0
797 2 1.2304999999999993e+00 3.3390186793178160e+01 5.8131479800135510e+00 0 0 0
799 2 1.2304999999999993e+00 3.1969327780702493e+01 5.8131479800135510e+00 0 0 0
825 2 2.4609999999999985e+00 3.4100616299415996e+01 5.8131479800135510e+00 0 0 0
827 2 3.6914999999999978e+00 3.3390186793178160e+01 5.8131479800135510e+00 0 0 0
829 2 3.6914999999999996e+00 3.1969327780702493e+01 5.8131479800135510e+00 0 0 0
1090 2 0.0000000000000000e+00 3.2679757286940330e+01 8.8736784280550118e+00 0 0 0
1098 2 0.0000000000000000e+00 3.4100616299415996e+01 8.8736784280550118e+00 0 0 0
1100 2 1.2304999999999993e+00 3.1969327780702493e+01 8.8736784280550118e+00 0 0 0
1101 2 2.4610000000000003e+00 3.2679757286940337e+01 8.8736784280550118e+00 0 0 0
1113 2 2.4609999999999985e+00 3.4100616299415996e+01 8.8736784280550118e+00 0 0 0