
# Create simulation box and atoms

read_data data.ML_graphite_m500atm_240K
  orthogonal box = (0 0 1.84677) to (49.22 49.0196 26.0932)
  8 by 5 by 2 MPI processor grid
  reading atoms ...
  4055 atoms
  reading velocities ...
  4055 velocities
group water type 1
1295 atoms in group water
group graphite type 2
2760 atoms in group graphite

# Define potential

pair_style sw
pair_coeff * * MLC_e.sw mW C


# Fix graphite atoms in place

fix 5 graphite setforce 0.0 0.0 0.0
velocity graphite set 0.0 0.0 0.0


# Equilibration of molecular water

# Add velocity/set timestep

velocity	    water create ${TEMP} ${SEED} rot yes dist gaussian
velocity	    water create 240 ${SEED} rot yes dist gaussian
velocity	    water create 240 13600 rot yes dist gaussian
timestep	    5.0

# Define output

compute			1 water msd
compute			3 water temp
thermo	    	50
thermo_style	custom step temp press vol etotal ke pe c_1[4] c_3

# Neighbor lists

neigh_modify    delay 0 every 1 check yes

# Set fixes

fix             1 water momentum 10 linear 1 1 1 rescale
fix             2 water nve
fix             3 water temp/csvr ${TEMP} ${TEMP} 500.0 ${SEED}
fix             3 water temp/csvr 240 ${TEMP} 500.0 ${SEED}
fix             3 water temp/csvr 240 240 500.0 ${SEED}
fix             3 water temp/csvr 240 240 500.0 13600
fix             4 water press/berendsen z ${PRES} ${PRES} 1000.0 modulus 20000
fix             4 water press/berendsen z -500 ${PRES} 1000.0 modulus 20000
fix             4 water press/berendsen z -500 -500 1000.0 modulus 20000

# Run 0.5 ns equilibration

dump		    1 all atom 2000 ${DIR}/eq.${NAME}-${TEMP}.dump
dump		    1 all atom 2000 run_4/eq.${NAME}-${TEMP}.dump
dump		    1 all atom 2000 run_4/eq.het_freeze_4-${TEMP}.dump
dump		    1 all atom 2000 run_4/eq.het_freeze_4-240.dump

reset_timestep  0

run	            100000
Neighbor list info ...
  update every 1 steps, delay 0 steps, check yes
  max neighbors/atom: 2000, page size: 100000
  master list distance cutoff = 6.67472
  ghost atom cutoff = 6.67472
  binsize = 3.33736, bins = 15 15 8
  1 neighbor lists, perpetual/occasional/extra = 1 0 0
  (1) pair sw, perpetual
      attributes: full, newton on
      pair build: full/bin/atomonly
      stencil: full/bin/3d
      bin: standard
Per MPI rank memory allocation (min/avg/max) = 4.096 | 4.284 | 4.472 Mbytes
Step Temp Press Volume TotEng KinEng PotEng c_1[4] c_3 
       0    76.605821   -1210.2423    58500.543   -12658.119    925.72037   -13583.839            0          240 
      50    74.533424   -966.79907    58507.958   -12678.826    900.67709   -13579.503   0.49304231    233.50734 
     100    75.592405    -758.2734     58532.47   -12677.712    913.47404   -13591.186   0.76318486    236.82505 
     150    75.522183   -889.00851    58585.341   -12643.283    912.62546   -13555.909   0.99125907    236.60505 
     200    76.261022   -1104.2236    58527.625   -12653.001    921.55375   -13574.555    1.2238731    238.91977 
     250    76.542658   -1194.5285    58483.218   -12674.423    924.95709    -13599.38      1.42246    239.80212 
     300     74.58199   -1225.3031    58422.364    -12715.32    901.26398   -13616.584    1.6132554     233.6595 
     350    76.941003   -1084.2574     58342.59   -12738.381    929.77077   -13668.152    1.7640059     241.0501 
     400     72.10761   -1176.8734    58329.796   -12761.105    871.36306   -13632.468    1.9192061    225.90746 
     450    75.600151   -1061.0428    58342.874   -12755.808    913.56764   -13669.375    2.0128856    236.84931 
     500    76.048518   -834.44954    58337.321   -12709.934    918.98581    -13628.92    2.1217775    238.25401 
     550    75.801858   -889.16859    58364.505   -12734.163    916.00511   -13650.168     2.282342    237.48124 
     600    74.662577   -749.63567    58426.854   -12733.929    902.23781   -13636.167    2.3748022    233.91197 
     650    76.660454   -800.78992    58498.872   -12709.554    926.38056   -13635.934     2.538114    240.17116 
     700    76.365837   -1054.8765    58510.542   -12693.586    922.82035   -13616.406      2.68216    239.24815 
     750    74.234793   -1248.9708     58509.83   -12682.386    897.06838   -13579.454     2.864275    232.57176 
     800    76.569159   -1207.9502    58473.026   -12666.695    925.27733   -13591.972    2.9861943    239.88514 
     850    77.450155   -1030.6272    58492.771    -12689.75    935.92347   -13625.673    3.1176602    242.64523 
     900    78.537856   -895.70435     58512.33    -12670.87    949.06746   -13619.938    3.3120079    246.05291 
     950    80.675258   -986.05668    58544.834   -12696.981    974.89628   -13671.878    3.4566806    252.74923 
    1000    75.780431   -1046.0216    58557.465   -12712.704    915.74618    -13628.45    3.6075957    237.41412 
    1050    76.189064   -1314.9916    58493.847    -12737.15    920.68419   -13657.834     3.764606    238.69433 
    1100    74.541141   -1252.1927    58506.471   -12749.903    900.77035   -13650.673    3.7880411    233.53152 
    1150    75.508487   -1158.3479    58497.706   -12736.896    912.45995   -13649.356    3.7880709    236.56214 
    1200    74.759343   -868.00159    58532.969    -12738.11    903.40715   -13641.518    3.8837452    234.21513 
    1250     75.99673   -821.48292    58562.462   -12741.815    918.35999   -13660.175    4.0180204    238.09176 
    1300    75.636362   -1179.2414    58547.307   -12736.298    914.00523   -13650.303    4.1059176    236.96276 
    1350    73.253412   -1213.7006    58489.076   -12748.724    885.20917   -13633.933    4.2019123    229.49717 
    1400    75.798282   -863.39217    58520.728   -12738.628     915.9619    -13654.59    4.5009585    237.47004 
    1450    75.116287   -1093.2207    58532.831   -12729.383    907.72053   -13637.103    4.6738618    235.33341 
    1500    74.972078   -693.35436     58555.55    -12707.63    905.97788   -13613.607    4.9270978    234.88161 
    1550    74.151768   -968.94029    58611.676   -12696.805    896.06508    -13592.87    5.2235381    232.31164 
    1600    78.638648   -1146.4243    58564.496   -12708.329    950.28546   -13658.615    5.4346293    246.36869 
    1650     73.54019   -875.84981    58522.069     -12698.6    888.67465   -13587.275    5.7315012    230.39562 
    1700    77.190388   -1524.3444    58471.567   -12736.599     932.7844   -13669.383    5.9039462     241.8314 
    1750    77.922785   -1160.3922    58467.596   -12740.262    941.63482   -13681.897    6.0266531    244.12594 
    1800    74.971262   -1360.6971    58431.797   -12723.073    905.96802   -13629.041    6.0583286    234.87905 
    1850    75.305565   -1143.1016    58422.701   -12737.375    910.00781   -13647.382    6.1747449     235.9264 
    1900    76.429543   -1033.6393    58360.379   -12741.287    923.59018   -13664.877    6.1906615    239.44773 
    1950    74.350323   -897.36391    58306.997   -12735.051    898.46446   -13633.516    6.2223323     232.9337 
    2000    74.011793   -1033.1438    58270.569   -12756.072    894.37361   -13650.446    6.2425554    231.87311 
    2050    75.441352   -1067.4863    58266.955   -12720.017    911.64868   -13631.666    6.1830332    236.35181 
    2100    75.933366   -1313.2972     58253.71   -12735.306    917.59428     -13652.9    6.2492433    237.89325 
    2150    73.362758   -687.52333      58231.5   -12729.378    886.53053   -13615.909    6.4150636    229.83974 
    2200    74.041319    -1013.191    58238.461   -12735.654    894.73039   -13630.385    6.5545604    231.96561 
    2250    74.823546   -1125.5539    58265.873   -12699.469    904.18299   -13603.652    6.7974789    234.41627 
    2300    77.246782   -1224.0619    58257.728    -12677.02    933.46587   -13610.486    7.1129334    242.00808 
    2350    76.095342    -1048.739    58244.377   -12695.161    919.55164   -13614.712    7.4188172    238.40071 
    2400    76.008806   -1309.7642    58293.623   -12688.072    918.50592   -13606.578    7.4086657     238.1296 
    2450    74.386956   -1039.4329    58237.708   -12710.335    898.90715   -13609.242    7.4283264    233.04847 
    2500    76.570231   -1263.1352    58186.496   -12686.579    925.29029   -13611.869     7.592082     239.8885 
    2550    75.883751   -743.74556     58171.68   -12677.235    916.99472   -13594.229     7.682091    237.73781 
    2600     76.66264   -1136.3839    58169.315   -12683.284    926.40698   -13609.691    7.8034652    240.17801 
    2650     76.62014    -1001.119    58210.039   -12696.686     925.8934   -13622.579    7.9397978    240.04486 
    2700    74.527139   -1099.6431    58186.052   -12694.576    900.60114   -13595.177    8.1550811    233.48765 
    2750    77.605491   -1065.0536    58212.248   -12703.681    937.80058   -13641.481    8.2870541    243.13189 
    2800    78.192241    -1323.861    58251.342   -12676.143    944.89099   -13621.034    8.5042888    244.97013 
    2850    75.331067   -917.50165    58294.327   -12677.269    910.31598   -13587.585    8.6693016     236.0063 
    2900    77.538452   -612.05074    58331.907   -12685.214    936.99046   -13622.205    8.8508173    242.92186 
    2950    74.814786   -1053.3116    58357.019    -12718.26    904.07713   -13622.337    9.0317891    234.38883 
    3000    75.704928   -873.38901    58394.847   -12689.498    914.83379   -13604.331    9.2193067    237.17757 
    3050    77.394234   -1486.8746    58380.269   -12728.652    935.24771   -13663.899     9.499706    242.47003 
    3100    74.737026   -1237.2752    58363.318   -12742.445    903.13746   -13645.582    9.7553442    234.14521 
    3150    74.298155    -679.2774     58447.69    -12756.25    897.83406   -13654.084    10.003435    232.77026 
    3200    74.275152   -595.67901    58549.023   -12780.842    897.55609   -13678.398     10.11053     232.6982 
    3250    72.101942   -879.00681    58618.881   -12767.918    871.29458   -13639.212    10.144276     225.8897 
    3300    76.024208   -1042.0492    58626.266   -12747.382    918.69204   -13666.074    10.177216    238.17785 
    3350     76.68534   -1010.7253    58602.894   -12738.884    926.68129   -13665.565    10.320917    240.24913 
    3400    71.536883   -1194.1775    58577.163    -12786.82    864.46628   -13651.286    10.542233    224.11942 
    3450    77.749105   -1016.1724    58575.526   -12769.685    939.53604   -13709.221    10.846874    243.58182 
    3500    75.094886   -974.14822    58560.371   -12735.429    907.46192   -13642.891    11.095374    235.26636 
    3550    75.108663   -1135.9786    58594.193   -12755.086    907.62841   -13662.715    11.143844    235.30952 
    3600    75.429434   -1432.9777     58583.49   -12726.088    911.50466   -13637.593    11.169772    236.31447 
    3650    75.308123   -1560.9176    58535.438   -12735.359    910.03872   -13645.397      11.3141    235.93441 
    3700     73.80812   -1184.9662    58491.679    -12754.16    891.91238   -13646.072    11.446085    231.23502 
    3750    74.415959    -1055.083    58451.603   -12746.507    899.25763   -13645.764    11.650635    233.13933 
    3800    74.656234   -1169.0789    58455.462   -12750.426    902.16116   -13652.587    11.869568     233.8921 
    3850    72.325411   -1139.7852    58422.422   -12780.914    873.99501   -13654.909    12.173987    226.58981 
    3900     73.30908    -852.7662    58377.826   -12773.066    885.88188   -13658.948    12.243013    229.67157 
    3950     73.77528   -867.44036     58419.91   -12768.446    891.51553   -13659.961    12.576217    231.13214 
    4000    72.353732   -780.80764    58382.374   -12793.845    874.33726   -13668.182    12.765912    226.67854 
    4050    75.888998   -623.60707    58355.161   -12759.064    917.05813   -13676.122    12.945968    237.75425 
    4100    75.185087   -790.19551    58400.595   -12755.847    908.55193   -13664.399    13.116331    235.54895 
    4150     76.90504   -1110.7176    58384.816   -12737.615    929.33619   -13666.951    13.263095    240.93743 
    4200    73.883369   -871.63065    58362.705   -12744.686     892.8217   -13637.508    13.342172    231.47077 
    4250    76.715632   -985.67187     58369.28   -12751.645    927.04734   -13678.692    13.190163    240.34403 
    4300    74.937215   -906.25526     58367.71   -12738.027    905.55659   -13643.583    13.248467    234.77239 
    4350    77.596361   -877.17887    58366.687   -12736.464    937.69025   -13674.154    13.447047    243.10328 
    4400    77.328974   -1186.6997    58372.657   -12704.536     934.4591   -13638.995     13.62348    242.26558 
    4450    76.895233   -668.05617    58389.044   -12702.273    929.21768   -13631.491    13.811076     240.9067 
    4500    74.999692   -931.46522    58414.605    -12737.18    906.31158   -13643.492    13.893633    234.96812 
    4550    74.522079   -701.70605    58462.757   -12728.697       900.54   -13629.237    14.118234     233.4718 
    4600    75.070975   -630.27696    58514.199   -12752.325    907.17298   -13659.498    14.078304    235.19145 
    4650     75.46677   -939.92162     58550.54   -12752.663    911.95584   -13664.619     14.17116    236.43144 
    4700    75.613928    -1158.249    58593.195   -12738.879    913.73412   -13652.613    14.187558    236.89248 
    4750    76.729746   -1039.3551    58654.317   -12756.625     927.2179   -13683.843    14.317111    240.38825 
    4800    78.135666   -919.44032     58657.14   -12730.331    944.20733   -13674.539    14.367225    244.79288 
    4850    78.591801   -1203.0233    58667.018   -12708.239    949.71935   -13657.958    14.534223    246.22192 
    4900      77.0398   -926.65106        58677   -12700.726    930.96466    -13631.69    14.683534    241.35962 
    4950     78.18839    -1218.547    58690.332   -12707.752    944.84445   -13652.597    14.872942    244.95806 
    5000    79.088791   -1040.3533    58675.121   -12691.991    955.72508   -13647.716    14.931711    247.77895 
    5050    76.954252   -745.58674    58634.734   -12709.443    929.93088   -13639.374    14.848627    241.09161 
    5100    74.342362   -1316.7903    58635.082   -12721.944    898.36826   -13620.313    14.935631    232.90876 
    5150    77.627373   -1170.5802     58636.81   -12675.589      938.065   -13613.654    15.228907    243.20044 
    5200    82.371125   -1182.7616    58618.115   -12643.752    995.38947   -13639.141    15.206197    258.06224 
    5250    78.120158    -1201.857    58574.984   -12675.525    944.01993   -13619.545    15.342448     244.7443 
    5300    76.957992   -979.60769    58563.208   -12668.053    929.97607   -13598.029    15.591484    241.10332 
    5350    78.293688   -1069.8812    58571.766   -12656.852    946.11689   -13602.969    15.890753    245.28795 
    5400    76.737594   -1023.9637    58568.322   -12642.689    927.31273   -13570.002    16.099926    240.41283 
    5450    77.389924   -925.53996      58558.1   -12653.353    935.19563   -13588.548    16.172614    242.45653 
    5500    77.521797   -932.28729    58578.218   -12656.138     936.7892   -13592.927    16.470765    242.86968 
    5550    78.775753    -652.2143    58573.553   -12647.648    951.94226   -13599.591    16.720002    246.79822 
    5600    78.954714   -830.92228    58579.458   -12646.963    954.10486   -13601.068    16.681387    247.35889 
    5650    77.530093   -821.18469    58603.789   -12665.003    936.88945   -13601.893    16.723604    242.89567 
    5700    76.791684   -873.12534    58644.345   -12644.681    927.96637   -13572.648    16.876094    240.58229 
    5750     77.20609   -1245.5686    58648.645   -12674.307    932.97413   -13607.282    16.915043    241.88059 
    5800    76.128838   -1155.3881    58603.941   -12665.124    919.95641    -13585.08    16.984144    238.50565 
    5850     73.97012   -1055.8662    58579.548   -12685.339    893.87002   -13579.209    17.235915    231.74256 
    5900    80.252473   -756.42432    58587.661     -12660.2    969.78725   -13629.988    17.255975    251.42467 
    5950    76.355564   -525.11195    58647.727   -12683.507     922.6962   -13606.203    17.179738    239.21596 
    6000    76.109589    -802.3056    58678.314   -12662.363    919.72379   -13582.087    17.536639    238.44534 
    6050    79.014543     -989.018    58718.183   -12612.316    954.82785   -13567.144    17.727083    247.54633 
    6100    80.235599   -949.55909    58742.489   -12613.545    969.58335   -13583.129    18.017556    251.37181 
    6150    78.863288   -1193.6772    58741.598   -12616.816    953.00005   -13569.816    18.320884    247.07246 
    6200    81.217788   -1139.4588    58721.046   -12607.489    981.45231   -13588.941     18.31177    254.44893 
    6250    75.409555    -1132.028    58704.713   -12642.743    911.26444   -13554.008    18.084178    236.25219 
    6300    78.723208   -1003.2365    58723.176   -12631.631     951.3073   -13582.938    18.289853    246.63361 
    6350    79.543864   -1031.1895    58719.761   -12645.359    961.22428   -13606.583    18.632144    249.20466 
    6400    76.352543   -1095.2927    58684.374   -12660.658     922.6597   -13583.318    18.723535     239.2065 
    6450    78.063215   -1195.9561    58645.086   -12668.799    943.33181    -13612.13    18.894182     244.5659 
    6500    75.209321    -1056.707    58637.927   -12680.919    908.84478   -13589.764    18.943225    235.62487 
    6550    76.619206   -1286.6931    58646.779   -12675.787    925.88211   -13601.669    19.254509    240.04193 
    6600    75.913353   -1110.9305    58663.494   -12680.641    917.35244   -13597.993    19.478712    237.83055 
    6650    76.540169   -1220.0798    58651.687   -12647.265    924.92701   -13572.192    19.512591    239.79432 
    6700    77.114679   -1474.4869    58599.042   -12667.595    931.86951   -13599.465    19.973351    241.59421 
    6750    77.819339   -950.96715    58589.927   -12641.455    940.38477    -13581.84    20.074976    243.80186 
    6800    78.683728   -1338.6225    58587.904   -12647.756    950.83022   -13598.586    20.310736    246.50992 
    6850     76.81622   -1327.8099    58547.005   -12683.436    928.26287   -13611.699    20.324838    240.65916 
    6900    77.526524    -1383.529    58516.078   -12676.556    936.84632   -13613.402    20.467176    242.88449 
    6950     79.23513   -1231.9743     58515.27   -12675.799    957.49348   -13633.293    20.800139    248.23742 
    7000    74.931141   -1009.6756    58515.353   -12691.338    905.48319   -13596.821    20.999145    234.75336 
    7050    75.488873   -1311.1882    58490.758   -12673.656    912.22294   -13585.879    21.049965    236.50069 
    7100    76.101594   -1049.4262    58545.408   -12660.558    919.62718   -13580.185    21.279962    238.42029 
    7150    75.292624   -806.48387    58605.511   -12627.953    909.85142   -13537.804    21.910162    235.88585 
    7200    76.274049   -1250.2262    58572.748   -12651.485    921.71116   -13573.196    22.270116    238.96058 
    7250    74.252103   -1075.4814    58585.817   -12634.262    897.27756   -13531.539    22.416757    232.62599 
    7300    76.851353   -1574.1139    58545.047   -12617.794    928.68742   -13546.482    22.624813    240.76923 
    7350     75.14678   -813.88482    58566.583    -12636.48    908.08902   -13544.569    22.914554    235.42894 
    7400    77.432113   -1056.1652    58601.745   -12666.987    935.70544   -13602.692     23.04957    242.58871 
    7450    77.402395   -1368.9269     58569.17   -12663.504    935.34632   -13598.851     23.04287     242.4956 
    7500    76.977331   -959.71696    58536.542   -12678.573    930.20977   -13608.783    23.345807    241.16391 
    7550    77.330048   -1144.9993    58505.517   -12669.995    934.47207   -13604.467    23.637387    242.26895 
    7600    76.976355   -1295.0152    58507.361   -12686.525    930.19797   -13616.723    24.016676    241.16085 
    7650    78.139556   -931.52663    58582.418   -12677.134    944.25433   -13621.388    24.529785    244.80507 
    7700    74.143078   -1132.4159    58628.921   -12694.445    895.96008   -13590.405     24.68818    232.28442 
    7750    77.949708   -945.30321    58658.647   -12655.257    941.96017   -13597.217    24.788774    244.21029 
    7800    75.742845   -1476.2769    58666.886   -12642.493    915.29199   -13557.785     24.76451    237.29636 
    7850    77.337421   -996.98423    58632.733   -12631.518    934.56117   -13566.079     24.85674    242.29205 
    7900    74.496503   -1239.8552    58590.371   -12647.827    900.23093   -13548.058    24.756763    233.39167 
    7950    78.387433   -1044.3023    58549.237   -12650.435    947.24972   -13597.685    24.924161    245.58165 
    8000    78.993579   -1193.5771    58537.511   -12656.586    954.57452   -13611.161    25.113311    247.48066 
    8050     77.40638   -971.48602    58528.046   -12634.182    935.39449   -13569.576     25.37855    242.50809 
    8100    78.894289   -1172.0111    58504.992   -12627.939    953.37468   -13581.314     25.50718    247.16959 
    8150    74.829763   -1082.7468    58481.638   -12693.903    904.25811   -13598.161    25.640693    234.43575 
    8200    75.630165   -1348.9299    58435.486   -12682.638    913.93034   -13596.568    25.576172    236.94335 
    8250    73.374335   -1004.3968    58455.818   -12671.733    886.67043   -13558.404    25.571722    229.87601 
    8300    76.311542    -895.0957    58454.891   -12673.677    922.16424   -13595.841    25.721449    239.07805 
    8350    77.291683    -1136.288     58464.68   -12663.872    934.00846    -13597.88    25.720235    242.14875 
    8400    78.080574   -840.43337    58478.169   -12649.061    943.54158   -13592.602    25.922021    244.62028 
    8450    77.164543   -890.11433    58476.515   -12657.751    932.47208   -13590.223    26.260331    241.75043 
    8500    75.634551   -900.24567    58502.203   -12630.788    913.98334   -13544.771    26.481381    236.95709 
    8550     78.26825   -359.49021    58550.108   -12619.208     945.8095   -13565.017    26.683225    245.20826 
    8600    75.968997   -994.24469    58603.116   -12658.801    918.02486   -13576.826    26.787488    238.00488 
    8650     75.93937   -839.90174    58655.115   -12702.036    917.66683   -13619.703    27.164556    237.91206 
    8700    76.643572   -1429.9639    58677.581   -12685.728    926.17656   -13611.904    27.311344    240.11827 
    8750    74.201046   -923.51185    58690.009   -12730.128    896.66058   -13626.788    27.476439    232.46603 
    8800    75.259758   -1402.5586    58751.163    -12746.94    909.45427   -13656.394    27.706982    235.78289 
    8850    74.196684   -1110.5057        58797   -12735.347    896.60787   -13631.955    27.952258    232.45236 
    8900    74.041341   -1392.0192    58771.413   -12718.253    894.73066   -13612.983    28.185249    231.96568 
    8950    74.946797   -1143.2615    58714.195   -12703.075    905.67238   -13608.748    28.180862    234.80241 
    9000    74.705785    -1244.474    58695.233   -12670.702    902.75994   -13573.462    28.020059    234.04734 
    9050    75.397811   -938.09857    58693.279   -12662.683    911.12253   -13573.805    28.081111     236.2154 
    9100    75.101939   -1546.4016    58651.418   -12691.104    907.54714   -13598.651    28.000142    235.28845 
    9150     74.56504   -1200.6887    58588.786   -12662.775    901.05915   -13563.834     28.12224    233.60639 
    9200    76.845559   -1210.4796    58589.921   -12641.162     928.6174    -13569.78      28.2365    240.75108 
    9250     77.10394    -962.9523    58546.072   -12633.402    931.73974   -13565.142    28.420908    241.56057 
    9300    76.961888   -1095.8382     58563.91   -12655.597    930.02315    -13585.62     28.40228    241.11553 
    9350    77.789197   -1320.8287    58551.768   -12655.727    940.02052   -13595.747    28.511385    243.70742 
    9400    76.859373   -1243.9089    58463.347   -12667.025    928.78434    -13595.81    28.469306    240.79436 
    9450    78.869604   -1023.6764    58473.286   -12670.921    953.07638   -13623.997    28.634749    247.09225 
    9500    76.323615   -1111.6314    58443.122   -12699.661    922.31013   -13621.971    28.641228    239.11587 
    9550    77.580295   -1014.0619     58452.16   -12668.644    937.49611    -13606.14     28.74901    243.05295 
    9600    75.602312    -793.9555     58443.99   -12667.228    913.59376   -13580.822    28.637346    236.85609 
    9650    75.263141    -1133.577    58459.968   -12664.123    909.49515   -13573.619    28.736843    235.79349 
    9700    72.816186   -1295.7784    58447.727   -12676.456    879.92564   -13556.382    28.798634    228.12737 
    9750    76.260221   -1118.2739    58413.168   -12647.391    921.54406   -13568.936    28.786162    238.91726 
    9800    78.322793   -1245.8336    58401.297   -12642.427    946.46861   -13588.895    29.101707    245.37914 
    9850    74.647414    -1267.217    58372.417   -12642.603    902.05458   -13544.657    29.197708    233.86446 
    9900    77.406826   -1126.1213    58318.559   -12639.659    935.39988   -13575.059    29.404321    242.50949 
    9950    76.427849   -1200.9075    58256.286    -12650.97    923.56971   -13574.539    29.565843    239.44243 
   10000    76.060611   -1308.7753    58210.316   -12662.716    919.13193   -13581.848    29.633138     238.2919 
   10050    77.140261   -1031.2713    58167.426   -12641.688    932.17865   -13573.867    29.781175    241.67436 
   10100    76.862047   -1126.9908    58140.807   -12675.919    928.81665   -13604.736    30.302659    240.80273 
   10150     78.27004   -872.12737    58135.301   -12687.056    945.83113   -13632.888    30.747615    245.21387 
   10200    75.816514   -953.27297    58139.406   -12678.188    916.18222   -13594.371    31.129906    237.52716 
   10250    77.868851   -923.06076    58214.091   -12649.244    940.98308   -13590.227    31.314634    243.95697 
   10300    75.773424   -873.34114    58228.756   -12698.759    915.66151   -13614.421    31.436905    237.39217 
   10350    74.048338   -1435.4881    58235.982   -12743.961    894.81522   -13638.777     31.48322    231.98761 
   10400    73.216115   -779.41444    58200.265   -12745.386    884.75847   -13630.145    31.575913    229.38032 
   10450      74.3778   -1231.1587    58230.357   -12706.877     898.7965   -13605.673     31.97995    233.01978 
   10500    76.296915   -997.95214    58235.266   -12709.126    921.98748   -13631.114    31.985144    239.03222 
   10550    78.435748   -918.44785    58243.312   -12687.084    947.83357   -13634.917    31.961866    245.73302 
   10600    75.313246    -1033.928    58280.597   -12683.426    910.10062   -13593.527    32.123132    235.95046 
   10650    76.585419   -996.82857    58289.792   -12671.235    925.47382   -13596.708    32.391522    239.93608 
   10700    74.880004   -833.29776    58289.357   -12699.344    904.86524   -13604.209    32.813083    234.59315 
   10750    73.434342   -1342.0482    58285.468   -12727.124    887.39556   -13614.519    32.909627      230.064 
   10800    74.569486   -1507.0782    58209.335   -12733.087    901.11288     -13634.2    33.056207    233.62032 
   10850    73.860144   -1164.1704    58202.518   -12711.136    892.54104   -13603.677    33.342676    231.39801 
   10900     72.75854   -1061.4931    58140.713   -12707.194    879.22904   -13586.423    33.133666    227.94677 
   10950     76.56335   -991.69352    58123.983   -12682.873    925.20714    -13608.08    33.190845    239.86694 
   11000    74.635082   -1167.7605    58053.628   -12705.663    901.90555   -13607.568    33.376871    233.82583 
   11050    75.967491   -1144.6822      58023.4   -12696.106    918.00666   -13614.113    33.469496    238.00016 
   11100    75.429724   -1050.8041     58035.33   -12662.142    911.50816    -13573.65    33.507796    236.31538 
   11150    76.614181   -1025.5731     58033.37   -12680.648    925.82139   -13606.469    33.775171    240.02619 
   11200    76.359778   -766.81355    57994.813   -12683.346    922.74713   -13606.093    33.932297    239.22917 
   11250    76.447215   -916.25266    58003.077   -12668.698    923.80374   -13592.501    33.913154     239.5031 
   11300    75.221784   -1270.7672     58049.91   -12663.383    908.99538   -13572.379    34.041992    235.66392 
   11350    77.065958   -1017.5193    58080.254   -12692.822    931.28075   -13624.103     34.29683    241.44157 
   11400    77.012127   -950.57759    58067.567   -12679.135    930.63025   -13609.766    34.423717    241.27292 
   11450    77.936293   -653.93606    58085.002   -12667.192    941.79806    -13608.99    34.584957    244.16826 
   11500    77.576194   -1160.4198    58125.538   -12643.529    937.44654   -13580.976    34.766379     243.0401 
   11550    78.723626   -739.13698    58121.176   -12631.235    951.31235   -13582.548    34.816711    246.63491 
   11600    77.145203   -918.18373    58170.204   -12622.748    932.23836   -13554.987     35.42012    241.68984 
   11650    73.407373   -502.08282    58185.887   -12652.378    887.06966   -13539.447    35.686523    229.97951 
   11700     75.92429   -931.25514    58209.648   -12628.555    917.48461   -13546.039      35.7455    237.86482 
   11750    78.236243   -879.62259    58201.926   -12632.129    945.42272   -13577.552    35.959541    245.10798 
   11800    76.516835   -978.57818     58211.42   -12653.465    924.64504    -13578.11    36.397379    239.72121 
   11850    77.867938   -1082.5172    58197.758   -12659.752    940.97205   -13600.724     36.17334    243.95411 
   11900    77.605092   -1465.0825    58183.168   -12643.785    937.79575   -13581.581    36.340489    243.13064 
   11950    79.311629   -1156.2573     58162.69   -12608.728     958.4179   -13567.146    36.410568    248.47708 
   12000    76.274584   -1024.4268    58264.433   -12636.564    921.71763   -13558.282    36.355614    238.96226 
   12050     75.54343   -1397.4572    58277.043   -12634.498    912.88221   -13547.381    36.411023    236.67161 
   12100    77.462816   -1164.8636    58260.907    -12608.74    936.07647   -13544.817    36.314464     242.6849 
   12150    81.440993   -1170.8663    58298.268   -12580.544    984.14956   -13564.693    36.171776    255.14821 
   12200    79.035061   -1251.7365    58334.244   -12604.675     955.0758   -13559.751    36.251112    247.61062 
   12250    80.106384   -1100.0422    58318.375   -12552.259    968.02188   -13520.281    36.430119    250.96699 
   12300    79.571196   -978.95031    58313.731   -12568.975    961.55457    -13530.53    36.488937    249.29029 
   12350    79.416115   -1028.8481    58335.997   -12538.099    959.68053    -13497.78    36.881818    248.80443 
   12400    78.698021   -543.91074    58312.436    -12582.24    951.00294   -13533.243    36.969481     246.5547 
   12450    75.827565   -714.09856    58291.114   -12625.232    916.31576   -13541.548    37.221205    237.56178 
   12500    75.588995   -1184.9371    58264.813   -12585.178    913.43283   -13498.611    37.520934    236.81436 
   12550    79.520825   -1045.2064    58266.506   -12590.416    960.94587   -13551.362    38.284006    249.13248 
   12600    77.243217   -1386.2152     58345.92   -12595.177    933.42278     -13528.6    38.679271    241.99691 
   12650    79.503901   -967.50305    58372.604   -12594.799    960.74135    -13555.54    38.817747    249.07945 
   12700    77.046202   -1226.0669    58349.097   -12595.643    931.04202   -13526.685    39.305048    241.37968 
   12750     79.34982   -805.27956    58412.273   -12600.344    958.87941   -13559.223    39.481388    248.59673 
   12800    77.477834   -1147.8327    58424.706   -12617.477    936.25795   -13553.735    39.543646    242.73195 
   12850    76.502395   -577.55418    58473.933   -12612.399    924.47054    -13536.87    39.659792    239.67597 
   12900    75.801989   -1133.9239    58453.157   -12625.501    916.00669   -13541.508    39.620927    237.48166 
   12950     75.94225   -1174.9032     58423.91   -12644.346    917.70163   -13562.048    39.487741    237.92108 
   13000    74.571737   -961.54394    58433.218   -12646.487    901.14008   -13547.627    39.639101    233.62738 
   13050    76.054681   -1211.5255    58401.359   -12646.272    919.06027   -13565.332    39.863256    238.27332 
   13100    75.053391   -757.07691    58432.127   -12656.282    906.96049   -13563.242    40.018149    235.13636 
   13150    78.080448   -1270.3143     58439.84   -12626.819    943.54006   -13570.359     40.13866    244.61989 
   13200    79.614994   -862.52429    58432.585   -12625.709    962.08382   -13587.793    40.024033     249.4275 
   13250    75.155779   -897.66527    58416.025   -12630.889    908.19776   -13539.087    40.182232    235.45713 
   13300    79.826869   -1094.3366    58440.127   -12631.471    964.64417   -13596.115    40.526555    250.09129 
   13350    78.329237    -919.1284    58459.921   -12633.282    946.54647   -13579.829    40.831845    245.39932 
   13400    78.504881   -874.74917    58504.448   -12624.822      948.669   -13573.491     40.89416    245.94961 
   13450    77.456546   -1154.8307      58513.6   -12586.415    936.00069   -13522.415    40.851416    242.66525 
   13500    75.240586   -1153.8791    58512.164   -12618.858    909.22259    -13528.08    41.270682    235.72283 
   13550    75.115654   -908.09468    58473.835    -12622.54    907.71288   -13530.253    41.712712    235.33142 
   13600    73.828779    -1119.422    58463.846   -12637.215    892.16202   -13529.377    41.584587    231.29975 
   13650     79.52034   -1075.6187    58437.432   -12645.649       960.94   -13606.589    41.616335    249.13096 
   13700    76.135078   -1262.4475    58424.313    -12637.36    920.03181   -13557.392    41.964476     238.5252 
   13750    76.531881   -1326.7533    58401.594   -12633.513    924.82686    -13558.34    41.901561    239.76835 
   13800    77.402365   -904.05694    58359.397   -12627.998    935.34596   -13563.344    41.944083    242.49551 
   13850    73.947168   -1188.1821    58343.165   -12618.345    893.59265   -13511.938    42.137031    231.67065 
   13900    78.117227   -1107.4853    58306.902   -12634.898     943.9845   -13578.883    42.084697    244.73511 
   13950    76.132572   -1226.5386    58309.551   -12650.028    920.00153    -13570.03    42.679166    238.51735 
   14000    77.169008   -1051.2686    58319.503   -12642.284    932.52603    -13574.81     42.72508    241.76442 
   14050    76.536183   -1153.6211     58279.78   -12652.791    924.87885    -13577.67    43.104533    239.78183 
   14100    75.734943   -1273.5647    58249.137   -12671.597     915.1965   -13586.794    43.230652    237.27161 
   14150    73.073623   -1033.1523    58262.661   -12674.713    883.03656    -13557.75    43.316217     228.9339 
   14200    76.952255    -797.6116    58349.133   -12663.025    929.90674   -13592.932    43.368258    241.08535 
   14250    76.427754   -1225.7503    58437.913   -12638.951    923.56856    -13562.52    43.475675    239.44213 
   14300    76.618955   -1201.9752    58414.698   -12656.903    925.87908   -13582.782    43.420921    240.04115 
   14350    75.985708   -1117.5071    58438.335   -12648.369    918.22679   -13566.596    43.479796    238.05723 
   14400    74.984524   -1025.5758    58507.151   -12620.652    906.12828    -13526.78    43.482881     234.9206 
   14450    78.583725   -806.46218    58579.967   -12626.547    949.62176   -13576.168      43.7739    246.19662 
   14500    76.750768   -951.32467    58578.593   -12640.354    927.47194   -13567.826     44.22872    240.45411 
   14550    77.303504    -758.7352    58596.092   -12640.898    934.15131   -13575.049    44.164302    242.18579 
   14600    73.880545   -1065.2547    58610.832   -12635.964    892.78757   -13528.752    44.405885    231.46192 
   14650    77.086597   -1313.9918    58591.337   -12650.862    931.53016   -13582.392    45.055242    241.50623 
   14700    71.365882    -1132.721     58579.41   -12676.715    862.39987   -13539.115    45.320181    223.58368 
   14750    77.489982   -1070.6228    58573.065   -12653.484    936.40475   -13589.889    45.492405    242.77001 
   14800    77.860728   -1110.1118    58569.163   -12624.934    940.88492   -13565.819    45.630534    243.93152 
   14850    75.336741    -1249.915     58484.59   -12642.315    910.38454     -13552.7     45.92535    236.02407 
   14900    76.026709   -1489.1583    58415.303   -12680.172    918.72226   -13598.894     46.18971    238.18569 
   14950    77.814874   -1042.3051    58350.008   -12683.915    940.33081   -13624.245     46.09329    243.78787 
   15000    74.572085   -1002.8946    58328.506   -12702.391    901.14428   -13603.535    46.295834    233.62846 
   15050    75.201898   -1010.0482    58360.443   -12708.747    908.75507   -13617.502    46.361787    235.60162 
   15100    77.466549     -1321.95    58303.167   -12685.718    936.12158    -13621.84    46.474294    242.69659 
   15150    76.918006   -1000.5097    58230.409   -12655.506    929.49287   -13584.999    46.933825    240.97805 
   15200    76.141645   -1028.2973    58207.202   -12665.137    920.11117   -13585.248    47.075761    238.54577 
   15250    75.751321   -948.46925    58266.963   -12692.493    915.39441   -13607.887    47.432575    237.32292 
   15300     77.11907     -929.236    58237.548   -12679.763    931.92257   -13611.685    47.797867    241.60797 
   15350    76.115065   -971.00355    58234.804   -12691.694    919.78997   -13611.484    48.077469     238.4625 
   15400    76.598244   -1085.9242    58254.257   -12697.824     925.6288   -13623.453    48.207018    239.97626 
   15450    78.095388   -1051.0485    58242.655   -12675.872     943.7206   -13619.592    48.181124    244.66669 
   15500    76.562606   -765.66163    58233.158   -12701.276    925.19815   -13626.474    48.337464    239.86461 
   15550    74.264129   -1149.6204    58248.574   -12738.524    897.42289   -13635.947    48.510739    232.66366 
   15600    73.303226    -976.4125    58226.149     -12734.5    885.81114   -13620.311    48.664738    229.65323 
   15650    75.941664   -707.28098    58233.882   -12728.113    917.69455   -13645.808    48.720495    237.91925 
   15700    74.501745   -684.34456    58240.929   -12717.372    900.29428   -13617.666    48.378544    233.40809 
   15750     75.87364   -857.24572     58241.43   -12692.732    916.87255   -13609.605    48.340819    237.70613 
   15800    76.728937   -1140.0629    58244.241   -12656.052    927.20812    -13583.26    48.636896    240.38571 
   15850     76.38151   -663.20524    58261.178   -12625.615    923.00974   -13548.624    48.522405    239.29725 
   15900    78.855818   -718.84807    58277.393   -12613.052    952.90979   -13565.961    48.704619    247.04906 
   15950    78.252909   -825.02751    58296.674   -12609.858    945.62411   -13555.482    48.783143     245.1602 
   16000    78.561678   -1046.8773    58285.714   -12632.576    949.35534   -13581.931    48.976581    246.12754 
   16050    78.004425   -1151.9136    58260.788   -12613.268    942.62138    -13555.89     49.32965    244.38172 
   16100    78.905089    -1044.233     58220.05   -12622.349    953.50519   -13575.855     49.32038    247.20342 
   16150    78.966381   -1061.9729    58183.535   -12633.262    954.24585   -13587.508    49.321352    247.39545 
   16200    72.205282   -1039.4804    58176.458   -12667.879    872.54335   -13540.423    49.601314    226.21346 
   16250     76.13353   -1294.1213     58215.82   -12702.447     920.0131    -13622.46    49.869775    238.52035 
   16300    74.466464   -1004.6756    58223.007   -12696.951    899.86794   -13596.819    49.887622    233.29756 
   16350    72.454603   -1487.5846     58214.34   -12721.538    875.55619   -13597.094    49.815052    226.99456 
   16400      74.4601   -1182.6816    58155.374   -12723.861    899.79103   -13623.652    49.843254    233.27762 
   16450    77.768105   -1078.1729    58091.325   -12663.304    939.76564    -13603.07    50.058912    243.64134 
   16500    74.003925    -1232.033    58084.546   -12676.384    894.27852   -13570.663    50.495156    231.84846 
   16550    73.438891    -958.8839    58077.859   -12682.559    887.45054   -13570.009    50.781956    230.07826 
   16600     76.99887   -987.61321    58095.962   -12680.863    930.47005   -13611.333    50.828925    241.23139 
   16650    76.906762   -565.41771    58126.355   -12635.858    929.35699   -13565.215    51.055071    240.94282 
   16700    79.042007   -812.01971    58168.796   -12651.978    955.15973   -13607.138    51.045886    247.63238 
   16750      76.6561   -999.11967    58202.636    -12651.54    926.32795   -13577.868    51.568668    240.15752 
   16800    75.334647   -646.53965    58224.612    -12619.77    910.35924   -13530.129    51.652545    236.01751 
   16850    78.240546   -1350.0538    58253.132   -12611.457    945.47471   -13556.932    51.622315    245.12146 
   16900    78.960444   -1130.8402    58244.268   -12614.046    954.17411    -13568.22    51.583781    247.37685 
   16950    78.454919   -1495.3178    58262.963   -12625.682    948.06524   -13573.747    51.614699    245.79308 
   17000     80.34822    -743.2821    58229.098   -12598.256    970.94427     -13569.2    51.910087    251.72464 
   17050    78.559174   -1257.6161    58268.147   -12579.511    949.32508   -13528.836    52.251331     246.1197 
   17100    78.194961   -1303.3896    58259.691   -12610.846    944.92385    -13555.77    52.656429    244.97865 
   17150     77.05974   -1288.4772    58258.736   -12593.861    931.20561   -13525.066    52.871773    241.42209 
   17200    75.796729   -864.76065    58273.439   -12586.905    915.94313   -13502.848    52.998682    237.46518 
   17250    76.469145   -1091.9223    58286.277   -12603.395    924.06874   -13527.464     52.87996     239.5718 
   17300    75.656037   -851.62315    58315.231   -12622.768    914.24298   -13537.011    53.215648     237.0244 
   17350    78.979488   -1084.2459    58337.449   -12622.971    954.40424   -13577.375    53.435521    247.43651 
   17400    76.008801   -920.26168    58361.559   -12650.945    918.50585   -13569.451    53.584266    238.12958 
   17450    74.854908   -1031.3332    58394.964   -12671.856    904.56198   -13576.418    53.659129    234.51453 
   17500     73.50959   -726.19622     58459.09    -12661.14    888.30488   -13549.445    54.077534    230.29975 
   17550     78.13178   -1286.1327    58486.825   -12647.934    944.16037   -13592.094    54.266579    244.78071 
   17600    76.147701      -465.05    58522.889    -12632.61    920.18435   -13552.795    54.320021    238.56475 
   17650    79.833019   -1026.7589    58577.351   -12642.768    964.71848   -13607.486    54.433085    250.11055 
   17700    77.789106   -822.06222    58577.674   -12643.463    940.01943   -13583.482    54.379732    243.70714 
   17750    74.784088   -1034.8024    58594.366   -12650.513    903.70617   -13554.219    54.737791    234.29265 
   17800    77.402163   -816.22745     58638.88   -12672.637    935.34352    -13607.98    55.173527    242.49488 
   17850    77.364595   -683.68921    58674.637   -12671.406    934.88954   -13606.296    55.488622    242.37718 
   17900    76.428704   -883.46793     58684.76   -12649.548    923.58005   -13573.128    55.900559    239.44511 
   17950    76.052264   -925.45825     58680.67   -12683.509    919.03107    -13602.54    55.676515    238.26575 
   18000    76.670599   -917.72102    58705.128   -12681.269    926.50316   -13607.772    55.592408    240.20294 
   18050    77.153595   -796.19883    58707.733   -12646.146    932.33978   -13578.486    55.780383    241.71613 
   18100    80.073263    -941.8855    58705.398   -12671.131    967.62164   -13638.753    55.862034    250.86322 
   18150    77.384655   -743.46931    58717.858   -12673.231    935.13196   -13608.363    56.065798    242.44002 
   18200    74.902292   -681.75925    58759.023    -12710.93    905.13458   -13616.065    56.635415    234.66298 
   18250    75.373903    -1171.118    58834.216   -12691.932    910.83361   -13602.765    56.931555     236.1405 
   18300     76.69126   -1365.2729    58793.222   -12689.243    926.75282   -13615.996    57.647726    240.26767 
   18350    76.097726   -1032.1034    58739.353   -12653.407    919.58044   -13572.988    57.907562    238.40818 
   18400    78.633353    -1133.013    58791.615   -12611.065    950.22147   -13561.286    57.774318     246.3521 
   18450    77.314187   -1022.8525    58815.292   -12648.984     934.2804   -13583.265    57.709926    242.21925 
   18500    77.081173    -922.4148    58822.163   -12650.314    931.46462   -13581.779    57.797666    241.48924 
   18550    76.616712   -1382.7006    58819.903   -12654.443    925.85197   -13580.295    58.326198    240.03412 
   18600    76.548583   -902.89177    58880.025   -12635.639    925.02869   -13560.668    58.670176    239.82068 
   18650    76.397245   -1141.6899    58913.784   -12609.618    923.19989   -13532.818    59.115206    239.34655 
   18700    76.125253   -1032.6266    58909.959   -12645.722    919.91309   -13565.635    59.063108    238.49442 
   18750    76.838366   -1462.1363     58895.82   -12614.778    928.53048   -13543.309    58.889289    240.72854 
   18800    76.769087    -1002.524    58847.589   -12608.791     927.6933   -13536.484    58.711795     240.5115 
   18850    76.509886   -1078.3174    58818.458    -12616.03    924.56107   -13540.591    58.551012    239.69944 
   18900    78.656722   -1161.7137     58785.91   -12612.605    950.50387   -13563.109    58.723441    246.42531 
   18950    76.092032    -936.0295    58732.404   -12650.262    919.51164   -13569.774    59.027787    238.39034 
   19000    76.371858   -1102.2033    58697.761   -12649.391     922.8931   -13572.284    58.647506    239.26701 
   19050    78.837592   -1285.6662    58701.471   -12647.918    952.68954   -13600.607     58.33409    246.99196 
   19100    74.780414   -1328.9958    58635.399   -12684.003    903.66177   -13587.664    58.664085    234.28114 
   19150    75.948789   -773.32658     58666.85   -12669.117    917.78065   -13586.898    58.760853    237.94157 
   19200    75.436686   -853.52627    58689.824   -12673.686     911.5923   -13585.278    59.077878    236.33719 
   19250    76.235931   -1124.6867    58741.109   -12667.697    921.25054   -13588.948    59.164766    238.84116 
   19300     75.93022    -1113.399    58728.712    -12672.81    917.55627   -13590.366    59.013435     237.8834 
   19350    74.987719   -1169.9859    58717.636   -12655.985    906.16689   -13562.151    59.101528    234.93061 
   19400    76.600533   -1249.9627    58755.015   -12647.588    925.65646   -13573.244    59.471015    239.98343 
   19450      76.9978    -780.9014    58751.184   -12687.956    930.45712   -13618.413    59.559733    241.22804 
   19500    75.322203   -1204.8148    58736.277   -12695.395    910.20887   -13605.604    59.807664    235.97853 
   19550    77.911547   -926.92099    58819.225   -12661.204    941.49902   -13602.703    60.123043    244.09074 
   19600    75.832111   -1250.3982    58833.288   -12670.082    916.37069   -13586.452    60.498568    237.57602 
   19650     76.18335   -1063.5086    58812.784   -12677.729    920.61514   -13598.344    60.903643    238.67643 
   19700    75.680234   -921.02482    58816.601   -12692.411    914.53539   -13606.946    60.913725    237.10021 
   19750    77.156878   -727.05547    58812.091   -12707.652    932.37945   -13640.032    60.793044    241.72642 
   19800    75.981551   -1068.4567    58816.837   -12696.649    918.17656   -13614.826     60.76649    238.04421 
   19850    75.265427   -921.56614    58808.548   -12715.251    909.52277   -13624.774    60.462312    235.80065 
   19900    73.127292   -771.44423    58756.934   -12731.776    883.68511   -13615.461    60.589304    229.10204 
   19950    76.879108   -1066.8016    58768.307   -12722.428    929.02282   -13651.451    61.093655    240.85619 
   20000    78.851651   -808.34095    58718.362   -12693.521    952.85943   -13646.381    60.726635    247.03601 
   20050    76.386063   -1530.4801    58710.825   -12709.078    923.06476   -13632.143    60.702758    239.31151 
   20100    76.286508   -943.11478    58714.328   -12714.332    921.86172   -13636.194     61.08463    238.99962 
   20150    76.158749   -1074.9757    58701.856    -12715.31    920.31786   -13635.627     61.65232    238.59936 
   20200    76.372399   -1000.1685    58729.908   -12702.477    922.89965   -13625.376    62.020721    239.26871 
   20250    74.882972   -954.59747      58747.3    -12718.71     904.9011   -13623.611    62.088117    234.60245 
   20300      76.8243   -1093.1706    58752.811    -12716.36    928.36051    -13644.72    62.168372    240.68448 
   20350    75.632366   -813.84561    58768.334   -12675.367    913.95693   -13589.324    62.484285    236.95024 
   20400    77.447192   -1120.7357    58799.082   -12644.569    935.88766   -13580.457    62.745714    242.63595 
   20450    80.306411    -824.9326     58854.35   -12605.457    970.43905   -13575.896    62.837526    251.59366 
   20500    77.767383   -1061.1582    58879.953    -12620.61    939.75692   -13560.367    62.414684    243.63908 
   20550    79.761024   -963.68395    58866.622   -12644.826    963.84848   -13608.674    62.701227      249.885 
   20600     79.77966   -787.78653    58832.004     -12631.1    964.07368   -13595.174    62.881142    249.94339 
   20650    76.768251   -786.23943    58816.527   -12623.375     927.6832   -13551.058    63.115304    240.50888 
   20700    75.887299   -1067.8629    58860.904   -12614.142     917.0376    -13531.18     62.79085    237.74893 
   20750    80.809601   -841.52943    58910.498   -12614.143     976.5197   -13590.663    62.825381    253.17011 
   20800    80.615734   -972.70447     58955.84   -12638.918    974.17697   -13613.095    62.923639    252.56274 
   20850    77.210456   -1130.8905    58967.592   -12633.025     933.0269   -13566.052    62.858356    241.89427 
   20900    76.934718   -1434.9184    58920.941   -12635.688    929.69482   -13565.383    62.942263    241.03041 
   20950    75.497189    -1127.394    58879.359   -12629.749    912.32342   -13542.072    62.814328    236.52674 
   21000    77.936035   -1104.4321    58852.312    -12616.63    941.79494   -13558.425    62.851876    244.16746 
   21050    76.076182   -868.98433    58851.484   -12641.908     919.3201   -13561.228    62.881698    238.34068 
   21100    76.969831   -1137.0267    58883.871   -12657.746    930.11913   -13587.865    63.028687    241.14041 
   21150    77.561987   -1155.6296    58863.979   -12697.537    937.27487   -13634.812    63.034922    242.99559 
   21200    77.716044   -897.39526    58821.958   -12700.977    939.13653   -13640.113    62.880245    243.47824 
   21250    76.671252   -1314.8969    58799.564   -12705.952    926.51105   -13632.463    63.131701    240.20499 
   21300    77.722202   -1073.0357    58786.813   -12720.886    939.21094   -13660.097    63.440508    243.49753 
   21350    76.571302   -810.66505    58791.178   -12696.098    925.30323   -13621.401     63.63445    239.89185 
   21400    75.288843   -1059.5621     58852.13   -12724.022    909.80573   -13633.828    63.806182    235.87401 
   21450    74.539652   -793.16795    58885.746   -12720.878    900.75236    -13621.63    63.623117    233.52685 
   21500    76.516269   -1360.1705    58972.908    -12697.98     924.6382   -13622.619    63.634065    239.71944 
   21550    79.853433   -971.22624    59013.087   -12685.422    964.96518   -13650.387    63.959253    250.17451 
   21600    77.743986   -631.92105    59110.688   -12698.382    939.47419   -13637.856    64.037157    243.56578 
   21650      73.4732    -1515.454    59141.113   -12722.401    887.86514   -13610.266    64.025746    230.18575 
   21700    76.484579   -1210.0743    59136.386   -12714.073    924.25526   -13638.328    63.864439    239.62016 
   21750    75.938202   -1320.8062    59085.999   -12689.719    917.65271   -13607.372    63.861449     237.9084 
   21800    75.540573   -934.78296    59051.912   -12670.813    912.84769   -13583.661    63.969348    236.66266 
   21850    74.919695     -1285.66    58976.701   -12676.132    905.34487   -13581.477    64.058403     234.7175 
   21900    76.437435   -809.78418    58930.364   -12680.771    923.68555   -13604.457    63.791539    239.47246 
   21950    76.174212   -1092.9676    58913.161   -12697.066    920.50471    -13617.57    63.855007     238.6478 
   22000    74.946118   -1145.7859    58928.917   -12685.897    905.66418   -13591.561    63.869618    234.80028 
   22050    78.130585   -1222.6302     58873.28   -12657.431    944.14592   -13601.577    64.084761    244.77696 
   22100    76.933147   -1256.3982    58884.812   -12654.879    929.67584   -13584.554    64.257155    241.02549 
   22150     79.64896   -975.40408    58872.616   -12639.481    962.49427   -13601.975     64.41804    249.53391 
   22200    77.945449   -1420.8575    58892.568   -12632.027     941.9087   -13573.936     64.65201    244.19695 
   22250    75.121561   -1413.5208    58862.454    -12662.86    907.78426   -13570.644    65.013295    235.34993 
   22300    74.317057   -1188.6994    58823.948   -12686.383    898.06247   -13584.446    65.137036    232.82948 
   22350    75.068642   -1392.0486    58848.021   -12659.513    907.14478   -13566.658    65.542114    235.18414 
   22400    76.958662   -1135.6014    58797.253   -12668.081    929.98417   -13598.065     65.28125    241.10542 
   22450    75.069108   -1261.1562    58767.201    -12666.25    907.15041     -13573.4    65.395087     235.1856 
   22500     74.65917   -912.58045    58718.137   -12650.094    902.19664    -13552.29    65.471182     233.9013 
   22550    78.736616   -1322.8034    58706.139   -12638.758    951.46932   -13590.227    65.870999    246.67561 
   22600    79.551035   -1184.2235    58686.921   -12625.426    961.31093   -13586.737    65.575937    249.22712 
   22650    79.084274   -1136.5797    58708.836   -12625.702    955.67049   -13581.372    65.647191     247.7648 
   22700    79.769612   -1140.3911    58657.341   -12622.322    963.95225   -13586.275    65.453655    249.91191 
   22750    79.025814    -1177.406    58597.893       -12676    954.96405   -13630.964    65.643439    247.58164 
   22800    77.834456   -738.29657    58592.867   -12706.104    940.56745   -13646.672    65.673437    243.84922 
   22850    75.997648   -1015.9605    58584.339   -12726.735    918.37108   -13645.106    66.171542    238.09464 
   22900     76.37451   -959.02325    58607.201   -12724.095    922.92516    -13647.02    66.347226    239.27532 
   22950    75.274916   -751.46679    58591.047   -12746.988    909.63743   -13656.625    65.793871    235.83038 
   23000    76.770986   -1005.7405    58605.521   -12728.789    927.71625   -13656.506    66.024672    240.51745 
   23050    80.285715   -1095.2777    58619.487   -12727.219    970.18895   -13697.408    66.169524    251.52882 
   23100    76.968731   -905.69116    58695.166    -12727.92    930.10584   -13658.026    66.665497    241.13697 
   23150    76.587684   -1171.2369    58714.455   -12727.775     925.5012   -13653.276    67.100787    239.94318 
   23200    74.747262   -1082.7553    58703.199   -12721.284    903.26116   -13624.546    67.466365    234.17728 
   23250    78.865629   -579.02897    58776.506   -12724.197    953.02834   -13677.225    67.567077     247.0798 
   23300    74.551959   -954.03409    58846.372   -12726.491    900.90108   -13627.392    67.519607    233.56541 
   23350    76.491972   -1087.3963    58835.361   -12736.419    924.34459   -13660.763    67.542233    239.64332 
   23400    77.530198   -1044.8819     58843.36   -12732.571    936.89073   -13669.462    67.561933      242.896 
   23450    77.662089   -1009.6639    58862.725   -12754.792    938.48452   -13693.276    67.969923     243.3092 
   23500    75.895666   -1179.7405    58863.819   -12743.889     917.1387   -13661.028    68.060782    237.77514 
   23550    74.676272   -1134.9659    58869.771   -12745.668     902.4033   -13648.072    68.127994    233.95487 
   23600    77.712007   -1140.4885    58866.699   -12720.029    939.08774   -13659.116    68.626373    243.46559 
   23650      73.4607   -775.66121    58851.435   -12746.974    887.71408   -13634.688    68.563767    230.14658 
   23700    73.440329   -1067.4264    58840.951   -12766.167    887.46791   -13653.635    68.920923    230.08276 
   23750    74.857655   -1294.7981    58842.394   -12757.281    904.59517   -13661.876    68.952566    234.52313 
   23800    75.577662   -904.16401    58859.469    -12759.06    913.29588   -13672.356    68.868529    236.77886 
   23850    75.540481   -1219.5631    58824.342   -12747.329    912.84658   -13660.176    68.258285    236.66237 
   23900    74.529314   -1326.7764    58804.989   -12730.812    900.62743   -13631.439    68.292256    233.49447 
   23950    77.940153   -1293.0814    58745.283   -12728.441     941.8447   -13670.286    68.539454    244.18035 
   24000     76.61309   -864.98691    58776.003   -12741.348    925.80821   -13667.157    68.605658    240.02277 
   24050    73.796562   -1100.3163     58793.34   -12738.683    891.77271   -13630.456    68.926782    231.19881 
   24100    77.616702   -881.53219    58841.539   -12719.776    937.93605   -13657.712    68.724663    243.16701 
   24150       76.693   -1065.1102    58809.359   -12734.871    926.77385   -13661.645    68.548392    240.27312 
   24200    72.934539   -1298.4622      58758.4   -12787.059    881.35584   -13668.415    68.612213    228.49816 
   24250    73.939068   -1180.0074    58724.846   -12774.696    893.49478   -13668.191    69.158741    231.64527 
   24300     79.28971    -1437.186    58709.108   -12701.234    958.15302   -13659.387    68.801698    248.40841 
   24350    79.875744   -729.67054    58679.439   -12675.901    965.23478   -13641.135    68.881109    250.24441 
   24400    80.544688   -991.20639    58697.643   -12665.496    973.31844   -13638.815    68.905419    252.34016 
   24450    74.211809   -1130.2965    58692.249   -12677.895    896.79064   -13574.686    68.564292    232.49975 
   24500    78.212167   -1423.1194     58673.11   -12696.481    945.13177   -13641.613    68.906062    245.03255 
   24550    74.765072   -1029.9735    58652.646   -12713.155    903.47638   -13616.631    69.068707    234.23308 
   24600    77.174398   -1061.2148    58592.114   -12699.248    932.59116   -13631.839    68.967096     241.7813 
   24650    74.680693   -1061.5537    58570.632   -12699.777    902.45672   -13602.233    69.202346    233.96872 
   24700     77.40326   -797.24317    58593.222   -12690.905    935.35678   -13626.262    69.579754    242.49831 
   24750     75.48936   -1145.7079    58651.624   -12724.832    912.22882   -13637.061    70.087095    236.50221 
   24800    75.874938   -1257.5597    58662.223   -12729.245    916.88823   -13646.134    70.401812     237.7102 
   24850    74.689692   -1264.9982    58645.009   -12738.579    902.56547   -13641.144    70.532039    233.99692 
   24900    76.326341   -824.94037    58672.561   -12748.499    922.34307   -13670.842    70.941141    239.12441 
   24950    77.185452   -1289.6264    58677.681    -12749.76    932.72474   -13682.485    71.251671    241.81594 
   25000    75.844415   -829.08366    58723.647   -12709.145    916.51938   -13625.664    71.247984    237.61457 
   25050    77.790697   -1070.2485    58719.923   -12706.267    940.03865   -13646.306    71.634407    243.71212 
   25100    74.761737   -1118.3125    58708.409    -12748.68    903.43608   -13652.116    71.700607    234.22263 
   25150    73.137903   -1233.0295      58696.5   -12747.882    883.81333   -13631.695    71.690591    229.13528 
   25200    73.497208   -1256.3168    58615.864   -12758.015    888.15525    -13646.17    71.558085    230.26096 
   25250    75.633221   -939.77544    58559.123    -12758.09    913.96727   -13672.057    71.538795    236.95292 
   25300    74.156011   -1186.1152    58493.889   -12717.826    896.11636   -13613.943    71.521869    232.32494 
   25350     77.81236   -1059.2401    58515.417   -12700.511    940.30043   -13640.811    71.189847    243.77999 
   25400    75.816817   -691.95356    58550.371   -12692.009    916.18588   -13608.195    71.625746    237.52811 
   25450    77.799555   -953.29454    58571.585   -12703.008    940.14568   -13643.153    72.028504    243.73987 
   25500    77.533362   -1014.7399    58581.051   -12688.299    936.92896   -13625.227    72.395953    242.90591 
   25550    75.164218   -616.82128    58622.185   -12725.061    908.29974   -13633.361    72.465499    235.48357 
   25600    76.432365   -1045.4675    58643.708   -12734.207    923.62428   -13657.832    72.536618    239.45657 
   25650    74.838868   -725.29213    58643.816   -12723.247    904.36815   -13627.615    73.095947    234.46428 
   25700    74.301651   -994.85074    58660.524   -12704.451     897.8763   -13602.327    73.298008    232.78122 
   25750    75.064024   -843.42896    58680.372   -12707.713    907.08898   -13614.802    73.125026    235.16967 
   25800    75.239651   -741.72262    58662.417   -12716.495    909.21129   -13625.706    73.246633     235.7199 
   25850    76.810417   -741.98415    58595.409   -12694.096    928.19274   -13622.288    73.224834    240.64098 
   25900     74.10042   -1164.2713    58613.654   -12709.475    895.44459   -13604.919    73.257512    232.15077 
   25950    76.133256   -830.28613    58616.497   -12683.237    920.00979   -13603.247    73.582632    238.51949 
   26000    76.500855   -1198.9453     58599.64    -12691.31    924.45193   -13615.762    73.486927    239.67115 
   26050     76.46288   -1078.9423    58613.457   -12713.087    923.99304    -13637.08    73.221039    239.55218 
   26100    75.664052   -1137.1175    58625.523   -12698.748    914.33983   -13613.088    73.385297    237.04951 
   26150    77.865049   -871.09646    58654.257   -12699.281    940.93713   -13640.219    73.492025    243.94506 
   26200    76.470293   -882.49095     58690.79   -12678.419    924.08262   -13602.502    73.820995     239.5754 
   26250    76.478836    -1238.902    58705.774   -12679.324    924.18586    -13603.51    74.114588    239.60217 
   26300    75.371523   -916.33389    58630.065   -12699.943    910.80485   -13610.748    74.353207    236.13304 
   26350    75.815517   -783.59607    58625.295   -12701.849    916.17017   -13618.019    74.486301    237.52404 
   26400    73.973157   -1173.7235    58589.799   -12703.574    893.90671   -13597.481     74.51256    231.75207 
   26450    77.485225   -852.85549     58589.06   -12710.465    936.34727   -13646.813    74.733389     242.7551 
   26500    75.452353   -877.32656     58606.79   -12710.356    911.78162   -13622.138    74.687588    236.38627 
   26550    75.036864   -1182.7213    58640.882   -12703.516    906.76076   -13610.277     74.66971    235.08458 
   26600    75.818475   -1031.6878    58674.208   -12695.464    916.20592   -13611.669    74.666267    237.53331 
   26650     78.38949   -965.16561      58711.9   -12695.647    947.27459   -13642.922    74.687534    245.58809 
   26700    74.529916   -1313.2462    58680.813   -12665.705    900.63471    -13566.34    74.453594    233.49635 
   26750    78.412233   -981.08973    58594.816   -12656.801    947.54942    -13604.35    74.480547    245.65935 
   26800    77.509321    -1213.157    58537.938   -12663.159    936.63844   -13599.798    74.786002    242.83059 
   26850     76.59023   -985.63735    58516.054   -12677.161    925.53196   -13602.693    74.860925    239.95115 
   26900    76.622168    -968.9581    58536.257    -12671.96     925.9179   -13597.878    74.780884    240.05121 
   26950    79.219029    -1000.434    58556.699   -12676.733     957.2989   -13634.032    74.686632    248.18697 
   27000    74.643024   -1050.8185    58596.461   -12701.936    902.00152   -13603.937      75.0307    233.85071 
   27050    75.710871    -958.6175    58566.254   -12722.511     914.9056   -13637.416    75.146608    237.19619 
   27100    78.084411   -1398.0012    58549.374   -12693.482    943.58795    -13637.07    75.513206    244.63231 
   27150    75.650677   -1009.8251    58528.064   -12684.699    914.17821   -13598.878    75.375232    237.00761 
   27200    76.054274   -1141.0153    58537.656   -12670.735    919.05536    -13589.79    75.655987    238.27204 
   27250    74.731283   -1398.1859    58514.395   -12694.561    903.06806   -13597.629    75.681051    234.12722 
   27300    75.562116   -1379.9032    58465.862   -12703.549    913.10802   -13616.657    75.805237    236.73015 
   27350     75.92844   -1427.7044    58418.078   -12685.721    917.53476   -13603.256    75.675581    237.87782 
   27400    72.918973   -945.61532    58377.388   -12693.416    881.16774   -13574.583    75.886592    228.44939 
   27450    77.519544   -988.76091    58416.789   -12671.565    936.76198   -13608.327    76.024513    242.86262 
   27500    76.879408   -913.22326    58497.687    -12675.04    929.02645   -13604.066    76.206339    240.85713 
   27550    77.507751   -1096.6774    58500.509   -12652.014    936.61947   -13588.633    76.260418    242.82567 
   27600    78.986721   -1131.1591    58507.113   -12644.028    954.49164    -13598.52    76.351602    247.45917 
   27650      76.1717   -1201.0852    58465.811   -12648.056    920.47435   -13568.531    76.276305    238.63993 
   27700    75.901433   -1167.8754    58447.413   -12643.092     917.2084     -13560.3    75.991532    237.79321 
   27750    75.851375    -1473.935    58414.324   -12651.371    916.60349   -13567.974    76.012666    237.63638 
   27800    78.411758   -1231.7132    58365.345   -12640.485    947.54368   -13588.029    75.932626    245.65786 
   27850    77.908371   -964.00874    58292.405   -12656.209    941.46064    -13597.67    76.018712    244.08079 
   27900     76.64573   -939.55388    58262.413   -12668.181    926.20263   -13594.383    75.970402    240.12503 
   27950    77.794934   -927.06262     58272.86   -12653.324    940.08985   -13593.414    75.900408     243.7254 
   28000    78.745526   -977.82096      58273.3   -12638.341      951.577   -13589.918    76.177438    246.70353 
   28050    79.230576   -1199.8328    58278.875    -12652.15    957.43844   -13609.588    76.551716    248.22315 
   28100    79.180671   -791.95137    58310.336   -12630.417    956.83537   -13587.252    76.680864     248.0668 
   28150    77.719917   -1084.2288    58360.517   -12683.228    939.18332   -13622.412    77.096696    243.49037 
   28200    76.237943   -1034.8032      58312.4   -12662.368    921.27485   -13583.643    77.164342    238.84746 
   28250    77.489387   -1111.7298    58317.084   -12666.377    936.39756   -13602.775    77.480148    242.76814 
   28300    75.493793   -967.44756    58339.266   -12691.691    912.28239   -13603.973    77.230549     236.5161 
   28350    76.288845    -1233.469    58345.035   -12700.161    921.88997   -13622.051     77.50895    239.00694 
   28400    74.331519   -1074.5891    58305.781    -12730.02    898.23724   -13628.257    77.958578    232.87479 
   28450    74.206314    -762.8816    58307.769   -12720.479    896.72423   -13617.204    78.128659    232.48253 
   28500    72.032179   -981.26913    58339.865   -12725.773    870.45154   -13596.224    78.208979    225.67114 
   28550    75.565633   -1093.7905    58399.657   -12729.205    913.15053   -13642.356    78.356874    236.74117 
   28600    74.135249   -1084.0456    58410.001   -12718.459    895.86546   -13614.324    78.462022    232.25989 
   28650     77.11639   -759.92727    58431.802   -12710.988    931.89018   -13642.878    78.891533    241.59957 
   28700    74.345335   -1297.8109    58375.236   -12708.571    898.40419   -13606.975    79.065541    232.91807 
   28750    75.400632   -1367.4655    58378.875   -12701.934    911.15661    -13613.09    79.245864    236.22424 
   28800    76.341461    -788.9942    58399.021   -12699.252    922.52578   -13621.778    79.414292    239.17178 
   28850    74.334148    -1332.709    58362.333   -12699.938    898.26901   -13598.207    79.736242    232.88303 
   28900    75.514999   -705.24107    58324.315   -12698.602    912.53865    -13611.14    80.192924    236.58254 
   28950    75.211536   -951.40593    58323.119    -12718.25    908.87154   -13627.121    80.297466    235.63181 
   29000    75.161186   -1156.0332    58324.379   -12707.753     908.2631   -13616.016    80.725863    235.47407 
   29050     75.48853   -679.77741    58358.421    -12686.83    912.21879   -13599.049    81.190803    236.49961 
   29100    74.861908   -969.90813    58389.658   -12672.099    904.64656   -13576.746    80.953485    234.53646 
   29150    78.015843   -826.43494     58377.78   -12655.452    942.75936   -13598.211    80.898485    244.41749 
   29200    74.776817   -983.02296    58367.185   -12682.904     903.6183   -13586.523    81.033228    234.26987 
   29250    73.751354   -1048.0515    58373.444   -12683.653    891.22641   -13574.879     80.77055    231.05718 
   29300    75.817596   -1292.3052    58343.743   -12711.441    916.19529   -13627.636    80.915837    237.53055 
   29350    77.856529   -1274.9273    58331.909   -12730.717    940.83418   -13671.551     81.43372    243.91837 
   29400    74.638666   -1023.4363    58320.822   -12702.942    901.94886   -13604.891    81.858016    233.83706 
   29450     75.85545   -1019.0636    58289.377   -12740.202    916.65272   -13656.855    82.346504    237.64914 
   29500    76.294097    -736.5132    58292.266   -12731.658    921.95343   -13653.611    82.403167    239.02339 
   29550     77.04895   -1220.5098    58301.581   -12692.297    931.07522   -13623.373    82.830391    241.38829 
   29600    76.193274   -1208.8909    58334.745   -12696.413    920.73506   -13617.148    83.088652    238.70752 
   29650    75.960045   -1123.5638    58310.759   -12680.011    917.91668   -13597.928    83.077358    237.97683 
   29700    77.289215   -1124.2905    58314.194   -12657.768    933.97864   -13591.746    83.169762    242.14102 
   29750    78.575503   -1333.0742     58326.18   -12667.491     949.5224   -13617.013    83.453642    246.17086 
   29800    73.779528   -874.12368    58299.926   -12713.809    891.56687   -13605.376    83.509796    231.14545 
   29850    75.321764   -1059.6814    58263.586   -12702.653    910.20355   -13612.857    83.696896    235.97715 
   29900    75.978542   -1153.6606    58240.474   -12676.707     918.1402   -13594.847    83.340548    238.03478 
   29950    77.834616     -1030.55    58229.927   -12676.568    940.56937   -13617.137    83.360898    243.84972 
   30000    76.458897   -873.16491    58289.693   -12641.532     923.9449   -13565.477    83.335431     239.5397 
   30050    76.723843   -1320.0721    58286.422   -12666.377    927.14657   -13593.524    83.456398    240.36975 
   30100    78.191911   -817.01974     58267.36   -12690.584      944.887   -13635.471    83.551833    244.96909 
   30150    75.269395   -884.91248    58284.347   -12686.598    909.57072   -13596.169    83.631416    235.81308 
   30200    75.052387   -971.46375     58281.68   -12670.104    906.94835   -13577.053    83.808208    235.13321 
   30250    74.028969   -1167.4235    58268.815   -12704.716    894.58116   -13599.297    83.916778    231.92692 
   30300    74.422054   -1388.5971    58228.046   -12745.934    899.33128   -13645.266    84.360734    233.15843 
   30350    70.938085   -1219.1287    58197.285   -12747.078    857.23029   -13604.308    84.635999    222.24343 
   30400    74.856047   -1323.8122    58160.797   -12720.714    904.57574    -13625.29    84.796031     234.5181 
   30450    75.856716   -1178.4697    58153.768    -12700.51    916.66803   -13617.178    85.238482    237.65311 
   30500    77.331858   -941.43778    58205.359   -12716.567    934.49394   -13651.061    85.321651    242.27462 
   30550    75.576544   -1144.7337    58157.326   -12735.303    913.28237   -13648.585    85.643291    236.77535 
   30600     77.87853   -860.63223    58161.523   -12692.063    941.10004   -13633.163    86.264318    243.98729 
   30650    75.726704    -1029.295    58157.815   -12672.306    915.09693   -13587.403    86.352083    237.24579 
   30700    76.699426   -718.55014    58168.588   -12644.643    926.85151   -13571.494    86.481495    240.29326 
   30750     77.27257   -881.21591    58247.559   -12668.155     933.7775   -13601.933    86.619164    242.08887 
   30800    79.287939    -1227.432    58316.658   -12638.933    958.13163   -13597.065    86.689589    248.40286 
   30850    76.661225   -1196.4905    58307.064   -12633.048    926.38987   -13559.438    86.221393    240.17357 
   30900    78.921569   -1059.0722    58290.727   -12658.344    953.70434   -13612.049    86.082508    247.25506 
   30950    76.980669   -1590.1824    58254.067   -12662.134     930.2501   -13592.385    86.514612    241.17437 
   31000    77.525775   -888.47697    58179.141   -12657.065    936.83727   -13593.902    86.206122    242.88214 
   31050    79.130844   -1379.7458    58174.716   -12662.875    956.23326   -13619.108    86.682224     247.9107 
   31100    80.051779   -1084.8713    58159.959   -12644.393    967.36203   -13611.755    87.049149    250.79591 
   31150    77.385236    -602.8087    58183.958   -12653.155    935.13898   -13588.294    86.831793    242.44185 
   31200    77.451019   -1182.0224    58213.604   -12660.215    935.93391   -13596.149    87.252838    242.64794 
   31250    76.861771   -937.75251    58170.236   -12677.361    928.81332   -13606.174     87.40513    240.80187 
   31300      76.5733   -1082.3439    58178.209   -12691.242    925.32737    -13616.57    87.793437    239.89811 
   31350    76.041665   -909.36722    58215.636   -12703.437    918.90298    -13622.34    87.542359    238.23254 
   31400    75.723176   -691.31031    58223.858   -12708.696     915.0543    -13623.75    87.623069    237.23474 
   31450    75.465849   -726.00282    58253.343   -12701.238    911.94471   -13613.182    88.025553    236.42856 
   31500    75.029056   -1007.3171    58261.288   -12699.666    906.66641   -13606.333    88.181902    235.06012 
   31550    76.929618   -1096.2781    58247.918   -12687.476    929.63319   -13617.109    87.920718    241.01443 
   31600    76.652378   -1165.4903    58279.989   -12701.087    926.28296    -13627.37    88.341705    240.14586 
   31650    74.879179   -1206.8662    58322.954   -12723.128    904.85527   -13627.984    88.995486    234.59057 
   31700    76.505428   -737.41923    58389.146   -12688.263     924.5072    -13612.77    88.699197    239.68548 
   31750    75.332266   -976.38797    58388.464   -12688.483    910.33046   -13598.813    88.905926    236.01005 
   31800    77.423636   -1154.7535    58437.616   -12680.682      935.603   -13616.285    89.340069    242.56215 
   31850    78.816314   -1145.2969    58389.397   -12662.396    952.43241   -13614.828    89.837663     246.9253 
   31900    74.779631   -746.30432    58375.235   -12680.151    903.65232   -13583.803    89.837304    234.27869 
   31950    78.287353   -810.70481    58393.943   -12665.092    946.04034   -13611.132    89.638661    245.26811 
   32000    77.028497   -900.75458    58440.789   -12676.959    930.82807   -13607.787    89.519897    241.32421 
   32050     76.93478   -726.20392    58506.381   -12662.959    929.69557   -13592.655    89.591277     241.0306 
   32100    75.720776   -1090.1924    58564.701   -12667.725    915.02531   -13582.751    90.153333    237.22722 
   32150    76.669427   -691.93337    58598.125   -12656.299    926.48899   -13582.788    90.144131    240.19927 
   32200    76.140141   -967.08154    58606.564   -12676.083      920.093   -13596.176    90.068729    238.54106 
   32250    77.871618   -500.35039    58679.033   -12695.644    941.01651   -13636.661    90.162128    243.96564 
   32300    75.023805   -979.11677    58719.026   -12684.087    906.60296    -13590.69    90.107151    235.04367 
   32350    78.119577   -888.99858    58765.943   -12674.334     944.0129   -13618.347    89.868212    244.74248 
   32400    76.771543   -1344.4357    58719.324    -12679.26    927.72298   -13606.983    89.924309    240.51919 
   32450    75.907575    -752.6731    58692.718   -12646.037    917.28262   -13563.319     89.94822    237.81245 
   32500    77.931307   -1150.2182    58682.079   -12655.422    941.73781    -13597.16    90.024358    244.15264 
   32550    79.740469   -1369.7469    58673.374   -12607.911    963.60009   -13571.511    90.332024     249.8206 
   32600     77.79182   -780.84991    58642.881   -12605.013    940.05222   -13545.065    90.552581    243.71564 
   32650    79.275552   -1416.3272    58639.975   -12602.515    957.98194   -13560.497    90.426254    248.36406 
   32700     77.08462   -1073.4169     58593.49   -12639.081    931.50627   -13570.587    90.579742    241.50004 
   32750    77.979354   -1251.4872    58596.758   -12623.479    942.31841   -13565.798    90.329529    244.30317 
   32800    75.502402   -1215.8693    58631.019    -12607.61    912.38643   -13519.996    90.571184    236.54307 
   32850    74.819855   -834.80397    58618.932   -12619.307    904.13838   -13523.445    91.199582    234.40471 
   32900    80.209869   -863.54718    58658.551   -12583.818    969.27242   -13553.091    91.789603     251.2912 
   32950    77.617619   -1175.2118     58698.04   -12617.944    937.94713   -13555.891    92.076475    243.16988 
   33000    80.069349   -977.88562    58710.277   -12607.656    967.57434   -13575.231    92.829482    250.85096 
   33050    76.463507   -1245.9148    58674.434    -12605.49    924.00061    -13529.49    92.695852    239.55414 
   33100     78.55292   -1265.4231    58638.014   -12606.717     949.2495   -13555.967    92.941274     246.1001 
   33150    77.421521   -1053.9482    58638.622   -12614.429    935.57745   -13550.007    93.173776    242.55552 
   33200    75.311813   -1043.6824    58612.021   -12637.541    910.08331   -13547.624    93.144894    235.94597 
   33250    76.282554   -1257.8552    58492.398    -12623.94    921.81395   -13545.754    93.154813    238.98723 
   33300    78.552644   -1314.2692    58433.424   -12618.228    949.24617   -13567.474     93.48475    246.09924 
   33350    73.411894   -1256.1315     58399.66   -12626.821     887.1243   -13513.946    93.649848    229.99368 
   33400    77.578762   -1041.9343    58402.993   -12618.037    937.47758   -13555.515    93.439517    243.04814 
   33450    75.522215   -988.32542    58415.652   -12614.291    912.62585   -13526.917    93.695684    236.60515 
   33500    75.123379   -1177.5308     58336.27   -12631.904    907.80624    -13539.71    94.104965    235.35563 
   33550    77.564265    -811.8599     58314.85   -12649.137     937.3024   -13586.439    94.419555    243.00273 
   33600    77.517841   -631.47936    58340.818   -12618.865    936.74139   -13555.607    94.709722    242.85728 
   33650    78.711664    -846.6234    58405.496   -12624.961     951.1678   -13576.129    95.063788    246.59744 
   33700    76.763481     -1085.17    58418.655   -12623.528    927.62556   -13551.153    95.209901    240.49394 
   33750    75.760419   -846.12851    58447.563   -12618.102    915.50436   -13533.606    95.587722    237.35142 
   33800    77.558962   -683.55162    58527.551   -12605.227    937.23832   -13542.465    95.681944    242.98612 
   33850     76.42523   -1372.8353    58533.127   -12639.348    923.53806   -13562.886    95.791181    239.43422 
   33900    78.022771   -902.89264    58520.924   -12616.145    942.84307   -13558.988    96.131702    244.43919 
   33950    77.854495   -1269.1777    58509.221   -12604.735     940.8096   -13545.545    96.378593      243.912 
[...]
   92000    75.006419   -990.93662    58795.316   -12759.534    906.39286   -13665.927    251.19035     234.9892 
   92050    77.869472   -519.78678    58811.553     -12764.4    940.99058    -13705.39    251.36615    243.95892 
   92100    75.608831   -1253.1431    58835.163   -12731.016    913.67253   -13644.689    251.14735    236.87651 
   92150    76.732659   -789.83507    58882.217   -12741.506     927.2531   -13668.759    251.21444    240.39737 
   92200     77.42528    -844.6895    58911.347   -12735.707    935.62288    -13671.33    251.50511     242.5673 
   92250    72.800276   -964.56308    58944.019   -12737.729    879.73338   -13617.462    251.79434    228.07753 
   92300    76.783729   -1195.5548    58884.904   -12735.744    927.87024   -13663.614    251.95874    240.55737 
   92350      74.9489   -1252.0683     58872.45   -12756.046    905.69779   -13661.744     251.6618      234.809 
   92400    73.978779   -1163.0661    58847.676    -12779.05    893.97466   -13673.025    252.62643    231.76968 
   92450    71.047498   -1153.0989    58810.381   -12800.051    858.55245   -13658.603    252.72848    222.58621 
   92500    74.289246   -1358.9173    58786.458   -12780.798     897.7264   -13678.524    252.77909    232.74235 
   92550    74.791551   -1294.5723    58749.747   -12739.085    903.79636   -13642.881    253.17017    234.31603 
   92600    76.121391   -1314.9314    58740.352   -12725.476    919.86641   -13645.342    253.10938    238.48232 
   92650    75.522767   -908.94356    58729.177   -12769.641    912.63252   -13682.274    253.34111    236.60688 
   92700    73.329503   -932.94475    58765.924   -12770.698    886.12867   -13656.826    253.68376    229.73555 
   92750     74.20719   -758.05525    58805.961   -12758.564    896.73481   -13655.299    254.10233    232.48528 
   92800    73.035186   -1228.7593    58822.628   -12753.474    882.57208   -13636.046    254.25336    228.81348 
   92850    75.969716   -1267.1192    58737.484   -12745.312    918.03354   -13663.346    253.91213    238.00713 
   92900    78.149992   -1466.7485     58637.45   -12720.799    944.38045    -13665.18    254.10866    244.83777 
   92950    77.464187   -1120.1981    58584.426    -12727.35    936.09303   -13663.443    253.42322    242.68919 
   93000    74.384387   -1280.7203    58576.959   -12748.832    898.87611   -13647.708    254.24264    233.04042 
   93050    75.499909   -1007.0383    58564.755   -12740.067     912.3563   -13652.423    254.85232    236.53526 
   93100    74.349507   -1382.1251     58555.51   -12728.797    898.45461   -13627.252    254.95915    232.93115 
   93150    75.927003   -910.29868    58544.853   -12724.466    917.51739   -13641.984    254.75114    237.87332 
   93200    75.822782   -763.96394    58520.522   -12731.996    916.25796   -13648.254    254.38555     237.5468 
   93250    75.992369   -1237.3735    58527.061   -12764.631    918.30728   -13682.938    254.86601     238.0781 
   93300     73.29736    -924.9111    58517.349   -12756.164    885.74025   -13641.904    254.69398    229.63485 
   93350    76.173762   -765.24203    58538.494   -12765.964    920.49928   -13686.463    254.77439    238.64639 
   93400    75.809014   -1002.4393    58538.507   -12747.657    916.09158   -13663.749    254.08589    237.50366 
   93450    77.530657   -1020.8744    58572.801    -12732.05    936.89628   -13668.946    254.32377    242.89744 
   93500    74.384597   -977.88883    58554.555   -12747.323    898.87864   -13646.201    255.26581    233.04108 
   93550    74.401155   -968.27072    58533.127   -12717.974    899.07873   -13617.052    255.73819    233.09295 
   93600    76.211859   -1103.2301    58528.554   -12691.753    920.95965   -13612.713    256.03074    238.76575 
   93650    77.468967   -1288.7802    58523.805   -12675.152     936.1508   -13611.303    255.14902    242.70417 
   93700    77.277619   -715.35724    58501.454    -12673.86    933.83851   -13607.698     255.5781    242.10469 
   93750    78.706114   -1053.3285    58517.541   -12696.149    951.10073    -13647.25    255.79868    246.58005 
   93800    74.861829   -814.77487    58498.431    -12696.21    904.64561   -13600.855    255.90255    234.53621 
   93850    77.771132   -1349.3676    58496.387   -12703.095    939.80222   -13642.897     256.5662    243.65083 
   93900    74.041393   -1004.8261    58458.009    -12734.15    894.73129   -13628.882    256.34828    231.96585 
   93950     73.20915    -947.9206    58428.933   -12739.858     884.6743   -13624.532    256.22088     229.3585 
   94000    74.273395    -867.6228    58429.607   -12749.163    897.53485   -13646.698    256.32559    232.69269 
   94050    75.596359   -1290.8912     58440.09   -12724.973    913.52182   -13638.495    255.95049    236.83743 
   94100    77.812811   -620.26381    58459.065   -12724.638    940.30588   -13664.944    255.97245     243.7814 
   94150    76.232691   -764.72231    58492.516       -12720    921.21138   -13641.211    256.95414    238.83101 
   94200    77.039756   -582.57758    58604.607   -12736.853    930.96412   -13667.818    256.06432    241.35948 
   94250    75.845479   -978.08159    58622.664   -12724.704    916.53224   -13641.236    256.48267    237.61791 
   94300    76.283366   -927.74751    58645.405   -12728.646    921.82375    -13650.47    256.71144    238.98977 
   94350    75.985803   -1436.7027    58624.367   -12726.568    918.22794   -13644.796    256.54883    238.05753 
   94400    78.034853   -780.15139    58596.589   -12709.459    942.98908   -13652.448    256.22073    244.47704 
   94450    72.997206   -903.87768    58605.599   -12721.387    882.11312     -13603.5    257.00404    228.69449 
   94500    78.519299   -1103.4221    58674.789    -12737.02    948.84323   -13685.863    256.96588    245.99478 
   94550    75.721862   -1044.5029    58697.534   -12729.997    915.03843   -13645.035    256.90951    237.23063 
   94600      75.7705   -483.96107      58718.4    -12742.25    915.62617   -13657.876    256.74681      237.383 
   94650    75.196008    -916.3002    58798.685   -12734.904     908.6839   -13643.588    256.53165    235.58317 
   94700    74.036795   -661.58806    58817.776   -12773.408    894.67573   -13668.084    257.42519    231.95144 
   94750    75.183102    -906.3929    58877.101   -12748.613    908.52793   -13657.141    257.30779    235.54273 
   94800    75.675094   -686.69504    58845.152    -12746.89    914.47327   -13661.363    257.10681     237.0841 
   94850    76.013892   -805.56152    58854.488   -12754.623    918.56738    -13673.19     257.3932    238.14553 
   94900     75.26901   -806.85101    58863.601    -12746.94    909.56606   -13656.506    257.18303    235.81187 
   94950    78.615279   -1041.4304    58900.416   -12743.516    950.00307   -13693.519    257.02804    246.29547 
   95000    75.506892   -882.86271    58930.042   -12746.513    912.44068   -13658.954    257.50116    236.55714 
   95050    75.463412   -1288.7418    58909.436   -12739.363    911.91526   -13651.278    258.02232    236.42092 
   95100    73.788237   -1177.0504    58830.732   -12740.386     891.6721   -13632.059    257.67856    231.17273 
   95150    74.082532   -859.58086    58788.298   -12738.751    895.22843   -13633.979    258.08308    232.09473 
   95200    76.056715   -1117.4758    58800.253   -12742.518    919.08486   -13661.603    258.29505    238.27969 
   95250    76.154273    -941.9967    58802.533   -12733.909    920.26377   -13654.172    259.10569    238.58534 
   95300    76.487114   -1103.1953    58779.629   -12708.691    924.28588   -13632.977    259.35063     239.6281 
   95350    77.681988   -988.56568    58716.997   -12718.941    938.72498   -13657.666    259.22551    243.37154 
   95400    78.511791   -1045.6502    58742.609   -12707.592    948.75249   -13656.345     259.1288    245.97125 
   95450    79.936939   -958.91266    58802.177   -12682.303    965.97427   -13648.278    259.76659    250.43613 
   95500    80.935141   -1029.4575    58820.709   -12654.716    978.03675   -13632.752    259.40871    253.56342 
   95550    78.331195   -974.70808    58770.469    -12644.63    946.57014   -13591.201    260.17919    245.40546 
   95600     78.08322   -1178.3878    58812.739   -12708.907    943.57355   -13652.481    260.39702    244.62857 
   95650    77.079539    -1119.392    58829.282   -12751.828    931.44487   -13683.273    260.68601    241.48412 
   95700    73.362236   -1319.4091    58859.409   -12775.797    886.52422   -13662.321    260.74372     229.8381 
   95750    74.504373   -1538.8448    58853.299   -12774.501    900.32604   -13674.827    260.54953    233.41633 
   95800    72.254328    -1180.452    58820.637   -12769.796    873.13604   -13642.932    260.83364    226.36711 
   95850    76.928411   -1239.9927     58780.31   -12734.743     929.6186   -13664.361    261.38013    241.01065 
   95900    79.902032    -1094.564    58716.145     -12735.6    965.55245   -13701.152    261.25214    250.32677 
   95950    76.306133   -1113.4132    58723.212   -12756.469    922.09887   -13678.567    261.33269     239.0611 
   96000    75.358023   -1009.1727    58671.846   -12731.169    910.64172   -13641.811    261.56026    236.09075 
   96050    76.527295    -1222.293     58669.69   -12721.548    924.77144   -13646.319    261.97214    239.75398 
   96100    76.890671   -1069.2904    58691.768   -12714.853    929.16255   -13644.016    262.20688    240.89241 
   96150    71.330998   -948.25173      58710.1   -12736.537    861.97832   -13598.515    261.96462    223.47439 
   96200     73.55515   -902.85549    58707.437   -12773.001    888.85543   -13661.857    261.97807    230.44249 
   96250    73.032439   -1179.6667    58656.693    -12773.14    882.53889   -13655.679    261.43775    228.80487 
   96300    74.663583   -997.21267    58627.962   -12742.902    902.24997   -13645.152     261.4345    233.91512 
   96350    76.838869   -1085.5974    58622.089   -12733.521    928.53657   -13662.058    262.51128    240.73012 
   96400     74.57678   -1254.4705     58643.12   -12754.414    901.20102   -13655.615    261.92229    233.64317 
   96450    74.530066   -1050.4894    58580.781   -12776.242    900.63652   -13676.879    261.96158    233.49682 
   96500     72.71365   -1222.7732    58519.371   -12794.875    878.68658   -13673.562    262.41924    227.80613 
   96550    73.443987   -995.46955    58543.018   -12758.086    887.51211   -13645.598    261.98594    230.09422 
   96600    75.947992   -1210.7266    58570.735   -12752.573    917.77102   -13670.344    262.84198    237.93907 
   96650     73.52776   -873.86312    58575.906   -12766.702    888.52445   -13655.227    262.17369    230.35668 
   96700    76.047991   -1413.9386    58555.839   -12745.705    918.97944   -13664.684    262.09095    238.25236 
   96750    73.205828   -1092.0078    58602.942   -12742.418    884.63415   -13627.052    263.55099    229.34809 
   96800    76.482549   -1142.9399    58613.581   -12723.502    924.23072   -13647.733     264.2114     239.6138 
   96850    78.075999   -852.46261    58578.383   -12710.952    943.48629   -13654.438     264.0385    244.60595 
   96900    77.011929   -1049.8548    58635.087   -12743.873    930.62786   -13674.501    263.79961     241.2723 
   96950    76.276352   -1100.7666    58663.485   -12745.973      921.739   -13667.712    264.11356     238.9678 
   97000    76.721289   -1058.0851    58658.515   -12727.964     927.1157   -13655.079    263.87127    240.36175 
   97050    76.326074   -920.25747    58632.376   -12709.297    922.33984   -13631.637    264.22926    239.12357 
   97100    78.147988   -962.52816    58610.112   -12709.799    944.35622   -13654.156     264.0649    244.83149 
   97150    77.840285   -908.95537     58631.85   -12734.142    940.63788    -13674.78     264.7767    243.86748 
   97200    76.759388   -946.62156    58670.048   -12727.822     927.5761   -13655.398    265.33708    240.48111 
   97250    78.034084   -1042.7767    58651.156   -12710.942    942.97979   -13653.922     265.7778    244.47463 
   97300    77.411613    -1001.241    58700.509   -12694.513    935.45772   -13629.971    265.88887    242.52448 
   97350    77.771755   -1129.1268    58725.266   -12673.649    939.80974   -13613.458    266.53053    243.65278 
   97400    78.017761   -782.30867    58740.439   -12703.815    942.78253   -13646.598    266.96779    244.42349 
   97450    74.863424    -927.4306    58715.854   -12745.504    904.66489   -13650.169    266.87108    234.54121 
   97500    78.966796   -771.86686    58709.091   -12728.992    954.25087   -13683.243    267.26651    247.39675 
   97550    79.848166   -1006.2706    58734.078   -12721.844    964.90152   -13686.745    267.38011    250.15801 
   97600    79.246633   -921.00411    58722.185   -12695.625    957.63247   -13653.258    267.09333    248.27345 
   97650    78.883605   -940.64328     58665.54   -12687.765    953.24558    -13641.01    266.43801    247.13612 
   97700     77.59972   -907.32744    58684.887   -12705.288    937.73085   -13643.018    267.05933    243.11381 
   97750    80.595254   -1045.1434    58758.724   -12682.074    973.92948   -13656.003    266.57099    252.49858 
   97800     79.63037   -866.24121    58755.231   -12671.966    962.26963   -13634.236    267.44512    249.47567 
   97850     77.41142   -599.72497    58734.657   -12685.602    935.45539   -13621.058    267.85088    242.52388 
   97900     78.53997   -931.46422    58671.352   -12704.904    949.09301   -13653.997    267.62825    246.05953 
   97950     76.40032   -1020.1427    58651.272   -12739.652    923.23705   -13662.889    267.96001    239.35618 
   98000    76.263789   -1192.4439    58617.567   -12776.673    921.58718    -13698.26    268.37291    238.92844 
   98050    73.654804   -1099.1881    58634.186   -12779.709    890.05967   -13669.769    268.30523     230.7547 
   98100    75.469488    -1022.185     58617.48   -12730.909    911.98868   -13642.898    268.58751    236.43996 
   98150    76.848104   -1298.4817     58603.75   -12749.388    928.64816   -13678.036    269.03374    240.75905 
   98200    77.657927   -1272.0347    58590.858   -12721.527    938.43422   -13659.962    269.40988    243.29616 
   98250    78.136591   -1294.4358    58572.612   -12708.229     944.2185   -13652.448    269.36661    244.79578 
   98300    77.822422   -844.28952    58528.657   -12692.825    940.42202   -13633.247     269.2717    243.81151 
   98350     80.63522   -1107.9992    58533.415   -12688.539    974.41245   -13662.951    269.85516    252.62379 
   98400    77.015432   -1047.8485    58474.197   -12690.154    930.67018   -13620.824     270.1379    241.28328 
   98450    78.050048   -1057.3013    58451.844   -12712.566    943.17269   -13655.739    270.25934    244.52465 
   98500    78.593252   -857.13571    58425.044   -12717.155    949.73689   -13666.892    270.95913    246.22646 
   98550    78.679279   -1250.0151    58415.526    -12733.95    950.77645   -13684.726    271.23724    246.49598 
   98600    79.261625   -801.03362    58409.145   -12719.511    957.81364   -13677.325    271.35053    248.32042 
   98650    81.327825    -1057.586    58460.938   -12732.204    982.78203   -13714.986    271.64957    254.79367 
   98700    76.692137   -884.08172    58477.743   -12784.521    926.76343   -13711.284     272.4069    240.27042 
   98750    76.972872   -1016.4427    58449.594   -12776.931    930.15588   -13707.087    272.23938    241.14994 
   98800    79.452834   -943.59229    58500.479   -12757.561    960.12425   -13717.685    271.77553    248.91947 
   98850    72.524239   -977.29654    58578.628   -12779.342    876.39769   -13655.739     272.0691    227.21272 
   98900     74.07628   -1189.9919    58605.077    -12764.24    895.15288   -13659.393    272.12306    232.07515 
   98950    76.828218   -1451.0623     58585.24   -12762.629    928.40786   -13691.037    272.13489    240.69675 
   99000    75.432343   -1061.9124    58557.396   -12788.865    911.53982   -13700.405    272.33197    236.32359 
   99050    77.473241   -1066.2598     58594.44   -12776.113    936.20244   -13712.315    272.77449    242.71756 
   99100    76.134471   -869.28214    58649.027    -12758.35    920.02447   -13678.374    273.37758     238.5233 
   99150      75.3031   -1144.2829    58659.516   -12760.706    909.97802   -13670.684    273.43236    235.91868 
   99200    77.126085   -1239.2977     58684.99   -12755.222    932.00734    -13687.23    274.11115    241.62994 
   99250      76.5496   -1638.8738    58645.465   -12732.459    925.04098     -13657.5    273.83216    239.82386 
   99300    77.104017   -1315.0005     58654.34   -12707.685    931.74066   -13639.426    273.94474    241.56081 
   99350    76.523294   -974.38641    58640.815   -12720.483    924.72309   -13645.207    274.43269    239.74145 
   99400    74.981346   -1078.2563    58614.128   -12718.715    906.08987   -13624.805    274.01767    234.91065 
   99450    78.982413   -911.79365    58580.427   -12706.936    954.43958   -13661.375    273.39689    247.44567 
   99500    75.655168   -1412.2354    58605.007    -12735.42    914.23248   -13649.653    273.22049    237.02168 
   99550    76.028732   -1267.2638    58639.494   -12748.761     918.7467   -13667.507    273.44602    238.19202 
   99600    77.094473   -1257.2687    58618.549   -12722.324    931.62534   -13653.949    274.00645    241.53091 
   99650    78.717883   -951.50202    58663.886   -12738.306    951.24295   -13689.549    274.31006    246.61692 
   99700    77.673475   -1287.9984    58694.308   -12729.894    938.62211   -13668.516    274.26514    243.34487 
   99750    77.533074   -1222.0446    58703.455   -12701.038    936.92548   -13637.963    274.09603    242.90501 
   99800    77.209059   -1252.6051    58691.018   -12716.225    933.01001   -13649.235    274.74047     241.8899 
   99850    79.168423   -803.58334    58745.053   -12698.723    956.68737    -13655.41    274.41144    248.02843 
   99900    77.335269   -1395.1328    58767.064   -12706.907    934.53516   -13641.442    274.74046     242.2853 
   99950    77.612705   -1327.5353    58769.915    -12716.58    937.88775   -13654.468    274.48196    243.15449 
  100000    79.494768    -1059.654    58792.904   -12687.808    960.63099   -13648.439    274.65332    249.05084 
Loop time of 81.1263 on 80 procs for 100000 steps with 4055 atoms

Performance: 532.503 ns/day, 0.045 hours/ns, 1232.645 timesteps/s
99.5% CPU use with 80 MPI tasks x no OpenMP threads

MPI task timing breakdown:
Section |  min time  |  avg time  |  max time  |%varavg| %total
---------------------------------------------------------------
Pair    | 47.166     | 50.681     | 55.486     |  30.4 | 62.47
Neigh   | 0.45128    | 1.0483     | 1.9162     |  58.3 |  1.29
Comm    | 15.605     | 20.786     | 24.805     |  56.0 | 25.62
Output  | 0.12939    | 0.13294    | 0.25971    |   3.9 |  0.16
Modify  | 6.4193     | 7.521      | 8.4353     |  15.7 |  9.27
Other   |            | 0.9569     |            |       |  1.18

Nlocal:    50.6875 ave 87 max 20 min
Histogram: 26 14 0 0 0 0 2 10 20 8
Nghost:    715.1 ave 752 max 669 min
Histogram: 2 7 12 7 7 9 7 10 7 12
Neighs:    0 ave 0 max 0 min
Histogram: 80 0 0 0 0 0 0 0 0 0
FullNghs:  5576.05 ave 11201 max 1088 min
Histogram: 40 0 0 0 0 0 1 9 20 10

Total # of neighbors = 446084
Ave neighs/atom = 110.008
Neighbor list builds = 5501
Dangerous builds = 0

write_data		${DIR}/data.eq-${NAME}-${TEMP}
write_data		run_4/data.eq-${NAME}-${TEMP}
write_data		run_4/data.eq-het_freeze_4-${TEMP}
write_data		run_4/data.eq-het_freeze_4-240
undump          1

reset_timestep  0

unfix           2
unfix           3
unfix           4


################################################
#######         Run Simulation         #########
################################################

log				${DIR}/log.run_${NAME}
log				run_4/log.run_${NAME}
log				run_4/log.run_het_freeze_4
