LAMMPS data file via write_data, version 16 Mar 2018, timestep = 100000

4055 atoms
2 atom types

0.0000000000000000e+00 4.9219999999999999e+01 xlo xhi
0.0000000000000000e+00 4.9019635930410494e+01 ylo yhi
1.4889496321100371e+00 2.6451050367891384e+01 zlo zhi

Masses

1 18.015
2 12.01

Atoms # atomic

53 2 0.0000000000000000e+00 2.8417180249513345e+00 3.0621763407755784e+00 0 0 0
55 2 0.0000000000000000e+00 0.0000000000000000e+00 3.0621763407755784e+00 0 0 0
57 2 1.2305000000000001e+00 7.1042950623783474e-01 3.0621763407755784e+00 0 0 0
64 2 1.2305000000000001e+00 2.1312885187134998e+00 3.0621763407755784e+00 0 0 0
66 2 2.4610000000000003e+00 2.8417180249513345e+00 3.0621763407755784e+00 0 0 0
68 2 2.4610000000000003e+00 0.0000000000000000e+00 3.0621763407755784e+00 0 0 0
70 2 3.6915000000000004e+00 7.1042950623783474e-01 3.0621763407755784e+00 0 0 0
85 2 3.6914999999999996e+00 2.1312885187134998e+00 3.0621763407755784e+00 0 0 0
87 2 4.9220000000000006e+00 2.8417180249513332e+00 3.0621763407755784e+00 0 0 0
89 2 4.9220000000000006e+00 0.0000000000000000e+00 3.0621763407755784e+00 0 0 0
60 2 0.0000000000000000e+00 4.2625770374269996e+00 3.0621763407755784e+00 0 0 0
81 2 2.4610000000000003e+00 4.2625770374269996e+00 3.0621763407755784e+00 0 0 0
110 2 4.9220000000000006e+00 4.2625770374269978e+00 3.0621763407755784e+00 0 0 0
62 2 1.2305000000000001e+00 4.9730065436648339e+00 3.0621763407755784e+00 0 0 0
77 2 1.2305000000000001e+00 6.3938655561404980e+00 3.0621763407755784e+00 0 0 0
83 2 3.6914999999999996e+00 4.9730065436648339e+00 3.0621763407755784e+00 0 0 0
106 2 3.6914999999999996e+00 6.3938655561404980e+00 3.0621763407755784e+00 0 0 0
58 2 0.0000000000000000e+00 7.1042950623783341e+00 3.0621763407755784e+00 0 0 0
73 2 0.0000000000000000e+00 8.5251540748539991e+00 3.0621763407755784e+00 0 0 0
75 2 1.2305000000000001e+00 9.2355835810918343e+00 3.0621763407755784e+00 0 0 0
79 2 2.4610000000000003e+00 7.1042950623783341e+00 3.0621763407755784e+00 0 0 0
102 2 2.4610000000000003e+00 8.5251540748539991e+00 3.0621763407755784e+00 0 0 0
104 2 3.6915000000000004e+00 9.2355835810918343e+00 3.0621763407755784e+00 0 0 0
108 2 4.9220000000000006e+00 7.1042950623783341e+00 3.0621763407755784e+00 0 0 0
139 2 4.9220000000000006e+00 8.5251540748539991e+00 3.0621763407755784e+00 0 0 0
54 2 0.0000000000000000e+00 1.4208590124756650e+00 6.0382473204423119e+00 0 0 0
56 2 0.0000000000000000e+00 0.0000000000000000e+00 6.0382473204423119e+00 0 0 0
65 2 1.2305000000000001e+00 2.1312885187134998e+00 6.0382473204423119e+00 0 0 0
67 2 2.4610000000000003e+00 1.4208590124756650e+00 6.0382473204423119e+00 0 0 0
69 2 2.4610000000000003e+00 0.0000000000000000e+00 6.0382473204423119e+00 0 0 0
86 2 3.6914999999999996e+00 2.1312885187134998e+00 6.0382473204423119e+00 0 0 0
382 2 0.0000000000000000e+00 2.8417180249513345e+00 9.0143183001085134e+00 0 0 0
383 2 0.0000000000000000e+00 0.0000000000000000e+00 9.0143183001085134e+00 0 0 0
384 2 1.2305000000000001e+00 7.1042950623783474e-01 9.0143183001085134e+00 0 0 0
388 2 1.2305000000000001e+00 2.1312885187134998e+00 9.0143183001085134e+00 0 0 0
389 2 2.4610000000000003e+00 2.8417180249513345e+00 9.0143183001085134e+00 0 0 0
390 2 2.4610000000000003e+00 0.0000000000000000e+00 9.0143183001085134e+00 0 0 0
391 2 3.6915000000000004e+00 7.1042950623783474e-01 9.0143183001085134e+00 0 0 0
399 2 3.6914999999999996e+00 2.1312885187134998e+00 9.0143183001085134e+00 0 0 0
88 2 4.9220000000000006e+00 1.4208590124756650e+00 6.0382473204423119e+00 0 0 0
90 2 4.9220000000000006e+00 0.0000000000000000e+00 6.0382473204423119e+00 0 0 0
400 2 4.9220000000000006e+00 2.8417180249513332e+00 9.0143183001085134e+00 0 0 0
401 2 4.9220000000000006e+00 0.0000000000000000e+00 9.0143183001085134e+00 0 0 0
61 2 0.0000000000000000e+00 4.2625770374269996e+00 6.0382473204423119e+00 0 0 0
63 2 1.2305000000000001e+00 3.5521475311891644e+00 6.0382473204423119e+00 0 0 0
82 2 2.4610000000000003e+00 4.2625770374269996e+00 6.0382473204423119e+00 0 0 0
84 2 3.6914999999999996e+00 3.5521475311891644e+00 6.0382473204423119e+00 0 0 0
386 2 0.0000000000000000e+00 4.2625770374269996e+00 9.0143183001085134e+00 0 0 0
397 2 2.4610000000000003e+00 4.2625770374269996e+00 9.0143183001085134e+00 0 0 0
111 2 4.9220000000000006e+00 4.2625770374269978e+00 6.0382473204423119e+00 0 0 0
412 2 4.9220000000000006e+00 4.2625770374269978e+00 9.0143183001085134e+00 0 0 0
59 2 0.0000000000000000e+00 5.6834360499026637e+00 6.0382473204423119e+00 0 0 0
78 2 1.2305000000000001e+00 6.3938655561404980e+00 6.0382473204423119e+00 0 0 0
80 2 2.4610000000000003e+00 5.6834360499026637e+00 6.0382473204423119e+00 0 0 0
107 2 3.6914999999999996e+00 6.3938655561404980e+00 6.0382473204423119e+00 0 0 0
387 2 1.2305000000000001e+00 4.9730065436648339e+00 9.0143183001085134e+00 0 0 0
395 2 1.2305000000000001e+00 6.3938655561404980e+00 9.0143183001085134e+00 0 0 0
398 2 3.6914999999999996e+00 4.9730065436648339e+00 9.0143183001085134e+00 0 0 0
410 2 3.6914999999999996e+00 6.3938655561404980e+00 9.0143183001085134e+00 0 0 0
109 2 4.9220000000000006e+00 5.6834360499026637e+00 6.0382473204423119e+00 0 0 0
74 2 0.0000000000000000e+00 8.5251540748539991e+00 6.0382473204423119e+00 0 0 0
76 2 1.2305000000000001e+00 7.8147245686161639e+00 6.0382473204423119e+00 0 0 0
103 2 2.4610000000000003e+00 8.5251540748539991e+00 6.0382473204423119e+00 0 0 0
105 2 3.6914999999999996e+00 7.8147245686161639e+00 6.0382473204423119e+00 0 0 0
385 2 0.0000000000000000e+00 7.1042950623783341e+00 9.0143183001085134e+00 0 0 0
393 2 0.0000000000000000e+00 8.5251540748539991e+00 9.0143183001085134e+00 0 0 0
394 2 1.2305000000000001e+00 9.2355835810918343e+00 9.0143183001085134e+00 0 0 0
396 2 2.4610000000000003e+00 7.1042950623783341e+00 9.0143183001085134e+00 0 0 0
408 2 2.4610000000000003e+00 8.5251540748539991e+00 9.0143183001085134e+00 0 0 0
409 2 3.6915000000000004e+00 9.2355835810918343e+00 9.0143183001085134e+00 0 0 0
140 2 4.9220000000000006e+00 8.5251540748539991e+00 6.0382473204423119e+00 0 0 0
411 2 4.9220000000000006e+00 7.1042950623783341e+00 9.0143183001085134e+00 0 0 0
427 2 4.9220000000000006e+00 8.5251540748539991e+00 9.0143183001085134e+00 0 0 0
1942 1 3.7931630371573144e-01 3.3794721347734700e+00 1.1561382417763511e+01 0 1 -1
2562 1 5.1670157689563840e+00 3.4892717641038922e+00 1.1256831109245802e+01 0 -1 -1
2041 1 2.9338066920256862e+00 4.8092998533369649e+00 1.1818843115475055e+01 1 1 -1
2051 1 4.5307748360153405e-01 8.7609326933376437e+00 1.2001548934868675e+01 1 2 -1
2113 1 3.0225557194944436e-01 6.0725743454035430e-01 1.1890400600222350e+01 0 1 -1
1364 1 5.3582438429044430e+00 8.6870182541758112e+00 1.1737015147528760e+01 1 0 -1
1965 1 3.0649896371785057e+00 7.4543390925030879e+00 1.1465388207754479e+01 1 0 0
2676 1 4.9944657730762856e+00 7.2686897636376546e-01 1.1788431390561819e+01 0 1 0
1966 1 7.9631253101884081e-01 3.5245230790116961e+00 1.4718055590853156e+01 1 0 0
3916 1 5.1557789886592662e+00 8.6804944923594107e-01 1.4514215187977612e+01 1 0 0
2000 1 3.2883338270826137e+00 5.0188528361700344e+00 1.4563374564444539e+01 0 0 0
1927 1 5.5523514163457790e+00 3.5083756469998630e+00 1.5512179647362924e+01 0 -1 0
769 1 5.2448139377973417e+00 3.4756509242409908e+00 1.8310191336934508e+01 1 0 0
3973 1 6.3937906849389992e-01 3.8883162953502919e+00 1.7621657610148702e+01 1 0 -1
2583 1 4.9941674866443370e-01 6.4937999303291305e-01 1.4592256505082846e+01 0 1 -1
3370 1 5.3845345133203448e+00 8.6100070810072697e+00 1.4613091871766022e+01 0 0 -1
3255 1 2.9547283923612251e+00 7.4101000297289392e+00 1.5347900528679915e+01 1 1 1
1985 1 3.2025625980386589e+00 7.8202793143908567e+00 1.8011408131138268e+01 1 0 0
3285 1 6.1025784905387737e-01 8.7859766203125726e+00 1.4725886095298669e+01 1 0 -1
649 1 2.7678812632962631e+00 2.4104415582436389e+00 1.8611433874169670e+01 1 0 1
2640 1 2.5566251950658776e+00 2.1172466972945010e+00 2.1650509785501185e+01 1 0 -1
2607 1 4.4507399608540266e-01 6.2826752373262300e+00 2.1603548570085273e+01 0 0 0
1258 1 6.0449530114981920e-01 6.6502144010439714e+00 1.8981305894553074e+01 0 1 1
685 1 5.5345103979833743e+00 6.4527303646192440e+00 1.8812247049878160e+01 0 0 0
592 1 5.2076067981176397e+00 5.7085246681763069e+00 2.1566256969551034e+01 0 0 -1
3274 1 5.1283497300743548e+00 3.1073435864036298e+00 2.2406527326403953e+01 1 0 0
1381 1 5.6839499669134741e-01 3.7467029167791606e+00 2.2635798629032720e+01 1 -1 0
3331 1 2.8482227224236571e+00 4.5564139606777143e+00 2.5731625239715889e+01 1 0 -1
653 1 4.9698961994818331e+00 2.9301233018656787e+00 2.5180626182757905e+01 0 0 0
3404 1 5.0236172338749148e+00 8.4706743043332171e+00 2.5534767533904343e+01 1 0 0
581 1 2.3923867324468677e+00 7.1257866490781643e+00 2.5278544967012436e+01 1 0 0
4008 1 2.8364132930290231e+00 7.0516888023157289e+00 2.2537707196142811e+01 0 1 -1
2683 1 1.8347718749351291e-01 8.8063197810001732e+00 2.5322170936675924e+01 1 2 0
3258 1 4.3605984793697339e-01 3.2742333842350879e+00 2.5516095401415370e+01 1 1 0
1958 1 4.3589165811525223e+00 2.4286030057965666e-01 2.5104088176013015e+01 0 0 -1
27 1 2.8629530634640652e+00 9.7877381755523061e+00 2.1453276004784357e+01 1 -1 0
71 2 0.0000000000000000e+00 1.1366872099805333e+01 3.0621763407755784e+00 0 0 0
94 2 0.0000000000000000e+00 1.2787731112280996e+01 3.0621763407755784e+00 0 0 0
96 2 1.2305000000000001e+00 1.3498160618518829e+01 3.0621763407755784e+00 0 0 0
98 2 1.2305000000000001e+00 1.0656442593567498e+01 3.0621763407755784e+00 0 0 0
100 2 2.4610000000000003e+00 1.1366872099805333e+01 3.0621763407755784e+00 0 0 0
131 2 2.4610000000000003e+00 1.2787731112280996e+01 3.0621763407755784e+00 0 0 0
133 2 3.6915000000000004e+00 1.3498160618518829e+01 3.0621763407755784e+00 0 0 0
135 2 3.6914999999999996e+00 1.0656442593567499e+01 3.0621763407755784e+00 0 0 0
137 2 4.9220000000000006e+00 1.1366872099805333e+01 3.0621763407755784e+00 0 0 0
176 2 4.9220000000000006e+00 1.2787731112280996e+01 3.0621763407755784e+00 0 0 0
178 2 6.1524999999999990e+00 1.3498160618518829e+01 3.0621763407755784e+00 0 0 0
92 2 0.0000000000000000e+00 1.5629449137232333e+01 3.0621763407755784e+00 0 0 0
123 2 0.0000000000000000e+00 1.7050308149707998e+01 3.0621763407755784e+00 0 0 0
127 2 1.2305000000000001e+00 1.4919019630994494e+01 3.0621763407755784e+00 0 0 0
129 2 2.4610000000000003e+00 1.5629449137232328e+01 3.0621763407755784e+00 0 0 0
168 2 2.4610000000000003e+00 1.7050308149707998e+01 3.0621763407755784e+00 0 0 0
172 2 3.6915000000000004e+00 1.4919019630994494e+01 3.0621763407755784e+00 0 0 0
174 2 4.9220000000000006e+00 1.5629449137232333e+01 3.0621763407755784e+00 0 0 0
215 2 4.9220000000000006e+00 1.7050308149707998e+01 3.0621763407755784e+00 0 0 0
219 2 6.1524999999999990e+00 1.4919019630994494e+01 3.0621763407755784e+00 0 0 0
125 2 1.2305000000000001e+00 1.7760737655945832e+01 3.0621763407755784e+00 0 0 0
164 2 1.2305000000000001e+00 1.9181596668421495e+01 3.0621763407755784e+00 0 0 0
170 2 3.6914999999999996e+00 1.7760737655945832e+01 3.0621763407755784e+00 0 0 0
211 2 3.6914999999999996e+00 1.9181596668421495e+01 3.0621763407755784e+00 0 0 0
72 2 0.0000000000000000e+00 9.9460130873296642e+00 6.0382473204423119e+00 0 0 0
101 2 2.4610000000000003e+00 9.9460130873296642e+00 6.0382473204423119e+00 0 0 0
138 2 4.9220000000000006e+00 9.9460130873296642e+00 6.0382473204423119e+00 0 0 0
95 2 0.0000000000000000e+00 1.2787731112280996e+01 6.0382473204423119e+00 0 0 0
97 2 1.2305000000000001e+00 1.2077301606043163e+01 6.0382473204423119e+00 0 0 0
99 2 1.2305000000000001e+00 1.0656442593567498e+01 6.0382473204423119e+00 0 0 0
132 2 2.4610000000000003e+00 1.2787731112280996e+01 6.0382473204423119e+00 0 0 0
134 2 3.6914999999999996e+00 1.2077301606043163e+01 6.0382473204423119e+00 0 0 0
136 2 3.6914999999999996e+00 1.0656442593567499e+01 6.0382473204423119e+00 0 0 0
392 2 0.0000000000000000e+00 1.1366872099805333e+01 9.0143183001085134e+00 0 0 0
404 2 0.0000000000000000e+00 1.2787731112280996e+01 9.0143183001085134e+00 0 0 0
405 2 1.2305000000000001e+00 1.3498160618518829e+01 9.0143183001085134e+00 0 0 0
406 2 1.2305000000000001e+00 1.0656442593567498e+01 9.0143183001085134e+00 0 0 0
407 2 2.4610000000000003e+00 1.1366872099805333e+01 9.0143183001085134e+00 0 0 0
423 2 2.4610000000000003e+00 1.2787731112280996e+01 9.0143183001085134e+00 0 0 0
424 2 3.6915000000000004e+00 1.3498160618518829e+01 9.0143183001085134e+00 0 0 0
425 2 3.6914999999999996e+00 1.0656442593567499e+01 9.0143183001085134e+00 0 0 0
177 2 4.9220000000000006e+00 1.2787731112280996e+01 6.0382473204423119e+00 0 0 0
426 2 4.9220000000000006e+00 1.1366872099805333e+01 9.0143183001085134e+00 0 0 0
446 2 4.9220000000000006e+00 1.2787731112280996e+01 9.0143183001085134e+00 0 0 0
447 2 6.1524999999999990e+00 1.3498160618518829e+01 9.0143183001085134e+00 0 0 0
93 2 0.0000000000000000e+00 1.4208590124756663e+01 6.0382473204423119e+00 0 0 0
130 2 2.4610000000000003e+00 1.4208590124756663e+01 6.0382473204423119e+00 0 0 0
175 2 4.9220000000000006e+00 1.4208590124756663e+01 6.0382473204423119e+00 0 0 0
124 2 0.0000000000000000e+00 1.7050308149707998e+01 6.0382473204423119e+00 0 0 0
126 2 1.2305000000000001e+00 1.6339878643470165e+01 6.0382473204423119e+00 0 0 0
128 2 1.2305000000000001e+00 1.4919019630994494e+01 6.0382473204423119e+00 0 0 0
169 2 2.4610000000000003e+00 1.7050308149707998e+01 6.0382473204423119e+00 0 0 0
171 2 3.6915000000000004e+00 1.6339878643470165e+01 6.0382473204423119e+00 0 0 0
173 2 3.6915000000000004e+00 1.4919019630994494e+01 6.0382473204423119e+00 0 0 0
403 2 0.0000000000000000e+00 1.5629449137232333e+01 9.0143183001085134e+00 0 0 0
419 2 0.0000000000000000e+00 1.7050308149707998e+01 9.0143183001085134e+00 0 0 0
421 2 1.2305000000000001e+00 1.4919019630994494e+01 9.0143183001085134e+00 0 0 0
422 2 2.4610000000000003e+00 1.5629449137232328e+01 9.0143183001085134e+00 0 0 0
442 2 2.4610000000000003e+00 1.7050308149707998e+01 9.0143183001085134e+00 0 0 0
444 2 3.6915000000000004e+00 1.4919019630994494e+01 9.0143183001085134e+00 0 0 0
216 2 4.9220000000000006e+00 1.7050308149707998e+01 6.0382473204423119e+00 0 0 0
220 2 6.1524999999999990e+00 1.4919019630994494e+01 6.0382473204423119e+00 0 0 0
445 2 4.9220000000000006e+00 1.5629449137232333e+01 9.0143183001085134e+00 0 0 0
466 2 4.9220000000000006e+00 1.7050308149707998e+01 9.0143183001085134e+00 0 0 0
468 2 6.1524999999999990e+00 1.4919019630994494e+01 9.0143183001085134e+00 0 0 0
122 2 0.0000000000000000e+00 1.8471167162183658e+01 6.0382473204423119e+00 0 0 0
165 2 1.2305000000000001e+00 1.9181596668421495e+01 6.0382473204423119e+00 0 0 0
167 2 2.4610000000000003e+00 1.8471167162183658e+01 6.0382473204423119e+00 0 0 0
212 2 3.6914999999999996e+00 1.9181596668421495e+01 6.0382473204423119e+00 0 0 0
420 2 1.2305000000000001e+00 1.7760737655945832e+01 9.0143183001085134e+00 0 0 0
440 2 1.2305000000000001e+00 1.9181596668421495e+01 9.0143183001085134e+00 0 0 0
443 2 3.6914999999999996e+00 1.7760737655945832e+01 9.0143183001085134e+00 0 0 0
464 2 3.6914999999999996e+00 1.9181596668421495e+01 9.0143183001085134e+00 0 0 0
214 2 4.9220000000000006e+00 1.8471167162183658e+01 6.0382473204423119e+00 0 0 0
3970 1 2.9323804648894125e+00 1.2942320694322587e+01 1.1537253098683211e+01 1 0 0
1323 1 1.8433855099341531e-01 1.1449477268912261e+01 1.1684576477764031e+01 1 0 0
3401 1 5.0099992967041169e+00 1.1595584703257321e+01 1.1452168751127795e+01 1 0 -1
1956 1 2.8537340493688013e+00 1.5902000461368283e+01 1.1942106967365493e+01 1 1 0
682 1 7.2631943845530045e-01 1.7522310271208568e+01 1.1707856170650611e+01 1 0 -1
2068 1 5.3392063987822000e+00 1.7127692736870358e+01 1.2171951801385806e+01 -1 0 -1
3440 1 1.8857062249007822e-01 1.1897236999327378e+01 1.4764553963058518e+01 1 0 0
1304 1 5.3665098693543545e-01 1.1590709825152519e+01 1.7538470834153806e+01 0 0 0
24 1 4.8918196754608640e+00 1.1432175904465412e+01 1.4691994135138017e+01 1 1 0
1406 1 5.3240815232813850e+00 1.1481437395602637e+01 1.7507659247428549e+01 0 0 0
1318 1 2.5835868597413145e+00 1.2883940067103747e+01 1.4185452700059054e+01 2 0 0
2677 1 5.2771982896660141e+00 1.7207373495651986e+01 1.4876759989292031e+01 1 0 -1
1230 1 2.7459189695810271e+00 1.5640451045827152e+01 1.5246818601674493e+01 0 0 1
3925 1 6.2528475748614454e-01 1.7439044021209320e+01 1.4610929656534188e+01 0 -1 0
628 1 5.6186923755940326e+00 1.6528568724882621e+01 2.5800426940268494e+01 0 0 -1
600 1 3.1461683787741759e+00 1.5648639895284662e+01 1.8095408476779731e+01 0 -1 -1
3939 1 9.1081828401755538e-01 1.8075640718521829e+01 2.2686335345365165e+01 0 0 -1
1236 1 5.1635185918246114e+00 1.4201569357522571e+01 1.8669331066702455e+01 0 0 0
547 1 1.0009206035252085e+00 1.3966577019420754e+01 1.8782986572264029e+01 1 1 0
590 1 9.9911342777237389e-01 1.3913540804381594e+01 2.1424048245884769e+01 1 1 0
2556 1 5.5356464455045398e+00 1.3791690219639611e+01 2.1623616716988707e+01 0 0 0
2743 1 1.1895663240443655e+00 1.7115210758119609e+01 2.5435601839926584e+01 1 0 1
3321 1 3.5066040650488102e+00 1.5328326691857811e+01 2.4920555784889615e+01 1 1 0
1378 1 5.9200719343381749e+00 1.9200357722911342e+01 2.2349439099996793e+01 -1 0 0
3289 1 3.3653500086607577e+00 1.8541902491014916e+01 1.8697512765135784e+01 0 -1 0
1948 1 3.3244634338300814e+00 1.8295556725744682e+01 2.1598954107118821e+01 1 0 -1
4003 1 3.1331537188822272e+00 1.5402130086291409e+01 2.2132935718770931e+01 0 1 1
1445 1 5.3309290439792933e+00 1.1072715000036229e+01 2.4787305265198285e+01 0 1 0
692 1 9.1553860935511844e-01 1.1362284787434378e+01 2.2511016472190427e+01 0 -1 0
1973 1 5.3165476495961599e+00 1.0998067709675354e+01 2.2123285591654479e+01 0 0 -1
655 1 3.2139232689725241e+00 1.2801117800508200e+01 2.5550588872287030e+01 1 0 -1
2637 1 3.6786887220275361e-01 1.1549855279706966e+01 2.5164316731127499e+01 1 0 0
768 1 2.8039002988738573e+00 1.0559146489676559e+01 1.8416404254334033e+01 0 0 0
121 2 0.0000000000000000e+00 1.9892026174659328e+01 3.0621763407755784e+00 0 0 0
166 2 2.4610000000000003e+00 1.9892026174659328e+01 3.0621763407755784e+00 0 0 0
213 2 4.9220000000000006e+00 1.9892026174659328e+01 3.0621763407755784e+00 0 0 0
158 2 0.0000000000000000e+00 2.4154603212086325e+01 3.0621763407755784e+00 0 0 0
160 2 0.0000000000000000e+00 2.1312885187134999e+01 3.0621763407755784e+00 0 0 0
162 2 1.2304999999999993e+00 2.2023314693372832e+01 3.0621763407755784e+00 0 0 0
203 2 1.2304999999999993e+00 2.3444173705848499e+01 3.0621763407755784e+00 0 0 0
205 2 2.4610000000000003e+00 2.4154603212086325e+01 3.0621763407755784e+00 0 0 0
207 2 2.4610000000000003e+00 2.1312885187134995e+01 3.0621763407755784e+00 0 0 0
209 2 3.6914999999999996e+00 2.2023314693372832e+01 3.0621763407755784e+00 0 0 0
250 2 3.6915000000000004e+00 2.3444173705848499e+01 3.0621763407755784e+00 0 0 0
252 2 4.9220000000000006e+00 2.4154603212086325e+01 3.0621763407755784e+00 0 0 0
254 2 4.9220000000000006e+00 2.1312885187134995e+01 3.0621763407755784e+00 0 0 0
256 2 6.1524999999999990e+00 2.2023314693372832e+01 3.0621763407755784e+00 0 0 0
774 2 0.0000000000000000e+00 2.5575462224561992e+01 3.0621763407755784e+00 0 0 0
776 2 1.2305000000000001e+00 2.6285891730799833e+01 3.0621763407755784e+00 0 0 0
784 2 1.2305000000000010e+00 2.7706750743275496e+01 3.0621763407755784e+00 0 0 0
788 2 2.4610000000000003e+00 2.5575462224561992e+01 3.0621763407755784e+00 0 0 0
790 2 3.6914999999999991e+00 2.6285891730799833e+01 3.0621763407755784e+00 0 0 0
806 2 3.6914999999999996e+00 2.7706750743275496e+01 3.0621763407755784e+00 0 0 0
810 2 4.9220000000000006e+00 2.5575462224561992e+01 3.0621763407755784e+00 0 0 0
836 2 6.1524999999999990e+00 2.7706750743275496e+01 3.0621763407755784e+00 0 0 0
772 2 0.0000000000000000e+00 2.8417180249513333e+01 3.0621763407755784e+00 0 0 0
786 2 2.4610000000000003e+00 2.8417180249513326e+01 3.0621763407755784e+00 0 0 0
808 2 4.9220000000000006e+00 2.8417180249513336e+01 3.0621763407755784e+00 0 0 0
163 2 1.2305000000000001e+00 2.0602455680897162e+01 6.0382473204423119e+00 0 0 0
210 2 3.6915000000000004e+00 2.0602455680897162e+01 6.0382473204423119e+00 0 0 0
418 2 0.0000000000000000e+00 1.9892026174659328e+01 9.0143183001085134e+00 0 0 0
441 2 2.4610000000000003e+00 1.9892026174659328e+01 9.0143183001085134e+00 0 0 0
465 2 4.9220000000000006e+00 1.9892026174659328e+01 9.0143183001085134e+00 0 0 0
159 2 0.0000000000000000e+00 2.2733744199610655e+01 6.0382473204423119e+00 0 0 0
161 2 0.0000000000000000e+00 2.1312885187134999e+01 6.0382473204423119e+00 0 0 0
204 2 1.2304999999999993e+00 2.3444173705848499e+01 6.0382473204423119e+00 0 0 0
206 2 2.4610000000000003e+00 2.2733744199610655e+01 6.0382473204423119e+00 0 0 0
208 2 2.4610000000000003e+00 2.1312885187134995e+01 6.0382473204423119e+00 0 0 0
251 2 3.6915000000000004e+00 2.3444173705848499e+01 6.0382473204423119e+00 0 0 0
437 2 0.0000000000000000e+00 2.4154603212086325e+01 9.0143183001085134e+00 0 0 0
438 2 0.0000000000000000e+00 2.1312885187134999e+01 9.0143183001085134e+00 0 0 0
439 2 1.2304999999999993e+00 2.2023314693372832e+01 9.0143183001085134e+00 0 0 0
460 2 1.2304999999999993e+00 2.3444173705848499e+01 9.0143183001085134e+00 0 0 0
461 2 2.4610000000000003e+00 2.4154603212086325e+01 9.0143183001085134e+00 0 0 0
462 2 2.4610000000000003e+00 2.1312885187134995e+01 9.0143183001085134e+00 0 0 0
463 2 3.6914999999999996e+00 2.2023314693372832e+01 9.0143183001085134e+00 0 0 0
484 2 3.6915000000000004e+00 2.3444173705848499e+01 9.0143183001085134e+00 0 0 0
253 2 4.9220000000000006e+00 2.2733744199610655e+01 6.0382473204423119e+00 0 0 0
255 2 4.9220000000000006e+00 2.1312885187134995e+01 6.0382473204423119e+00 0 0 0
485 2 4.9220000000000006e+00 2.4154603212086325e+01 9.0143183001085134e+00 0 0 0
486 2 4.9220000000000006e+00 2.1312885187134995e+01 9.0143183001085134e+00 0 0 0
487 2 6.1524999999999990e+00 2.2023314693372832e+01 9.0143183001085134e+00 0 0 0
773 2 0.0000000000000000e+00 2.6996321237037659e+01 6.0382473204423119e+00 0 0 0
775 2 0.0000000000000000e+00 2.5575462224561992e+01 6.0382473204423119e+00 0 0 0
777 2 1.2305000000000001e+00 2.4865032718324155e+01 6.0382473204423119e+00 0 0 0
785 2 1.2305000000000010e+00 2.7706750743275496e+01 6.0382473204423119e+00 0 0 0
787 2 2.4610000000000003e+00 2.6996321237037659e+01 6.0382473204423119e+00 0 0 0
789 2 2.4610000000000003e+00 2.5575462224561992e+01 6.0382473204423119e+00 0 0 0
791 2 3.6914999999999996e+00 2.4865032718324166e+01 6.0382473204423119e+00 0 0 0
807 2 3.6914999999999996e+00 2.7706750743275496e+01 6.0382473204423119e+00 0 0 0
1088 2 0.0000000000000000e+00 2.5575462224561992e+01 9.0143183001085134e+00 0 0 0
1089 2 1.2305000000000001e+00 2.6285891730799833e+01 9.0143183001085134e+00 0 0 0
1093 2 1.2305000000000010e+00 2.7706750743275496e+01 9.0143183001085134e+00 0 0 0
1095 2 2.4610000000000003e+00 2.5575462224561992e+01 9.0143183001085134e+00 0 0 0
1096 2 3.6914999999999991e+00 2.6285891730799833e+01 9.0143183001085134e+00 0 0 0
1104 2 3.6914999999999996e+00 2.7706750743275496e+01 9.0143183001085134e+00 0 0 0
809 2 4.9220000000000006e+00 2.6996321237037659e+01 6.0382473204423119e+00 0 0 0
811 2 4.9220000000000006e+00 2.5575462224561992e+01 6.0382473204423119e+00 0 0 0
813 2 6.1524999999999990e+00 2.4865032718324155e+01 6.0382473204423119e+00 0 0 0
837 2 6.1524999999999990e+00 2.7706750743275496e+01 6.0382473204423119e+00 0 0 0
1106 2 4.9220000000000006e+00 2.5575462224561992e+01 9.0143183001085134e+00 0 0 0
1119 2 6.1524999999999990e+00 2.7706750743275496e+01 9.0143183001085134e+00 0 0 0
783 2 1.2304999999999993e+00 2.9127609755751163e+01 6.0382473204423119e+00 0 0 0
805 2 3.6914999999999991e+00 2.9127609755751152e+01 6.0382473204423119e+00 0 0 0
1087 2 0.0000000000000000e+00 2.8417180249513333e+01 9.0143183001085134e+00 0 0 0
1094 2 2.4610000000000003e+00 2.8417180249513326e+01 9.0143183001085134e+00 0 0 0
835 2 6.1524999999999981e+00 2.9127609755751152e+01 6.0382473204423119e+00 0 0 0
1105 2 4.9220000000000006e+00 2.8417180249513336e+01 9.0143183001085134e+00 0 0 0
3999 1 1.6386569782554252e+00 2.3198273407302441e+01 1.1820449993948927e+01 0 0 0
3955 1 4.2095980232193453e+00 2.1879980189161643e+01 1.1746761647740135e+01 1 1 0
3909 1 4.5442971793855441e-01 2.0376689322804879e+01 1.1604695785288252e+01 1 0 0
3393 1 5.5251419167526272e-01 2.7363055210317608e+01 1.1486842808904465e+01 0 0 1
2608 1 2.8335848598929529e+00 2.5824589712044922e+01 1.1857524212919664e+01 1 0 0
1917 1 5.8995224757349556e+00 1.9683216914543721e+01 1.1656833557005182e+01 0 0 0
2038 1 5.8443242294538482e+00 2.6611628591454703e+01 1.2000531487559199e+01 0 0 0
2681 1 6.0244460945341878e+00 2.3712590114726346e+01 1.1312080574567698e+01 1 1 0
13 1 5.8671391985351831e-02 2.5363273509495059e+01 1.3847740549253627e+01 1 0 0
1391 1 3.9531278587498555e+00 2.1881734596597571e+01 1.4739179902322167e+01 1 0 0
19 1 1.6193660241460626e+00 2.1685208510145113e+01 1.6422120740479620e+01 0 0 0
3367 1 7.9354856736133350e-01 2.7318549964870442e+01 2.5056824884142046e+01 1 0 0
2597 1 1.6309557401082153e+00 2.6398703489744740e+01 2.2265271238980944e+01 2 0 0
1412 1 4.7324744946239292e+00 2.4443380590561947e+01 1.5939991772379178e+01 0 1 1
3989 1 2.4826981057012940e+00 2.6395511467448063e+01 1.9336501794903491e+01 1 -1 0
711 1 3.1301701073977539e+00 2.9270377823754874e+01 2.5153314584695238e+01 0 -1 0
2568 1 1.7263748321551087e+00 2.8259190922682762e+01 1.6541616073299025e+01 0 0 0
672 1 2.7967571013296761e+00 2.6323688270262444e+01 1.4726285852441226e+01 1 0 -1
3968 1 1.3091314588183172e+00 2.3460935927871315e+01 2.3066387040629131e+01 1 0 0
605 1 3.2976645585148616e+00 2.8829330759895633e+01 2.1874661536321078e+01 0 0 -1
3279 1 2.0049914635854109e+00 2.2786692150714313e+01 1.9519395812504783e+01 1 0 0
1409 1 2.5999124201572341e+00 2.1083281216728864e+01 2.2949675076482052e+01 1 0 -1
3979 1 5.1647154306816185e+00 2.6321380128804073e+01 2.0842092936600011e+01 0 0 0
1298 1 4.1216208493063551e+00 2.4568360139074631e+01 2.2858659887660700e+01 0 0 1
2749 1 4.2037091161306606e+00 2.6563560800444971e+01 2.5332092569641596e+01 1 0 0
3358 1 5.8328101855868182e+00 2.2077319138993147e+01 2.2087002403872724e+01 0 -1 1
3412 1 4.3580714114364669e+00 2.4188267298719126e+01 1.8614711570419239e+01 0 0 0
1928 1 5.9934080443478006e+00 1.9816890502990415e+01 1.8311544970100535e+01 1 0 -1
2053 1 5.4090249206794621e+00 2.3493051386273006e+01 2.5325057695944423e+01 0 -1 -2
2728 1 4.2175144158684832e+00 2.0829224063781517e+01 2.5626525509701132e+01 1 0 0
1431 1 1.1767423946058297e+00 2.0024427337967797e+01 1.8638631785917717e+01 0 0 1
743 1 1.5193973159952865e+00 1.9994420682117447e+01 2.5493326642693781e+01 0 0 0
770 1 5.6369102148737982e+00 1.9926556842973540e+01 1.5476823775156891e+01 1 0 1
3294 1 5.1448521731877692e+00 2.8407212723170005e+01 1.4605066665553478e+01 -1 0 0
3364 1 9.1593646719369468e-02 2.4550470740810805e+01 2.5448012387492419e+01 1 1 0
2566 1 6.0302791954872319e+00 2.8871172252786469e+01 2.4921377512427178e+01 0 0 -1
3338 1 7.2907248712553441e-01 2.0176463246397599e+01 1.4373599022860070e+01 0 0 -1
759 1 5.9503982100864219e+00 2.9345158077554260e+01 1.9081382270402436e+01 0 0 0
780 2 0.0000000000000000e+00 2.9838039261988989e+01 3.0621763407755784e+00 0 0 0
782 2 1.2304999999999993e+00 3.0548468768226829e+01 3.0621763407755784e+00 0 0 0
802 2 2.4610000000000003e+00 2.9838039261988989e+01 3.0621763407755784e+00 0 0 0
804 2 3.6915000000000004e+00 3.0548468768226829e+01 3.0621763407755784e+00 0 0 0
832 2 4.9220000000000006e+00 2.9838039261988989e+01 3.0621763407755784e+00 0 0 0
778 2 0.0000000000000000e+00 3.2679757286940330e+01 3.0621763407755784e+00 0 0 0
794 2 0.0000000000000000e+00 3.4100616299415996e+01 3.0621763407755784e+00 0 0 0
798 2 1.2304999999999993e+00 3.1969327780702493e+01 3.0621763407755784e+00 0 0 0
800 2 2.4610000000000003e+00 3.2679757286940337e+01 3.0621763407755784e+00 0 0 0
824 2 2.4609999999999985e+00 3.4100616299415996e+01 3.0621763407755784e+00 0 0 0
828 2 3.6914999999999996e+00 3.1969327780702493e+01 3.0621763407755784e+00 0 0 0
830 2 4.9220000000000015e+00 3.2679757286940337e+01 3.0621763407755784e+00 0 0 0
862 2 4.9220000000000006e+00 3.4100616299415996e+01 3.0621763407755784e+00 0 0 0
796 2 1.2305000000000010e+00 3.4811045805653833e+01 3.0621763407755784e+00 0 0 0
826 2 3.6915000000000018e+00 3.4811045805653833e+01 3.0621763407755784e+00 0 0 0
792 2 0.0000000000000000e+00 3.6942334324367337e+01 3.0621763407755784e+00 0 0 0
816 2 0.0000000000000000e+00 3.8363193336842990e+01 3.0621763407755784e+00 0 0 0
820 2 1.2304999999999993e+00 3.6231904818129486e+01 3.0621763407755784e+00 0 0 0
822 2 2.4610000000000021e+00 3.6942334324367337e+01 3.0621763407755784e+00 0 0 0
854 2 2.4610000000000003e+00 3.8363193336842990e+01 3.0621763407755784e+00 0 0 0
858 2 3.6914999999999996e+00 3.6231904818129486e+01 3.0621763407755784e+00 0 0 0
860 2 4.9220000000000006e+00 3.6942334324367316e+01 3.0621763407755784e+00 0 0 0
899 2 4.9220000000000006e+00 3.8363193336842990e+01 3.0621763407755784e+00 0 0 0
818 2 1.2305000000000010e+00 3.9073622843080841e+01 3.0621763407755784e+00 0 0 0
856 2 3.6915000000000018e+00 3.9073622843080820e+01 3.0621763407755784e+00 0 0 0
779 2 0.0000000000000000e+00 3.1258898274464656e+01 6.0382473204423119e+00 0 0 0
781 2 0.0000000000000000e+00 2.9838039261988989e+01 6.0382473204423119e+00 0 0 0
801 2 2.4609999999999985e+00 3.1258898274464656e+01 6.0382473204423119e+00 0 0 0
803 2 2.4610000000000003e+00 2.9838039261988989e+01 6.0382473204423119e+00 0 0 0
1091 2 0.0000000000000000e+00 2.9838039261988989e+01 9.0143183001085134e+00 0 0 0
1092 2 1.2304999999999993e+00 3.0548468768226829e+01 9.0143183001085134e+00 0 0 0
1102 2 2.4610000000000003e+00 2.9838039261988989e+01 9.0143183001085134e+00 0 0 0
1103 2 3.6915000000000004e+00 3.0548468768226829e+01 9.0143183001085134e+00 0 0 0
831 2 4.9219999999999979e+00 3.1258898274464656e+01 6.0382473204423119e+00 0 0 0
833 2 4.9220000000000006e+00 2.9838039261988989e+01 6.0382473204423119e+00 0 0 0
1117 2 4.9220000000000006e+00 2.9838039261988989e+01 9.0143183001085134e+00 0 0 0