LAMMPS data file via write_data, version 16 Mar 2018, timestep = 8000000

4055 atoms
2 atom types

0.0000000000000000e+00 4.9219999999999999e+01 xlo xhi
0.0000000000000000e+00 4.9019635930410494e+01 ylo yhi
1.0979560826553563e+00 2.6842043917332788e+01 zlo zhi

Masses

1 18.015
2 12.01

Atoms # atomic

53 2 0.0000000000000000e+00 2.8417180249513345e+00 2.7204672246620234e+00 0 0 0
55 2 0.0000000000000000e+00 0.0000000000000000e+00 2.7204672246620234e+00 0 0 0
57 2 1.2305000000000001e+00 7.1042950623783474e-01 2.7204672246620234e+00 0 0 0
64 2 1.2305000000000001e+00 2.1312885187134998e+00 2.7204672246620234e+00 0 0 0
66 2 2.4610000000000003e+00 2.8417180249513345e+00 2.7204672246620234e+00 0 0 0
68 2 2.4610000000000003e+00 0.0000000000000000e+00 2.7204672246620234e+00 0 0 0
70 2 3.6915000000000004e+00 7.1042950623783474e-01 2.7204672246620234e+00 0 0 0
85 2 3.6914999999999996e+00 2.1312885187134998e+00 2.7204672246620234e+00 0 0 0
87 2 4.9220000000000006e+00 2.8417180249513332e+00 2.7204672246620234e+00 0 0 0
89 2 4.9220000000000006e+00 0.0000000000000000e+00 2.7204672246620234e+00 0 0 0
60 2 0.0000000000000000e+00 4.2625770374269996e+00 2.7204672246620234e+00 0 0 0
81 2 2.4610000000000003e+00 4.2625770374269996e+00 2.7204672246620234e+00 0 0 0
110 2 4.9220000000000006e+00 4.2625770374269978e+00 2.7204672246620234e+00 0 0 0
62 2 1.2305000000000001e+00 4.9730065436648339e+00 2.7204672246620234e+00 0 0 0
77 2 1.2305000000000001e+00 6.3938655561404980e+00 2.7204672246620234e+00 0 0 0
83 2 3.6914999999999996e+00 4.9730065436648339e+00 2.7204672246620234e+00 0 0 0
106 2 3.6914999999999996e+00 6.3938655561404980e+00 2.7204672246620234e+00 0 0 0
58 2 0.0000000000000000e+00 7.1042950623783341e+00 2.7204672246620234e+00 0 0 0
73 2 0.0000000000000000e+00 8.5251540748539991e+00 2.7204672246620234e+00 0 0 0
75 2 1.2305000000000001e+00 9.2355835810918343e+00 2.7204672246620234e+00 0 0 0
79 2 2.4610000000000003e+00 7.1042950623783341e+00 2.7204672246620234e+00 0 0 0
102 2 2.4610000000000003e+00 8.5251540748539991e+00 2.7204672246620234e+00 0 0 0
104 2 3.6915000000000004e+00 9.2355835810918343e+00 2.7204672246620234e+00 0 0 0
108 2 4.9220000000000006e+00 7.1042950623783341e+00 2.7204672246620234e+00 0 0 0
139 2 4.9220000000000006e+00 8.5251540748539991e+00 2.7204672246620234e+00 0 0 0
54 2 0.0000000000000000e+00 1.4208590124756650e+00 5.7897695046978193e+00 0 0 0
56 2 0.0000000000000000e+00 0.0000000000000000e+00 5.7897695046978193e+00 0 0 0
65 2 1.2305000000000001e+00 2.1312885187134998e+00 5.7897695046978193e+00 0 0 0
67 2 2.4610000000000003e+00 1.4208590124756650e+00 5.7897695046978193e+00 0 0 0
69 2 2.4610000000000003e+00 0.0000000000000000e+00 5.7897695046978193e+00 0 0 0
86 2 3.6914999999999996e+00 2.1312885187134998e+00 5.7897695046978193e+00 0 0 0
382 2 0.0000000000000000e+00 2.8417180249513345e+00 8.8590717847284228e+00 0 0 0
383 2 0.0000000000000000e+00 0.0000000000000000e+00 8.8590717847284228e+00 0 0 0
384 2 1.2305000000000001e+00 7.1042950623783474e-01 8.8590717847284228e+00 0 0 0
388 2 1.2305000000000001e+00 2.1312885187134998e+00 8.8590717847284228e+00 0 0 0
389 2 2.4610000000000003e+00 2.8417180249513345e+00 8.8590717847284228e+00 0 0 0
390 2 2.4610000000000003e+00 0.0000000000000000e+00 8.8590717847284228e+00 0 0 0
391 2 3.6915000000000004e+00 7.1042950623783474e-01 8.8590717847284228e+00 0 0 0
399 2 3.6914999999999996e+00 2.1312885187134998e+00 8.8590717847284228e+00 0 0 0
88 2 4.9220000000000006e+00 1.4208590124756650e+00 5.7897695046978193e+00 0 0 0
90 2 4.9220000000000006e+00 0.0000000000000000e+00 5.7897695046978193e+00 0 0 0
400 2 4.9220000000000006e+00 2.8417180249513332e+00 8.8590717847284228e+00 0 0 0
401 2 4.9220000000000006e+00 0.0000000000000000e+00 8.8590717847284228e+00 0 0 0
61 2 0.0000000000000000e+00 4.2625770374269996e+00 5.7897695046978193e+00 0 0 0
63 2 1.2305000000000001e+00 3.5521475311891644e+00 5.7897695046978193e+00 0 0 0
82 2 2.4610000000000003e+00 4.2625770374269996e+00 5.7897695046978193e+00 0 0 0
84 2 3.6914999999999996e+00 3.5521475311891644e+00 5.7897695046978193e+00 0 0 0
386 2 0.0000000000000000e+00 4.2625770374269996e+00 8.8590717847284228e+00 0 0 0
397 2 2.4610000000000003e+00 4.2625770374269996e+00 8.8590717847284228e+00 0 0 0
111 2 4.9220000000000006e+00 4.2625770374269978e+00 5.7897695046978193e+00 0 0 0
412 2 4.9220000000000006e+00 4.2625770374269978e+00 8.8590717847284228e+00 0 0 0
59 2 0.0000000000000000e+00 5.6834360499026637e+00 5.7897695046978193e+00 0 0 0
78 2 1.2305000000000001e+00 6.3938655561404980e+00 5.7897695046978193e+00 0 0 0
80 2 2.4610000000000003e+00 5.6834360499026637e+00 5.7897695046978193e+00 0 0 0
107 2 3.6914999999999996e+00 6.3938655561404980e+00 5.7897695046978193e+00 0 0 0
387 2 1.2305000000000001e+00 4.9730065436648339e+00 8.8590717847284228e+00 0 0 0
395 2 1.2305000000000001e+00 6.3938655561404980e+00 8.8590717847284228e+00 0 0 0
398 2 3.6914999999999996e+00 4.9730065436648339e+00 8.8590717847284228e+00 0 0 0
410 2 3.6914999999999996e+00 6.3938655561404980e+00 8.8590717847284228e+00 0 0 0
109 2 4.9220000000000006e+00 5.6834360499026637e+00 5.7897695046978193e+00 0 0 0
74 2 0.0000000000000000e+00 8.5251540748539991e+00 5.7897695046978193e+00 0 0 0
76 2 1.2305000000000001e+00 7.8147245686161639e+00 5.7897695046978193e+00 0 0 0
103 2 2.4610000000000003e+00 8.5251540748539991e+00 5.7897695046978193e+00 0 0 0
105 2 3.6914999999999996e+00 7.8147245686161639e+00 5.7897695046978193e+00 0 0 0
385 2 0.0000000000000000e+00 7.1042950623783341e+00 8.8590717847284228e+00 0 0 0
393 2 0.0000000000000000e+00 8.5251540748539991e+00 8.8590717847284228e+00 0 0 0
394 2 1.2305000000000001e+00 9.2355835810918343e+00 8.8590717847284228e+00 0 0 0
396 2 2.4610000000000003e+00 7.1042950623783341e+00 8.8590717847284228e+00 0 0 0
408 2 2.4610000000000003e+00 8.5251540748539991e+00 8.8590717847284228e+00 0 0 0
409 2 3.6915000000000004e+00 9.2355835810918343e+00 8.8590717847284228e+00 0 0 0
140 2 4.9220000000000006e+00 8.5251540748539991e+00 5.7897695046978193e+00 0 0 0
411 2 4.9220000000000006e+00 7.1042950623783341e+00 8.8590717847284228e+00 0 0 0
427 2 4.9220000000000006e+00 8.5251540748539991e+00 8.8590717847284228e+00 0 0 0
3911 1 5.3464847354809235e+00 2.2001017105012943e+00 1.1867881121156728e+01 0 2 -1
2055 1 3.0129689135677817e+00 1.1156813347604428e+00 1.1240863395162371e+01 1 0 0
2676 1 8.0146450793548263e-01 2.3495496297329450e+00 1.1873263581715308e+01 0 1 0
1242 1 2.6802265575606049e-01 5.2115542780176085e+00 1.1166667564357926e+01 0 1 0
663 1 2.9351442793475351e+00 6.1393795948216319e+00 1.1780853812542029e+01 0 0 0
2688 1 4.9963441377943925e+00 4.9716198382273573e+00 1.1471680175929341e+01 0 0 0
1281 1 3.5452597853126191e+00 8.9657003919619473e+00 1.1675871604386435e+01 1 0 1
1390 1 2.6775468999526288e+00 8.8899933977021828e-01 1.5481620740241627e+01 1 0 0
3282 1 2.8994136143575067e+00 9.5831575532789284e+00 2.5437786266472102e+01 1 0 0
3916 1 5.0026384391252776e+00 2.3143810496555544e+00 1.4539803437585977e+01 1 0 0
2739 1 2.8846594064799378e+00 9.9584655389159149e-01 1.8113535859557075e+01 1 1 0
1927 1 4.8799480920904008e+00 5.0586463748445469e+00 1.5107581088876344e+01 0 -1 0
2000 1 2.6627466746088211e+00 6.3405905452154760e+00 1.4470324321504762e+01 0 0 0
3255 1 2.8798946760007724e+00 9.2035237731442798e+00 1.4923489283478746e+01 1 1 1
1966 1 1.0896096379311795e-01 4.9318853686310806e+00 1.5528957578058511e+01 1 0 0
769 1 4.7680633763677598e+00 5.1367231795205130e+00 1.7837525694767976e+01 1 0 0
1985 1 3.1277746115597322e+00 9.3439574786494433e+00 1.7935276752228610e+01 1 0 0
649 1 2.7951174103835243e+00 3.8189429972785760e+00 1.8903583865232001e+01 1 0 1
2640 1 2.7458299048067802e+00 4.1396226428213660e+00 2.1721981431151207e+01 1 0 -1
3362 1 2.8103902935914178e+00 1.4269272821012755e+00 2.2674923629930028e+01 0 1 1
3973 1 5.4092861890113297e-01 5.5408711397397088e+00 1.8163590661800484e+01 1 0 -1
1258 1 8.2966273481349495e-01 8.0772351405885559e+00 1.9011188199817404e+01 0 1 1
4008 1 2.7689706055990904e+00 9.4733088599986264e+00 2.2725546624120938e+01 0 1 -1
2607 1 5.9557902785006978e-01 8.0371538630072088e+00 2.1980039761974957e+01 0 0 0
592 1 5.1304614159071988e+00 8.1707251106452148e+00 2.1859517299320849e+01 0 0 -1
685 1 5.1012286757017149e+00 7.8811004390679180e+00 1.8948408955295463e+01 0 0 0
1381 1 6.8784146629503895e-01 5.3364212691085697e+00 2.2666996603765902e+01 1 -1 0
2757 1 6.5834668873111979e-01 2.9403135843623476e+00 2.6230465335357877e+01 1 1 0
3373 1 5.2543300782627371e+00 2.6463847093633626e+00 2.5929866164908731e+01 1 0 -1
1295 1 2.9779712790099429e+00 1.7119076713394217e+00 2.5348636810042699e+01 0 0 -1
3274 1 4.9710298471919145e+00 5.2965598350152385e+00 2.2501251480863409e+01 1 0 0
3344 1 5.2033741838970737e+00 5.3869771050917183e+00 2.5470921172897008e+01 0 0 -1
635 1 5.8047303302393560e-01 5.5018366255177265e+00 2.5355761185795068e+01 0 1 0
4031 1 2.8597365993159616e+00 6.9206341110146674e+00 2.5840621437593519e+01 0 0 0
2583 1 2.6827449060719893e-01 2.2741874721986655e+00 1.4647554291257821e+01 0 1 -1
71 2 0.0000000000000000e+00 1.1366872099805333e+01 2.7204672246620234e+00 0 0 0
94 2 0.0000000000000000e+00 1.2787731112280996e+01 2.7204672246620234e+00 0 0 0
96 2 1.2305000000000001e+00 1.3498160618518829e+01 2.7204672246620234e+00 0 0 0
98 2 1.2305000000000001e+00 1.0656442593567498e+01 2.7204672246620234e+00 0 0 0
100 2 2.4610000000000003e+00 1.1366872099805333e+01 2.7204672246620234e+00 0 0 0
131 2 2.4610000000000003e+00 1.2787731112280996e+01 2.7204672246620234e+00 0 0 0
133 2 3.6915000000000004e+00 1.3498160618518829e+01 2.7204672246620234e+00 0 0 0
135 2 3.6914999999999996e+00 1.0656442593567499e+01 2.7204672246620234e+00 0 0 0
137 2 4.9220000000000006e+00 1.1366872099805333e+01 2.7204672246620234e+00 0 0 0
176 2 4.9220000000000006e+00 1.2787731112280996e+01 2.7204672246620234e+00 0 0 0
178 2 6.1524999999999990e+00 1.3498160618518829e+01 2.7204672246620234e+00 0 0 0
92 2 0.0000000000000000e+00 1.5629449137232333e+01 2.7204672246620234e+00 0 0 0
123 2 0.0000000000000000e+00 1.7050308149707998e+01 2.7204672246620234e+00 0 0 0
127 2 1.2305000000000001e+00 1.4919019630994494e+01 2.7204672246620234e+00 0 0 0
129 2 2.4610000000000003e+00 1.5629449137232328e+01 2.7204672246620234e+00 0 0 0
168 2 2.4610000000000003e+00 1.7050308149707998e+01 2.7204672246620234e+00 0 0 0
172 2 3.6915000000000004e+00 1.4919019630994494e+01 2.7204672246620234e+00 0 0 0
174 2 4.9220000000000006e+00 1.5629449137232333e+01 2.7204672246620234e+00 0 0 0
215 2 4.9220000000000006e+00 1.7050308149707998e+01 2.7204672246620234e+00 0 0 0
219 2 6.1524999999999990e+00 1.4919019630994494e+01 2.7204672246620234e+00 0 0 0
125 2 1.2305000000000001e+00 1.7760737655945832e+01 2.7204672246620234e+00 0 0 0
164 2 1.2305000000000001e+00 1.9181596668421495e+01 2.7204672246620234e+00 0 0 0
170 2 3.6914999999999996e+00 1.7760737655945832e+01 2.7204672246620234e+00 0 0 0
211 2 3.6914999999999996e+00 1.9181596668421495e+01 2.7204672246620234e+00 0 0 0
72 2 0.0000000000000000e+00 9.9460130873296642e+00 5.7897695046978193e+00 0 0 0
101 2 2.4610000000000003e+00 9.9460130873296642e+00 5.7897695046978193e+00 0 0 0
138 2 4.9220000000000006e+00 9.9460130873296642e+00 5.7897695046978193e+00 0 0 0
95 2 0.0000000000000000e+00 1.2787731112280996e+01 5.7897695046978193e+00 0 0 0
97 2 1.2305000000000001e+00 1.2077301606043163e+01 5.7897695046978193e+00 0 0 0
99 2 1.2305000000000001e+00 1.0656442593567498e+01 5.7897695046978193e+00 0 0 0
132 2 2.4610000000000003e+00 1.2787731112280996e+01 5.7897695046978193e+00 0 0 0
134 2 3.6914999999999996e+00 1.2077301606043163e+01 5.7897695046978193e+00 0 0 0
136 2 3.6914999999999996e+00 1.0656442593567499e+01 5.7897695046978193e+00 0 0 0
392 2 0.0000000000000000e+00 1.1366872099805333e+01 8.8590717847284228e+00 0 0 0
404 2 0.0000000000000000e+00 1.2787731112280996e+01 8.8590717847284228e+00 0 0 0
405 2 1.2305000000000001e+00 1.3498160618518829e+01 8.8590717847284228e+00 0 0 0
406 2 1.2305000000000001e+00 1.0656442593567498e+01 8.8590717847284228e+00 0 0 0
407 2 2.4610000000000003e+00 1.1366872099805333e+01 8.8590717847284228e+00 0 0 0
423 2 2.4610000000000003e+00 1.2787731112280996e+01 8.8590717847284228e+00 0 0 0
424 2 3.6915000000000004e+00 1.3498160618518829e+01 8.8590717847284228e+00 0 0 0
425 2 3.6914999999999996e+00 1.0656442593567499e+01 8.8590717847284228e+00 0 0 0
177 2 4.9220000000000006e+00 1.2787731112280996e+01 5.7897695046978193e+00 0 0 0
426 2 4.9220000000000006e+00 1.1366872099805333e+01 8.8590717847284228e+00 0 0 0
446 2 4.9220000000000006e+00 1.2787731112280996e+01 8.8590717847284228e+00 0 0 0
447 2 6.1524999999999990e+00 1.3498160618518829e+01 8.8590717847284228e+00 0 0 0
93 2 0.0000000000000000e+00 1.4208590124756663e+01 5.7897695046978193e+00 0 0 0
130 2 2.4610000000000003e+00 1.4208590124756663e+01 5.7897695046978193e+00 0 0 0
175 2 4.9220000000000006e+00 1.4208590124756663e+01 5.7897695046978193e+00 0 0 0
124 2 0.0000000000000000e+00 1.7050308149707998e+01 5.7897695046978193e+00 0 0 0
126 2 1.2305000000000001e+00 1.6339878643470165e+01 5.7897695046978193e+00 0 0 0
128 2 1.2305000000000001e+00 1.4919019630994494e+01 5.7897695046978193e+00 0 0 0
169 2 2.4610000000000003e+00 1.7050308149707998e+01 5.7897695046978193e+00 0 0 0
171 2 3.6915000000000004e+00 1.6339878643470165e+01 5.7897695046978193e+00 0 0 0
173 2 3.6915000000000004e+00 1.4919019630994494e+01 5.7897695046978193e+00 0 0 0
403 2 0.0000000000000000e+00 1.5629449137232333e+01 8.8590717847284228e+00 0 0 0
419 2 0.0000000000000000e+00 1.7050308149707998e+01 8.8590717847284228e+00 0 0 0
421 2 1.2305000000000001e+00 1.4919019630994494e+01 8.8590717847284228e+00 0 0 0
422 2 2.4610000000000003e+00 1.5629449137232328e+01 8.8590717847284228e+00 0 0 0
442 2 2.4610000000000003e+00 1.7050308149707998e+01 8.8590717847284228e+00 0 0 0
444 2 3.6915000000000004e+00 1.4919019630994494e+01 8.8590717847284228e+00 0 0 0
216 2 4.9220000000000006e+00 1.7050308149707998e+01 5.7897695046978193e+00 0 0 0
220 2 6.1524999999999990e+00 1.4919019630994494e+01 5.7897695046978193e+00 0 0 0
445 2 4.9220000000000006e+00 1.5629449137232333e+01 8.8590717847284228e+00 0 0 0
466 2 4.9220000000000006e+00 1.7050308149707998e+01 8.8590717847284228e+00 0 0 0
468 2 6.1524999999999990e+00 1.4919019630994494e+01 8.8590717847284228e+00 0 0 0
122 2 0.0000000000000000e+00 1.8471167162183658e+01 5.7897695046978193e+00 0 0 0
165 2 1.2305000000000001e+00 1.9181596668421495e+01 5.7897695046978193e+00 0 0 0
167 2 2.4610000000000003e+00 1.8471167162183658e+01 5.7897695046978193e+00 0 0 0
212 2 3.6914999999999996e+00 1.9181596668421495e+01 5.7897695046978193e+00 0 0 0
420 2 1.2305000000000001e+00 1.7760737655945832e+01 8.8590717847284228e+00 0 0 0
440 2 1.2305000000000001e+00 1.9181596668421495e+01 8.8590717847284228e+00 0 0 0
443 2 3.6914999999999996e+00 1.7760737655945832e+01 8.8590717847284228e+00 0 0 0
464 2 3.6914999999999996e+00 1.9181596668421495e+01 8.8590717847284228e+00 0 0 0
214 2 4.9220000000000006e+00 1.8471167162183658e+01 5.7897695046978193e+00 0 0 0
601 1 1.2375548941035728e+00 1.3737445765438114e+01 1.1478813022633419e+01 0 0 0
2113 1 1.0021349050951573e+00 1.0696465259277652e+01 1.1984446092557631e+01 0 1 -1
2718 1 3.5105781790121102e+00 1.8038898636747358e+01 1.1555565843732859e+01 0 0 -1
607 1 3.7770024488866962e+00 1.5230733108615986e+01 1.1146105399935395e+01 1 0 0
1325 1 8.9259800685527813e-01 1.9339326698963855e+01 1.1655695296150929e+01 1 1 -1
24 1 5.0322305072305751e+00 1.3173825346379450e+01 1.5102636966589644e+01 1 1 0
3440 1 7.9920709084632446e-01 1.3493123593157771e+01 1.5486872503587479e+01 1 0 0
1406 1 5.0984157144434485e+00 1.3345278317157582e+01 1.7899616802546937e+01 0 0 0
2677 1 5.0814059981002409e+00 1.8768879372469957e+01 1.4173401588705202e+01 1 0 -1
3262 1 3.1215652390620535e-01 1.9096622976110780e+01 2.6083632344085942e+01 0 0 -1
1380 1 2.7749899685816914e+00 1.5374987754641950e+01 2.6256253706725737e+01 1 1 -1
3925 1 8.0984515711414096e-01 1.8822773969422752e+01 1.4429943911283649e+01 0 -1 0
1230 1 2.9507708393193655e+00 1.7212745237776094e+01 1.5027661169871701e+01 0 0 1
600 1 2.7740906331556321e+00 1.7531488439559375e+01 1.7923021894247150e+01 0 -1 -1
3285 1 4.0433520121250233e-01 1.0682644753134657e+01 1.4621702136388150e+01 1 0 -1
1304 1 7.8401584178145289e-01 1.3175581688559431e+01 1.8243724631586616e+01 0 0 0
768 1 3.2111316311304399e+00 1.1709619208979394e+01 1.8982551669351942e+01 0 0 0
27 1 2.8703823669256008e+00 1.1846358541941033e+01 2.1659269596183918e+01 1 -1 0
692 1 6.0961037473774571e-01 1.3506084150896001e+01 2.2723238306320376e+01 0 -1 0
1236 1 5.1421587933232757e+00 1.5984311506415725e+01 1.8754803363256677e+01 0 0 0
2556 1 4.7808146314083206e+00 1.5962882224379459e+01 2.1452647653291088e+01 0 0 0
590 1 3.2936633870851983e-01 1.6107405019998353e+01 2.1490851032030506e+01 1 1 0
547 1 5.7284051952999915e-01 1.5863356398960221e+01 1.8960992624927755e+01 1 1 0
4003 1 2.4196150553013505e+00 1.7596280412823333e+01 2.2297236772985187e+01 0 1 1
2639 1 9.1746776372167804e-01 1.3350500640173697e+01 2.5371314656469337e+01 1 0 1
1973 1 5.0474456781330606e+00 1.3389990141975911e+01 2.2531776112071128e+01 0 0 -1
3336 1 4.4272239622721193e-01 1.0657047787481760e+01 2.5873646216469517e+01 0 0 0
3437 1 5.0518696881647944e+00 1.1198632255099774e+01 2.5951925062700496e+01 1 0 1
581 1 4.8522108076126687e+00 1.3852413420055344e+01 2.5244459453626426e+01 1 0 0
679 1 4.8638614316265372e+00 1.9089634245033668e+01 2.5882445237768586e+01 0 0 -1
2632 1 2.4728669091351141e+00 1.7913454638733075e+01 2.5088981371166653e+01 0 -1 -1
1318 1 2.9898551101482762e+00 1.4681677286944621e+01 1.4055351648717549e+01 2 0 0
3370 1 5.1891441578537254e+00 1.0753292017349862e+01 1.4130054910894977e+01 0 0 -1
121 2 0.0000000000000000e+00 1.9892026174659328e+01 2.7204672246620234e+00 0 0 0
166 2 2.4610000000000003e+00 1.9892026174659328e+01 2.7204672246620234e+00 0 0 0
213 2 4.9220000000000006e+00 1.9892026174659328e+01 2.7204672246620234e+00 0 0 0
158 2 0.0000000000000000e+00 2.4154603212086325e+01 2.7204672246620234e+00 0 0 0
160 2 0.0000000000000000e+00 2.1312885187134999e+01 2.7204672246620234e+00 0 0 0
162 2 1.2304999999999993e+00 2.2023314693372832e+01 2.7204672246620234e+00 0 0 0
203 2 1.2304999999999993e+00 2.3444173705848499e+01 2.7204672246620234e+00 0 0 0
205 2 2.4610000000000003e+00 2.4154603212086325e+01 2.7204672246620234e+00 0 0 0
207 2 2.4610000000000003e+00 2.1312885187134995e+01 2.7204672246620234e+00 0 0 0
209 2 3.6914999999999996e+00 2.2023314693372832e+01 2.7204672246620234e+00 0 0 0
250 2 3.6915000000000004e+00 2.3444173705848499e+01 2.7204672246620234e+00 0 0 0
252 2 4.9220000000000006e+00 2.4154603212086325e+01 2.7204672246620234e+00 0 0 0
254 2 4.9220000000000006e+00 2.1312885187134995e+01 2.7204672246620234e+00 0 0 0
256 2 6.1524999999999990e+00 2.2023314693372832e+01 2.7204672246620234e+00 0 0 0
774 2 0.0000000000000000e+00 2.5575462224561992e+01 2.7204672246620234e+00 0 0 0
776 2 1.2305000000000001e+00 2.6285891730799833e+01 2.7204672246620234e+00 0 0 0
784 2 1.2305000000000010e+00 2.7706750743275496e+01 2.7204672246620234e+00 0 0 0
788 2 2.4610000000000003e+00 2.5575462224561992e+01 2.7204672246620234e+00 0 0 0
790 2 3.6914999999999991e+00 2.6285891730799833e+01 2.7204672246620234e+00 0 0 0
806 2 3.6914999999999996e+00 2.7706750743275496e+01 2.7204672246620234e+00 0 0 0
810 2 4.9220000000000006e+00 2.5575462224561992e+01 2.7204672246620234e+00 0 0 0
836 2 6.1524999999999990e+00 2.7706750743275496e+01 2.7204672246620234e+00 0 0 0
772 2 0.0000000000000000e+00 2.8417180249513333e+01 2.7204672246620234e+00 0 0 0
786 2 2.4610000000000003e+00 2.8417180249513326e+01 2.7204672246620234e+00 0 0 0
808 2 4.9220000000000006e+00 2.8417180249513336e+01 2.7204672246620234e+00 0 0 0
163 2 1.2305000000000001e+00 2.0602455680897162e+01 5.7897695046978193e+00 0 0 0
210 2 3.6915000000000004e+00 2.0602455680897162e+01 5.7897695046978193e+00 0 0 0
418 2 0.0000000000000000e+00 1.9892026174659328e+01 8.8590717847284228e+00 0 0 0
441 2 2.4610000000000003e+00 1.9892026174659328e+01 8.8590717847284228e+00 0 0 0
465 2 4.9220000000000006e+00 1.9892026174659328e+01 8.8590717847284228e+00 0 0 0
159 2 0.0000000000000000e+00 2.2733744199610655e+01 5.7897695046978193e+00 0 0 0
161 2 0.0000000000000000e+00 2.1312885187134999e+01 5.7897695046978193e+00 0 0 0
204 2 1.2304999999999993e+00 2.3444173705848499e+01 5.7897695046978193e+00 0 0 0
206 2 2.4610000000000003e+00 2.2733744199610655e+01 5.7897695046978193e+00 0 0 0
208 2 2.4610000000000003e+00 2.1312885187134995e+01 5.7897695046978193e+00 0 0 0
251 2 3.6915000000000004e+00 2.3444173705848499e+01 5.7897695046978193e+00 0 0 0
437 2 0.0000000000000000e+00 2.4154603212086325e+01 8.8590717847284228e+00 0 0 0
438 2 0.0000000000000000e+00 2.1312885187134999e+01 8.8590717847284228e+00 0 0 0
439 2 1.2304999999999993e+00 2.2023314693372832e+01 8.8590717847284228e+00 0 0 0
460 2 1.2304999999999993e+00 2.3444173705848499e+01 8.8590717847284228e+00 0 0 0
461 2 2.4610000000000003e+00 2.4154603212086325e+01 8.8590717847284228e+00 0 0 0
462 2 2.4610000000000003e+00 2.1312885187134995e+01 8.8590717847284228e+00 0 0 0
463 2 3.6914999999999996e+00 2.2023314693372832e+01 8.8590717847284228e+00 0 0 0
484 2 3.6915000000000004e+00 2.3444173705848499e+01 8.8590717847284228e+00 0 0 0
253 2 4.9220000000000006e+00 2.2733744199610655e+01 5.7897695046978193e+00 0 0 0
255 2 4.9220000000000006e+00 2.1312885187134995e+01 5.7897695046978193e+00 0 0 0
485 2 4.9220000000000006e+00 2.4154603212086325e+01 8.8590717847284228e+00 0 0 0
486 2 4.9220000000000006e+00 2.1312885187134995e+01 8.8590717847284228e+00 0 0 0
487 2 6.1524999999999990e+00 2.2023314693372832e+01 8.8590717847284228e+00 0 0 0
773 2 0.0000000000000000e+00 2.6996321237037659e+01 5.7897695046978193e+00 0 0 0
775 2 0.0000000000000000e+00 2.5575462224561992e+01 5.7897695046978193e+00 0 0 0
777 2 1.2305000000000001e+00 2.4865032718324155e+01 5.7897695046978193e+00 0 0 0
785 2 1.2305000000000010e+00 2.7706750743275496e+01 5.7897695046978193e+00 0 0 0
787 2 2.4610000000000003e+00 2.6996321237037659e+01 5.7897695046978193e+00 0 0 0
789 2 2.4610000000000003e+00 2.5575462224561992e+01 5.7897695046978193e+00 0 0 0
791 2 3.6914999999999996e+00 2.4865032718324166e+01 5.7897695046978193e+00 0 0 0
807 2 3.6914999999999996e+00 2.7706750743275496e+01 5.7897695046978193e+00 0 0 0
1088 2 0.0000000000000000e+00 2.5575462224561992e+01 8.8590717847284228e+00 0 0 0
1089 2 1.2305000000000001e+00 2.6285891730799833e+01 8.8590717847284228e+00 0 0 0
1093 2 1.2305000000000010e+00 2.7706750743275496e+01 8.8590717847284228e+00 0 0 0
1095 2 2.4610000000000003e+00 2.5575462224561992e+01 8.8590717847284228e+00 0 0 0
1096 2 3.6914999999999991e+00 2.6285891730799833e+01 8.8590717847284228e+00 0 0 0
1104 2 3.6914999999999996e+00 2.7706750743275496e+01 8.8590717847284228e+00 0 0 0
809 2 4.9220000000000006e+00 2.6996321237037659e+01 5.7897695046978193e+00 0 0 0
811 2 4.9220000000000006e+00 2.5575462224561992e+01 5.7897695046978193e+00 0 0 0
813 2 6.1524999999999990e+00 2.4865032718324155e+01 5.7897695046978193e+00 0 0 0
837 2 6.1524999999999990e+00 2.7706750743275496e+01 5.7897695046978193e+00 0 0 0
1106 2 4.9220000000000006e+00 2.5575462224561992e+01 8.8590717847284228e+00 0 0 0
1119 2 6.1524999999999990e+00 2.7706750743275496e+01 8.8590717847284228e+00 0 0 0
783 2 1.2304999999999993e+00 2.9127609755751163e+01 5.7897695046978193e+00 0 0 0
805 2 3.6914999999999991e+00 2.9127609755751152e+01 5.7897695046978193e+00 0 0 0
1087 2 0.0000000000000000e+00 2.8417180249513333e+01 8.8590717847284228e+00 0 0 0
1094 2 2.4610000000000003e+00 2.8417180249513326e+01 8.8590717847284228e+00 0 0 0
835 2 6.1524999999999981e+00 2.9127609755751152e+01 5.7897695046978193e+00 0 0 0
1105 2 4.9220000000000006e+00 2.8417180249513336e+01 8.8590717847284228e+00 0 0 0
752 1 3.3055136248898647e+00 2.3137860697277556e+01 1.1655336800613087e+01 1 0 0
1415 1 7.9606577100656373e-01 2.1863790366231957e+01 1.1253800536138847e+01 0 0 -1
2721 1 2.7880777639072329e+00 2.5863969374913939e+01 1.1813688184607303e+01 1 0 -1
1261 1 3.1606764986142727e-01 2.7159603727890545e+01 1.1758497204863597e+01 2 1 0
1246 1 5.1460051681104568e+00 2.7458146225161649e+01 1.1626097804916194e+01 0 0 1
3342 1 5.7756937536342043e+00 1.9761910564165650e+01 1.1183434353465829e+01 1 1 0
770 1 5.1020467461113377e+00 2.1408535789573236e+01 1.5224488056455625e+01 1 0 1
1391 1 5.1601782147380171e-01 2.1523769830953576e+01 1.5449942355205289e+01 1 0 0
1928 1 5.0372782677468031e+00 2.1567060493569699e+01 1.8115871061705789e+01 1 0 -1
3338 1 2.8319377466415308e+00 2.2848679027292292e+01 1.4456400576162475e+01 0 0 -1
1431 1 5.4398436618984791e-01 2.1707059737741492e+01 1.8137846269473506e+01 0 0 1
1302 1 2.4623108059938965e+00 2.5682130409174725e+01 1.5361741674282220e+01 1 0 -1
2734 1 2.7717705019454373e+00 2.5468611648184865e+01 1.8021103114656377e+01 0 0 1
3311 1 4.7612177351934362e+00 2.7074417205137696e+01 1.4203931131927689e+01 1 0 1
3908 1 1.4557633173082418e-01 2.7065354799739367e+01 1.4561711771247539e+01 0 0 0
3289 1 2.7890105396778444e+00 2.0128302980299342e+01 1.8691627612719216e+01 0 -1 0
3412 1 5.1403896521244432e+00 2.4347152252982749e+01 1.8842390691140253e+01 0 0 0
1949 1 2.6620402809054871e+00 2.5785547956639398e+01 2.5460049916705245e+01 0 0 -1
1409 1 4.8228389643151583e+00 2.4247156986621942e+01 2.1660309825484056e+01 1 0 -1
3946 1 5.2945151916769406e-01 2.4299774966462799e+01 2.1997686492588400e+01 1 0 0
1948 1 2.3946615304984338e+00 2.0391737254318109e+01 2.1409125603922320e+01 1 0 -1
1378 1 4.4798688061489509e+00 2.1552389286252442e+01 2.2356101614609905e+01 -1 0 0
604 1 2.6270124814047047e+00 2.8202252181127147e+01 1.8776055049340535e+01 0 0 1
1243 1 3.0417722655796111e+00 2.8209057749201282e+01 2.1625025176414390e+01 1 0 0
605 1 2.7199846007893087e+00 2.5690594480974550e+01 2.2806458147338063e+01 0 0 -1
3235 1 3.8648182674590914e-01 2.1872369449926122e+01 2.5484740809568301e+01 1 0 0
3939 1 2.6980790250016662e-01 2.1806056558011012e+01 2.2695900608136441e+01 0 0 -1
2020 1 4.6086933244969304e+00 2.1651864090479524e+01 2.5076572966156903e+01 1 0 0
560 1 2.5794175145146978e+00 2.3110069502496867e+01 2.5984010430903929e+01 0 0 0
664 1 4.7494693204985374e+00 2.7443065376141742e+01 2.6094747438086820e+01 1 0 -1
1910 1 3.5384528147014727e-01 2.7458318064234035e+01 2.5901293403144756e+01 1 0 -1
2750 1 8.3631830870113144e-01 2.4261171702933165e+01 1.8964294895609456e+01 1 1 0
3955 1 4.6639982517477243e+00 2.9328887928438018e+01 1.7414253201274427e+01 1 1 0
780 2 0.0000000000000000e+00 2.9838039261988989e+01 2.7204672246620234e+00 0 0 0
782 2 1.2304999999999993e+00 3.0548468768226829e+01 2.7204672246620234e+00 0 0 0
802 2 2.4610000000000003e+00 2.9838039261988989e+01 2.7204672246620234e+00 0 0 0
804 2 3.6915000000000004e+00 3.0548468768226829e+01 2.7204672246620234e+00 0 0 0
832 2 4.9220000000000006e+00 2.9838039261988989e+01 2.7204672246620234e+00 0 0 0
778 2 0.0000000000000000e+00 3.2679757286940330e+01 2.7204672246620234e+00 0 0 0
794 2 0.0000000000000000e+00 3.4100616299415996e+01 2.7204672246620234e+00 0 0 0
798 2 1.2304999999999993e+00 3.1969327780702493e+01 2.7204672246620234e+00 0 0 0
800 2 2.4610000000000003e+00 3.2679757286940337e+01 2.7204672246620234e+00 0 0 0
824 2 2.4609999999999985e+00 3.4100616299415996e+01 2.7204672246620234e+00 0 0 0
828 2 3.6914999999999996e+00 3.1969327780702493e+01 2.7204672246620234e+00 0 0 0
830 2 4.9220000000000015e+00 3.2679757286940337e+01 2.7204672246620234e+00 0 0 0
862 2 4.9220000000000006e+00 3.4100616299415996e+01 2.7204672246620234e+00 0 0 0
796 2 1.2305000000000010e+00 3.4811045805653833e+01 2.7204672246620234e+00 0 0 0
826 2 3.6915000000000018e+00 3.4811045805653833e+01 2.7204672246620234e+00 0 0 0
792 2 0.0000000000000000e+00 3.6942334324367337e+01 2.7204672246620234e+00 0 0 0
816 2 0.0000000000000000e+00 3.8363193336842990e+01 2.7204672246620234e+00 0 0 0
820 2 1.2304999999999993e+00 3.6231904818129486e+01 2.7204672246620234e+00 0 0 0
822 2 2.4610000000000021e+00 3.6942334324367337e+01 2.7204672246620234e+00 0 0 0
854 2 2.4610000000000003e+00 3.8363193336842990e+01 2.7204672246620234e+00 0 0 0
858 2 3.6914999999999996e+00 3.6231904818129486e+01 2.7204672246620234e+00 0 0 0
860 2 4.9220000000000006e+00 3.6942334324367316e+01 2.7204672246620234e+00 0 0 0
899 2 4.9220000000000006e+00 3.8363193336842990e+01 2.7204672246620234e+00 0 0 0
818 2 1.2305000000000010e+00 3.9073622843080841e+01 2.7204672246620234e+00 0 0 0
856 2 3.6915000000000018e+00 3.9073622843080820e+01 2.7204672246620234e+00 0 0 0
779 2 0.0000000000000000e+00 3.1258898274464656e+01 5.7897695046978193e+00 0 0 0
781 2 0.0000000000000000e+00 2.9838039261988989e+01 5.7897695046978193e+00 0 0 0
801 2 2.4609999999999985e+00 3.1258898274464656e+01 5.7897695046978193e+00 0 0 0
803 2 2.4610000000000003e+00 2.9838039261988989e+01 5.7897695046978193e+00 0 0 0
1091 2 0.0000000000000000e+00 2.9838039261988989e+01 8.8590717847284228e+00 0 0 0
1092 2 1.2304999999999993e+00 3.0548468768226829e+01 8.8590717847284228e+00 0 0 0
1102 2 2.4610000000000003e+00 2.9838039261988989e+01 8.8590717847284228e+00 0 0 0
1103 2 3.6915000000000004e+00 3.0548468768226829e+01 8.8590717847284228e+00 0 0 0
831 2 4.9219999999999979e+00 3.1258898274464656e+01 5.7897695046978193e+00 0 0 0
833 2 4.9220000000000006e+00 2.9838039261988989e+01 5.7897695046978193e+00 0 0 0
1117 2 4.9220000000000006e+00 2.9838039261988989e+01 8.8590717847284228e+00 0 0 0
795 2 0.0000000000000000e+00 3.4100616299415996e+01 5.7897695046978193e+00 0 0 0
797 2 1.2304999999999993e+00 3.3390186793178160e+01 5.7897695046978193e+00 0 0 0
799 2 1.2304999999999993e+00 3.1969327780702493e+01 5.7897695046978193e+00 0 0 0
825 2 2.4609999999999985e+00 3.4100616299415996e+01 5.7897695046978193e+00 0 0 0
827 2 3.6914999999999978e+00 3.3390186793178160e+01 5.7897695046978193e+00 0 0 0
829 2 3.6914999999999996e+00 3.1969327780702493e+01 5.7897695046978193e+00 0 0 0